Membrane in water
40155
    1TCq1    O1    1   1.884   1.426  10.796  0.5487 -0.1928 -0.4521
    1TCq1    C1    2   1.847   1.294  10.821 -0.2843 -0.7875  0.1663
    1TCq1    O2    3   1.834   1.202  10.741 -0.4099 -0.3544 -0.2789
    1TCq1    C2    4   1.805   1.296  10.958 -0.2748 -0.4847 -0.5760
    1TCq1    C3    5   1.881   1.361  11.041  0.3671 -0.4603  0.2576
    1TCq1    C4    6   1.848   1.354  11.174  0.1213  0.7526  0.1877
    1TCq1    C5    7   1.744   1.269  11.219  0.4785 -0.7771  0.2288
    1TCq1    C6    8   1.694   1.186  11.129  0.0742  0.5016  0.2067
    1TCq1    C7    9   1.724   1.189  10.996  0.1526 -0.0295 -0.2102
    1TCq1    C8   10   1.606   1.081  11.190  0.3123 -0.1381 -0.3135
    1TCq1    O4   11   1.571   1.082  11.308  0.5885  0.5536  0.1649
    1TCq1    C9   12   1.923   1.431  11.273 -0.0389 -0.5811  1.1239
    1TCq1    O5   13   1.999   1.521  11.227  0.0423  0.1193  0.1032
    1TCq1    O6   14   1.884   1.407  11.393  0.2048 -0.0584 -0.4675
    1TCq1    H1   15   1.862   1.494  10.863 -1.2835 -0.0893 -1.1362
    1TCq1    H2   16   1.965   1.420  11.006  0.5336 -1.3724 -0.9004
    1TCq1    H3   17   1.721   1.265  11.325 -0.2911 -0.2327  0.0829
    1TCq1    H4   18   1.684   1.121  10.922  1.3589 -2.6036  1.5309
    2MPD2     C   19   1.379   0.642  11.109 -0.5692  0.4473  0.4766
    2MPD2    C1   20   1.391   0.710  11.231  0.3075  0.6151  0.0688
    2MPD2    C2   21   1.438   0.838  11.226  0.3443  0.1692 -0.1226
    2MPD2    C3   22   1.476   0.890  11.100 -0.8778  0.4058  0.0065
    2MPD2    C4   23   1.459   0.818  10.986  0.2846  0.3450  0.0218
    2MPD2    C5   24   1.409   0.691  10.987 -0.4326  0.4398 -0.4534
    2MPD2     H   25   1.451   0.903  11.312  2.0251  1.7395 -1.5610
    2MPD2    H1   26   1.478   0.865  10.890  0.2609  1.9970  0.8182
    2MPD2    H2   27   1.345   0.539  11.104 -0.8903  0.5689  0.1653
    2MPD2    H3   28   1.397   0.642  10.891  0.1695 -1.6973  0.5581
    2MPD2     N   29   1.537   1.020  11.087  0.3347  0.3390  0.1992
    2MPD2    H5   30   1.563   1.042  10.991  0.8710  0.8611  0.4659
    2MPD2    N1   31   1.364   0.659  11.360  1.0248  0.4335 -0.5415
    2MPD2    H7   32   1.364   0.728  11.435  0.8179 -0.2751  0.1025
    3TCq1    O1   33   0.484   2.126   9.652  0.3421  0.5172 -0.2125
    3TCq1    C1   34   0.484   2.077   9.783  0.2049 -0.4775  0.0157
    3TCq1    O2   35   0.396   2.101   9.865  0.4494  0.6258  0.1604
    3TCq1    C2   36   0.595   1.992   9.811  0.1677 -0.5424 -0.0933
    3TCq1    C3   37   0.643   1.913   9.715  0.6191 -0.4866  0.0278
    3TCq1    C4   38   0.720   1.807   9.749  0.4746 -0.8495 -0.0049
    3TCq1    C5   39   0.737   1.778   9.883  0.6518 -0.0775  0.1337
    3TCq1    C6   40   0.696   1.868   9.979 -0.1775  0.0758  0.7446
    3TCq1    C7   41   0.626   1.978   9.945  0.0669  0.9116 -0.2076
    3TCq1    C8   42   0.677   1.801  10.106  0.0307 -0.6032  1.1733
    3TCq1    O4   43   0.683   1.677  10.098 -0.3430 -0.5294  0.1243
    3TCq1    C9   44   0.770   1.715   9.647 -0.0429  0.3921 -0.4651
    3TCq1    O5   45   0.874   1.643   9.677  0.1883  0.3225 -1.2591
    3TCq1    O6   46   0.715   1.725   9.535 -0.6863 -0.1315 -0.8623
    3TCq1    H1   47   0.573   2.110   9.614 -0.7571  1.3061 -3.1353
    3TCq1    H2   48   0.618   1.920   9.610 -1.4209  0.9923  0.6314
    3TCq1    H3   49   0.792   1.688   9.907  0.0313 -0.4851  0.0248
    3TCq1    H4   50   0.587   2.053  10.013 -2.3817 -0.1896 -0.3848
    4MPD2     C   51   0.472   1.768  10.565  0.8833 -0.1603  0.1316
    4MPD2    C1   52   0.450   1.895  10.521  0.0906 -0.0990  0.3929
    4MPD2    C2   53   0.513   1.932  10.397 -1.0073  0.6608  0.1546
    4MPD2    C3   54   0.586   1.834  10.325  0.0205 -0.1724  0.5056
    4MPD2    C4   55   0.608   1.708  10.377  0.1513  0.3873  0.1366
    4MPD2    C5   56   0.547   1.675  10.495  0.0309 -0.3283  0.3702
    4MPD2     H   57   0.501   2.037  10.369  2.5555  1.8690  3.1356
    4MPD2    H1   58   0.665   1.626  10.333  0.2687 -0.7076  2.3382
    4MPD2    H2   59   0.428   1.744  10.661  4.0282 -0.4986  1.5050
    4MPD2    H3   60   0.548   1.573  10.532 -1.0397 -0.0738  1.0928
    4MPD2     N   61   0.636   1.884  10.205 -0.0503  0.0922  0.0428
    4MPD2    H5   62   0.615   1.981  10.186 -0.4857 -0.1213 -0.5571
    4MPD2    N1   63   0.395   2.002  10.596  0.0673 -0.2243 -0.4792
    4MPD2    H7   64   0.394   2.094  10.553 -0.2571  0.1159  0.2636
    5TCq1    O1   65   0.986   4.135  10.710 -0.0449 -0.4198  0.2671
    5TCq1    C1   66   0.881   4.057  10.687 -0.2777 -0.2560 -0.0132
    5TCq1    O2   67   0.770   4.088  10.645 -0.2643  0.3592 -0.5739
    5TCq1    C2   68   0.912   3.920  10.720  0.1309  0.3099  0.4473
    5TCq1    C3   69   0.985   3.898  10.834  0.0425  0.3659 -0.3710
    5TCq1    C4   70   1.060   3.784  10.841 -0.2778 -0.4243 -0.1165
    5TCq1    C5   71   1.053   3.687  10.746  0.5261  0.0256  0.5423
    5TCq1    C6   72   0.960   3.707  10.640  0.3902  0.1541  0.1489
    5TCq1    C7   73   0.888   3.823  10.625  0.9325  0.4167  0.0035
    5TCq1    C8   74   0.922   3.586  10.574  0.3977  0.3612 -0.0188
    5TCq1    O4   75   0.960   3.478  10.608  0.4777 -0.5565  0.0504
    5TCq1    C9   76   1.133   3.757  10.964 -0.2090  0.3359  0.8792
    5TCq1    O5   77   1.175   3.639  10.984 -0.4031  0.1359 -0.1239
    5TCq1    O6   78   1.158   3.855  11.040 -0.2454  0.0560 -0.1358
    5TCq1    H1   79   1.069   4.096  10.742 -0.8171 -2.5454 -0.3486
    5TCq1    H2   80   0.998   3.977  10.907  0.4908 -1.2975  1.3387
    5TCq1    H3   81   1.098   3.592  10.773 -2.0943 -2.3828 -3.5388
    5TCq1    H4   82   0.828   3.845  10.538 -0.7969 -3.1010  0.3072
    6MPD2     C   83   0.699   3.539  10.301 -0.5642 -0.5302  0.0528
    6MPD2    C1   84   0.794   3.503  10.386  0.0966 -0.9266  0.6529
    6MPD2    C2   85   0.822   3.367  10.394  0.6985  0.0737  1.1673
    6MPD2    C3   86   0.756   3.279  10.316 -0.4548  0.5343  0.2272
    6MPD2    C4   87   0.659   3.324  10.233 -0.3883 -0.1543 -0.0028
    6MPD2    C5   88   0.616   3.450  10.238 -0.5165 -0.4695 -0.4814
    6MPD2     H   89   0.896   3.319  10.457  1.6449 -0.0659 -0.0578
    6MPD2    H1   90   0.596   3.257  10.174 -0.6659 -1.0478  1.3033
    6MPD2    H2   91   0.677   3.644  10.281 -0.5068 -0.6739 -0.7674
    6MPD2    H3   92   0.545   3.487  10.165  0.3583  2.6328  0.2246
    6MPD2     N   93   0.795   3.144  10.327  0.2037  0.2321 -0.6162
    6MPD2    H5   94   0.861   3.113  10.398  0.0681 -0.4682 -0.7949
    6MPD2    N1   95   0.863   3.608  10.453  0.8359 -0.4146 -0.8038
    6MPD2    H7   96   0.841   3.704  10.431 -0.1808 -0.1635  1.2614
    7TCq1    O1   97   3.745   3.675  13.386 -0.0325  0.0939  0.9582
    7TCq1    C1   98   3.785   3.684  13.256  0.4126  0.0448 -0.0669
    7TCq1    O2   99   3.797   3.785  13.190  0.7392 -0.3892  0.1675
    7TCq1    C2  100   3.870   3.572  13.228  0.4188  0.0187 -0.0669
    7TCq1    C3  101   4.001   3.608  13.208  0.4870 -0.3051 -0.0925
    7TCq1    C4  102   4.093   3.505  13.188  0.2058 -0.4061  1.0519
    7TCq1    C5  103   4.050   3.380  13.214 -0.1633 -0.0030  0.8868
    7TCq1    C6  104   3.919   3.348  13.253  0.2657  0.9246 -0.3349
    7TCq1    C7  105   3.829   3.449  13.266 -0.6260 -0.5872  0.3855
    7TCq1    C8  106   3.889   3.208  13.259 -0.1581  0.6377 -0.3420
    7TCq1    O4  107   3.984   3.131  13.249 -0.2392  0.2352  0.3963
    7TCq1    C9  108   4.229   3.540  13.172 -0.1508 -0.3141  0.4327
    7TCq1    O5  109   4.306   3.445  13.136 -0.0250  0.6090 -0.3572
    7TCq1    O6  110   4.260   3.656  13.198 -0.2749 -0.2943 -0.0378
    7TCq1    H1  111   3.788   3.603  13.436 -2.3373 -1.2626  1.0050
    7TCq1    H2  112   4.029   3.712  13.198 -1.1931  0.1602  0.0165
    7TCq1    H3  113   4.125   3.302  13.218 -1.1641 -0.9414  1.5275
    7TCq1    H4  114   3.723   3.427  13.263 -0.1467 -2.6377 -1.4681
    8MPD2     C  115   3.567   2.822  13.317  0.5988 -0.0001 -0.5744
    8MPD2    C1  116   3.689   2.826  13.257  0.7852  0.1747 -0.2641
    8MPD2    C2  117   3.755   2.947  13.243  0.7951  1.0956 -0.2115
    8MPD2    C3  118   3.707   3.056  13.302 -0.1188 -0.3202 -0.7879
    8MPD2    C4  119   3.579   3.054  13.342  0.5716  0.1604 -0.3731
    8MPD2    C5  120   3.508   2.942  13.351  0.7534 -0.0231 -0.0825
    8MPD2     H  121   3.852   2.952  13.195  1.4961  0.6706  1.1579
    8MPD2    H1  122   3.528   3.141  13.379 -0.3749 -0.0782 -1.1234
    8MPD2    H2  123   3.497   2.741  13.332  1.5048 -1.2096 -2.8600
    8MPD2    H3  124   3.407   2.948  13.388  0.3072 -1.7088 -1.0357
    8MPD2     N  125   3.764   3.182  13.304 -0.9503 -0.3432 -0.4535
    8MPD2    H5  126   3.709   3.260  13.339 -0.2424 -0.1901  0.3194
    8MPD2    N1  127   3.740   2.701  13.204 -0.3597  0.0673 -0.1774
    8MPD2    H7  128   3.682   2.619  13.215  0.6110 -0.4020  1.4190
    9TCq1    O1  129   0.627   1.294  10.344  0.1019 -0.0378 -0.1192
    9TCq1    C1  130   0.749   1.282  10.411 -0.8220  0.1017  1.0498
    9TCq1    O2  131   0.766   1.262  10.529  0.5190 -0.6803 -0.1735
    9TCq1    C2  132   0.852   1.355  10.337  0.1482  0.9621 -0.3194
    9TCq1    C3  133   0.846   1.376  10.204 -0.1263 -0.9819 -0.2191
    9TCq1    C4  134   0.954   1.424  10.141 -0.4252  0.2033  0.6628
    9TCq1    C5  135   1.077   1.438  10.210  0.3095  0.0418  0.2298
    9TCq1    C6  136   1.076   1.417  10.342 -0.3074  0.2062  0.4414
    9TCq1    C7  137   0.968   1.367  10.410 -0.2077 -0.0632 -0.8672
    9TCq1    C8  138   1.205   1.406  10.413 -0.4293  0.1728 -0.0389
    9TCq1    O4  139   1.300   1.406  10.338  0.1536  0.0806 -0.3011
    9TCq1    C9  140   0.942   1.453  10.003 -0.1147 -0.2613  0.0461
    9TCq1    O5  141   0.848   1.395   9.942 -0.3722  0.1131 -0.0107
    9TCq1    O6  142   1.044   1.490   9.937  0.1281 -0.2444 -0.3191
    9TCq1    H1  143   0.635   1.257  10.254  0.7236  0.1384 -0.1373
    9TCq1    H2  144   0.756   1.364  10.145 -0.7452  1.9795  0.1231
    9TCq1    H3  145   1.162   1.494  10.171  2.4216 -0.5917  3.9285
    9TCq1    H4  146   0.969   1.354  10.518  1.6953 -1.1978 -1.0196
   10MPD2     C  147   1.431   1.402  10.616  0.1379 -0.2953 -0.7902
   10MPD2    C1  148   1.303   1.417  10.647 -0.0306  0.0892  0.0537
   10MPD2    C2  149   1.267   1.449  10.775  0.0209 -0.5063  0.8654
   10MPD2    C3  150   1.363   1.466  10.878 -0.7338 -0.5653  0.1648
   10MPD2    C4  151   1.494   1.456  10.842 -0.1929 -0.0248 -0.4841
   10MPD2    C5  152   1.522   1.422  10.713  0.3817  0.2536 -0.2590
   10MPD2     H  153   1.161   1.450  10.797 -0.3996 -0.3799 -1.1073
   10MPD2    H1  154   1.573   1.487  10.909  1.5344  1.5889 -3.2464
   10MPD2    H2  155   1.474   1.386  10.517 -0.6329 -0.4930 -1.0917
   10MPD2    H3  156   1.626   1.396  10.693  0.8441  0.6955  1.6389
   10MPD2     N  157   1.333   1.484  11.014 -0.4314  0.2458 -0.1991
   10MPD2    H5  158   1.412   1.506  11.073 -0.7005  1.0827 -0.1431
   10MPD2    N1  159   1.198   1.409  10.556 -0.1544 -0.2830 -0.4290
   10MPD2    H7  160   1.109   1.429  10.602 -0.8558  0.7305 -2.2544
   11TCq1    O1  161   2.347   1.564  13.386 -0.1177 -0.4453 -0.0730
   11TCq1    C1  162   2.217   1.571  13.417  0.0693 -0.2872 -0.6203
   11TCq1    O2  163   2.139   1.480  13.424 -0.6887  0.5194  0.2892
   11TCq1    C2  164   2.177   1.702  13.467  0.2801  0.1978  0.1121
   11TCq1    C3  165   2.264   1.783  13.526  1.0828  0.3162 -0.3987
   11TCq1    C4  166   2.210   1.897  13.578 -0.2653  0.4139 -0.6115
   11TCq1    C5  167   2.081   1.933  13.582  0.5142 -0.4360 -0.4228
   11TCq1    C6  168   1.998   1.835  13.535 -0.1404  0.0854 -0.3559
   11TCq1    C7  169   2.038   1.718  13.478  0.3024 -0.2447  0.1969
   11TCq1    C8  170   1.857   1.863  13.524 -0.4186 -0.2704 -0.3163
   11TCq1    O4  171   1.822   1.971  13.566  0.4812  0.2851 -0.3404
   11TCq1    C9  172   2.302   1.985  13.638  0.3305 -0.0435 -0.1669
   11TCq1    O5  173   2.255   2.057  13.736  0.4986  0.6577 -0.3236
   11TCq1    O6  174   2.417   1.987  13.592  0.4501 -0.6574  0.4153
   11TCq1    H1  175   2.391   1.650  13.368 -1.1100 -0.1633 -1.1314
   11TCq1    H2  176   2.371   1.773  13.522  1.1941  1.0863  0.5656
   11TCq1    H3  177   2.050   2.028  13.624 -1.5942 -0.4081 -2.0079
   11TCq1    H4  178   1.972   1.639  13.444  0.3501 -0.4545  0.5939
   12MPD2     C  179   1.558   1.853  13.466  0.2767 -0.1325  0.3012
   12MPD2    C1  180   1.643   1.744  13.486  0.0508 -1.0342  0.3455
   12MPD2    C2  181   1.591   1.618  13.480  0.2923  0.0590 -0.4674
   12MPD2    C3  182   1.451   1.592  13.457 -0.3561  0.1410 -0.2360
   12MPD2    C4  183   1.365   1.703  13.446 -0.7815 -0.5215  0.4580
   12MPD2    C5  184   1.416   1.830  13.457 -0.1557 -0.4888 -0.2947
   12MPD2     H  185   1.659   1.535  13.490  2.4076  1.6958 -1.3550
   12MPD2    H1  186   1.258   1.689  13.460 -0.8395 -0.6548 -0.1129
   12MPD2    H2  187   1.597   1.954  13.469  1.3048 -0.5048 -0.5644
   12MPD2    H3  188   1.342   1.906  13.439  1.8476  1.3519 -0.8267
   12MPD2     N  189   1.401   1.463  13.451 -0.2480 -0.2531 -0.4805
   12MPD2    H5  190   1.302   1.453  13.431 -0.4315  1.2582 -0.3218
   12MPD2    N1  191   1.782   1.747  13.506  0.0843 -0.0585 -0.4029
   12MPD2    H7  192   1.835   1.664  13.529 -0.6678  0.1055  2.0306
   13TCq1    O1  193   1.472   1.293  10.183  0.1091  0.5127 -0.5341
   13TCq1    C1  194   1.448   1.222  10.069 -0.0148  0.1478  0.6540
   13TCq1    O2  195   1.534   1.184   9.996  0.6305 -0.1599 -0.1889
   13TCq1    C2  196   1.313   1.167  10.084 -0.1995  0.2961  0.3644
   13TCq1    C3  197   1.229   1.176   9.974  0.3646 -0.7302  0.1208
   13TCq1    C4  198   1.100   1.135   9.995  0.2364 -0.7842  0.3027
   13TCq1    C5  199   1.062   1.090  10.118 -0.4056  0.3553 -0.3664
   13TCq1    C6  200   1.149   1.082  10.221  0.5777  0.3479  0.3190
   13TCq1    C7  201   1.275   1.123  10.203 -0.0716  0.5071  0.0149
   13TCq1    C8  202   1.103   1.044  10.350 -0.1701  0.3850 -0.4312
   13TCq1    O4  203   1.158   1.088  10.449  0.2001  0.4938 -0.3582
   13TCq1    C9  204   1.008   1.129   9.886 -0.1602  0.2341 -0.1677
   13TCq1    O5  205   1.049   1.185   9.779 -0.3635 -0.4401 -0.6291
   13TCq1    O6  206   0.891   1.081   9.902  0.1380 -0.2058 -0.0593
   13TCq1    H1  207   1.388   1.321  10.226 -0.2702 -2.6748  0.8292
   13TCq1    H2  208   1.258   1.206   9.874 -0.6785 -0.8819 -0.2240
   13TCq1    H3  209   0.956   1.070  10.126  0.3109 -3.0428  0.2358
   13TCq1    H4  210   1.351   1.112  10.279 -0.0673  0.9325  0.0720
   14MPD2     C  211   0.842   0.817  10.440  0.5038 -0.4582  0.2644
   14MPD2    C1  212   0.926   0.918  10.460  0.5121  0.4118 -0.8042
   14MPD2    C2  213   0.911   0.996  10.576 -0.1637 -0.4525 -0.0083
   14MPD2    C3  214   0.822   0.960  10.675 -0.0152 -0.2591 -0.5797
   14MPD2    C4  215   0.751   0.844  10.650  0.9152 -0.6071 -0.3259
   14MPD2    C5  216   0.756   0.780  10.533  0.3636 -0.4284 -0.4780
   14MPD2     H  217   0.969   1.088  10.576 -0.2143 -0.4243 -0.9432
   14MPD2    H1  218   0.688   0.793  10.722 -0.3753 -0.1365 -1.1246
   14MPD2    H2  219   0.851   0.757  10.350  0.0276  0.5633 -0.4601
   14MPD2    H3  220   0.688   0.697  10.517  0.5511  0.0133 -3.4238
   14MPD2     N  221   0.818   1.031  10.800  0.2026 -0.1166  0.0734
   14MPD2    H5  222   0.868   1.119  10.807  0.8213 -0.4496 -0.1950
   14MPD2    N1  223   1.001   0.954  10.347 -0.9812  0.6042  0.4104
   14MPD2    H7  224   0.976   0.921  10.255 -1.1022  3.3132 -0.5089
   15TCq1    O1  225   2.364   0.437   2.037 -0.5890  0.3897 -0.2314
   15TCq1    C1  226   2.439   0.362   1.948 -1.2261  0.4154 -0.5285
   15TCq1    O2  227   2.412   0.342   1.829  0.1667  0.3380 -0.5608
   15TCq1    C2  228   2.552   0.283   2.013 -0.1070  0.2649  0.5211
   15TCq1    C3  229   2.625   0.340   2.109  0.0284 -0.0988 -0.1165
   15TCq1    C4  230   2.725   0.267   2.161  0.5343 -0.0522  0.1297
   15TCq1    C5  231   2.754   0.136   2.116 -0.0201  0.1032  0.0998
   15TCq1    C6  232   2.696   0.094   2.002  0.5853 -0.0832  0.6752
   15TCq1    C7  233   2.599   0.176   1.938  0.2760  0.8484  0.1071
   15TCq1    C8  234   2.768   4.717   1.925 -0.4333  0.8126 -0.3566
   15TCq1    O4  235   2.879   4.682   1.964  1.0186  0.1108  0.6287
   15TCq1    C9  236   2.804   0.319   2.263 -0.2741 -0.1978 -0.6380
   15TCq1    O5  237   2.912   0.265   2.289 -0.2595 -0.5737  0.1584
   15TCq1    O6  238   2.758   0.428   2.313  0.0924  0.0730  0.5753
   15TCq1    H1  239   2.382   0.427   2.133 -0.6231  1.4586 -0.1105
   15TCq1    H2  240   2.593   0.437   2.143  1.4652  0.9004 -1.6136
   15TCq1    H3  241   2.832   0.075   2.159  2.3572  1.1610 -2.7046
   15TCq1    H4  242   2.551   0.148   1.845  0.8095  1.2491 -0.2887
   16MPD2     C  243   2.651   4.539   1.624  0.7129  0.8529  0.0833
   16MPD2    C1  244   2.736   4.582   1.723  0.5270  0.1075  0.5578
   16MPD2    C2  245   2.867   4.532   1.722  0.0873 -0.3124 -0.0686
   16MPD2    C3  246   2.912   4.430   1.636  0.4025  0.1470  0.2795
   16MPD2    C4  247   2.822   4.396   1.539 -0.0050  0.0020  0.3529
   16MPD2    C5  248   2.696   4.450   1.535 -0.2443 -0.8968 -0.5239
   16MPD2     H  249   2.937   4.539   1.804  0.5491  2.9591 -0.7182
   16MPD2    H1  250   2.838   4.319   1.464 -0.8091  2.7445 -2.6172
   16MPD2    H2  251   2.548   4.570   1.611  0.2868 -0.7462 -0.3596
   16MPD2    H3  252   2.628   4.413   1.459  1.1471 -1.5373 -1.4629
   16MPD2     N  253   3.044   4.381   1.639  0.2546  0.7499 -0.3140
   16MPD2    H5  254   3.098   4.428   1.711  1.2803 -0.3880 -0.3378
   16MPD2    N1  255   2.697   4.676   1.816 -0.4474  0.3102  0.6882
   16MPD2    H7  256   2.607   4.720   1.799  0.3804  1.5293 -0.5708
   17TCq1    O1  257   4.565   0.550   9.366 -0.0076 -0.1665  0.2712
   17TCq1    C1  258   4.591   0.427   9.406  0.2720 -0.0075 -0.3924
   17TCq1    O2  259   4.514   0.359   9.475  0.2939  0.1494  0.2470
   17TCq1    C2  260   0.010   0.427   9.445  0.2105 -0.0492  1.1438
   17TCq1    C3  261   0.097   0.510   9.375  0.8614  0.2351 -0.1423
   17TCq1    C4  262   0.213   0.539   9.441 -0.1600  0.0532  0.3098
   17TCq1    C5  263   0.245   0.477   9.561 -0.0368 -0.6330 -0.3173
   17TCq1    C6  264   0.167   0.382   9.610  0.5723 -0.2948  0.7497
   17TCq1    C7  265   0.040   0.360   9.562 -0.5513 -0.8022  0.3966
   17TCq1    C8  266   0.197   0.310   9.734 -0.0710  0.0062 -0.2998
   17TCq1    O4  267   0.129   0.212   9.759  0.3978 -0.5832 -0.4887
   17TCq1    C9  268   0.298   0.641   9.391 -0.6259  0.0965  0.5420
   17TCq1    O5  269   0.408   0.655   9.445 -1.0982 -0.1845 -0.3549
   17TCq1    O6  270   0.256   0.720   9.303 -0.2023  0.0146 -0.5728
   17TCq1    H1  271   4.645   0.593   9.328  0.1897 -1.5734 -0.8927
   17TCq1    H2  272   0.074   0.549   9.277 -0.0778 -0.8602 -0.3688
   17TCq1    H3  273   0.344   0.499   9.601  0.1426 -0.4503 -0.8627
   17TCq1    H4  274   4.687   0.295   9.603 -1.4831  1.6195  2.5166
   18MPD2     C  275   0.319   0.161   9.954 -0.1477  0.4654  0.9730
   18MPD2    C1  276   0.354   0.293   9.919 -0.0418 -0.4034  0.5992
   18MPD2    C2  277   0.448   0.365   9.996  0.3702  0.3694 -0.3458
   18MPD2    C3  278   0.509   0.298  10.103 -0.3942  1.2278 -0.6263
   18MPD2    C4  279   0.462   0.171  10.145  0.2615  0.8702  0.0570
   18MPD2    C5  280   0.375   0.104  10.061 -0.1704 -0.2123 -0.8082
   18MPD2     H  281   0.479   0.462   9.958 -0.3222  0.8156  0.2277
   18MPD2    H1  282   0.504   0.120  10.231 -2.9179 -0.8333  0.6044
   18MPD2    H2  283   0.240   0.105   9.907  1.3211 -0.1218 -0.8166
   18MPD2    H3  284   0.343   0.003  10.085  1.8573 -0.0956  2.3938
   18MPD2     N  285   0.622   0.342  10.174  0.4378 -0.2309 -0.2056
   18MPD2    H5  286   0.655   0.281  10.249  0.2899 -1.0087 -0.7754
   18MPD2    N1  287   0.304   0.354   9.802 -0.2936  0.2637 -0.4960
   18MPD2    H7  288   0.354   0.441   9.786  2.0327 -0.4311  2.8881
   19TMC2    C1  289   2.485   1.744  14.032 -0.4146  0.4964  0.0840
   19TMC2    C2  290   2.408   1.855  14.057  0.5462  0.6245 -0.1680
   19TMC2    C3  291   2.293   1.867  13.984  0.4177 -0.4701  0.0125
   19TMC2    C4  292   2.449   1.641  13.956 -0.4677  0.3517  0.3710
   19TMC2    C5  293   2.325   1.651  13.901 -0.8129 -0.4640  0.7712
   19TMC2    C6  294   2.253   1.768  13.897  0.1437  1.0453  0.4509
   19TMC2     C  295   2.626   1.754  14.091  0.3541  0.0858  0.3526
   19TMC2     O  296   2.659   1.866  14.123  0.6400  0.5188  0.3017
   19TMC2     H  297   2.436   1.938  14.121  1.0824 -1.1046  1.8393
   19TMC2    H1  298   2.518   1.558  13.945  0.7127  1.2737  0.7801
   19TMC2    H2  299   2.176   1.782  13.822  0.4155 -0.6356 -0.1488
   19TMC2    C7  300   2.286   1.527  13.836 -0.6814 -0.2211  0.4907
   19TMC2    C8  301   2.203   1.964  14.032 -0.1406 -0.0684 -0.0228
   19TMC2    O1  302   2.375   1.458  13.795 -0.2368 -0.1220  0.5747
   19TMC2    O2  303   2.171   1.972  14.147 -1.0361 -0.2987  0.2987
   19TMC2    O5  304   2.117   1.980  13.932  0.0659 -0.3358  0.2178
   19TMC2    H5  305   2.171   1.995  13.851  0.9496 -5.2950 -0.1569
   20MPD2     C  306   2.921   1.726  14.124 -0.0903 -0.7170 -0.5009
   20MPD2    C1  307   2.833   1.620  14.121  0.3023 -0.7685 -0.5247
   20MPD2    C2  308   2.874   1.495  14.155 -0.4446  0.0018 -0.7033
   20MPD2    C3  309   3.005   1.474  14.181 -0.4081 -0.2274  0.0121
   20MPD2    C4  310   3.089   1.580  14.191  0.1121 -0.3086  0.0721
   20MPD2    C5  311   3.047   1.706  14.159 -0.4833  0.6402  0.1038
   20MPD2     H  312   2.801   1.416  14.145 -2.2149  1.4287  1.2198
   20MPD2    H1  313   3.192   1.577  14.222  0.3238 -2.1334 -0.8159
   20MPD2    H2  314   2.897   1.829  14.098  1.2761 -0.8834 -2.3920
   20MPD2    H3  315   3.123   1.783  14.165  0.5403 -0.5735  2.6750
   20MPD2     N  316   3.060   1.347  14.201  0.2610  0.1259 -0.3684
   20MPD2    H5  317   3.161   1.347  14.208  0.2500 -0.7072 -0.1635
   20MPD2    N1  318   2.694   1.636  14.092 -0.7181  0.6240 -0.8340
   20MPD2    H7  319   2.633   1.555  14.092  0.6283 -0.3771  0.4225
   21MPD2     C  320   0.485   1.762  14.234 -0.4053  0.0544 -1.2610
   21MPD2    C1  321   0.469   1.624  14.239  0.1502 -0.0459  0.1599
   21MPD2    C2  322   0.368   1.572  14.315  0.4823 -0.1588 -0.1434
   21MPD2    C3  323   0.281   1.652  14.389  0.3683 -0.4538 -0.2964
   21MPD2    C4  324   0.296   1.788  14.388 -0.2775 -0.5406  0.2579
   21MPD2    C5  325   0.403   1.835  14.317 -0.4031  0.0697 -0.2760
   21MPD2     H  326   0.355   1.464  14.316  2.8223 -0.4322 -0.5202
   21MPD2    H1  327   0.232   1.848  14.451 -0.9474 -0.3256 -0.6151
   21MPD2    H2  328   0.559   1.815  14.175  0.7991 -1.7203 -1.3625
   21MPD2    H3  329   0.414   1.943  14.324  0.4849 -0.1332  1.2227
   21MPD2     N  330   0.179   1.602  14.475 -0.4282 -0.8614 -0.0061
   21MPD2    H5  331   0.137   1.663  14.544 -0.6446 -1.2268  0.1816
   21MPD2    N1  332   0.554   1.531  14.174 -0.2590  0.4727 -0.5771
   21MPD2    H7  333   0.521   1.435  14.171 -0.7600  0.5386  2.3639
   22TCq2    C1  334   0.147   1.467  14.480  0.2175 -0.2550 -1.6317
   22TCq2    O2  335   0.160   1.386  14.390  0.5683  0.4113 -0.1415
   22TCq2    C2  336   0.072   1.426  14.602  0.0201  0.1357 -0.4026
   22TCq2    C3  337   0.105   1.313  14.665  0.4818  0.5003  0.7013
   22TCq2    C4  338   0.070   1.291  14.794 -0.1161 -0.7023  0.4004
   22TCq2    C5  339   4.713   1.379  14.860 -0.2942 -0.6542  0.1945
   22TCq2    C6  340   4.671   1.491  14.790 -1.0577  0.4371  0.7931
   22TCq2    C7  341   4.710   1.516  14.669 -0.4245 -0.0972  0.1547
   22TCq2    C8  342   4.543   1.541  14.837  0.0834 -0.7450  0.3407
   22TCq2    O4  343   4.524   1.535  14.955 -0.0653 -0.1078  0.1644
   22TCq2    C9  344   0.111   1.168  14.865  0.8253 -0.4071 -0.3782
   22TCq2    O5  345   0.078   1.151  14.983 -0.0746  0.6560 -0.2769
   22TCq2    O6  346   0.201   1.102  14.816 -0.1488  0.0023 -0.4503
   22TCq2    H2  347   0.174   1.241  14.623 -0.1185  0.2214  0.2007
   22TCq2    H3  348   4.686   1.355  14.963  0.6260 -0.7929  0.4022
   22TCq2    H4  349   4.676   1.600  14.609  0.5236 -0.7905 -1.3739
   23MPD2     C  350   2.152   2.663  14.834 -1.3099  0.0189 -0.0460
   23MPD2    C1  351   2.081   2.548  14.796 -0.0473 -0.6447  0.3389
   23MPD2    C2  352   2.026   2.537  14.663  0.2584  0.2366 -0.3492
   23MPD2    C3  353   2.046   2.638  14.573 -0.2337  0.6243  0.2903
   23MPD2    C4  354   2.115   2.755  14.611 -0.4797 -0.2801 -0.1221
   23MPD2    C5  355   2.177   2.761  14.740 -0.5695 -0.1824 -0.2723
   23MPD2     H  356   1.971   2.448  14.636 -1.0604  0.6588  0.9579
   23MPD2    H1  357   2.128   2.835  14.539  2.2291 -0.3644  0.2999
   23MPD2    H2  358   2.205   2.658  14.928 -0.4382  0.8441 -0.4912
   23MPD2    H3  359   2.234   2.847  14.773 -0.4596  0.2661 -1.6197
   23MPD2     N  360   1.995   2.647  14.439  0.3662  0.1279  0.2460
   23MPD2    H5  361   2.004   2.730  14.381 -0.5054  0.7685  1.0271
   23MPD2    N1  362   2.064   2.442  14.889  0.1652 -0.2364 -0.1112
   23MPD2    H7  363   2.045   2.351  14.849 -1.2986  0.4657 -1.0047
   24TCq2    C1  364   1.894   2.573  14.393 -0.1104 -0.0268  0.2595
   24TCq2    O2  365   1.825   2.484  14.443 -0.4570 -0.3702  0.4559
   24TCq2    C2  366   1.864   2.621  14.259  0.0060  0.8815 -0.8245
   24TCq2    C3  367   1.943   2.714  14.202  0.1846 -0.1417  0.1356
   24TCq2    C4  368   1.899   2.773  14.086  0.1219 -0.0301  0.4731
   24TCq2    C5  369   1.781   2.748  14.029  0.4214  0.7943 -0.5300
   24TCq2    C6  370   1.697   2.669  14.100  0.4751 -0.0693 -0.1154
   24TCq2    C7  371   1.736   2.602  14.210 -0.3377  0.2086  1.0981
   24TCq2    C8  372   1.582   2.613  14.023  0.1449 -0.0731 -0.2609
   24TCq2    O4  373   1.582   2.612  13.902  0.1059  0.6580 -0.0905
   24TCq2    C9  374   1.980   2.877  14.030  0.4642 -0.4921 -0.0922
   24TCq2    O5  375   1.952   2.919  13.913  0.0207 -0.5959 -0.0474
   24TCq2    O6  376   2.072   2.926  14.099 -0.1570  0.0479  1.2259
   24TCq2    H2  377   2.044   2.745  14.228  0.1003  0.3877 -0.1819
   24TCq2    H3  378   1.750   2.807  13.944 -0.3577  2.0087  0.5959
   24TCq2    H4  379   1.676   2.530  14.265 -1.4213  2.6312  3.0748
   25TMC2    C1  380   0.715   0.496  11.126 -0.0345  0.0261 -0.2570
   25TMC2    C2  381   0.756   0.621  11.174 -0.2831  0.2038  0.3956
   25TMC2    C3  382   0.780   0.624  11.313  0.0353 -0.0423  0.6845
   25TMC2    C4  383   0.687   0.390  11.203  0.1474  0.8701  0.0176
   25TMC2    C5  384   0.712   0.401  11.344 -0.6708  0.4782 -0.0020
   25TMC2    C6  385   0.760   0.522  11.398 -0.2724 -0.3162 -0.7513
   25TMC2     C  386   0.684   0.509  10.984  0.4540  0.3171  0.1859
   25TMC2     O  387   0.747   0.588  10.915  0.2986  0.1572 -0.6318
   25TMC2     H  388   0.779   0.708  11.115  1.2515 -0.0919  0.5547
   25TMC2    H1  389   0.633   0.308  11.156 -1.2127  0.7116  1.8192
   25TMC2    H2  390   0.779   0.518  11.505  0.7174 -1.7961 -0.9823
   25TMC2    C7  391   0.651   0.304  11.435  0.0619  0.1720 -0.7353
   25TMC2    C8  392   0.897   0.698  11.351 -0.2679  0.3544 -0.2901
   25TMC2    O1  393   0.630   0.352  11.546 -0.4948 -0.5986 -0.5439
   25TMC2    O2  394   0.997   0.687  11.284  0.3506  0.0702 -0.0362
   25TMC2    O5  395   0.873   0.766  11.463  0.3503 -0.2342  0.4243
   25TMC2    H5  396   0.778   0.751  11.485  1.3488 -3.0684  2.8702
   26MPD2     C  397   0.388   0.381  10.582  0.0148 -0.2417 -0.5334
   26MPD2    C1  398   0.369   0.285  10.678 -0.2635 -0.0534  0.2893
   26MPD2    C2  399   0.440   0.299  10.795 -0.2213 -0.2911 -0.7062
   26MPD2    C3  400   0.527   0.403  10.813 -0.7865 -0.2123  1.0604
   26MPD2    C4  401   0.553   0.496  10.713 -0.5931 -0.3830  0.0897
   26MPD2    C5  402   0.484   0.477  10.595  0.7485 -0.5456  0.1758
   26MPD2     H  403   0.432   0.224  10.873 -0.3200 -1.0749 -1.4869
   26MPD2    H1  404   0.625   0.578  10.715 -0.6865 -0.3315  1.2464
   26MPD2    H2  405   0.338   0.367  10.487 -0.6089  0.2016 -0.2606
   26MPD2    H3  406   0.501   0.542  10.510  0.5658  0.0833  0.6209
   26MPD2     N  407   0.591   0.413  10.942 -0.0227  0.3086 -0.1614
   26MPD2    H5  408   0.553   0.352  11.014 -1.2337 -0.5318 -1.5121
   26MPD2    N1  409   0.276   0.182  10.653  0.4179  0.3208 -0.3537
   26MPD2    H7  410   0.233   0.179  10.561  1.1897  0.6586 -0.7302
   27TMC2    C1  411   4.151   2.298  11.679  0.2442  0.2591  0.5540
   27TMC2    C2  412   4.218   2.258  11.566 -0.5567  0.2657 -0.4827
   27TMC2    C3  413   4.317   2.340  11.527  0.4310  0.5636  0.0034
   27TMC2    C4  414   4.187   2.419  11.739  0.4687 -0.1215 -0.0215
   27TMC2    C5  415   4.288   2.498  11.686  0.0129 -0.0128  0.1052
   27TMC2    C6  416   4.357   2.461  11.579  0.2527  0.0069  0.5716
   27TMC2     C  417   4.057   2.202  11.730 -0.4415  0.4789 -0.4494
   27TMC2     O  418   4.025   2.107  11.659 -0.5639 -0.1898  0.4030
   27TMC2     H  419   4.198   2.166  11.512 -0.9693  0.4506 -0.6420
   27TMC2    H1  420   4.128   2.463  11.818  2.2233 -1.6940  2.1960
   27TMC2    H2  421   4.430   2.527  11.533  2.0833 -2.2754  0.2103
   27TMC2    C7  422   4.375   2.569  11.781 -0.9290  0.4077  0.3914
   27TMC2    C8  423   4.378   2.302  11.404  0.4186 -0.3270 -0.3320
   27TMC2    O1  424   4.448   2.658  11.747  0.2824  0.7074 -0.1137
   27TMC2    O2  425   4.317   2.252  11.314 -0.0042  0.4101 -0.4383
   27TMC2    O5  426   4.507   2.315  11.422  0.1172 -0.0613 -0.5475
   27TMC2    H5  427   4.544   2.344  11.508 -0.8386  2.1282 -0.8760
   28MPD2     C  428   3.681   2.050  12.061 -0.3269 -0.0323 -0.0162
   28MPD2    C1  429   3.755   2.156  12.110 -0.1785 -0.7075  0.5505
   28MPD2    C2  430   3.861   2.221  12.045 -0.2466  0.8958 -0.1385
   28MPD2    C3  431   3.899   2.162  11.922  0.2030 -0.1837 -0.4438
   28MPD2    C4  432   3.836   2.051  11.880  0.3962  0.0819  0.1315
   28MPD2    C5  433   3.724   2.000  11.942 -0.6793  0.5261  0.2778
   28MPD2     H  434   3.914   2.308  12.081 -2.3950  1.8297  0.7585
   28MPD2    H1  435   3.859   2.002  11.787 -1.3892 -0.2335 -0.1378
   28MPD2    H2  436   3.594   2.010  12.110 -0.0130  0.5071  0.9802
   28MPD2    H3  437   3.674   1.913  11.902 -2.0940  2.4728 -2.2261
   28MPD2     N  438   4.008   2.231  11.858  0.0223 -0.1955  0.1571
   28MPD2    H5  439   4.037   2.318  11.902 -0.0399 -0.5787  0.9716
   28MPD2    N1  440   3.713   2.199  12.239 -0.0935 -0.3818  0.3339
   28MPD2    H7  441   3.646   2.140  12.288 -0.4370  1.8046  2.4709
   29MPD2     C  442   3.590   4.110  14.016 -0.4865  0.8314  0.1362
   29MPD2    C1  443   3.720   4.144  13.981 -0.4038  0.1364 -0.2178
   29MPD2    C2  444   3.754   4.275  13.964 -0.4395  0.4638 -0.7749
   29MPD2    C3  445   3.665   4.379  14.000  0.2067 -0.5413 -0.1687
   29MPD2    C4  446   3.534   4.347  14.027 -0.5548  0.1891 -0.0719
   29MPD2    C5  447   3.502   4.214  14.030  0.5603 -0.3792  0.5433
   29MPD2     H  448   3.856   4.295  13.936 -0.3597 -1.5234 -1.8886
   29MPD2    H1  449   3.455   4.418  14.046 -0.4565  0.0118  0.9718
   29MPD2    H2  450   3.562   4.010  14.046  0.1356  0.5831 -0.1003
   29MPD2    H3  451   3.399   4.189  14.054  0.2839  1.1304  0.9948
   29MPD2     N  452   3.692   4.517  13.993  0.5863  0.0968 -0.0321
   29MPD2    H5  453   3.615   4.582  14.009  2.0500  1.9807 -0.6638
   29MPD2    N1  454   3.819   4.046  13.960  0.6485 -0.4222  0.3719
   29MPD2    H7  455   3.915   4.075  13.948  0.4465  0.8099  1.7129
   30TCq2    C1  456   3.819   4.564  13.965  0.1605 -0.2853  0.5531
   30TCq2    O2  457   3.917   4.501  13.922 -0.2994  0.0498  0.5352
   30TCq2    C2  458   3.844   4.712  13.966 -0.3121 -0.0427 -0.8013
   30TCq2    C3  459   3.751   0.083  13.998 -0.3302  0.4034  0.3289
   30TCq2    C4  460   3.773   0.214  13.987 -0.8653  0.4023 -0.7023
   30TCq2    C5  461   3.900   0.256  13.943 -0.4917 -0.2475  0.2825
   30TCq2    C6  462   3.992   0.163  13.902 -0.0720 -0.3463  0.2645
   30TCq2    C7  463   3.962   0.036  13.906 -0.2045 -0.2538  0.0127
   30TCq2    C8  464   4.118   0.204  13.849  0.5379  0.3076 -0.3048
   30TCq2    O4  465   4.146   0.143  13.748  0.0810 -0.4173  0.2302
   30TCq2    C9  466   3.683   0.316  14.030  0.0571 -0.0994 -0.4914
   30TCq2    O5  467   3.740   0.425  14.052  0.9640  0.3525  0.2751
   30TCq2    O6  468   3.580   0.284  14.095 -0.1031  0.1736  0.4032
   30TCq2    H2  469   3.657   0.050  14.042  0.0783  0.1330  0.9864
   30TCq2    H3  470   3.917   0.363  13.930  0.1583 -0.1801  1.6940
   30TCq2    H4  471   4.035   4.694  13.859  2.2365  1.2724  1.6970
   31MPD2     C  472   2.038   3.129  14.847  0.2382  0.4360  0.0837
   31MPD2    C1  473   1.921   3.196  14.877  0.0560 -0.0547  0.4884
   31MPD2    C2  474   1.846   3.153  14.981 -0.4772 -0.2624 -0.7199
   31MPD2    C3  475   1.887   3.058  15.071 -0.1317 -0.4335  0.1207
   31MPD2    C4  476   2.009   3.003  15.050 -0.5093  0.4732 -0.2403
   31MPD2    C5  477   2.078   3.033  14.935 -0.0189  0.6706 -0.4572
   31MPD2     H  478   1.759   3.212  15.005 -0.7769 -0.9441 -0.1168
   31MPD2    H1  479   2.040   2.922  15.115  1.2139 -0.7461 -2.5771
   31MPD2    H2  480   2.102   3.160  14.765  0.0011 -0.3981 -0.4210
   31MPD2    H3  481   2.172   2.984  14.916 -0.7838 -0.4778 -1.2747
   31MPD2     N  482   1.803   3.011  15.180  0.4011 -0.0247 -0.3148
   31MPD2    H5  483   1.832   2.931  15.235  0.8206 -0.1146 -0.6632
   31MPD2    N1  484   1.891   3.313  14.798 -0.1355 -0.5158 -0.4181
   31MPD2    H7  485   1.951   3.320  14.717  0.5214 -0.9471  0.0351
   32TCq2    C1  486   1.671   3.049  15.196 -0.2698 -0.0012 -0.6504
   32TCq2    O2  487   1.602   3.124  15.129  0.6457  0.4558 -0.4478
   32TCq2    C2  488   1.601   2.986  15.306 -0.3899  0.2454 -0.5922
   32TCq2    C3  489   1.476   3.028  15.323 -0.3399 -0.2856  0.1692
   32TCq2    C4  490   1.417   3.023  15.447 -0.4922 -1.0086 -0.1602
   32TCq2    C5  491   1.487   2.972  15.550  0.1879  0.1213  0.2813
   32TCq2    C6  492   1.604   2.908  15.525 -0.9774  0.4058 -0.6579
   32TCq2    C7  493   1.668   2.921  15.404 -0.5409  0.0047 -0.8183
   32TCq2    C8  494   1.673   2.830  15.623  0.9181  0.6422  0.0700
   32TCq2    O4  495   1.765   2.760  15.589 -0.2260 -0.1628  0.5436
   32TCq2    C9  496   1.276   3.045  15.466 -0.3036  0.1078  0.1658
   32TCq2    O5  497   1.239   3.037  15.587  0.2869  0.2219  0.7764
   32TCq2    O6  498   1.207   3.058  15.365  0.0310  0.3060 -0.1677
   32TCq2    H2  499   1.412   3.068  15.245  1.7443  0.7533 -0.9885
   32TCq2    H3  500   1.431   2.962  15.642  0.7807 -0.0850  0.6137
   32TCq2    H4  501   1.774   2.900  15.395 -1.1219 -3.2147 -0.1685
   33MPD2     C  502   1.431   0.788  10.309  0.5073  0.1827 -0.1297
   33MPD2    C1  503   1.350   0.730  10.211 -0.1273  0.0353 -0.3887
   33MPD2    C2  504   1.374   0.758  10.078  0.3310 -0.1945  0.1430
   33MPD2    C3  505   1.479   0.843  10.039 -0.4780  0.5525 -0.0098
   33MPD2    C4  506   1.570   0.884  10.135  0.8629 -0.3377 -0.1306
   33MPD2    C5  507   1.533   0.876  10.271  0.1153  0.4614 -0.3462
   33MPD2     H  508   1.310   0.725   9.997  0.9235 -0.6180 -0.1504
   33MPD2    H1  509   1.658   0.941  10.109 -0.2883  1.2510 -0.5533
   33MPD2    H2  510   1.415   0.770  10.415  0.7832 -1.0536 -0.2911
   33MPD2    H3  511   1.592   0.928  10.345  0.5238  0.7984 -0.9140
   33MPD2     N  512   1.486   0.901   9.910  0.0311  0.1879  0.0997
   33MPD2    H5  513   1.559   0.972   9.902  0.2564 -0.2865 -1.8368
   33MPD2    N1  514   1.238   0.649  10.252  0.4319  0.6003 -0.3926
   33MPD2    H7  515   1.207   0.655  10.348 -0.1047 -0.3821 -0.5081
   34TCq2    C1  516   1.399   0.884   9.805  0.3463  0.0780  0.2022
   34TCq2    O2  517   1.303   0.809   9.785  0.3246 -0.0257 -0.1927
   34TCq2    C2  518   1.419   0.978   9.702 -0.1618  0.5456 -0.6020
   34TCq2    C3  519   1.301   1.025   9.643  0.3958  0.5831  0.2504
   34TCq2    C4  520   1.304   1.135   9.558  0.5026 -0.1591 -0.2716
   34TCq2    C5  521   1.420   1.209   9.539  0.5517  0.1477 -0.0623
   34TCq2    C6  522   1.533   1.156   9.605 -0.4518  0.2124  0.1729
   34TCq2    C7  523   1.537   1.043   9.687 -0.0300  0.4345  0.4416
   34TCq2    C8  524   1.650   1.244   9.612  0.3603  0.1258  0.1996
   34TCq2    O4  525   1.759   1.190   9.628 -0.7378  0.0325  0.9509
   34TCq2    C9  526   1.192   1.154   9.473 -0.2391  0.0705  0.6141
   34TCq2    O5  527   1.210   1.249   9.390 -0.0266 -0.5287 -0.2923
   34TCq2    O6  528   1.094   1.078   9.481  0.4444  0.4221  0.0164
   34TCq2    H2  529   1.209   0.970   9.656  0.9097 -0.6109 -1.1464
   34TCq2    H3  530   1.422   1.288   9.464  0.7815 -1.2737 -1.5364
   34TCq2    H4  531   1.635   1.012   9.720 -0.8470 -3.4351 -0.7668
   35MPD2     C  532   3.532   2.727  11.833  0.1182 -0.1642  0.4306
   35MPD2    C1  533   3.491   2.678  11.952  0.0672 -0.8922 -0.3513
   35MPD2    C2  534   3.394   2.578  11.955  0.1173 -0.2980  0.2161
   35MPD2    C3  535   3.343   2.523  11.843  0.4856  0.4329  0.2768
   35MPD2    C4  536   3.394   2.566  11.719  0.0636  0.0842  0.0724
   35MPD2    C5  537   3.488   2.664  11.721 -0.6089  0.3542  0.0986
   35MPD2     H  538   3.344   2.540  12.043 -2.1905 -0.9501 -1.3529
   35MPD2    H1  539   3.370   2.514  11.626  2.1488  0.2716 -0.5851
   35MPD2    H2  540   3.606   2.805  11.830  1.1846 -1.1141  1.8849
   35MPD2    H3  541   3.521   2.693  11.623 -0.0551 -2.3316 -0.5072
   35MPD2     N  542   3.240   2.429  11.857  0.0328  0.0222 -0.6905
   35MPD2    H5  543   3.207   2.401  11.949  0.1503  1.9180 -0.0820
   35MPD2    N1  544   3.529   2.739  12.073 -0.1475 -0.2294 -0.7960
   35MPD2    H7  545   3.576   2.829  12.063  0.6116 -0.5733 -0.3240
   36TCq2    C1  546   3.155   2.391  11.754 -0.7038 -0.0815  0.2174
   36TCq2    O2  547   3.151   2.431  11.636 -0.1345 -0.5792 -0.3709
   36TCq2    C2  548   3.040   2.321  11.802 -0.1940 -0.0034 -1.1295
   36TCq2    C3  549   2.927   2.316  11.726  0.4206  0.2816  0.5226
   36TCq2    C4  550   2.825   2.240  11.770 -0.0239  0.3903 -0.5919
   36TCq2    C5  551   2.830   2.172  11.887  0.3993 -0.2161 -0.0686
   36TCq2    C6  552   2.949   2.168  11.959 -0.3171 -0.8807 -0.4966
   36TCq2    C7  553   3.054   2.241  11.914  0.1511 -0.4583 -0.4262
   36TCq2    C8  554   2.983   2.057  12.039  0.7278 -0.0011  0.0659
   36TCq2    O4  555   3.051   2.074  12.136 -0.7321 -0.5314  0.3445
   36TCq2    C9  556   2.701   2.237  11.695 -0.8247 -0.0755 -0.2233
   36TCq2    O5  557   2.690   2.312  11.598 -0.1030 -0.5136  0.2496
   36TCq2    O6  558   2.619   2.147  11.720 -0.3827 -0.3520  0.5032
   36TCq2    H2  559   2.913   2.382  11.641 -0.1255  0.1806  0.5324
   36TCq2    H3  560   2.747   2.109  11.918 -0.4071 -0.1327 -2.0753
   36TCq2    H4  561   3.149   2.231  11.966 -0.6186  0.1245  1.0825
   37TMC2    C1  562   0.295   2.795  11.160 -0.0762  0.6604  0.4040
   37TMC2    C2  563   0.238   2.794  11.035 -0.7192  0.0643 -0.6929
   37TMC2    C3  564   0.322   2.786  10.931  0.0581 -0.6808  0.3409
   37TMC2    C4  565   0.432   2.794  11.175 -0.6747 -0.2449 -0.3871
   37TMC2    C5  566   0.513   2.801  11.070  0.3851  0.5801 -0.1172
   37TMC2    C6  567   0.459   2.795  10.944 -0.8484 -0.3040 -0.3174
   37TMC2     C  568   0.212   2.774  11.278  0.2712  0.4284 -0.0930
   37TMC2     O  569   0.103   2.821  11.271 -0.0116  0.3243  0.5852
   37TMC2     H  570   0.130   2.787  11.029 -0.7839  0.1400  0.2946
   37TMC2    H1  571   0.479   2.789  11.272 -1.0699 -2.6497 -0.3126
   37TMC2    H2  572   0.527   2.791  10.860  1.3380  0.7956  1.3941
   37TMC2    C7  573   0.645   2.763  11.098  0.6661 -0.5398 -0.2285
   37TMC2    C8  574   0.256   2.779  10.800  0.2465 -0.1095  0.5349
   37TMC2    O1  575   0.688   2.799  11.202  0.3819 -0.3439 -0.6296
   37TMC2    O2  576   0.150   2.837  10.773  0.2897  0.1290 -0.3068
   37TMC2    O5  577   0.327   2.706  10.713 -0.1632 -0.0839  0.5132
   37TMC2    H5  578   0.398   2.654  10.757  0.8172  0.4311 -0.4414
   38MPD2     C  579   0.129   2.638  11.772 -0.6914  0.4274  0.1144
   38MPD2    C1  580   0.247   2.581  11.728  0.6186 -0.2500  0.1368
   38MPD2    C2  581   0.285   2.595  11.592  0.1938 -0.3492  0.5546
   38MPD2    C3  582   0.220   2.683  11.511 -0.8727  0.7528 -0.0585
   38MPD2    C4  583   0.103   2.737  11.560 -0.9539 -0.7249 -0.0340
   38MPD2    C5  584   0.057   2.717  11.690 -0.2505  0.1104  0.3030
   38MPD2     H  585   0.372   2.541  11.556  1.2519  0.6536  1.6107
   38MPD2    H1  586   0.047   2.789  11.483  0.2097 -0.1811 -0.5137
   38MPD2    H2  587   0.102   2.632  11.876 -1.6336 -0.6653 -0.1927
   38MPD2    H3  588   4.681   2.747  11.725 -0.0750  1.2211 -0.1635
   38MPD2     N  589   0.272   2.699  11.381 -0.0383 -0.2895 -0.2522
   38MPD2    H5  590   0.357   2.649  11.357  1.1876  2.3829 -1.4861
   38MPD2    N1  591   0.331   2.507  11.821  0.0502  0.2437  0.2282
   38MPD2    H7  592   0.425   2.491  11.787  0.6931  0.8989  1.7125
   39MPD2     C  593   3.802   3.828   1.906  0.6433 -0.2123  0.6748
   39MPD2    C1  594   3.762   3.957   1.941 -0.7607  0.4513 -0.8518
   39MPD2    C2  595   3.628   3.993   1.916  0.6150  0.0060 -0.0067
   39MPD2    C3  596   3.533   3.897   1.877  0.5023 -0.9400  0.3155
   39MPD2    C4  597   3.574   3.771   1.849  0.0201  0.4658  0.3590
   39MPD2    C5  598   3.708   3.737   1.855  0.0159 -0.2743 -0.3824
   39MPD2     H  599   3.598   4.095   1.935 -1.0991 -0.1299 -2.0530
   39MPD2    H1  600   3.507   3.687   1.834  2.5022 -1.7035  1.3701
   39MPD2    H2  601   3.905   3.798   1.919  2.0243  3.6258 -1.4690
   39MPD2    H3  602   3.729   3.632   1.842  0.4823 -0.2668  0.2992
   39MPD2     N  603   3.395   3.913   1.869  0.1197  0.1329 -0.3260
   39MPD2    H5  604   3.337   3.836   1.838 -0.2554  0.3743 -0.2115
   39MPD2    N1  605   3.862   4.042   1.975  0.1552  0.1981 -0.0411
   39MPD2    H7  606   3.959   4.014   1.968 -0.4348 -2.0390  0.5867
   40TCq2    C1  607   3.839   4.167   2.034  0.1398  0.1874  0.2274
   40TCq2    O2  608   3.734   4.205   2.084  0.2338  0.0266 -0.1888
   40TCq2    C2  609   3.963   4.232   2.059 -0.7117  0.6032 -0.3395
   40TCq2    C3  610   3.969   4.348   2.133  0.2779  0.8683  0.0350
   40TCq2    C4  611   4.079   4.427   2.146  0.1440  0.0542 -0.7797
   40TCq2    C5  612   4.193   4.399   2.088  0.1148  0.3056  0.6305
   40TCq2    C6  613   4.188   4.290   2.005  0.2415  0.9059  0.1108
   40TCq2    C7  614   4.080   4.207   1.988  0.2380  0.4191 -0.4210
   40TCq2    C8  615   4.303   4.264   1.922  0.5605 -0.8031 -0.7438
   40TCq2    O4  616   4.332   4.150   1.884 -0.3502  0.5800  0.3969
   40TCq2    C9  617   4.080   4.536   2.246 -0.2141 -0.7633  0.0026
   40TCq2    O5  618   3.993   4.518   2.335  0.0799 -0.0221 -0.6895
   40TCq2    O6  619   4.170   4.621   2.245  0.1579 -0.6179 -0.2984
   40TCq2    H2  620   3.880   4.368   2.191 -1.7093  1.3286 -3.1687
   40TCq2    H3  621   4.282   4.460   2.101  1.3725 -1.1596 -1.0708
   40TCq2    H4  622   4.095   4.127   1.916 -3.6977 -1.7129  1.1206
   41TMC2    C1  623   2.632   2.650  13.797 -0.3963 -0.2763  0.8576
   41TMC2    C2  624   2.710   2.760  13.807  0.2607  0.0089  0.6138
   41TMC2    C3  625   2.713   2.838  13.697 -0.3936  0.4042 -0.2680
   41TMC2    C4  626   2.577   2.611  13.676  0.0410  0.7619 -0.1223
   41TMC2    C5  627   2.593   2.690  13.567  0.4403  0.4032  0.6620
   41TMC2    C6  628   2.660   2.808  13.573 -0.5158  0.6142  0.4387
   41TMC2     C  629   2.642   2.555  13.903 -0.4546  1.0086  0.2183
   41TMC2     O  630   2.621   2.441  13.871 -0.4043 -0.6043 -0.6130
   41TMC2     H  631   2.761   2.785  13.899 -1.8091  1.0078  1.4903
   41TMC2    H1  632   2.525   2.516  13.671  0.9648  0.1719  1.4192
   41TMC2    H2  633   2.658   2.886  13.498 -0.3576  0.0597 -0.1433
   41TMC2    C7  634   2.493   2.674  13.458 -0.1013 -0.7754  0.1341
   41TMC2    C8  635   2.819   2.935  13.693 -0.6666  0.1831  0.1764
   41TMC2    O1  636   2.396   2.603  13.488 -0.2793  0.0118 -0.1584
   41TMC2    O2  637   2.929   2.897  13.649 -0.6343  0.5436 -0.3611
   41TMC2    O5  638   2.807   3.008  13.799  0.4358  0.1808  0.3861
   41TMC2    H5  639   2.727   3.062  13.783 -3.5237 -5.6732  0.6363
   42MPD2     C  640   2.720   2.394  14.137  0.0654 -0.7284 -0.0541
   42MPD2    C1  641   2.675   2.520  14.140  0.1588 -0.0543  0.8877
   42MPD2    C2  642   2.656   2.569  14.269 -0.9466 -0.1453  0.1265
   42MPD2    C3  643   2.668   2.493  14.385  0.0764 -0.0219  0.3935
   42MPD2    C4  644   2.710   2.365  14.379 -0.0301  0.2425 -0.1151
   42MPD2    C5  645   2.738   2.314  14.251 -0.2120  0.4527  0.7834
   42MPD2     H  646   2.621   2.671  14.278  2.0246  0.6738  2.4920
   42MPD2    H1  647   2.739   2.304  14.464  2.7426  0.6324 -0.7828
   42MPD2    H2  648   2.729   2.347  14.039  0.2728 -1.9890  0.5798
   42MPD2    H3  649   2.762   2.209  14.242 -3.3314 -0.2602  0.8429
   42MPD2     N  650   2.642   2.536  14.516 -0.0702  0.1578 -0.2121
   42MPD2    H5  651   2.652   2.462  14.585  1.2559  2.1867  1.7385
   42MPD2    N1  652   2.657   2.605  14.029  0.5070 -0.9128  0.5343
   42MPD2    H7  653   2.649   2.705  14.045 -0.5930 -1.2404  1.9762
   43MPD2     C  654   4.110   0.907   0.636  0.7574 -0.6308  0.7052
   43MPD2    C1  655   4.133   0.820   0.735  0.0073  0.1282 -0.3014
   43MPD2    C2  656   4.060   0.824   0.852  0.6309  0.3938  0.2326
   43MPD2    C3  657   3.970   0.930   0.874  0.3279 -0.6341  0.1418
   43MPD2    C4  658   3.955   1.022   0.776 -0.0760  0.0386  0.1864
   43MPD2    C5  659   4.027   1.007   0.657 -0.1021 -0.2770 -0.8370
   43MPD2     H  660   4.064   0.751   0.932  0.8652  2.1807  1.8605
   43MPD2    H1  661   3.884   1.103   0.786 -1.0728 -0.8633  0.4775
   43MPD2    H2  662   4.159   0.909   0.540 -0.2749  0.3077  0.1912
   43MPD2    H3  663   4.007   1.079   0.578  0.4065 -0.5487 -1.2108
   43MPD2     N  664   3.901   0.963   0.993  0.6529 -0.0950  0.2363
   43MPD2    H5  665   3.836   1.040   0.999  0.1009 -0.5671  0.3044
   43MPD2    N1  666   4.220   0.712   0.726 -0.0354  0.6092  0.3425
   43MPD2    H7  667   4.218   0.650   0.806 -2.2893  1.4663  0.9585
   44TCq2    C1  668   3.724   0.822   1.523  0.4477 -0.5755  0.2469
   44TCq2    O2  669   3.813   0.744   1.546  0.0581 -0.3935  0.5946
   44TCq2    C2  670   3.709   0.886   1.394 -0.1971  0.3329 -0.2330
   44TCq2    C3  671   3.591   0.946   1.354  0.3477 -0.4041  0.8985
   44TCq2    C4  672   3.582   0.987   1.224  0.0655  0.2823  0.0905
   44TCq2    C5  673   3.689   0.984   1.138 -0.3701 -0.1450  0.1407
   44TCq2    C6  674   3.793   0.910   1.183  0.3868 -0.0411  0.1389
   44TCq2    C7  675   3.808   0.864   1.305 -0.2627 -0.4934 -0.1947
   44TCq2    C8  676   3.898   0.875   1.097  0.3524  0.3412 -0.3315
   44TCq2    O4  677   3.966   0.778   1.127  0.7602 -0.7309  0.9878
   44TCq2    C9  678   3.457   1.045   1.177  0.1090 -0.4422 -0.3849
   44TCq2    O5  679   3.444   1.056   1.053  0.0737  0.2492 -0.2524
   44TCq2    O6  680   3.357   1.036   1.254 -0.0143 -0.2726 -0.4510
   44TCq2    H2  681   3.504   0.954   1.418 -0.1513 -3.2542  0.5766
   44TCq2    H3  682   3.681   1.026   1.038  0.0998 -1.0527 -0.2718
   44TCq2    H4  683   3.876   0.783   1.327  0.0398  0.5507  2.7340
   45TMC2    C1  684   4.152   3.028   8.989 -0.2678 -0.5577  0.3973
   45TMC2    C2  685   4.044   3.047   9.075  0.1434 -0.1755  0.0716
   45TMC2    C3  686   4.011   3.176   9.104  0.0211 -0.1751 -0.0655
   45TMC2    C4  687   4.234   3.132   8.947 -0.5216  0.0744  0.1276
   45TMC2    C5  688   4.204   3.255   8.990 -0.5055  0.5847 -0.0375
   45TMC2    C6  689   4.095   3.281   9.076 -1.4092  0.0361 -0.8809
   45TMC2     C  690   4.194   2.893   8.968  0.2367 -0.6489  0.2842
   45TMC2     O  691   4.314   2.877   8.968  0.0971  0.5361 -0.2168
   45TMC2     H  692   3.976   2.969   9.107  0.2387 -0.0880  0.4844
   45TMC2    H1  693   4.323   3.115   8.888 -0.8264  1.9545 -0.8987
   45TMC2    H2  694   4.066   3.379   9.112 -0.8260  0.1398 -0.6881
   45TMC2    C7  695   4.315   3.352   8.976 -0.4270  0.2656 -0.9875
   45TMC2    C8  696   3.926   3.198   9.221  0.1157  0.0405  0.4223
   45TMC2    O1  697   4.406   3.336   8.895 -0.5447  0.4849  0.5043
   45TMC2    O2  698   3.806   3.178   9.223  0.0311  0.1734  0.1904
   45TMC2    O5  699   3.999   3.239   9.321  0.0121 -0.0361 -0.2586
   45TMC2    H5  700   4.092   3.251   9.295  0.4504 -0.0461  1.3088
   46MPD2     C  701   4.213   2.614   8.897 -0.1962 -0.3556 -0.2872
   46MPD2    C1  702   4.097   2.671   8.947 -0.0984 -0.4894  1.0734
   46MPD2    C2  703   3.985   2.589   8.950  0.4129  0.0855 -0.0089
   46MPD2    C3  704   3.981   2.465   8.901 -0.0336 -0.2388 -0.8382
   46MPD2    C4  705   4.105   2.405   8.864 -0.1288  0.1156 -0.8120
   46MPD2    C5  706   4.214   2.482   8.862 -0.6559  0.1872  1.3135
   46MPD2     H  707   3.895   2.623   8.999 -1.1291 -0.4323 -2.4941
   46MPD2    H1  708   4.119   2.310   8.812 -1.0264 -1.8507  2.5127
   46MPD2    H2  709   4.302   2.670   8.873 -0.2690 -0.8573 -1.7721
   46MPD2    H3  710   4.297   2.438   8.809 -0.8972  1.2957  0.0085
   46MPD2     N  711   3.859   2.393   8.917  0.4852  0.5213 -0.1229
   46MPD2    H5  712   3.778   2.449   8.942  0.2400  1.0388 -2.0206
   46MPD2    N1  713   4.085   2.808   8.971  0.5090 -0.6938 -0.0585
   46MPD2    H7  714   3.992   2.846   8.983  1.8520  2.8063 -0.6817
   47TMC2    C1  715   1.914   2.841   9.730 -0.1800 -0.0711  0.0044
   47TMC2    C2  716   1.947   2.721   9.668 -0.0151  0.1920 -0.3548
   47TMC2    C3  717   1.853   2.669   9.589 -0.2309  1.3065 -0.1761
   47TMC2    C4  718   1.803   2.919   9.695  0.0768  0.2909 -0.5482
   47TMC2    C5  719   1.714   2.867   9.607 -0.3203  0.7672 -0.0765
   47TMC2    C6  720   1.738   2.744   9.551  0.3534  0.0323 -0.6458
   47TMC2     C  721   1.999   2.897   9.831  0.2209 -0.0237 -0.1073
   47TMC2     O  722   1.962   2.994   9.900  0.0768 -0.2156 -0.4235
   47TMC2     H  723   2.040   2.669   9.685  1.5415  2.0980 -3.1866
   47TMC2    H1  724   1.791   3.010   9.752  1.2103 -1.4174  2.3851
   47TMC2    H2  725   1.668   2.700   9.481 -2.9530  0.5356  2.3641
   47TMC2    C7  726   1.584   2.930   9.587 -0.3897 -0.9136  0.2766
   47TMC2    C8  727   1.907   2.579   9.493  0.0048  0.1879  0.3351
   47TMC2    O1  728   1.500   2.884   9.511  0.5190 -0.4039  0.4361
   47TMC2    O2  729   2.014   2.605   9.446 -0.7522  0.8506 -0.1239
   47TMC2    O5  730   1.807   2.508   9.432 -0.0248 -0.3693 -0.0431
   47TMC2    H5  731   1.735   2.499   9.498  0.1742 -2.6666 -0.1486
   48MPD2     C  732   2.251   3.002   9.979  0.4435  0.6981 -0.4775
   48MPD2    C1  733   2.241   2.901   9.879  1.0725 -0.1797 -0.2473
   48MPD2    C2  734   2.364   2.835   9.849 -0.0322 -0.7600  1.3546
   48MPD2    C3  735   2.482   2.862   9.911  0.2162 -0.1583 -0.3119
   48MPD2    C4  736   2.483   2.952  10.014 -0.2735 -0.0011  0.2965
   48MPD2    C5  737   2.367   3.023  10.050 -0.0733  0.3357  0.5907
   48MPD2     H  738   2.363   2.755   9.776  1.1615  1.5427 -1.1740
   48MPD2    H1  739   2.578   2.967  10.064  0.8714  0.9087 -2.1492
   48MPD2    H2  740   2.165   3.066   9.997 -0.1672 -0.1031 -0.4973
   48MPD2    H3  741   2.365   3.096  10.129 -1.4302  0.7177  0.2184
   48MPD2     N  742   2.597   2.779   9.879 -0.3798  0.5504  0.2840
   48MPD2    H5  743   2.589   2.726   9.793  0.6091  1.3761 -0.3241
   48MPD2    N1  744   2.130   2.858   9.807 -0.0813 -0.1500 -0.4078
   48MPD2    H7  745   2.144   2.781   9.741 -0.0132 -1.4852  1.1739
   49MPD2     C  746   4.672   0.507   9.830  0.2997 -0.1128  0.7687
   49MPD2    C1  747   4.703   0.468   9.965  0.2578 -0.7341 -0.3097
   49MPD2    C2  748   0.082   0.535  10.030  0.1523  1.0374 -0.4244
   49MPD2    C3  749   0.164   0.625   9.965 -0.3724  0.9372 -0.2036
   49MPD2    C4  750   0.137   0.666   9.845  0.2203 -0.2875 -0.2748
   49MPD2    C5  751   0.025   0.616   9.784 -0.1518  0.4141  0.4337
   49MPD2     H  752   0.104   0.508  10.133 -1.3038 -0.0824 -0.4192
   49MPD2    H1  753   0.201   0.729   9.783 -1.5626  4.0964  2.2917
   49MPD2    H2  754   4.577   0.482   9.785  0.0779 -1.6296  2.0477
   49MPD2    H3  755   0.017   0.643   9.679 -0.3959 -0.7827  0.1478
   49MPD2     N  756   0.266   0.689  10.029 -0.1406 -0.6270  0.1600
   49MPD2    H5  757   0.335   0.738   9.973  1.7146 -1.4389  1.7431
   49MPD2    N1  758   4.640   0.354  10.030  0.2070  0.5171 -0.6033
   49MPD2    H7  759   4.681   0.321  10.117  0.1701  0.0297 -0.7754
   50TCq2    C1  760   4.559   0.262   9.970  0.5334  1.6723 -0.1476
   50TCq2    O2  761   4.506   0.261   9.862  0.3646 -0.4882  0.5467
   50TCq2    C2  762   4.528   0.146  10.055 -0.4452 -0.0701 -0.2426
   50TCq2    C3  763   4.477   0.035   9.994  0.0664 -0.1106  0.4570
   50TCq2    C4  764   4.431   4.656  10.072 -0.7685  0.6011 -0.3980
   50TCq2    C5  765   4.442   4.661  10.209 -0.2410 -0.4414 -0.6639
   50TCq2    C6  766   4.487   0.054  10.265  0.4793  0.0036  0.8388
   50TCq2    C7  767   4.536   0.156  10.190  0.7803 -0.7068  0.7830
   50TCq2    C8  768   4.497   0.071  10.411  0.2172 -0.0582 -0.3013
   50TCq2    O4  769   4.582   0.148  10.454 -0.0167  0.2580  0.1194
   50TCq2    C9  770   4.361   4.542  10.013 -0.3347 -0.0484  0.1670
   50TCq2    O5  771   4.336   4.535   9.889  0.1985  0.2874 -0.3979
   50TCq2    O6  772   4.300   4.469  10.091  0.0170 -0.3123  0.0468
   50TCq2    H2  773   4.472   0.024   9.886  1.4259 -0.0907  0.3939
   50TCq2    H3  774   4.398   4.583  10.271 -1.7732  0.0626 -1.1019
   50TCq2    H4  775   4.554   0.251  10.238  0.5186 -0.9006  1.2614
   51MPD2     C  776   0.667   3.854   0.705 -0.1697 -0.9155 -0.5767
   51MPD2    C1  777   0.683   3.753   0.794 -0.1137  0.5098 -0.5126
   51MPD2    C2  778   0.767   3.761   0.912 -0.3708  0.1012  0.7856
   51MPD2    C3  779   0.803   3.887   0.948  0.8213 -0.5401  0.3146
   51MPD2    C4  780   0.769   3.995   0.860  0.4440 -0.3612 -0.3633
   51MPD2    C5  781   0.705   3.978   0.742 -0.3544 -0.2653 -0.2684
   51MPD2     H  782   0.797   3.683   0.980  1.2209 -0.4245 -0.5197
   51MPD2    H1  783   0.797   4.097   0.883 -0.4112  0.0363 -1.1388
   51MPD2    H2  784   0.605   3.846   0.616 -1.1138  0.0887 -0.0048
   51MPD2    H3  785   0.696   4.065   0.678  0.5115 -1.5472 -2.1240
   51MPD2     N  786   0.868   3.927   1.067 -0.1485 -0.0944  0.5404
   51MPD2    H5  787   0.893   4.026   1.066 -0.2336 -0.0747 -0.5881
   51MPD2    N1  788   0.618   3.635   0.757 -0.0176  0.6256  0.1753
   51MPD2    H7  789   0.572   3.635   0.666  0.3819  0.6586 -0.0232
   52TCq2    C1  790   0.895   3.848   1.176  0.0804  0.4593  0.0819
   52TCq2    O2  791   0.892   3.727   1.194 -0.4880  0.4369  0.6332
   52TCq2    C2  792   0.953   3.914   1.295  0.0826 -0.2093 -0.3265
   52TCq2    C3  793   0.970   3.834   1.406  0.0432  0.0579  0.3514
   52TCq2    C4  794   0.980   3.897   1.531  0.4670  0.1335 -0.7783
   52TCq2    C5  795   1.005   4.033   1.532  0.6683  0.2238 -1.0435
   52TCq2    C6  796   1.000   4.107   1.412  0.0894 -0.2059 -0.2905
   52TCq2    C7  797   0.970   4.053   1.293 -0.4367  0.4192 -0.9851
   52TCq2    C8  798   1.001   4.255   1.432  0.3476  0.0880  0.4431
   52TCq2    O4  799   1.055   4.291   1.537 -0.3783 -0.4330 -0.5979
   52TCq2    C9  800   0.969   3.818   1.649 -0.3856  0.1721  0.5257
   52TCq2    O5  801   0.927   3.872   1.755  0.3144 -0.3847 -0.2697
   52TCq2    O6  802   0.980   3.691   1.626 -0.3526 -0.4086 -0.0397
   52TCq2    H2  803   0.960   3.726   1.401  0.1146  0.1173 -0.8847
   52TCq2    H3  804   1.024   4.080   1.629 -1.8219 -2.2214  0.6239
   52TCq2    H4  805   0.962   4.103   1.198  0.9280  1.8427 -0.3489
   53TMC2    C1  806   1.326   2.583  11.377 -0.1669  0.7668  0.2366
   53TMC2    C2  807   1.459   2.623  11.393 -0.9588 -0.2235  0.4007
   53TMC2    C3  808   1.500   2.669  11.520  0.4123  0.4279 -0.1919
   53TMC2    C4  809   1.250   2.564  11.494  0.8068  0.3207 -0.6988
   53TMC2    C5  810   1.301   2.598  11.619  0.0665 -0.0980 -0.9289
   53TMC2    C6  811   1.425   2.656  11.630  1.1646 -0.0978  0.0516
   53TMC2     C  812   1.269   2.554  11.246 -0.6240  0.3487 -0.4902
   53TMC2     O  813   1.343   2.512  11.155  0.9170  0.2286  0.3248
   53TMC2     H  814   1.515   2.631  11.301 -1.1402 -2.1822  0.1291
   53TMC2    H1  815   1.144   2.542  11.493  1.2231 -1.9312  3.2435
   53TMC2    H2  816   1.468   2.691  11.724  0.1237 -1.2379  0.9419
   53TMC2    C7  817   1.199   2.628  11.716  0.2446 -0.1293 -0.0079
   53TMC2    C8  818   1.650   2.678  11.540 -0.0993 -0.0910  0.1174
   53TMC2    O1  819   1.081   2.642  11.677 -0.2322 -0.0197 -0.1832
   53TMC2    O2  820   1.688   2.762  11.618  0.7035  0.5327 -0.1729
   53TMC2    O5  821   1.726   2.578  11.490  0.3293  0.5011  0.1995
   53TMC2    H5  822   1.677   2.515  11.432  0.7082  0.3662  0.0282
   54MPD2     C  823   1.083   2.504  11.017 -0.1714 -0.3775 -0.7196
   54MPD2    C1  824   1.048   2.577  11.129  0.2655 -0.5819  0.7155
   54MPD2    C2  825   0.914   2.623  11.136 -0.1541 -0.2385 -0.1135
   54MPD2    C3  826   0.823   2.597  11.034  0.6465 -0.3484 -0.1357
   54MPD2    C4  827   0.856   2.520  10.923  0.1096 -0.0837 -0.4727
   54MPD2    C5  828   0.993   2.486  10.913  0.1578 -0.2448  0.2812
   54MPD2     H  829   0.894   2.698  11.212  4.0120  0.5710  0.1531
   54MPD2    H1  830   0.783   2.488  10.849  1.2326 -0.1988 -1.5345
   54MPD2    H2  831   1.186   2.472  11.012  0.0798  0.5319 -1.3725
   54MPD2    H3  832   1.020   2.438  10.820 -1.5563  0.6692 -0.6996
   54MPD2     N  833   0.694   2.658  11.019  0.4617  0.0612 -0.0455
   54MPD2    H5  834   0.634   2.624  10.945  0.2364  0.5926 -0.1115
   54MPD2    N1  835   1.137   2.593  11.243  0.0292  0.1493  0.4721
   54MPD2    H7  836   1.107   2.645  11.325 -0.5352 -1.5250  1.3322
   55MPD2     C  837   1.873   4.464   0.168  0.5828  0.2839 -0.4122
   55MPD2    C1  838   1.861   4.459   0.306 -0.4737 -0.2249  0.9156
   55MPD2    C2  839   1.856   4.578   0.379  0.3110  0.5064  0.3704
   55MPD2    C3  840   1.861   4.702   0.312 -0.5877  0.6889 -0.1280
   55MPD2    C4  841   1.887   4.705   0.178 -0.1357 -0.4531  0.4009
   55MPD2    C5  842   1.893   4.588   0.108  0.2528  0.4205 -0.0969
   55MPD2     H  843   1.839   4.578   0.487  1.7330  1.5904  0.5862
   55MPD2    H1  844   1.911   0.070   0.118 -1.2737  0.1932  0.8703
   55MPD2    H2  845   1.895   4.379   0.104  1.5593 -2.3776  3.5075
   55MPD2    H3  846   1.917   4.600   0.003  0.4164  0.8336 -0.0113
   55MPD2     N  847   1.852   0.104   0.386 -0.0255 -0.4775  0.1969
   55MPD2    H5  848   1.855   0.082   0.485 -1.0597 -0.8557  0.1432
   55MPD2    N1  849   1.859   4.333   0.367 -0.0675  0.0297 -0.3137
   55MPD2    H7  850   1.851   4.253   0.305  2.9550 -0.1786 -0.4066
   56TCq2    C1  851   1.868   4.305   0.501  0.7037 -0.4600 -0.1523
   56TCq2    O2  852   1.877   4.377   0.597  0.1570 -0.5839  0.1963
   56TCq2    C2  853   1.840   4.166   0.534  0.1611  0.2089 -0.0373
   56TCq2    C3  854   1.785   4.077   0.443 -0.2077  0.4878  0.2747
   56TCq2    C4  855   1.713   3.970   0.490  0.2690 -0.3800  0.1090
   56TCq2    C5  856   1.689   3.958   0.626  0.2167 -0.0721  0.0287
   56TCq2    C6  857   1.752   4.038   0.711 -0.0503  0.0062  1.4018
   56TCq2    C7  858   1.831   4.138   0.667 -0.1199 -0.0577  0.1180
   56TCq2    C8  859   1.685   4.053   0.838 -0.6278 -0.3623  0.3818
   56TCq2    O4  860   1.567   4.013   0.850 -0.1891  0.3867  0.3611
   56TCq2    C9  861   1.646   3.887   0.394 -0.4773 -0.4673 -0.1870
   56TCq2    O5  862   1.565   3.806   0.445 -0.6821 -0.3084 -0.1552
   56TCq2    O6  863   1.676   3.890   0.272 -0.5872 -0.4901 -0.1060
   56TCq2    H2  864   1.817   4.091   0.340 -1.5113 -1.4945 -0.3991
   56TCq2    H3  865   1.624   3.878   0.659  1.8789 -1.1053  0.8054
   56TCq2    H4  866   1.868   4.214   0.735  1.3819 -0.1484 -0.5941
   57TMC2    C1  867   0.704   1.565  12.989  0.2976 -0.0583 -0.0261
   57TMC2    C2  868   0.685   1.691  12.938 -0.4789 -0.1877  0.4117
   57TMC2    C3  869   0.700   1.707  12.803  0.7505 -0.2067 -0.0892
   57TMC2    C4  870   0.757   1.459  12.921  0.7959 -0.1797 -0.0469
   57TMC2    C5  871   0.794   1.493  12.793 -0.4327  0.1363  0.4588
   57TMC2    C6  872   0.758   1.612  12.733 -0.2890  0.3249  1.2247
   57TMC2     C  873   0.644   1.560  13.118  0.2857  0.2199  0.0415
   57TMC2     O  874   0.642   1.659  13.192  0.1399 -0.0597 -0.1211
   57TMC2     H  875   0.633   1.768  12.994 -0.9766  0.9010 -1.5449
   57TMC2    H1  876   0.771   1.362  12.967 -0.3917 -0.4843 -0.3438
   57TMC2    H2  877   0.772   1.629  12.627  0.6102  1.7734  1.5709
   57TMC2    C7  878   0.798   1.384  12.696  0.1354  0.4370 -0.2205
   57TMC2    C8  879   0.711   1.844  12.757  0.2548  0.2842  0.0540
   57TMC2    O1  880   0.721   1.387  12.603 -0.0084 -0.7060  0.3897
   57TMC2    O2  881   0.686   1.869  12.640  0.1533  0.6789 -0.1948
   57TMC2    O5  882   0.776   1.921  12.851 -0.1260 -0.0675  0.1173
   57TMC2    H5  883   0.803   1.866  12.928 -2.1839  0.4703  1.2148
   58MPD2     C  884   0.499   1.294  13.540 -0.0851  0.2440  0.5819
   58MPD2    C1  885   0.511   1.429  13.520  0.0406  0.8159 -0.7327
   58MPD2    C2  886   0.551   1.479  13.395 -0.5638 -0.1771 -0.2422
   58MPD2    C3  887   0.566   1.396  13.290 -0.3095  0.0034  0.5446
   58MPD2    C4  888   0.550   1.262  13.314 -0.3720  0.5289 -0.3893
   58MPD2    C5  889   0.517   1.202  13.435 -0.0112 -0.2281 -0.3516
   58MPD2     H  890   0.553   1.587  13.386  0.0689 -0.3112 -1.5591
   58MPD2    H1  891   0.548   1.192  13.232  1.3660 -1.6368  1.4100
   58MPD2    H2  892   0.477   1.260  13.640  2.3152 -2.7866  0.0630
   58MPD2    H3  893   0.504   1.095  13.443 -2.0106 -0.0588 -1.3723
   58MPD2     N  894   0.604   1.432  13.154  0.1929  0.7672 -0.2189
   58MPD2    H5  895   0.623   1.359  13.087  0.3048  2.1338 -1.6820
   58MPD2    N1  896   0.496   1.522  13.624  0.1341 -0.4670 -0.3514
   58MPD2    H7  897   0.521   1.616  13.596  0.9607 -0.6120 -0.0998
   59MPD2     C  898   3.768   1.884  12.523 -0.2141  0.1811 -0.3912
   59MPD2    C1  899   3.682   1.842  12.624  0.5036 -0.1043 -0.1838
   59MPD2    C2  900   3.732   1.817  12.749 -0.2909 -0.1571  0.8351
   59MPD2    C3  901   3.870   1.845  12.773 -0.6053 -0.0672  0.2307
   59MPD2    C4  902   3.948   1.899  12.671 -0.0651 -0.1059  0.4233
   59MPD2    C5  903   3.897   1.919  12.547 -0.7732 -0.6152 -0.5034
   59MPD2     H  904   3.674   1.753  12.814 -0.5403  0.7036  1.4674
   59MPD2    H1  905   4.048   1.931  12.695  0.0208  0.9111 -1.3121
   59MPD2    H2  906   3.734   1.887  12.420  2.3662  1.3155 -1.1862
   59MPD2    H3  907   3.962   1.955  12.467 -0.7904 -0.8175 -0.6093
   59MPD2     N  908   3.935   1.821  12.894  0.3393 -0.3643  0.1651
   59MPD2    H5  909   4.036   1.830  12.886  0.4534  0.1959  2.4775
   59MPD2    N1  910   3.550   1.800  12.595  0.1917 -0.3126 -0.0313
   59MPD2    H7  911   3.507   1.744  12.668 -1.6717 -1.0469 -1.7105
   60TCq2    C1  912   3.467   1.834  12.490 -0.1797  0.0536 -0.2165
   60TCq2    O2  913   3.492   1.895  12.390 -0.1870  0.2531 -0.5676
   60TCq2    C2  914   3.325   1.806  12.520  0.4659  0.8229 -1.0714
   60TCq2    C3  915   3.283   1.710  12.608  0.5187  0.6951  0.9563
   60TCq2    C4  916   3.148   1.695  12.631  0.8661  0.0630  0.2733
   60TCq2    C5  917   3.056   1.779  12.577 -0.5960 -0.0017  0.1995
   60TCq2    C6  918   3.101   1.879  12.493 -0.3850  0.2162  0.3386
   60TCq2    C7  919   3.234   1.894  12.460  0.4058  0.3393 -0.3079
   60TCq2    C8  920   3.017   1.998  12.469  0.0927  0.1239  0.1915
   60TCq2    O4  921   2.898   1.982  12.462 -0.0878 -0.4546  0.2372
   60TCq2    C9  922   3.106   1.594  12.722  0.1197  0.9332  0.0024
   60TCq2    O5  923   2.980   1.562  12.717 -0.9776  0.1553  0.2661
   60TCq2    O6  924   3.197   1.553  12.799 -0.6895  0.2680  0.5223
   60TCq2    H2  925   3.348   1.641  12.660 -0.2393 -1.5133 -0.9869
   60TCq2    H3  926   2.951   1.770  12.606 -0.3395  0.9868  1.4634
   60TCq2    H4  927   3.274   1.968  12.393 -0.7967  0.1903 -1.1930
   61MPD2     C  928   2.825   2.903  14.430  0.1635 -0.1243 -0.2579
   61MPD2    C1  929   2.879   3.004  14.512  0.0950 -0.5866  0.1266
   61MPD2    C2  930   2.894   3.129  14.463  0.3791  0.0307  0.2329
   61MPD2    C3  931   2.858   3.159  14.332  0.6490  0.5582  0.4191
   61MPD2    C4  932   2.813   3.057  14.246  0.4838 -0.3081 -0.0505
   61MPD2    C5  933   2.797   2.929  14.294 -0.0187 -0.3312 -0.1030
   61MPD2     H  934   2.914   3.204  14.539  0.8276  1.6404 -1.4649
   61MPD2    H1  935   2.798   3.088  14.144 -1.9570  0.6886  0.6147
   61MPD2    H2  936   2.835   2.802  14.468 -1.3253  0.0396  0.5651
   61MPD2    H3  937   2.771   2.858  14.216 -1.7537  1.6223 -1.2906
   61MPD2     N  938   2.868   3.292  14.283  0.6282 -0.8316  0.4499
   61MPD2    H5  939   2.827   3.320  14.195  4.8442  1.9506 -0.6275
   61MPD2    N1  940   2.905   2.979  14.649 -0.1600  0.6289 -0.2179
   61MPD2    H7  941   2.934   3.062  14.701 -2.3779 -0.5941  2.9549
   62TCq2    C1  942   2.906   2.861  14.722 -0.2483  0.2199  0.4551
   62TCq2    O2  943   2.916   2.747  14.680  0.6085  0.4161  0.3992
   62TCq2    C2  944   2.900   2.873  14.871 -0.1923 -0.3405  0.1256
   62TCq2    C3  945   2.903   2.760  14.949  0.7771 -0.3370  0.1282
   62TCq2    C4  946   2.873   2.778  15.078  0.6840 -0.2874 -0.2797
   62TCq2    C5  947   2.860   2.901  15.139  0.2380  0.0213  0.6362
   62TCq2    C6  948   2.859   3.011  15.062  0.5601 -0.0070 -0.6127
   62TCq2    C7  949   2.890   3.002  14.930  0.9349 -0.5175 -0.7830
   62TCq2    C8  950   2.881   3.138  15.118  1.0179 -0.0527 -0.3519
   62TCq2    O4  951   2.922   3.220  15.039  0.0599 -0.5456  0.4090
   62TCq2    C9  952   2.883   2.667  15.165 -0.0511 -0.6047 -0.1818
   62TCq2    O5  953   2.913   2.697  15.285  1.0762  0.3467  0.4318
   62TCq2    O6  954   2.888   2.555  15.107  0.6323 -0.1066  1.0470
   62TCq2    H2  955   2.916   2.666  14.896  0.1498 -0.7344  0.6879
   62TCq2    H3  956   2.853   2.900  15.247 -1.6522 -0.9269  0.5051
   62TCq2    H4  957   2.863   3.086  14.868  0.6412 -0.4888 -0.6169
   63TMC2    C1  958   2.649   2.632  10.890 -0.4054  0.3178 -0.7336
   63TMC2    C2  959   2.738   2.701  10.974  0.3164  0.3310  0.4889
   63TMC2    C3  960   2.773   2.829  10.952  0.0801  0.4058 -0.4773
   63TMC2    C4  961   2.598   2.700  10.783  0.6312 -0.7188 -0.3776
   63TMC2    C5  962   2.637   2.833  10.762  0.1928  0.8727 -0.1177
   63TMC2    C6  963   2.729   2.894  10.843  0.0300  0.8093  0.1020
   63TMC2     C  964   2.572   2.529  10.960 -0.1899  0.4438 -0.8132
   63TMC2     O  965   2.585   2.526  11.083  0.2573  0.1999  0.1162
   63TMC2     H  966   2.793   2.646  11.049 -1.2238 -1.0301  0.6061
   63TMC2    H1  967   2.514   2.663  10.725 -0.4219 -0.8492  1.2289
   63TMC2    H2  968   2.755   2.997  10.818  0.2191  0.7151 -0.0952
   63TMC2    C7  969   2.567   2.902  10.657  0.4856 -0.5122  0.5459
   63TMC2    C8  970   2.877   2.884  11.037 -0.1906 -0.2184  0.1823
   63TMC2    O1  971   2.459   2.864  10.624 -0.2101 -0.7091 -0.4190
   63TMC2    O2  972   2.955   2.813  11.095  0.0945 -0.0602  0.6354
   63TMC2    O5  973   2.879   3.021  11.018  0.0771 -0.1464  0.1076
   63TMC2    H5  974   2.787   3.050  11.000  0.3769  0.4894 -0.3762
   64MPD2     C  975   2.283   2.095  10.966  0.1676  0.3541  0.2798
   64MPD2    C1  976   2.326   2.122  10.837 -0.1574 -0.2790  0.5454
   64MPD2    C2  977   2.406   2.229  10.811 -0.8833  0.5840 -0.0297
   64MPD2    C3  978   2.444   2.320  10.907 -0.2253 -0.1859 -0.0256
   64MPD2    C4  979   2.412   2.289  11.035 -0.4228 -0.7498  0.2313
   64MPD2    C5  980   2.328   2.178  11.066 -0.0558 -0.3908 -1.1386
   64MPD2     H  981   2.444   2.250  10.712 -1.8054 -2.3848 -1.0016
   64MPD2    H1  982   2.446   2.341  11.123  3.0398  1.9883 -2.7425
   64MPD2    H2  983   2.218   2.012  10.990  0.5518  0.5373  1.9914
   64MPD2    H3  984   2.318   2.153  11.172 -0.1347  0.8379 -0.8625
   64MPD2     N  985   2.523   2.431  10.874 -0.4052  0.6102  0.1581
   64MPD2    H5  986   2.549   2.432  10.775  1.1685 -2.4563  0.5264
   64MPD2    N1  987   2.301   2.034  10.727 -0.1322  0.5868 -0.5304
   64MPD2    H7  988   2.356   2.049  10.643 -1.5136 -0.3526 -1.5809
   65MPD2     C  989   3.827   2.407  15.629  0.6465  0.4365 -0.0883
   65MPD2    C1  990   3.719   2.434  15.551  0.4940 -0.7111 -0.6000
   65MPD2    C2  991   3.623   2.347  15.536 -0.0899 -0.1848 -0.7411
   65MPD2    C3  992   3.632   2.219  15.591 -1.1223 -0.2859 -0.1964
   65MPD2    C4  993   3.747   2.179  15.656  0.2477  0.2426 -0.7740
   65MPD2    C5  994   3.843   2.277  15.677  0.4582  0.4269 -0.1585
   65MPD2     H  995   3.541   2.383  15.475  1.8087 -0.4238 -3.4470
   65MPD2    H1  996   3.763   2.082  15.701  0.7144 -0.4400 -2.4034
   65MPD2    H2  997   3.916   2.467  15.644  1.7427 -1.7817  2.2642
   65MPD2    H3  998   3.930   2.245  15.733  0.1385 -3.2573 -1.8032
   65MPD2     N  999   3.528   2.125  15.575 -0.6186 -0.0421  0.8080
   65MPD2    H5 1000   3.559   2.034  15.609 -0.7325 -1.0083 -1.6988
   65MPD2    N1 1001   3.705   2.556  15.478 -0.0116 -0.4278  0.0694
   65MPD2    H7 1002   3.628   2.575  15.416  0.6417 -0.7458 -0.8370
   66TCq2    C1 1003   3.795   2.660  15.486 -0.8319  0.2046 -0.3727
   66TCq2    O2 1004   3.890   2.683  15.559 -0.9590  0.0141 -0.4515
   66TCq2    C2 1005   3.779   2.739  15.360 -0.2454 -0.5830  0.3702
   66TCq2    C3 1006   3.695   2.700  15.265 -0.0053 -0.3612 -0.2762
   66TCq2    C4 1007   3.678   2.790  15.159 -0.5298  0.5029 -0.2096
   66TCq2    C5 1008   3.713   2.917  15.172  0.7204  0.0320  0.0680
   66TCq2    C6 1009   3.785   2.954  15.281 -0.1427 -0.6822  0.1693
   66TCq2    C7 1010   3.825   2.866  15.372 -0.4756  0.4154  0.3000
   66TCq2    C8 1011   3.770   3.089  15.325 -0.2037 -0.3011  0.0991
   66TCq2    O4 1012   3.774   3.174  15.238  0.7971  0.3237 -0.2491
   66TCq2    C9 1013   3.583   2.752  15.055 -0.2800  1.2834 -0.0091
   66TCq2    O5 1014   3.556   2.830  14.958 -0.2084 -0.5126  0.7425
   66TCq2    O6 1015   3.510   2.652  15.080  0.3965  0.1899 -0.1684
   66TCq2    H2 1016   3.655   2.601  15.247  2.2981 -0.8643 -2.6459
   66TCq2    H3 1017   3.678   2.991  15.100  0.7128 -0.1119 -0.0760
   66TCq2    H4 1018   3.905   2.880  15.445  0.4997  2.2734 -1.1157
   67MPD2     C 1019   3.460   3.030  13.898 -0.5994  0.2758  0.6042
   67MPD2    C1 1020   3.423   2.914  13.965  0.3815 -0.6828  0.3390
   67MPD2    C2 1021   3.339   2.830  13.897 -0.4874 -0.2363 -0.5532
   67MPD2    C3 1022   3.296   2.850  13.769 -0.8037  0.4853  0.3425
   67MPD2    C4 1023   3.328   2.968  13.704  1.0195 -1.0682 -0.4422
   67MPD2    C5 1024   3.414   3.055  13.776 -0.2220 -0.2901 -0.4687
   67MPD2     H 1025   3.318   2.737  13.950 -0.7149 -1.1479 -2.2400
   67MPD2    H1 1026   3.294   2.980  13.602  2.0637 -2.1725 -0.9343
   67MPD2    H2 1027   3.542   3.089  13.936  0.6476 -1.2427  0.2831
   67MPD2    H3 1028   3.459   3.130  13.712  3.0117 -2.1243 -0.3300
   67MPD2     N 1029   3.224   2.755  13.696 -0.8578 -0.4810  0.1984
   67MPD2    H5 1030   3.175   2.790  13.615  0.1742 -0.4021 -0.3822
   67MPD2    N1 1031   3.471   2.873  14.092 -0.1548 -0.1808  0.0862
   67MPD2    H7 1032   3.449   2.775  14.107  0.4284  0.2874  3.8402
   68TCq2    C1 1033   3.560   2.939  14.170 -0.0668 -0.2495 -0.5391
   68TCq2    O2 1034   3.601   3.054  14.162  0.1151 -0.2373 -0.5427
   68TCq2    C2 1035   3.614   2.866  14.288  0.1713  0.1879  0.5990
   68TCq2    C3 1036   3.679   2.933  14.385  0.4536 -1.1735  0.0390
   68TCq2    C4 1037   3.736   2.864  14.484 -0.1402  0.4463 -0.1456
   68TCq2    C5 1038   3.721   2.729  14.490  0.1535 -0.0046 -0.3230
   68TCq2    C6 1039   3.647   2.661  14.395 -1.2229 -0.0086 -0.3018
   68TCq2    C7 1040   3.598   2.728  14.290 -0.5748 -0.0859  1.4622
   68TCq2    C8 1041   3.641   2.515  14.395 -0.3105  0.1578 -0.1810
   68TCq2    O4 1042   3.577   2.465  14.301 -0.3334 -0.5937  0.3263
   68TCq2    C9 1043   3.798   2.926  14.597 -0.2845  0.0145  0.3749
   68TCq2    O5 1044   3.829   3.048  14.579  0.2033  0.6574  0.6852
   68TCq2    O6 1045   3.816   2.856  14.699 -0.2827 -0.2832 -0.3275
   68TCq2    H2 1046   3.690   3.041  14.379  0.5260 -1.1368  0.9804
   68TCq2    H3 1047   3.770   2.684  14.575  3.2011  2.4688 -0.7788
   68TCq2    H4 1048   3.554   2.674  14.207  0.5383  0.8154  0.2813
   69TMC2    C1 1049   0.171   3.444  11.975 -0.3802  0.3827  0.3193
   69TMC2    C2 1050   0.038   3.406  11.969 -0.2444 -0.2911 -0.3839
   69TMC2    C3 1051   4.701   3.434  11.847 -0.0564 -0.1446 -0.0986
   69TMC2    C4 1052   0.236   3.503  11.874  0.2403 -0.3728  0.4077
   69TMC2    C5 1053   0.173   3.511  11.751  0.6187  0.5408  0.3493
   69TMC2    C6 1054   0.040   3.491  11.738  0.3401 -0.8200 -0.4291
   69TMC2     C 1055   0.252   3.337  12.035 -0.1522  0.1036 -0.4789
   69TMC2     O 1056   0.211   3.286  12.138  0.2531  0.0901  0.0433
   69TMC2     H 1057   4.704   3.361  12.050 -0.8671  2.8755  0.9656
   69TMC2    H1 1058   0.343   3.525  11.878 -0.1017  1.3005  0.6375
   69TMC2    H2 1059   0.000   3.472  11.639  0.8187 -1.2936 -0.5327
   69TMC2    C7 1060   0.267   3.466  11.648 -0.2006  1.1697 -0.2973
   69TMC2    C8 1061   4.559   3.401  11.833  0.2855 -0.4746  0.1777
   69TMC2    O1 1062   0.359   3.401  11.697  0.2255 -0.0151  0.7088
   69TMC2    O2 1063   4.524   3.404  11.719  0.2352 -0.0882 -0.2524
   69TMC2    O5 1064   4.491   3.454  11.933  0.6913 -0.3951 -0.1552
   69TMC2    H5 1065   4.526   3.465  12.024  1.6948  1.2273 -0.7481
   70MPD2     C 1066   0.573   3.217  11.876  0.6012  0.0117  0.1859
   70MPD2    C1 1067   0.482   3.235  11.981  0.0043 -0.0145 -0.5092
   70MPD2    C2 1068   0.508   3.169  12.104 -0.4022 -0.1886 -0.1220
   70MPD2    C3 1069   0.621   3.093  12.122 -0.5835  0.5066 -0.6485
   70MPD2    C4 1070   0.708   3.072  12.014  0.5995  0.3478 -0.1087
   70MPD2    C5 1071   0.685   3.136  11.895  0.3967 -0.0496  0.5598
   70MPD2     H 1072   0.432   3.175  12.181  0.9666 -1.8478  1.3524
   70MPD2    H1 1073   0.793   3.005  12.025  0.7026  0.8615  2.1518
   70MPD2    H2 1074   0.558   3.252  11.775  0.1399 -0.9528 -0.0807
   70MPD2    H3 1075   0.757   3.115  11.817 -0.3472  0.1333 -0.1735
   70MPD2     N 1076   0.656   3.015  12.239 -0.9043 -0.6456  0.1898
   70MPD2    H5 1077   0.747   2.970  12.242 -0.5539 -0.0900 -2.4433
   70MPD2    N1 1078   0.363   3.307  11.957  0.5967 -0.9232  0.5750
   70MPD2    H7 1079   0.352   3.339  11.861 -0.0289 -0.1739  0.8874
   71TMC2    C1 1080   2.521   2.751   1.843  0.0453 -0.0651  0.8188
   71TMC2    C2 1081   2.489   2.632   1.785 -0.7165 -0.2470  0.0991
   71TMC2    C3 1082   2.368   2.571   1.816  0.0190 -0.3510  1.3039
   71TMC2    C4 1083   2.431   2.812   1.929 -0.5092 -0.3776  0.6912
   71TMC2    C5 1084   2.321   2.734   1.975  0.3716 -0.6097 -0.1192
   71TMC2    C6 1085   2.281   2.616   1.912  0.1587 -0.0209 -0.0173
   71TMC2     C 1086   2.650   2.813   1.812 -0.1209  0.4669 -0.1723
   71TMC2     O 1087   2.710   2.773   1.712 -0.4273  0.6341  0.2633
   71TMC2     H 1088   2.556   2.598   1.707  1.3174  0.9045  1.3381
   71TMC2    H1 1089   2.443   2.906   1.981  2.0412 -0.3762  0.1019
   71TMC2    H2 1090   2.197   2.560   1.951  1.8104 -1.1885  1.8799
   71TMC2    C7 1091   2.209   2.795   2.041  1.1668 -0.5382  0.2458
   71TMC2    C8 1092   2.364   2.433   1.790 -0.1363 -0.4595  0.1377
   71TMC2    O1 1093   2.125   2.723   2.091  0.4829  0.1808 -0.4139
   71TMC2    O2 1094   2.467   2.376   1.772 -0.2160 -0.3855 -0.1974
   71TMC2    O5 1095   2.247   2.395   1.748 -0.0919 -0.3338 -0.2452
   71TMC2    H5 1096   2.173   2.459   1.751  0.4853  0.3210 -0.0493
   72MPD2     C 1097   2.989   3.193   1.918 -0.2869 -0.5204  0.7098
   72MPD2    C1 1098   2.981   3.104   1.809 -0.1834  0.2627 -0.5327
   72MPD2    C2 1099   2.884   3.008   1.812  0.9436 -0.7493 -0.5163
   72MPD2    C3 1100   2.782   3.000   1.905  0.7291 -0.5245 -0.9723
   72MPD2    C4 1101   2.790   3.086   2.010 -0.3773 -0.2681 -0.1853
   72MPD2    C5 1102   2.895   3.177   2.016 -0.1334  0.1950  0.7134
   72MPD2     H 1103   2.866   2.937   1.732  1.8848 -1.0088 -0.4899
   72MPD2    H1 1104   2.719   3.071   2.090 -0.9798 -1.3786 -0.9241
   72MPD2    H2 1105   3.062   3.274   1.923 -1.3730  0.5165 -0.3529
   72MPD2    H3 1106   2.897   3.249   2.097 -0.1237 -1.7925  2.4776
   72MPD2     N 1107   2.664   2.922   1.888 -0.3440  0.6097 -0.1967
   72MPD2    H5 1108   2.604   2.925   1.970 -1.2835  1.6403 -0.9253
   72MPD2    N1 1109   3.067   3.113   1.695 -0.5375 -0.2819 -0.4243
   72MPD2    H7 1110   3.043   3.056   1.613 -0.1699 -1.2161  0.1133
   73TMC2    C1 1111   2.772   1.006  13.934 -0.1050  0.5006 -0.4591
   73TMC2    C2 1112   2.690   1.022  14.038 -0.2033  0.2672  0.4628
   73TMC2    C3 1113   2.692   0.928  14.141 -0.1008 -0.2596 -0.5440
   73TMC2    C4 1114   2.842   0.891  13.920 -0.4341  0.8211 -0.3909
   73TMC2    C5 1115   2.860   0.811  14.033 -0.2071 -0.5364 -0.6195
   73TMC2    C6 1116   2.791   0.837  14.146  0.7274  0.0104 -0.0159
   73TMC2     C 1117   2.863   1.120  13.898 -0.2173  0.1527 -0.3716
   73TMC2     O 1118   2.972   1.086  13.854 -0.4320  0.0336 -0.3841
   73TMC2     H 1119   2.632   1.113  14.052  0.5835  1.2474 -2.4697
   73TMC2    H1 1120   2.898   0.877  13.828  2.5192  0.6318  1.4286
   73TMC2    H2 1121   2.791   0.775  14.234  0.4135  1.5710  1.0877
   73TMC2    C7 1122   2.998   0.764  14.052  0.2728 -1.0233 -0.2826
   73TMC2    C8 1123   2.640   0.981  14.265 -0.7693 -0.1771 -0.0337
   73TMC2    O1 1124   3.021   0.684  14.139 -0.2499  0.3630  0.2062
   73TMC2    O2 1125   2.686   0.953  14.379  0.6482  0.0631  0.7171
   73TMC2    O5 1126   2.508   1.000  14.242 -0.3616 -0.7899  0.5036
   73TMC2    H5 1127   2.491   0.967  14.152 -2.1189 -1.5259  1.0979
   74MPD2     C 1128   2.990   1.598  13.765  0.4181  0.3365  0.0330
   74MPD2    C1 1129   3.061   1.487  13.802 -0.3702 -0.3582 -0.8144
   74MPD2    C2 1130   2.995   1.377  13.861 -0.7765 -0.1468  0.5902
   74MPD2    C3 1131   2.859   1.364  13.852  0.7923  0.7223 -1.2307
   74MPD2    C4 1132   2.782   1.474  13.816  0.0947  0.5232  0.8825
   74MPD2    C5 1133   2.851   1.585  13.780  0.1355  0.3266 -0.3090
   74MPD2     H 1134   3.048   1.296  13.911 -0.3235  0.3344  0.8839
   74MPD2    H1 1135   2.674   1.483  13.818  0.0899  0.2022  1.9062
   74MPD2    H2 1136   3.027   1.695  13.733 -1.9777  1.2513  0.0550
   74MPD2    H3 1137   2.787   1.666  13.747 -0.6235 -0.1530 -0.0221
   74MPD2     N 1138   2.797   1.242  13.891 -0.1373 -0.0174  0.4291
   74MPD2    H5 1139   2.696   1.233  13.888 -0.0247 -0.7756 -0.9347
   74MPD2    N1 1140   3.201   1.497  13.790  0.8244 -0.2812  0.3662
   74MPD2    H7 1141   3.241   1.576  13.739 -0.0039 -2.6785 -3.9518
   75TCq2    C1 1142   3.227   2.623  13.735 -0.3526 -0.1480  0.0387
   75TCq2    O2 1143   3.280   2.567  13.829  0.1219 -0.0410  0.0697
   75TCq2    C2 1144   3.120   2.542  13.679  0.3182  0.2787 -0.2949
   75TCq2    C3 1145   3.075   2.439  13.760 -0.0439  0.1238  0.9266
   75TCq2    C4 1146   2.950   2.397  13.737  0.1535  0.1559 -0.9123
   75TCq2    C5 1147   2.872   2.449  13.636 -0.2208  0.5397  0.2958
   75TCq2    C6 1148   2.917   2.547  13.554 -0.4991 -0.6319 -0.1482
   75TCq2    C7 1149   3.048   2.590  13.577 -0.3722 -0.0551 -0.3998
   75TCq2    C8 1150   2.865   2.548  13.420 -0.2462 -0.7216  0.6437
   75TCq2    O4 1151   2.799   2.451  13.389  0.2897  0.4490 -0.5688
   75TCq2    C9 1152   2.910   2.280  13.807 -0.3740  0.1807  0.4132
   75TCq2    O5 1153   2.823   2.205  13.755  0.3009 -0.4538 -0.4725
   75TCq2    O6 1154   2.983   2.248  13.903 -0.4386  0.4860  0.2815
   75TCq2    H2 1155   3.140   2.388  13.830  1.2183  0.5654  0.0741
   75TCq2    H3 1156   2.783   2.392  13.615 -0.4670  0.8069  0.6175
   75TCq2    H4 1157   3.091   2.664  13.511  1.6184 -0.8587 -0.0041
   76MPD2     C 1158   1.184   2.953  11.808 -0.1342 -1.0585 -1.2820
   76MPD2    C1 1159   1.221   3.011  11.686  0.5138  0.7997  0.0255
   76MPD2    C2 1160   1.351   3.047  11.671  0.8711  0.9605  0.3309
   76MPD2    C3 1161   1.443   3.022  11.777 -0.8944 -0.2152  0.1702
   76MPD2    C4 1162   1.408   2.967  11.897  0.3021 -0.4840 -0.1662
   76MPD2    C5 1163   1.274   2.934  11.908 -0.2278 -0.7358  0.2812
   76MPD2     H 1164   1.381   3.083  11.574  0.8303  0.6950  0.2211
   76MPD2    H1 1165   1.479   2.949  11.976  2.0847 -1.3035 -1.9695
   76MPD2    H2 1166   1.080   2.930  11.828 -0.7857  0.8200 -2.5280
   76MPD2    H3 1167   1.236   2.889  11.999  0.2266 -2.3158 -0.3065
   76MPD2     N 1168   1.582   3.032  11.761  0.0664 -0.6074  0.2140
   76MPD2    H5 1169   1.638   2.998  11.839  2.2270 -0.1780 -1.1358
   76MPD2    N1 1170   1.133   3.034  11.578 -0.5754 -0.4403 -0.1777
   76MPD2    H7 1171   1.172   3.087  11.501  1.2569  1.7613  2.2723
   77TCq2    C1 1172   1.654   3.089  11.657 -0.5646  0.0578  0.1907
   77TCq2    O2 1173   1.610   3.162  11.569  0.3926 -0.0278 -0.5125
   77TCq2    C2 1174   1.796   3.089  11.687  0.3498  0.4404 -0.5942
   77TCq2    C3 1175   1.865   3.209  11.663 -0.0151  0.4639 -0.1030
   77TCq2    C4 1176   1.986   3.219  11.722  0.2270  0.2530 -0.6879
   77TCq2    C5 1177   2.045   3.116  11.799 -0.1152 -0.2646 -0.6183
   77TCq2    C6 1178   1.976   2.999  11.814 -0.0559  0.5506 -0.2399
   77TCq2    C7 1179   1.849   2.989  11.760  0.8091 -0.3166 -0.4670
   77TCq2    C8 1180   2.017   2.909  11.915  0.0067 -0.2954  0.1214
   77TCq2    O4 1181   1.973   2.797  11.901 -0.2607  0.1487  0.3496
   77TCq2    C9 1182   2.054   3.339  11.701  0.2364  0.1178 -0.2278
   77TCq2    O5 1183   2.159   3.354  11.759 -0.6421  0.3155  0.1412
   77TCq2    O6 1184   2.013   3.408  11.607 -0.4958  0.8045 -0.0072
   77TCq2    H2 1185   1.826   3.293  11.606 -0.2491 -0.2054 -0.9280
   77TCq2    H3 1186   2.151   3.124  11.819  0.1362 -3.1280 -0.8273
   77TCq2    H4 1187   1.800   2.894  11.779  0.4032 -0.1513 -0.6969
   78MPD1     C 1188   4.100   1.189   2.099  0.2460  0.0290  0.0926
   78MPD1    C1 1189   3.965   1.156   2.121  0.4531 -0.7169 -0.2745
   78MPD1    C2 1190   3.872   1.256   2.138 -0.3168 -0.7694 -0.1061
   78MPD1    C3 1191   3.895   1.390   2.104  0.3973  0.1385 -0.4655
   78MPD1    C4 1192   4.021   1.419   2.072 -0.1254 -0.1063  0.2434
   78MPD1    C5 1193   4.121   1.320   2.066  0.2443 -0.1303  0.4811
   78MPD1     H 1194   3.769   1.228   2.159 -0.7097  0.4647 -0.3750
   78MPD1    H1 1195   4.047   1.524   2.065 -1.2802  0.1975  0.3741
   78MPD1    H2 1196   4.191   1.131   2.095  1.5066  2.0303 -0.6334
   78MPD1    H3 1197   4.220   1.358   2.043 -0.1001  0.3963 -0.1219
   78MPD1     N 1198   3.800   1.499   2.110  0.3233 -0.1346  0.1744
   78MPD1    H5 1199   3.835   1.591   2.083 -1.9744  0.8337  0.4946
   78MPD1    N1 1200   3.927   1.029   2.150  0.2341  0.4018  0.0611
   78MPD1    H6 1201   3.988   0.971   2.093  0.7733 -0.5573  1.6307
   78MPD1    H7 1202   3.827   1.014   2.134  0.0512 -0.2287  1.8496
   79TCq2    C1 1203   3.669   1.486   2.119 -0.3261  0.8490  0.2232
   79TCq2    O2 1204   3.599   1.390   2.154  0.1089 -0.6072 -0.4952
   79TCq2    C2 1205   3.603   1.613   2.087 -0.1972 -0.9399 -0.9265
   79TCq2    C3 1206   3.474   1.626   2.129  0.0542  0.4209 -0.2152
   79TCq2    C4 1207   3.410   1.745   2.096  0.1280 -0.4420  0.2826
   79TCq2    C5 1208   3.474   1.849   2.025 -0.8559 -0.4995  0.0712
   79TCq2    C6 1209   3.603   1.825   1.990  0.3243 -0.1453 -0.7720
   79TCq2    C7 1210   3.679   1.714   2.020  0.0619  0.4905  0.5723
   79TCq2    C8 1211   3.664   1.936   1.919 -0.4197 -0.4650 -0.1319
   79TCq2    O4 1212   3.784   1.937   1.925 -0.5516  0.1209  0.1626
   79TCq2    C9 1213   3.272   1.742   2.116 -0.1374 -0.0279  0.0857
   79TCq2    O5 1214   3.222   1.641   2.176  0.4203 -0.1140  1.0776
   79TCq2    O6 1215   3.212   1.835   2.060 -0.1313  0.3067  0.2112
   79TCq2    H2 1216   3.426   1.544   2.182  0.5863  0.4213  0.2727
   79TCq2    H3 1217   3.430   1.948   2.028 -0.6633 -0.3729 -1.1782
   79TCq2    H4 1218   3.771   1.693   1.968 -0.9605  1.2692 -1.5803
   80MPD2     C 1219   1.271   2.287  12.002 -0.1888 -0.0992 -0.0244
   80MPD2    C1 1220   1.184   2.288  11.891  0.1855 -0.1825 -0.1883
   80MPD2    C2 1221   1.049   2.299  11.916 -0.1466  0.2490  0.1772
   80MPD2    C3 1222   1.003   2.320  12.043 -0.5123 -0.0873 -0.1117
   80MPD2    C4 1223   1.093   2.329  12.147  1.0523 -0.1899  0.1720
   80MPD2    C5 1224   1.225   2.314  12.126 -0.4640  0.1325 -0.3151
   80MPD2     H 1225   0.986   2.297  11.828 -2.8917 -2.4811  2.2126
   80MPD2    H1 1226   1.063   2.346  12.249  0.9365 -0.9643  0.2703
   80MPD2    H2 1227   1.377   2.268  12.001 -0.3435 -0.7916 -1.9759
   80MPD2    H3 1228   1.288   2.321  12.214 -0.5103  0.6826 -0.3215
   80MPD2     N 1229   0.862   2.331  12.067 -0.2954 -0.0402 -0.4202
   80MPD2    H5 1230   0.842   2.323  12.167 -1.1838  1.8901 -0.4463
   80MPD2    N1 1231   1.221   2.276  11.753  0.2084 -0.0759  0.2676
   80MPD2    H7 1232   1.145   2.260  11.687  0.8234  1.7480 -0.8705
   81TCq2    C1 1233   1.349   2.291  11.705 -0.4468  0.2673  0.5265
   81TCq2    O2 1234   1.448   2.315  11.769 -0.2135 -0.1768  0.1826
   81TCq2    C2 1235   1.367   2.226  11.572 -0.1266 -0.4634  0.1685
   81TCq2    C3 1236   1.469   2.267  11.500 -0.1403 -0.0467  0.4621
   81TCq2    C4 1237   1.479   2.236  11.367 -0.6007  0.4747  0.3882
   81TCq2    C5 1238   1.383   2.155  11.307  0.0519 -0.1507  0.3093
   81TCq2    C6 1239   1.283   2.111  11.380 -0.6155 -0.1347 -0.2896
   81TCq2    C7 1240   1.267   2.146  11.511 -0.1284  0.7100 -0.8324
   81TCq2    C8 1241   1.210   1.998  11.330 -0.5612  0.5378 -0.6948
   81TCq2    O4 1242   1.193   1.992  11.208 -0.0429  0.2589 -0.0924
   81TCq2    C9 1243   1.590   2.274  11.286  0.9610  0.5622 -0.0551
   81TCq2    O5 1244   1.664   2.362  11.331 -0.1818  0.2264 -0.5436
   81TCq2    O6 1245   1.579   2.244  11.163 -0.4403  0.1578  0.0245
   81TCq2    H2 1246   1.550   2.323  11.546 -0.9191  0.3378  1.3420
   81TCq2    H3 1247   1.388   2.125  11.203  0.2994  1.4947 -0.1410
   81TCq2    H4 1248   1.185   2.111  11.573  1.5193 -1.0253  0.3497
   82MPD2     C 1249   3.865   2.355  10.069  0.3557 -0.2384  0.0960
   82MPD2    C1 1250   3.823   2.234  10.013 -0.2635  0.1211  0.1706
   82MPD2    C2 1251   3.893   2.118  10.064 -0.1550  0.4352  0.1205
   82MPD2    C3 1252   3.989   2.126  10.162  0.8343 -0.2363  0.4957
   82MPD2    C4 1253   4.018   2.247  10.219 -0.3299 -0.2679 -0.4974
   82MPD2    C5 1254   3.953   2.360  10.169 -0.1962 -0.1149 -0.0893
   82MPD2     H 1255   3.866   2.023  10.018  1.4897  0.0404 -0.0346
   82MPD2    H1 1256   4.090   2.260  10.299  0.1718  0.2080 -1.0249
   82MPD2    H2 1257   3.816   2.449  10.042 -1.4097 -0.4187  2.6181
   82MPD2    H3 1258   3.977   2.459  10.206  0.8066 -1.0700  1.7835
   82MPD2     N 1259   4.052   2.010  10.217  0.1540 -0.4904 -0.0934
   82MPD2    H5 1260   4.106   2.021  10.303 -1.2779  1.0798  0.6136
   82MPD2    N1 1261   3.736   2.235   9.908 -0.0821  0.1784  1.2744
   82MPD2    H7 1262   3.712   2.328   9.875 -3.6042 -1.9403 -2.1266
   83TCq2    C1 1263   4.038   1.879  10.181 -0.1192  0.1187 -0.2134
   83TCq2    O2 1264   3.972   1.829  10.091 -0.1824  0.4678 -0.5670
   83TCq2    C2 1265   4.085   1.780  10.278 -0.1813 -0.3020  0.1632
   83TCq2    C3 1266   4.196   1.821  10.342 -0.0641  0.1750 -0.0263
   83TCq2    C4 1267   4.228   1.758  10.462  0.6532  0.4584 -0.7494
   83TCq2    C5 1268   4.148   1.665  10.523  0.6545 -0.2999 -0.2095
   83TCq2    C6 1269   4.043   1.624  10.446  1.1890 -0.5748  0.4051
   83TCq2    C7 1270   4.005   1.677  10.321  0.2302 -0.5240  0.3426
   83TCq2    C8 1271   3.964   1.526  10.511  1.5062  0.0680  0.0954
   83TCq2    O4 1272   3.969   1.516  10.630  0.1261 -0.1232 -0.4417
   83TCq2    C9 1273   4.332   1.828  10.535 -0.6290  0.0427  0.4241
   83TCq2    O5 1274   4.346   1.805  10.658 -0.4345  0.2898 -0.0663
   83TCq2    O6 1275   4.367   1.945  10.501 -0.3434 -0.2541  0.7452
   83TCq2    H2 1276   4.267   1.888  10.296 -1.2128  1.6773  0.3857
   83TCq2    H3 1277   4.176   1.629  10.622 -0.2098 -1.9035 -0.5582
   83TCq2    H4 1278   3.914   1.648  10.270  1.5867  0.1678 -2.4702
   84TCq2    C1 1279   0.287   0.682  10.162  0.3951  0.1364 -0.8026
   84TCq2    O2 1280   0.238   0.611  10.249  0.2772 -0.5083 -0.5146
   84TCq2    C2 1281   0.392   0.769  10.203  0.4337  0.5825  0.5713
   84TCq2    C3 1282   0.460   0.849  10.115  0.0144  0.1253  0.4552
   84TCq2    C4 1283   0.530   0.955  10.167  0.5123 -0.1271  0.4778
   84TCq2    C5 1284   0.537   0.973  10.298  0.2022  0.2315  0.3302
   84TCq2    C6 1285   0.458   0.896  10.383 -0.9743  0.5108 -0.4357
   84TCq2    C7 1286   0.390   0.784  10.334  0.0087 -0.9210 -0.3096
   84TCq2    C8 1287   0.447   0.916  10.524 -0.4802  0.5023  0.8774
   84TCq2    O4 1288   0.407   0.822  10.591 -0.0374  0.0706 -0.0866
   84TCq2    C9 1289   0.592   1.043  10.075 -0.5481  0.3978 -1.3000
   84TCq2    O5 1290   0.574   1.028   9.950  0.3353 -0.5660 -0.6431
   84TCq2    O6 1291   0.623   1.157  10.123  0.4537  0.5186  0.2755
   84TCq2    H2 1292   0.462   0.828  10.008  0.4524 -1.3474  0.7576
   84TCq2    H3 1293   0.607   1.041  10.345  0.5122 -0.4557  0.8687
   84TCq2    H4 1294   0.334   0.721  10.403  0.1546 -1.2756 -0.5173
   85MPD2     C 1295   0.806   3.315  16.285  0.1547  0.8727 -0.0985
   85MPD2    C1 1296   0.709   3.266  16.196  1.0195 -0.4294  1.4011
   85MPD2    C2 1297   0.646   3.353  16.111 -0.1234  0.5813  0.4605
   85MPD2    C3 1298   0.661   3.486  16.136  0.4400  0.2635 -0.7409
   85MPD2    C4 1299   0.754   3.536  16.233  0.0037  0.0869 -0.3746
   85MPD2    C5 1300   0.831   3.442  16.294  0.4466  0.1627 -0.2472
   85MPD2     H 1301   0.571   3.316  16.041 -0.0386 -0.3982  0.8875
   85MPD2    H1 1302   0.763   3.638  16.266  0.0656 -0.2683  0.6881
   85MPD2    H2 1303   0.861   3.242  16.343  0.6914  1.3562  0.0035
   85MPD2    H3 1304   0.910   3.479  16.359  0.8515 -1.8693  0.4172
   85MPD2     N 1305   0.589   3.589  16.073 -0.0721  0.2388 -0.0541
   85MPD2    H5 1306   0.600   3.683  16.108 -1.0358 -0.1270  1.2207
   85MPD2    N1 1307   0.667   3.128  16.194 -0.4119 -0.0842  0.1115
   85MPD2    H7 1308   0.578   3.111  16.149  0.8137  0.2603 -2.4800
   86TCq2    C1 1309   0.523   3.573  15.956  0.7280  0.2267 -0.3217
   86TCq2    O2 1310   0.553   3.497  15.861  0.2712 -0.1329  0.1344
   86TCq2    C2 1311   0.462   3.702  15.932  0.1075 -0.5370 -0.1204
   86TCq2    C3 1312   0.435   3.787  16.031 -0.6751 -0.3341  0.1767
   86TCq2    C4 1313   0.433   3.921  16.007 -0.0721 -0.5764  0.0557
   86TCq2    C5 1314   0.461   3.971  15.884  0.5235 -0.8051  0.0236
   86TCq2    C6 1315   0.499   3.883  15.782 -0.6739 -0.0625 -0.2336
   86TCq2    C7 1316   0.491   3.750  15.809 -0.0869  0.9532 -0.3656
   86TCq2    C8 1317   0.627   3.917  15.727 -0.5206 -0.2527  0.0281
   86TCq2    O4 1318   0.693   3.824  15.679  0.4361 -0.0277  0.8113
   86TCq2    C9 1319   0.390   4.017  16.106 -0.9128 -0.3226  0.0670
   86TCq2    O5 1320   0.354   3.970  16.215 -0.7196  0.8078  0.3633
   86TCq2    O6 1321   0.394   4.138  16.086 -0.3410  0.3678 -0.1610
   86TCq2    H2 1322   0.384   3.754  16.121 -0.8141  0.6549  0.4607
   86TCq2    H3 1323   0.448   4.079  15.876  1.4140 -0.6369  0.7938
   86TCq2    H4 1324   0.511   3.681  15.728  1.2681  1.1098 -0.1649
   87MPD2     C 1325   2.705   1.646   1.692  0.0471 -0.7158  0.3735
   87MPD2    C1 1326   2.808   1.707   1.621 -0.5441 -0.3965 -0.4051
   87MPD2    C2 1327   2.799   1.848   1.607 -0.0992  0.2812 -0.3720
   87MPD2    C3 1328   2.683   1.918   1.646  0.3501 -0.6652  0.1627
   87MPD2    C4 1329   2.583   1.852   1.706 -0.1854 -0.5095  0.4792
   87MPD2    C5 1330   2.595   1.717   1.729  0.2864  0.6049 -0.1143
   87MPD2     H 1331   2.886   1.892   1.559  1.8063 -0.4199  2.4392
   87MPD2    H1 1332   2.494   1.902   1.742  0.5066  0.9021  0.2325
   87MPD2    H2 1333   2.704   1.539   1.711  0.8173 -1.0118 -1.2474
   87MPD2    H3 1334   2.503   1.676   1.770  0.1040  1.6910  0.5600
   87MPD2     N 1335   2.654   2.048   1.615  0.1824 -0.1141  0.5779
   87MPD2    H5 1336   2.559   2.078   1.632 -0.7249 -2.6126 -0.1356
   87MPD2    N1 1337   2.920   1.623   1.580  0.1014  0.1995 -0.4404
   87MPD2    H7 1338   2.935   1.543   1.640  0.1319  0.5525  0.0255
   88TCq2    C1 1339   3.023   1.652   1.497 -0.1768  0.6224  0.4185
   88TCq2    O2 1340   3.042   1.760   1.441 -0.4661  0.2859  0.0276
   88TCq2    C2 1341   3.114   1.536   1.494 -0.2414 -0.9269 -0.4891
   88TCq2    C3 1342   3.051   1.412   1.508  0.3583 -0.4378  0.4706
   88TCq2    C4 1343   3.126   1.301   1.487 -0.0121 -1.5045  0.4116
   88TCq2    C5 1344   3.255   1.302   1.459 -0.0870 -0.1146 -0.5694
   88TCq2    C6 1345   3.310   1.429   1.433  0.2451 -0.1409  0.8272
   88TCq2    C7 1346   3.239   1.543   1.450  0.0486  0.5944 -0.8719
   88TCq2    C8 1347   3.441   1.430   1.367  0.9529  0.3113  0.1691
   88TCq2    O4 1348   3.457   1.521   1.284  0.3519  0.4016 -0.1918
   88TCq2    C9 1349   3.062   1.165   1.496 -0.2974 -0.6439  0.2865
   88TCq2    O5 1350   2.935   1.157   1.514  0.0121 -0.1130 -0.0546
   88TCq2    O6 1351   3.145   1.072   1.514 -0.5485 -0.5580 -0.0021
   88TCq2    H2 1352   2.948   1.392   1.536 -1.4286  4.0535 -2.6798
   88TCq2    H3 1353   3.301   1.206   1.439 -0.4037 -0.7107  1.5609
   88TCq2    H4 1354   3.287   1.639   1.429 -2.5984  2.2098  0.5001
   89MPD2     C 1355   4.567   4.278   1.786  0.1343 -0.3484  0.1936
   89MPD2    C1 1356   4.494   4.390   1.820  0.9523  0.0787  0.1592
   89MPD2    C2 1357   4.542   4.514   1.780  0.4043 -0.2745 -0.8782
   89MPD2    C3 1358   4.661   4.523   1.710 -0.1706  0.3714 -0.0433
   89MPD2    C4 1359   0.011   4.406   1.686 -0.3122 -0.4531  0.0740
   89MPD2    C5 1360   4.684   4.284   1.721 -0.3179 -0.1400  0.6616
   89MPD2     H 1361   4.480   4.599   1.805 -0.1737 -0.7007 -0.8789
   89MPD2    H1 1362   0.106   4.396   1.636 -1.0014  0.1139 -1.3625
   89MPD2    H2 1363   4.524   4.179   1.794 -0.7825 -0.2630 -3.3149
   89MPD2    H3 1364   0.003   4.192   1.683  2.9361  1.0782  1.2219
   89MPD2     N 1365   4.704   4.651   1.662  0.5518  0.2539  0.7938
   89MPD2    H5 1366   4.647   0.010   1.680  0.0837  0.3592 -1.1837
   89MPD2    N1 1367   4.378   4.384   1.898 -0.3856 -0.4545  0.1110
   89MPD2    H7 1368   4.336   4.473   1.923 -0.4268 -0.4027 -0.1346
   90TCq2    C1 1369   0.087   4.674   1.583 -0.4192  0.9795  0.5226
   90TCq2    O2 1370   0.172   4.603   1.536 -0.3346  0.0866 -0.0063
   90TCq2    C2 1371   0.105   0.096   1.546 -0.1448  0.3285  0.1327
   90TCq2    C3 1372   0.059   0.192   1.629 -0.0388 -0.0889 -0.2604
   90TCq2    C4 1373   0.087   0.318   1.596 -0.2304  0.3071  0.6992
   90TCq2    C5 1374   0.139   0.356   1.475 -0.4183 -1.2346  0.8399
   90TCq2    C6 1375   0.193   0.258   1.389 -0.1742  0.3199 -0.2631
   90TCq2    C7 1376   0.173   0.125   1.429 -0.4635 -0.2733  0.4801
   90TCq2    C8 1377   0.210   0.280   1.241  0.2897 -0.4602 -0.0655
   90TCq2    O4 1378   0.259   0.182   1.180 -0.0867  0.5228 -0.2905
   90TCq2    C9 1379   0.038   0.423   1.680 -0.2221  0.6886  0.1328
   90TCq2    O5 1380   4.691   0.396   1.784 -0.0712  0.2738 -0.6660
   90TCq2    O6 1381   0.045   0.536   1.626  0.1153 -0.1538  0.4137
   90TCq2    H2 1382   0.037   0.167   1.732 -0.9890  1.2700 -0.1221
   90TCq2    H3 1383   0.160   0.457   1.442  0.4858 -1.8167 -0.3689
   90TCq2    H4 1384   0.223   0.046   1.374 -1.8930 -1.0221  0.2439
   91TMC2    C1 1385   0.948   4.256  16.521  0.2045 -0.1764 -0.3513
   91TMC2    C2 1386   1.014   4.294  16.635  0.1207  0.0136 -0.0190
   91TMC2    C3 1387   0.940   4.348  16.728  0.0579 -0.9438  0.1244
   91TMC2    C4 1388   0.814   4.283  16.503 -0.3550  0.3053  0.0663
   91TMC2    C5 1389   0.742   4.333  16.611 -0.4583  0.7350  0.7947
   91TMC2    C6 1390   0.806   4.368  16.726 -0.5655 -0.1737 -0.2060
   91TMC2     C 1391   1.021   4.200  16.414  0.2258  0.2988 -0.5286
   91TMC2     O 1392   0.951   4.143  16.331 -0.2804 -0.4965  0.0854
   91TMC2     H 1393   1.120   4.290  16.659 -0.1284  2.1753  1.4615
   91TMC2    H1 1394   0.765   4.259  16.410  0.9701 -1.2078 -0.2561
   91TMC2    H2 1395   0.750   4.403  16.812 -1.2732 -0.0115 -0.7255
   91TMC2    C7 1396   0.609   4.382  16.598 -0.6585 -0.0063  0.3122
   91TMC2    C8 1397   1.013   4.386  16.849 -0.6481 -0.5405 -0.0093
   91TMC2    O1 1398   0.548   4.430  16.694  0.3598  0.5707 -0.1366
   91TMC2    O2 1399   0.952   4.380  16.955  0.2761  0.0440 -0.2388
   91TMC2    O5 1400   1.099   4.483  16.810 -0.7875 -0.2270  0.3190
   91TMC2    H5 1401   1.105   4.480  16.712 -1.5566 -2.6227  0.3407
   92MPD2     C 1402   1.218   4.061  16.240  0.1725  0.1199 -0.6185
   92MPD2    C1 1403   1.247   4.161  16.328 -0.4156  0.3517  0.3076
   92MPD2    C2 1404   1.370   4.211  16.333 -0.1747  0.1490  0.3580
   92MPD2    C3 1405   1.473   4.166  16.255  0.5908 -0.6181 -0.5441
   92MPD2    C4 1406   1.449   4.060  16.170  0.3399  0.0988  0.8657
   92MPD2    C5 1407   1.322   4.006  16.168 -0.7905 -0.8136  0.3106
   92MPD2     H 1408   1.385   4.294  16.401 -0.1569 -0.6762  1.3625
   92MPD2    H1 1409   1.523   4.029  16.096 -1.9027 -1.0064 -0.9294
   92MPD2    H2 1410   1.119   4.017  16.235  0.1038  0.3765 -1.3682
   92MPD2    H3 1411   1.300   3.916  16.111  2.8237 -0.5372 -1.4514
   92MPD2     N 1412   1.599   4.232  16.267 -0.3559 -0.2527  0.1968
   92MPD2    H5 1413   1.595   4.315  16.325 -1.6591 -0.3371  0.2195
   92MPD2    N1 1414   1.153   4.219  16.417  0.4347  0.4506  0.0414
   92MPD2    H7 1415   1.181   4.307  16.460 -2.3251  1.0625  0.5557
   93MPD2     C 1416   2.429   4.450  13.831  0.3075  0.1774  0.5420
   93MPD2    C1 1417   2.341   4.562  13.817 -0.1010 -0.3845 -0.4273
   93MPD2    C2 1418   2.211   4.528  13.773  1.1799  0.4342 -0.2733
   93MPD2    C3 1419   2.167   4.396  13.752  0.3091 -0.5433  0.1026
   93MPD2    C4 1420   2.252   4.293  13.774 -0.0073  0.4526 -0.7528
   93MPD2    C5 1421   2.383   4.319  13.820  0.0271 -0.5884  0.1285
   93MPD2     H 1422   2.141   4.610  13.761 -0.8831 -1.7446 -3.2588
   93MPD2    H1 1423   2.228   4.187  13.764  0.3843  0.3355 -0.4666
   93MPD2    H2 1424   2.534   4.466  13.851 -0.2976 -0.2798  4.1655
   93MPD2    H3 1425   2.458   4.242  13.829  2.1408  1.4203 -0.3432
   93MPD2     N 1426   2.036   4.378  13.695 -0.0824  0.1678 -0.0477
   93MPD2    H5 1427   2.008   4.283  13.671 -0.6670  0.5441 -0.8557
   93MPD2    N1 1428   2.393   4.692  13.832  0.4802 -0.0921  0.0948
   93MPD2    H7 1429   2.486   4.695  13.873  0.8718  0.4010 -0.8184
   94TCq2    C1 1430   2.324   0.088  13.820  0.0244  0.1993 -0.7355
   94TCq2    O2 1431   2.211   0.114  13.781 -0.0539  0.2300 -0.4475
   94TCq2    C2 1432   2.408   0.208  13.843 -0.4793 -0.4966  0.0959
   94TCq2    C3 1433   2.344   0.317  13.896 -1.0551  0.1179 -0.0841
   94TCq2    C4 1434   2.418   0.429  13.936 -0.5870  0.0853  0.0285
   94TCq2    C5 1435   2.556   0.416  13.937  0.1083  0.3428  0.1678
   94TCq2    C6 1436   2.616   0.305  13.876 -1.1398  0.3228 -0.9445
   94TCq2    C7 1437   2.545   0.197  13.823  0.3867  0.0835  0.0460
   94TCq2    C8 1438   2.759   0.305  13.852 -0.6916 -0.3467 -0.3573
   94TCq2    O4 1439   2.822   0.201  13.849  0.0367  0.2591  0.0006
   94TCq2    C9 1440   2.355   0.542  13.995  0.5395 -0.0105 -0.4226
   94TCq2    O5 1441   2.435   0.642  14.013  0.3317 -0.1314  0.1350
   94TCq2    O6 1442   2.227   0.535  14.001  0.3304  0.1514 -0.1234
   94TCq2    H2 1443   2.238   0.314  13.918 -0.8897  0.5573  0.8074
   94TCq2    H3 1444   2.615   0.495  13.982  1.0233 -0.7181  0.8351
   94TCq2    H4 1445   2.597   0.120  13.768 -1.6547 -0.0497 -1.7281
   95TMC2    C1 1446   2.926   1.272  16.077  1.3247 -0.2534 -0.1444
   95TMC2    C2 1447   2.885   1.183  15.985 -0.4092 -0.7279  0.1102
   95TMC2    C3 1448   2.804   1.077  16.030  0.1679  0.7845  0.5147
   95TMC2    C4 1449   2.883   1.272  16.212  0.4447  0.1423  1.0655
   95TMC2    C5 1450   2.816   1.161  16.255  0.0699  0.7623  0.7256
   95TMC2    C6 1451   2.779   1.062  16.167  0.5935 -0.5976 -0.3624
   95TMC2     C 1452   2.993   1.394  16.032  1.1531 -0.4760 -0.1604
   95TMC2     O 1453   3.003   1.400  15.914  0.0198  0.4434 -0.3656
   95TMC2     H 1454   2.895   1.195  15.878 -0.5463 -3.9207 -0.2392
   95TMC2    H1 1455   2.914   1.345  16.286 -0.2735  2.2559 -0.7144
   95TMC2    H2 1456   2.728   0.972  16.200 -0.7887  0.6681  0.9561
   95TMC2    C7 1457   2.794   1.115  16.390 -0.9446  0.6580  0.2532
   95TMC2    C8 1458   2.812   0.947  15.964 -0.5335  0.4854  0.3429
   95TMC2    O1 1459   2.701   1.040  16.419 -0.0208 -0.1092 -0.2160
   95TMC2    O2 1460   2.813   0.837  16.012 -0.2308 -0.4611 -0.8822
   95TMC2    O5 1461   2.790   0.968  15.830 -0.3955  0.1882  0.4113
   95TMC2    H5 1462   2.773   1.064  15.821 -2.0185 -0.1516 -0.1335
   96MPD2     C 1463   3.255   1.833  16.064  0.1405  0.0133  0.2882
   96MPD2    C1 1464   3.212   1.762  15.952 -0.0381  0.0666  0.2109
   96MPD2    C2 1465   3.146   1.640  15.971 -0.3840 -0.2751  0.5450
   96MPD2    C3 1466   3.110   1.596  16.097 -0.0797 -0.6496  0.4949
   96MPD2    C4 1467   3.148   1.673  16.208  0.1591 -0.0461  0.5788
   96MPD2    C5 1468   3.226   1.779  16.192 -0.1672  0.3090 -0.2267
   96MPD2     H 1469   3.114   1.588  15.881  0.1580 -0.0190  0.1957
   96MPD2    H1 1470   3.119   1.646  16.309 -1.6689  0.1900  0.1168
   96MPD2    H2 1471   3.315   1.922  16.052 -2.9924  2.1795  0.6455
   96MPD2    H3 1472   3.267   1.831  16.278 -1.2864 -0.3219  0.6868
   96MPD2     N 1473   3.041   1.483  16.125  0.2446  0.0837  0.4401
   96MPD2    H5 1474   3.017   1.457  16.220  0.3668 -1.9677 -0.0851
   96MPD2    N1 1475   3.234   1.816  15.823 -0.0746  0.0410  0.7584
   96MPD2    H7 1476   3.282   1.906  15.822 -0.7328  0.3761 -0.7331
   97MPD2     C 1477   0.070   3.357   0.749 -0.4035 -0.0126 -1.0242
   97MPD2    C1 1478   0.166   3.444   0.776 -0.2491 -0.3613  0.8788
   97MPD2    C2 1479   0.229   3.516   0.674  0.6242  0.4542 -0.2950
   97MPD2    C3 1480   0.189   3.485   0.545 -0.1490 -0.3892 -0.0685
   97MPD2    C4 1481   0.101   3.391   0.518 -0.9839 -0.1522  0.2363
   97MPD2    C5 1482   0.036   3.329   0.621  0.4896  0.1724 -0.2352
   97MPD2     H 1483   0.303   3.592   0.695  1.0513  0.5604 -2.1811
   97MPD2    H1 1484   0.058   3.383   0.418  0.7681  1.5646 -0.6516
   97MPD2    H2 1485   0.015   3.298   0.822 -1.0410  0.5287 -1.0604
   97MPD2    H3 1486   4.675   3.261   0.622 -1.0258  2.0485  0.0728
   97MPD2     N 1487   0.228   3.555   0.430 -0.7498  0.3292 -0.0743
   97MPD2    H5 1488   0.179   3.527   0.346  1.3569  0.1596 -1.2452
   97MPD2    N1 1489   0.190   3.467   0.914 -0.4400  0.7082 -0.3544
   97MPD2    H7 1490   0.123   3.422   0.975  0.1196 -0.7770 -0.8301
   98TCq2    C1 1491   0.326   3.648   0.425  0.3840  0.1065  0.0147
   98TCq2    O2 1492   0.422   3.668   0.505  0.0271  0.1096  0.0139
   98TCq2    C2 1493   0.336   3.704   0.288 -0.2975 -0.1080 -0.1646
   98TCq2    C3 1494   0.251   3.657   0.188  0.3048  0.3014 -0.7601
   98TCq2    C4 1495   0.262   3.717   0.073 -0.1922 -0.5311 -0.6176
   98TCq2    C5 1496   0.344   3.824   0.047 -0.3979 -1.2141  0.3652
   98TCq2    C6 1497   0.421   3.878   0.147  0.0348  0.1207 -0.5125
   98TCq2    C7 1498   0.415   3.811   0.270 -1.2551 -0.4413  0.2507
   98TCq2    C8 1499   0.487   4.003   0.134  0.3872  0.0518 -0.3919
   98TCq2    O4 1500   0.540   4.042   0.239 -0.1032 -0.7816 -0.0290
   98TCq2    C9 1501   0.178   3.663  17.657 -0.1484  0.1469 -0.1497
   98TCq2    O5 1502   0.187   3.724  17.544  0.1834  0.0897 -0.2374
   98TCq2    O6 1503   0.071   3.615   0.001  0.5125  0.1544  0.3950
   98TCq2    H2 1504   0.182   3.575   0.205  1.6754 -0.8483 -0.8171
   98TCq2    H3 1505   0.356   3.856  17.636  1.1998 -0.8436  0.6721
   98TCq2    H4 1506   0.482   3.847   0.347 -0.7533 -2.6061  0.8243
   99MPD2     C 1507   3.662   0.739   2.036 -0.5334  0.1447  0.5451
   99MPD2    C1 1508   3.577   0.844   1.993  0.4033  0.2379  0.0216
   99MPD2    C2 1509   3.568   0.887   1.859  0.0896  0.6451  0.4074
   99MPD2    C3 1510   3.629   0.813   1.752 -0.4396 -0.6117 -0.5255
   99MPD2    C4 1511   3.690   0.699   1.793  0.0174  0.4264 -0.1384
   99MPD2    C5 1512   3.719   0.670   1.929 -0.2208 -0.7532  1.1170
   99MPD2     H 1513   3.525   0.984   1.838 -0.6222 -0.5216 -3.4772
   99MPD2    H1 1514   3.733   0.639   1.714 -1.9459  0.5628 -1.2866
   99MPD2    H2 1515   3.673   0.702   2.137 -0.4090 -0.0576  0.4578
   99MPD2    H3 1516   3.770   0.577   1.952  1.0099 -0.2842  0.2619
   99MPD2     N 1517   3.632   0.865   1.619 -0.1545  0.2270 -0.8015
   99MPD2    H5 1518   3.558   0.929   1.594 -1.3788 -1.6388 -1.8938
   99MPD2    N1 1519   3.507   0.915   2.087  0.2511  0.3144  0.0300
   99MPD2    H7 1520   3.437   0.977   2.047  1.0047  0.7837 -0.5573
  100TCq2    C1 1521   3.549   0.925   2.218 -0.3410  0.4749  0.7440
  100TCq2    O2 1522   3.634   0.868   2.283 -0.5541  0.7382  0.3094
  100TCq2    C2 1523   3.466   1.015   2.297  1.0643 -0.1493  0.5222
  100TCq2    C3 1524   3.518   1.076   2.410  0.1289 -0.4186 -0.0878
  100TCq2    C4 1525   3.431   1.156   2.492  0.0007  0.6077  0.4233
  100TCq2    C5 1526   3.303   1.164   2.453  0.3328  0.6337  0.5809
  100TCq2    C6 1527   3.254   1.094   2.350  0.6184 -0.7565 -0.1288
  100TCq2    C7 1528   3.330   1.018   2.271 -0.0252 -0.1320  0.0045
  100TCq2    C8 1529   3.111   1.117   2.310 -0.0267  0.3585 -0.1282
  100TCq2    O4 1530   3.060   1.231   2.334  0.2338 -0.2105  0.2153
  100TCq2    C9 1531   3.490   1.240   2.601 -0.4207  0.4989  0.3963
  100TCq2    O5 1532   3.415   1.309   2.674 -0.2435 -0.1030 -0.0504
  100TCq2    O6 1533   3.606   1.209   2.637  0.2223 -0.0285 -0.4850
  100TCq2    H2 1534   3.626   1.075   2.418  0.0177 -1.9402  1.2863
  100TCq2    H3 1535   3.241   1.218   2.524  1.0915  0.6702  1.2067
  100TCq2    H4 1536   3.288   0.966   2.186 -0.3271  2.1155 -1.2077
  101MPD2     C 1537   4.711   1.915  12.808 -0.0415 -0.0365 -0.9365
  101MPD2    C1 1538   4.692   1.968  12.935  0.0805  1.2568 -0.2691
  101MPD2    C2 1539   4.598   1.905  13.027 -0.8876  0.0679  0.2649
  101MPD2    C3 1540   4.517   1.807  12.979  0.1524  0.0205  0.3111
  101MPD2    C4 1541   4.534   1.763  12.849  0.6189  0.1451 -0.5425
  101MPD2    C5 1542   4.631   1.816  12.768 -0.0506  0.2792 -0.6435
  101MPD2     H 1543   4.578   1.952  13.122  1.3513  1.0844  0.2384
  101MPD2    H1 1544   4.478   1.678  12.813 -2.2600  1.6565  0.4336
  101MPD2    H2 1545   0.045   1.966  12.730 -0.1771  0.6332 -0.5968
  101MPD2    H3 1546   4.635   1.791  12.663  0.0255 -0.2790 -0.5082
  101MPD2     N 1547   4.407   1.766  13.059 -0.0122  0.6487 -0.0041
  101MPD2    H5 1548   4.389   1.827  13.138 -1.5378 -1.8668  1.5774
  101MPD2    N1 1549   0.019   2.098  12.957 -0.0372  0.2143 -0.4625
  101MPD2    H7 1550   0.066   2.143  12.879  2.5464  1.1920  1.6578
  102TCq2    C1 1551   0.128   2.557  12.829 -0.1020  0.2450 -0.1990
  102TCq2    O2 1552   0.192   2.490  12.748 -0.3784  0.1913 -0.2682
  102TCq2    C2 1553   0.094   2.504  12.954 -0.1801  0.1938  0.2715
  102TCq2    C3 1554   4.719   2.569  13.034  0.6137 -0.3402 -0.2293
  102TCq2    C4 1555   4.649   2.504  13.130 -0.3681 -0.4490 -0.1366
  102TCq2    C5 1556   4.680   2.373  13.154 -0.1896  0.7959 -0.1854
  102TCq2    C6 1557   0.043   2.303  13.075 -0.0414  0.0571 -0.6091
  102TCq2    C7 1558   0.105   2.365  12.966  0.7647  0.1748  0.0464
  102TCq2    C8 1559   0.032   2.158  13.080 -0.5087 -0.4025  0.4477
  102TCq2    O4 1560   0.012   2.111  13.189  0.0980 -0.7717 -0.5984
  102TCq2    C9 1561   4.550   2.573  13.206 -0.3124  0.2129  0.2898
  102TCq2    O5 1562   4.495   2.502  13.290  0.7097  0.0358 -0.1287
  102TCq2    O6 1563   4.503   2.682  13.158  0.0257  0.2105 -0.9597
  102TCq2    H2 1564   4.703   2.676  13.025 -0.3308 -0.3838  1.0148
  102TCq2    H3 1565   4.626   2.320  13.232 -0.2947 -1.5330 -1.8254
  102TCq2    H4 1566   0.189   2.313  12.921 -1.5058 -3.6802  0.2693
  103TMC2    C1 1567   2.449   3.153  12.566 -0.6408  0.2202 -0.0636
  103TMC2    C2 1568   2.532   3.256  12.554  0.3565  0.6108 -0.9421
  103TMC2    C3 1569   2.591   3.301  12.664  0.3308  0.0701 -0.3810
  103TMC2    C4 1570   2.425   3.094  12.683 -0.0118  0.0972  0.7875
  103TMC2    C5 1571   2.483   3.142  12.793 -0.3548 -0.0946 -0.4413
  103TMC2    C6 1572   2.559   3.252  12.785  0.1939 -0.3466 -0.4413
  103TMC2     C 1573   2.380   3.115  12.446  0.3859  0.2170  1.1940
  103TMC2     O 1574   2.376   3.201  12.359 -0.0436  0.1663 -0.7336
  103TMC2     H 1575   2.553   3.309  12.461 -0.2380  0.7025 -1.0251
  103TMC2    H1 1576   2.341   3.026  12.689  0.1178 -0.2702 -1.4669
  103TMC2    H2 1577   2.607   3.284  12.877 -0.7548  0.0285 -0.0796
  103TMC2    C7 1578   2.488   3.073  12.917  0.0898 -0.2464 -0.3190
  103TMC2    C8 1579   2.708   3.387  12.647 -0.3863 -0.0592  0.4971
  103TMC2    O1 1580   2.538   3.124  13.014 -0.3197  0.5128 -0.0190
  103TMC2    O2 1581   2.782   3.378  12.556 -0.5324 -0.4055 -0.3351
  103TMC2    O5 1582   2.725   3.455  12.758  0.0338  0.3695 -0.5434
  103TMC2    H5 1583   2.641   3.458  12.809  1.7478  3.4183  2.0792
  104MPD2     C 1584   2.181   2.801  12.391  0.3458  0.3318 -0.1828
  104MPD2    C1 1585   2.243   2.922  12.355 -0.7886 -0.1099 -0.7511
  104MPD2    C2 1586   2.214   2.973  12.225  0.3735 -0.1557 -0.5562
  104MPD2    C3 1587   2.129   2.909  12.138 -0.2269  0.0876 -0.5997
  104MPD2    C4 1588   2.064   2.796  12.181 -0.7698 -0.0640 -0.2631
  104MPD2    C5 1589   2.094   2.740  12.305 -0.0719  0.3026 -0.3771
  104MPD2     H 1590   2.266   3.055  12.177 -0.8212  0.1287 -1.3837
  104MPD2    H1 1591   1.980   2.757  12.124 -0.1469  0.9920 -1.9131
  104MPD2    H2 1592   2.197   2.765  12.491  3.0090  3.8674  0.6635
  104MPD2    H3 1593   2.043   2.650  12.339 -2.8753  1.2450 -2.1079
  104MPD2     N 1594   2.104   2.966  12.011 -0.1862  0.1094  0.1768
  104MPD2    H5 1595   2.136   3.062  12.005  1.1160 -0.4006 -1.0841
  104MPD2    N1 1596   2.331   2.985  12.452 -0.0009 -0.2104  0.1755
  104MPD2    H7 1597   2.365   2.927  12.528 -0.1615 -1.3311 -0.6122
  105MPD2     C 1598   4.282   1.349  17.688  0.3195 -0.5687 -0.1639
  105MPD2    C1 1599   4.180   1.438  17.674 -0.3120 -0.5793 -0.0797
  105MPD2    C2 1600   4.102   1.450   0.092 -0.1453 -0.1489  0.3151
  105MPD2    C3 1601   4.119   1.385   0.216 -0.1078  0.6395 -0.9045
  105MPD2    C4 1602   4.216   1.292   0.223  0.4120  0.2317 -0.2203
  105MPD2    C5 1603   4.302   1.277   0.110  0.0429 -0.1210  0.2892
  105MPD2     H 1604   4.026   1.525   0.073 -0.9002 -0.6394  1.3466
  105MPD2    H1 1605   4.237   1.234   0.313 -1.3943 -0.5725 -0.3144
  105MPD2    H2 1606   4.354   1.351  17.607  0.2181  1.0729 -0.2116
  105MPD2    H3 1607   4.388   1.211   0.120 -0.3335 -0.9858 -2.1446
  105MPD2     N 1608   4.045   1.431   0.328  0.4506  0.0106 -0.3549
  105MPD2    H5 1609   3.983   1.512   0.323  0.0346 -0.1821  1.8047
  105MPD2    N1 1610   4.150   1.512  17.557 -0.2122 -0.6242 -0.3673
  105MPD2    H7 1611   4.071   1.575  17.558  2.0345  2.1730 -1.6046
  106TCq2    C1 1612   4.045   1.370   0.453 -0.5565  0.2826 -0.1995
  106TCq2    O2 1613   4.109   1.270   0.484 -0.1692 -0.4788  0.1673
  106TCq2    C2 1614   3.961   1.430   0.562  0.7127  0.0063  1.1503
  106TCq2    C3 1615   3.873   1.530   0.539 -0.7098  0.1984 -0.5339
  106TCq2    C4 1616   3.797   1.580   0.647  0.0968 -0.6355 -0.2815
  106TCq2    C5 1617   3.810   1.529   0.776 -0.0150 -0.0362  0.7349
  106TCq2    C6 1618   3.898   1.427   0.793 -0.0719  0.3205  0.1655
  106TCq2    C7 1619   3.972   1.380   0.691  0.2343  0.1812  0.1014
  106TCq2    C8 1620   3.910   1.357   0.920  0.1719 -0.0224 -0.8754
  106TCq2    O4 1621   4.018   1.319   0.961 -0.2020  0.6013 -1.0219
  106TCq2    C9 1622   3.686   1.668   0.620 -0.5264  0.9794 -1.0589
  106TCq2    O5 1623   3.595   1.676   0.708  0.3764  0.3713  0.6081
  106TCq2    O6 1624   3.675   1.707   0.500 -0.1678  0.0438 -0.1248
  106TCq2    H2 1625   3.861   1.585   0.446  0.0751  3.2450  1.1768
  106TCq2    H3 1626   3.750   1.569   0.856 -1.6371 -0.8893 -0.0587
  106TCq2    H4 1627   4.032   1.290   0.699 -0.7584 -0.5149 -0.2839
  107TMC2    C1 1628   0.122   0.917  11.411  0.8926 -0.7729  0.6328
  107TMC2    C2 1629   0.198   0.807  11.428 -0.7798 -0.5090  0.3188
  107TMC2    C3 1630   0.313   0.794  11.354 -1.2504  0.5773  0.5920
  107TMC2    C4 1631   0.152   1.017  11.322  0.2298  0.0657 -0.2195
  107TMC2    C5 1632   0.258   1.000  11.242 -0.8029 -0.4310  0.5815
  107TMC2    C6 1633   0.344   0.886  11.260  0.5731  0.0696 -0.2921
  107TMC2     C 1634   4.720   0.944  11.475 -0.3529 -0.4696 -0.5469
  107TMC2     O 1635   4.708   0.917  11.596  0.2211 -0.2202 -0.0675
  107TMC2     H 1636   0.157   0.724  11.485 -1.2828 -2.5980 -3.1033
  107TMC2    H1 1637   0.091   1.106  11.312  0.2885  0.2055  0.7642
  107TMC2    H2 1638   0.443   0.881  11.215  0.6327  1.2062 -0.2932
  107TMC2    C7 1639   0.282   1.095  11.140  0.2212  0.5657 -0.3137
  107TMC2    C8 1640   0.406   0.685  11.365  0.4300 -0.2184  0.3585
  107TMC2    O1 1641   0.263   1.216  11.164 -0.5790  0.5242  0.6360
  107TMC2    O2 1642   0.419   0.614  11.464 -0.1466  0.2172 -0.2576
  107TMC2    O5 1643   0.436   0.645  11.241 -0.2274  1.2589 -0.1230
  107TMC2    H5 1644   0.400   0.702  11.170  0.9566  0.1606 -1.6030
  108MPD2     C 1645   4.405   1.042  11.306  0.1760  0.3337 -0.1663
  108MPD2    C1 1646   4.487   1.008  11.417  0.0458  0.1824  0.0251
  108MPD2    C2 1647   4.441   1.031  11.546  0.5586  0.2176 -0.2087
  108MPD2    C3 1648   4.306   1.064  11.566 -0.3341 -0.3383 -0.5064
  108MPD2    C4 1649   4.229   1.097  11.460 -0.3540  0.0418 -0.9014
  108MPD2    C5 1650   4.276   1.088  11.329 -0.0123  0.0632  0.2121
  108MPD2     H 1651   4.497   1.015  11.637 -0.3280  2.3882  0.7194
  108MPD2    H1 1652   4.132   1.142  11.476  1.3609  3.1530  0.6716
  108MPD2    H2 1653   4.444   1.036  11.205 -0.7707  0.5519 -0.5396
  108MPD2    H3 1654   4.213   1.129  11.251  0.6149  1.0871  0.2309
  108MPD2     N 1655   4.247   1.089  11.693 -0.6427 -0.5283  0.0578
  108MPD2    H5 1656   4.149   1.112  11.683 -0.1734  0.2655 -2.7195
  108MPD2    N1 1657   4.623   0.979  11.385  0.5516 -0.1740  0.1073
  108MPD2    H7 1658   4.651   0.993  11.289 -0.6938  0.4223 -0.1730
  109MPD2     C 1659   4.471   2.450   2.099 -0.6594 -0.9382  0.2035
  109MPD2    C1 1660   4.497   2.487   1.972  0.1425 -0.8662 -0.7005
  109MPD2    C2 1661   4.612   2.573   1.948  0.1557 -0.3659  0.3179
  109MPD2    C3 1662   4.702   2.603   2.046 -0.4106 -0.0016 -0.3968
  109MPD2    C4 1663   4.677   2.559   2.174  0.4648 -0.2025 -0.3056
  109MPD2    C5 1664   4.558   2.487   2.196 -0.8656 -0.5364 -0.2543
  109MPD2     H 1665   4.629   2.614   1.849  0.9455  1.0770  1.0513
  109MPD2    H1 1666   0.023   2.567   2.258 -1.7775 -0.3725  1.5215
  109MPD2    H2 1667   4.385   2.393   2.132 -0.9602 -0.6864 -0.1365
  109MPD2    H3 1668   4.550   2.452   2.299 -0.4695  2.4141  0.7836
  109MPD2     N 1669   0.095   2.667   2.001  0.1517 -0.2437 -0.8773
  109MPD2    H5 1670   0.094   2.677   1.900  2.4477 -0.6186 -0.9438
  109MPD2    N1 1671   4.407   2.444   1.872 -0.0858  0.1773  0.3640
  109MPD2    H7 1672   4.322   2.400   1.905 -0.0895 -0.3938 -0.4177
  110TCq2    C1 1673   0.190   2.719   2.081  0.5579 -0.2275 -0.6947
  110TCq2    O2 1674   0.205   2.702   2.199 -0.0732  0.1925  0.2839
  110TCq2    C2 1675   0.299   2.779   2.012 -0.3303 -0.1783 -0.3711
  110TCq2    C3 1676   0.413   2.766   2.086 -0.5102 -0.1339  0.2006
  110TCq2    C4 1677   0.529   2.810   2.024 -0.7084 -0.0719 -0.7187
  110TCq2    C5 1678   0.522   2.858   1.898  0.7902 -0.1844  0.1246
  110TCq2    C6 1679   0.407   2.884   1.834  0.1867  0.0238  0.5901
  110TCq2    C7 1680   0.289   2.853   1.896  0.1379  0.2595 -0.3322
  110TCq2    C8 1681   0.401   2.959   1.710 -0.5646 -0.2011 -0.2829
  110TCq2    O4 1682   0.289   3.002   1.684 -0.2726  0.0264  0.0655
  110TCq2    C9 1683   0.658   2.790   2.096  0.0326  0.9638 -0.0042
  110TCq2    O5 1684   0.761   2.797   2.024 -0.6513 -0.1485  0.2960
  110TCq2    O6 1685   0.648   2.768   2.221 -0.1697 -0.2309 -0.2831
  110TCq2    H2 1686   0.425   2.726   2.186  0.6919 -1.0867 -0.3179
  110TCq2    H3 1687   0.619   2.869   1.853  1.9539 -2.7069  2.0225
  110TCq2    H4 1688   0.192   2.863   1.848 -0.7004 -0.0162  1.3161
  111TMC2    C1 1689   4.521   3.116  11.217 -0.5940  0.6701 -0.0036
  111TMC2    C2 1690   4.410   3.169  11.281 -0.0350  0.3953  0.3330
  111TMC2    C3 1691   4.430   3.200  11.411  0.5518 -0.1979  0.2055
  111TMC2    C4 1692   4.640   3.080  11.282 -0.1130 -0.2237 -0.1530
  111TMC2    C5 1693   4.645   3.114  11.415 -0.2132 -1.1835  0.0704
  111TMC2    C6 1694   4.544   3.170  11.481  1.0154 -0.8528 -0.3047
  111TMC2     C 1695   4.493   3.075  11.082  0.0233 -0.3009 -0.6860
  111TMC2     O 1696   4.398   3.122  11.022 -0.4449 -0.3831  0.1661
  111TMC2     H 1697   4.319   3.191  11.226  0.2307  1.5383  0.3612
  111TMC2    H1 1698   0.005   3.048  11.227  0.1661 -1.0268  0.7589
  111TMC2    H2 1699   4.570   3.215  11.576  0.6842  1.2944 -1.2274
  111TMC2    C7 1700   0.046   3.096  11.495  0.5424  0.2501 -0.3522
  111TMC2    C8 1701   4.315   3.229  11.491  0.1574  1.0199 -0.4232
  111TMC2    O1 1702   0.023   3.085  11.612 -0.3846 -0.2288 -0.1871
  111TMC2    O2 1703   4.219   3.283  11.441 -0.3305  0.1650 -0.0335
  111TMC2    O5 1704   4.305   3.108  11.565  0.2684  0.2726  0.1425
  111TMC2    H5 1705   4.379   3.044  11.561 -0.1854 -0.3041  1.0244
  112MPD2     C 1706   4.544   2.726  10.707  0.1180  0.2959  0.8507
  112MPD2    C1 1707   4.504   2.863  10.703  0.3117 -0.0853 -0.3974
  112MPD2    C2 1708   4.505   2.941  10.825  0.2447  0.0275 -0.3256
  112MPD2    C3 1709   4.559   2.885  10.937 -0.0053 -0.0429  0.0525
  112MPD2    C4 1710   4.604   2.761  10.935  0.2614 -0.8891  0.1275
  112MPD2    C5 1711   4.603   2.686  10.822 -0.0013 -0.7790  0.9240
  112MPD2     H 1712   4.470   3.043  10.822  1.2566  0.4493  1.7563
  112MPD2    H1 1713   4.644   2.712  11.024 -1.3976 -0.5787  1.0493
  112MPD2    H2 1714   4.528   2.652  10.630  1.1003  1.7274 -0.7112
  112MPD2    H3 1715   4.653   2.590  10.817 -1.2312 -1.3970  0.5248
  112MPD2     N 1716   4.562   2.954  11.061 -0.5654 -0.4225  0.2038
  112MPD2    H5 1717   4.621   2.920  11.136  0.4514  1.1604  0.1071
  112MPD2    N1 1718   4.463   2.918  10.580  0.1463  0.3612  0.0793
  112MPD2    H7 1719   4.422   3.010  10.581  0.3155  0.4403 -0.6794
  113MPD2     C 1720   3.224   0.720   1.832  0.1917 -0.1670 -0.3263
  113MPD2    C1 1721   3.109   0.760   1.772 -0.4394 -0.4936 -0.3887
  113MPD2    C2 1722   3.055   0.676   1.676  0.3165 -0.3701  0.1085
  113MPD2    C3 1723   3.109   0.550   1.641  0.3218  0.5106 -0.0596
  113MPD2    C4 1724   3.215   0.512   1.715  0.3509  0.4906  0.5401
  113MPD2    C5 1725   3.279   0.597   1.804 -0.2204  0.1755 -0.0285
  113MPD2     H 1726   2.960   0.706   1.634 -0.7264 -2.4281  1.0162
  113MPD2    H1 1727   3.261   0.414   1.703 -0.2154  0.5282 -1.9820
  113MPD2    H2 1728   3.279   0.775   1.907  0.8841  1.0446 -1.7184
  113MPD2    H3 1729   3.377   0.584   1.849  0.6277 -0.2462 -2.0147
  113MPD2     N 1730   3.061   0.469   1.533 -0.3761  0.4967 -0.2084
  113MPD2    H5 1731   3.098   0.374   1.526 -2.6274 -0.4692  0.9511
  113MPD2    N1 1732   3.056   0.891   1.789  0.4314 -0.2294 -0.3715
  113MPD2    H7 1733   2.982   0.919   1.725  1.6389  0.8507 -1.3126
  114TCq2    C1 1734   2.967   0.502   1.444  0.0696 -0.5510  0.1963
  114TCq2    O2 1735   2.891   0.596   1.438 -0.5223 -0.3131  0.5541
  114TCq2    C2 1736   2.956   0.403   1.337  0.2921  0.2477  0.0516
  114TCq2    C3 1737   3.068   0.351   1.279 -0.0589 -0.0533  0.1446
  114TCq2    C4 1738   3.044   0.248   1.187 -0.6947 -0.6441 -0.5367
  114TCq2    C5 1739   2.922   0.200   1.158  0.3746  0.1098  0.3440
  114TCq2    C6 1740   2.819   0.244   1.232  0.2925  0.8821 -0.1225
  114TCq2    C7 1741   2.835   0.345   1.318 -0.5287 -0.0002 -0.4668
  114TCq2    C8 1742   2.693   0.175   1.213 -0.8176 -0.2859 -0.1592
  114TCq2    O4 1743   2.688   0.118   1.105 -0.0809  0.2127 -0.6791
  114TCq2    C9 1744   3.155   0.212   1.106  0.2398  0.5877  0.1126
  114TCq2    O5 1745   3.264   0.271   1.123  0.2326  0.4701  0.3125
  114TCq2    O6 1746   3.142   0.120   1.013  0.5988  0.5125 -0.1210
  114TCq2    H2 1747   3.164   0.400   1.276 -0.5410  0.8602 -0.2772
  114TCq2    H3 1748   2.909   0.131   1.074  0.3903 -1.0187  1.2654
  114TCq2    H4 1749   2.745   0.381   1.368 -0.5684  0.6362 -0.9945
  115TMC2    C1 1750   4.063   3.533   0.225  0.3867  0.2973  0.9308
  115TMC2    C2 1751   4.198   3.548   0.250  0.3954  0.1332  0.3209
  115TMC2    C3 1752   4.240   3.675   0.261 -0.5796  0.0260 -0.2709
  115TMC2    C4 1753   3.974   3.646   0.220  0.3702 -0.4359  0.1090
  115TMC2    C5 1754   4.028   3.767   0.219  0.5725  0.1305  0.1003
  115TMC2    C6 1755   4.165   3.789   0.244 -0.4178  0.6431  0.3377
  115TMC2     C 1756   4.000   3.413   0.264  0.2503  0.1962 -0.6594
  115TMC2     O 1757   3.901   3.388   0.194  0.6511  0.3561  0.3743
  115TMC2     H 1758   4.261   3.459   0.254 -1.1716 -0.9733  0.3058
  115TMC2    H1 1759   3.868   3.629   0.205  0.0045  0.3035  1.8299
  115TMC2    H2 1760   4.203   3.889   0.258 -0.2804  0.8474 -1.6327
  115TMC2    C7 1761   3.949   3.885   0.210  0.5897 -0.0988  0.6104
  115TMC2    C8 1762   4.384   3.712   0.290 -0.3078 -0.1045  0.0589
  115TMC2    O1 1763   3.831   3.866   0.225  0.1337  0.3663 -0.4090
  115TMC2    O2 1764   4.480   3.664   0.242 -0.0608 -0.0394 -0.6690
  115TMC2    O5 1765   4.382   3.807   0.389  0.1027 -0.2203 -0.0401
  115TMC2    H5 1766   4.299   3.816   0.440  0.8590 -1.8198  1.4655
  116MPD2     C 1767   3.869   3.026   0.582  0.6150  0.1638  0.5136
  116MPD2    C1 1768   3.806   3.085   0.477  0.3255 -0.6056  0.2045
  116MPD2    C2 1769   3.870   3.185   0.404 -0.4947 -0.7079  0.3523
  116MPD2    C3 1770   3.990   3.239   0.442 -0.3917 -0.9280 -0.7150
  116MPD2    C4 1771   4.050   3.186   0.553 -0.1549  0.1022  0.3660
  116MPD2    C5 1772   3.992   3.074   0.610  1.1935  0.3992 -0.1908
  116MPD2     H 1773   3.810   3.236   0.329  4.1463  2.7818 -0.9772
  116MPD2    H1 1774   4.148   3.215   0.590  0.6471 -1.7045 -0.3689
  116MPD2    H2 1775   3.845   2.927   0.619  0.3353  0.6867  1.7385
  116MPD2    H3 1776   4.046   3.006   0.674  1.3282 -0.1415 -0.8774
  116MPD2     N 1777   4.048   3.350   0.375  0.5133  0.2164 -0.3043
  116MPD2    H5 1778   4.128   3.389   0.424  0.5673  0.8572 -0.9130
  116MPD2    N1 1779   3.678   3.041   0.432 -0.0082  0.1990 -0.4444
  116MPD2    H7 1780   3.633   3.081   0.351 -0.7278  0.7232  0.2121
  117TMC2    C1 1781   2.226   0.671  13.561 -0.5291  0.1754 -0.5258
  117TMC2    C2 1782   2.334   0.603  13.608  0.1320 -0.1312 -0.2057
  117TMC2    C3 1783   2.414   0.668  13.695 -0.8170  0.0331 -0.1988
  117TMC2    C4 1784   2.204   0.808  13.578 -0.0407  0.1128 -0.2757
  117TMC2    C5 1785   2.290   0.866  13.664  0.0394 -0.1276  0.9205
  117TMC2    C6 1786   2.397   0.803  13.730 -0.1453  0.2398  0.1675
  117TMC2     C 1787   2.121   0.601  13.493  0.4937  0.7935  0.3386
  117TMC2     O 1788   2.146   0.510  13.422 -0.2610 -0.2740 -0.1977
  117TMC2     H 1789   2.348   0.499  13.583 -1.9904 -0.1452 -1.3726
  117TMC2    H1 1790   2.132   0.857  13.515  1.4810 -1.5269 -3.3359
  117TMC2    H2 1791   2.458   0.867  13.792 -1.3431  1.4027  0.1590
  117TMC2    C7 1792   2.266   1.002  13.704 -0.2330 -0.6421 -0.2323
  117TMC2    C8 1793   2.550   0.614  13.700 -0.4576  0.2843 -0.3141
  117TMC2    O1 1794   2.337   1.055  13.787 -0.1253  0.1443  0.0307
  117TMC2    O2 1795   2.581   0.517  13.636  0.5032  0.9311 -0.1677
  117TMC2    O5 1796   2.610   0.673  13.805  0.4936  0.5627  0.2814
  117TMC2    H5 1797   2.539   0.685  13.872 -0.7405  2.2280 -1.3235
  118MPD2     C 1798   1.939   1.174  13.692  0.8374  0.5879  0.0027
  118MPD2    C1 1799   2.075   1.166  13.705 -0.6558 -0.0313  0.0466
  118MPD2    C2 1800   2.152   1.277  13.742  0.1902  0.5651 -0.0893
  118MPD2    C3 1801   2.089   1.392  13.772  0.3720 -0.9880  0.2421
  118MPD2    C4 1802   1.951   1.403  13.765  0.0988  0.5158 -0.5456
  118MPD2    C5 1803   1.876   1.297  13.714  0.4480  0.4233 -0.5768
  118MPD2     H 1804   2.260   1.271  13.754  0.4213 -1.2044 -3.0173
  118MPD2    H1 1805   1.897   1.494  13.789 -2.0389 -1.1546  1.0249
  118MPD2    H2 1806   1.885   1.085  13.662  1.4543 -0.1026  0.9810
  118MPD2    H3 1807   1.771   1.315  13.694  0.3535 -0.9285 -1.2988
  118MPD2     N 1808   2.153   1.515  13.823  0.1382  0.5552  0.0723
  118MPD2    H5 1809   2.094   1.587  13.863 -0.4808 -0.2374  0.6030
  118MPD2    N1 1810   2.134   1.036  13.681  0.3016  0.2655 -0.0114
  118MPD2    H7 1811   2.076   0.954  13.669  1.2532 -0.2972 -0.8136
  119MPD2     C 1812   0.685   2.092  13.527 -0.3107  1.0270  0.4418
  119MPD2    C1 1813   0.558   2.052  13.544 -0.2029 -0.5553  0.8173
  119MPD2    C2 1814   0.470   2.041  13.443 -0.4385  0.0650  0.5191
  119MPD2    C3 1815   0.499   2.081  13.317  0.7208  0.4461  0.2816
  119MPD2    C4 1816   0.623   2.127  13.291 -0.3030 -0.5586  0.3589
  119MPD2    C5 1817   0.714   2.126  13.391  0.0910  0.3958 -0.1431
  119MPD2     H 1818   0.369   2.005  13.457 -1.0677  2.4950  2.1571
  119MPD2    H1 1819   0.661   2.156  13.194 -1.0512 -2.4207 -0.4937
  119MPD2    H2 1820   0.754   2.099  13.610  1.4446 -0.8157 -0.8621
  119MPD2    H3 1821   0.812   2.159  13.360  1.3274  0.4127  3.7959
  119MPD2     N 1822   0.406   2.059  13.210 -0.3373  0.7391 -0.1928
  119MPD2    H5 1823   0.330   1.996  13.233 -0.7649  1.6284  0.8303
  119MPD2    N1 1824   0.535   1.988  13.665  0.0783  0.3374  0.3300
  119MPD2    H7 1825   0.613   1.975  13.727  0.1976 -2.6125 -0.4489
  120TCq2    C1 1826   0.433   2.079  13.078  0.0389  0.6494 -0.2212
  120TCq2    O2 1827   0.489   2.173  13.024  0.0699  0.2134  0.3760
  120TCq2    C2 1828   0.369   1.976  12.998  0.4275  0.1329 -0.2449
  120TCq2    C3 1829   0.369   2.009  12.861  0.0736  0.9188 -0.6121
  120TCq2    C4 1830   0.354   1.901  12.776  0.6685  0.0783  0.0173
  120TCq2    C5 1831   0.324   1.775  12.827  0.1184 -0.0273 -0.5123
  120TCq2    C6 1832   0.323   1.757  12.965 -0.6098 -0.2751 -0.0424
  120TCq2    C7 1833   0.358   1.849  13.047  0.4768  0.3794  0.0319
  120TCq2    C8 1834   0.293   1.629  13.020 -0.2740 -0.3759 -0.0279
  120TCq2    O4 1835   0.291   1.541  12.940 -0.1667  0.2546 -0.3132
  120TCq2    C9 1836   0.334   1.916  12.634  0.3639 -0.5390 -0.2730
  120TCq2    O5 1837   0.342   1.815  12.555  0.2723 -0.0586 -0.3512
  120TCq2    O6 1838   0.309   2.032  12.594 -0.4688 -0.0112 -0.2641
  120TCq2    H2 1839   0.385   2.111  12.826  1.3178  0.2245 -2.0493
  120TCq2    H3 1840   0.302   1.692  12.762 -0.0279  0.0303 -0.5358
  120TCq2    H4 1841   0.376   1.833  13.153  0.8715  3.1166  0.3740
  121TMC2    C1 1842   2.132   3.558  14.200  0.4426 -0.3449  0.0425
  121TMC2    C2 1843   2.141   3.461  14.295 -0.0371 -0.8808 -0.5856
  121TMC2    C3 1844   2.024   3.395  14.320 -0.5203  0.3723  1.0031
  121TMC2    C4 1845   2.013   3.601  14.149  0.1086 -0.3427  0.1018
  121TMC2    C5 1846   1.903   3.531  14.188  0.3691  0.6021  0.4797
  121TMC2    C6 1847   1.900   3.422  14.269  0.2525  0.0255 -0.3679
  121TMC2     C 1848   2.255   3.624  14.170  0.4965  0.2873  0.4340
  121TMC2     O 1849   2.347   3.600  14.247  0.0871 -0.1682  0.9068
  121TMC2     H 1850   2.237   3.418  14.323 -1.0615 -1.8122  1.4960
  121TMC2    H1 1851   2.003   3.684  14.080 -0.8632 -1.2053 -0.7868
  121TMC2    H2 1852   1.805   3.373  14.291  0.2292  0.9476  1.5900
  121TMC2    C7 1853   1.775   3.573  14.134 -0.4228 -0.6920  0.4178
  121TMC2    C8 1854   2.025   3.297  14.414 -0.0438  0.4407 -0.2955
  121TMC2    O1 1855   1.772   3.696  14.130  0.8658  0.2431 -0.4290
  121TMC2    O2 1856   1.921   3.231  14.431 -0.5485  0.5840  0.3872
  121TMC2    O5 1857   2.101   3.350  14.518  0.4503 -0.6105  0.1871
  121TMC2    H5 1858   2.182   3.397  14.489 -0.9522  0.9299 -1.2599
  122MPD2     C 1859   2.472   3.793  14.064 -0.0563  0.5215 -0.0300
  122MPD2    C1 1860   2.353   3.766  13.996 -0.3895 -0.1514  0.0548
  122MPD2    C2 1861   2.328   3.806  13.868  0.4368  0.1305  0.2239
  122MPD2    C3 1862   2.425   3.879  13.801 -0.4757 -0.0757  0.6853
  122MPD2    C4 1863   2.544   3.897  13.868 -0.0044 -0.2912  0.3067
  122MPD2    C5 1864   2.569   3.848  13.990  0.3778  0.3408  0.0773
  122MPD2     H 1865   2.233   3.777  13.824 -0.5276  2.0276  1.0837
  122MPD2    H1 1866   2.640   3.918  13.822 -1.3454  1.8256 -1.5613
  122MPD2    H2 1867   2.497   3.756  14.163  2.4761 -0.7105 -1.1417
  122MPD2    H3 1868   2.667   3.856  14.034  1.5428 -2.4456 -2.0035
  122MPD2     N 1869   2.420   3.921  13.665 -0.1069 -0.1903  0.8865
  122MPD2    H5 1870   2.499   3.971  13.627  1.0048 -1.9025  0.9297
  122MPD2    N1 1871   2.247   3.689  14.054 -0.2359 -0.2237  0.6017
  122MPD2    H7 1872   2.163   3.673  14.000  0.5279 -2.5959  0.1149
  123MPD2     C 1873   4.505   0.992   9.433 -0.2327 -0.6777  0.6712
  123MPD2    C1 1874   4.538   1.093   9.352 -0.3241 -0.4490  1.0190
  123MPD2    C2 1875   4.666   1.147   9.364  0.2866  0.5617  0.8056
  123MPD2    C3 1876   0.030   1.104   9.462  1.3414  0.0028 -0.0974
  123MPD2    C4 1877   4.710   0.999   9.548 -0.4647 -0.4908 -0.0611
  123MPD2    C5 1878   4.586   0.952   9.534 -0.8138  0.4032 -0.1757
  123MPD2     H 1879   4.694   1.230   9.300  0.6700 -1.4058 -1.5599
  123MPD2    H1 1880   0.052   0.960   9.626 -0.7939  1.5561  1.2397
  123MPD2    H2 1881   4.406   0.947   9.440  0.3668 -2.0432  0.1138
  123MPD2    H3 1882   4.553   0.860   9.582  1.6868  0.1506  1.0643
  123MPD2     N 1883   0.153   1.169   9.492 -0.1336  0.4430  0.5718
  123MPD2    H5 1884   0.174   1.247   9.431 -0.2167 -0.5588 -0.7561
  123MPD2    N1 1885   4.430   1.149   9.279 -0.5549  0.3923  0.5922
  123MPD2    H7 1886   4.340   1.112   9.307 -0.5510  1.4087  2.0103
  124TCq2    C1 1887   0.232   1.157   9.605  0.4072  0.3122 -0.2000
  124TCq2    O2 1888   0.230   1.081   9.698  1.0088 -0.3106  0.1747
  124TCq2    C2 1889   0.336   1.257   9.597  0.0507 -0.0064 -0.5596
  124TCq2    C3 1890   0.465   1.222   9.633 -0.2951 -0.4532 -0.2254
  124TCq2    C4 1891   0.569   1.304   9.606 -0.2168 -0.0759 -0.5396
  124TCq2    C5 1892   0.556   1.414   9.537 -0.0634  0.2513  0.1434
  124TCq2    C6 1893   0.428   1.456   9.503 -0.4571  0.2378 -0.2150
  124TCq2    C7 1894   0.324   1.371   9.525 -0.4131  0.8292  0.1431
  124TCq2    C8 1895   0.397   1.557   9.405 -0.4435 -0.1653 -0.6473
  124TCq2    O4 1896   0.305   1.527   9.333 -0.1134  0.4025 -0.1524
  124TCq2    C9 1897   0.697   1.257   9.634 -0.4667  0.2718 -0.2087
  124TCq2    O5 1898   0.711   1.155   9.703 -0.1174 -0.1944  0.1178
  124TCq2    O6 1899   0.798   1.328   9.603 -0.2419  0.3144  0.2111
  124TCq2    H2 1900   0.481   1.130   9.688  2.1593 -0.2663 -0.6332
  124TCq2    H3 1901   0.634   1.490   9.530  0.8911 -0.7453 -0.0884
  124TCq2    H4 1902   0.228   1.410   9.494 -0.4600  1.2639  0.8370
  125TMC2    C1 1903   0.883   3.432   9.219  0.2342 -0.0319  0.1081
  125TMC2    C2 1904   0.889   3.325   9.131  0.0846  0.0595  0.2139
  125TMC2    C3 1905   0.929   3.204   9.178 -0.9029  0.1040 -0.3515
  125TMC2    C4 1906   0.937   3.415   9.347 -0.0581 -0.1997  0.2269
  125TMC2    C5 1907   0.976   3.294   9.390  0.1713 -0.1907 -0.1526
  125TMC2    C6 1908   0.971   3.186   9.309 -0.4612 -0.5499  0.4621
  125TMC2     C 1909   0.881   3.565   9.170 -0.1015 -0.0922 -0.5248
  125TMC2     O 1910   0.918   3.589   9.056  0.5815  0.1625 -0.3254
  125TMC2     H 1911   0.860   3.331   9.027  0.6043 -0.8673  0.0079
  125TMC2    H1 1912   0.936   3.497   9.418 -0.5280  0.2563 -0.3046
  125TMC2    H2 1913   0.995   3.091   9.355  1.1952 -0.5306 -0.3298
  125TMC2    C7 1914   1.042   3.296   9.521 -0.6781  0.1586  0.2995
  125TMC2    C8 1915   0.948   3.096   9.088  0.1688  0.3700  0.3194
  125TMC2    O1 1916   0.997   3.374   9.603 -0.0123 -0.0248 -0.1364
  125TMC2    O2 1917   1.025   3.014   9.138  0.5134 -0.2462  0.8941
  125TMC2    O5 1918   0.834   3.069   9.012 -0.1870 -0.5391 -0.2708
  125TMC2    H5 1919   0.771   3.140   8.986 -1.7386 -1.7463  0.1812
  126MPD1     C 1920   0.849   4.055   9.333  0.6132  0.2824  0.5379
  126MPD1    C1 1921   0.765   3.975   9.414  0.0680 -0.2003  0.7238
  126MPD1    C2 1922   0.756   3.845   9.374  0.7123 -0.0360  0.0656
  126MPD1    C3 1923   0.833   3.784   9.276  0.0467  0.5422 -0.6692
  126MPD1    C4 1924   0.929   3.860   9.214  0.0234  0.1501 -0.3611
  126MPD1    C5 1925   0.927   3.992   9.245  0.0457 -0.1997 -0.3184
  126MPD1     H 1926   0.682   3.784   9.424  0.3332  1.2312  1.0476
  126MPD1    H1 1927   0.996   3.812   9.144  1.1152 -0.6636  1.2467
  126MPD1    H2 1928   0.848   4.163   9.341 -0.6211  0.4644 -2.2147
  126MPD1    H3 1929   1.016   4.040   9.207  0.2645 -1.1738 -1.0238
  126MPD1     N 1930   0.828   3.645   9.261  0.2566 -0.4796 -0.6634
  126MPD1    H5 1931   0.777   3.602   9.339  0.9781 -3.2327 -1.7295
  126MPD1    N1 1932   0.668   4.029   9.502 -1.0061 -0.2311  0.5977
  126MPD1    H6 1933   0.634   3.958   9.567  2.7614 -3.1701 -0.6540
  126MPD1    H7 1934   0.702   4.112   9.549  0.0261  0.1625 -0.8443
  127MPD2     C 1935   2.865   1.986   9.398  0.2159 -0.1973 -0.5247
  127MPD2    C1 1936   2.763   2.001   9.491  0.3887  0.3173  0.1934
  127MPD2    C2 1937   2.765   2.110   9.576 -0.2087 -0.1178  0.1652
  127MPD2    C3 1938   2.869   2.198   9.564  0.7449  0.1251 -0.6985
  127MPD2    C4 1939   2.967   2.184   9.468  0.3693  0.1540  0.5104
  127MPD2    C5 1940   2.971   2.073   9.395 -0.1129 -0.7120 -0.8800
  127MPD2     H 1941   2.690   2.120   9.654  0.1881  0.1552  0.5150
  127MPD2    H1 1942   3.035   2.266   9.450  0.7059 -0.2700 -0.1225
  127MPD2    H2 1943   2.864   1.908   9.323 -0.7686 -0.0427 -0.6708
  127MPD2    H3 1944   3.050   2.061   9.322  1.0716 -0.0714  0.2975
  127MPD2     N 1945   2.876   2.315   9.639  0.2537 -0.3541  0.0045
  127MPD2    H5 1946   2.956   2.378   9.630 -0.1188 -0.1220 -1.5205
  127MPD2    N1 1947   2.651   1.911   9.491 -0.2770 -0.0409  0.2707
  127MPD2    H7 1948   2.658   1.840   9.420 -0.5749 -0.8980  1.0972
  128TCq2    C1 1949   2.556   1.896   9.593  0.1680  0.4613 -0.1586
  128TCq2    O2 1950   2.548   1.964   9.695  0.0613  0.0758 -0.5183
  128TCq2    C2 1951   2.456   1.792   9.567 -1.0991  0.6192 -0.2770
  128TCq2    C3 1952   2.493   1.685   9.490  0.0116 -0.4117 -0.5523
  128TCq2    C4 1953   2.407   1.580   9.469  0.1596 -0.2254  0.4501
  128TCq2    C5 1954   2.281   1.594   9.528  0.4039 -0.3647 -0.7745
  128TCq2    C6 1955   2.252   1.697   9.616  0.0171 -0.0011 -0.1783
  128TCq2    C7 1956   2.336   1.804   9.634 -1.0372  0.0056  0.6459
  128TCq2    C8 1957   2.117   1.715   9.662 -0.1623  0.3949  0.2327
  128TCq2    O4 1958   2.096   1.825   9.710  0.2067 -0.0797 -0.1451
  128TCq2    C9 1959   2.443   1.473   9.378  0.1603 -0.8299 -0.1654
  128TCq2    O5 1960   2.536   1.501   9.297  0.5541 -0.3000 -0.1902
  128TCq2    O6 1961   2.381   1.362   9.386 -0.1002 -0.7348  0.1056
  128TCq2    H2 1962   2.599   1.675   9.466  0.5241  1.9994  0.6611
  128TCq2    H3 1963   2.211   1.514   9.506 -0.2020  0.2002 -0.9059
  128TCq2    H4 1964   2.310   1.886   9.700 -1.7656  0.4034 -0.1287
  129MPD2     C 1965   0.201   2.853   1.295  0.0455 -0.7531  0.5177
  129MPD2    C1 1966   0.339   2.865   1.293 -0.3770  0.4735 -0.8530
  129MPD2    C2 1967   0.396   2.964   1.214  0.0357  0.9401 -1.0172
  129MPD2    C3 1968   0.321   3.023   1.111 -0.3678 -0.2213  0.6113
  129MPD2    C4 1969   0.184   2.995   1.112  0.2744  0.3107 -0.0102
  129MPD2    C5 1970   0.127   2.915   1.203  0.6771 -0.1489 -0.5255
  129MPD2     H 1971   0.502   2.988   1.220  0.7077 -2.2360  0.3086
  129MPD2    H1 1972   0.120   3.038   1.036  1.8581  0.4814 -1.2527
  129MPD2    H2 1973   0.146   2.796   1.368  2.9290 -3.6610  0.4411
  129MPD2    H3 1974   0.019   2.901   1.211  0.5161  2.1534  1.5660
  129MPD2     N 1975   0.383   3.104   1.018 -0.0835  0.5433 -0.0979
  129MPD2    H5 1976   0.480   3.132   1.033  0.0701  0.2537 -0.5232
  129MPD2    N1 1977   0.426   2.791   1.378 -0.4865  0.4072 -0.6180
  129MPD2    H7 1978   0.524   2.820   1.380 -0.8764  1.9107 -2.8378
  130TCq2    C1 1979   0.384   2.670   1.437  0.2204  0.5124 -0.0619
  130TCq2    O2 1980   0.280   2.609   1.435 -0.4950 -0.3042  0.2097
  130TCq2    C2 1981   0.493   2.614   1.518 -0.7317  0.6420  0.5138
  130TCq2    C3 1982   0.603   2.692   1.554  0.1855  0.7691  0.0730
  130TCq2    C4 1983   0.699   2.617   1.610 -0.1769 -0.0540 -0.1519
  130TCq2    C5 1984   0.692   2.477   1.634 -0.4831 -0.0150  0.3590
  130TCq2    C6 1985   0.577   2.408   1.595 -0.7632 -0.0626  0.1899
  130TCq2    C7 1986   0.478   2.477   1.532 -0.2322 -0.2580 -0.3663
  130TCq2    C8 1987   0.547   2.270   1.635 -0.6246  0.5319 -0.6098
  130TCq2    O4 1988   0.428   2.237   1.618 -0.2164 -0.0091  0.6163
  130TCq2    C9 1989   0.807   2.685   1.668  0.3178 -0.7359 -0.2708
  130TCq2    O5 1990   0.809   2.809   1.665 -0.2919 -0.1192 -0.0012
  130TCq2    O6 1991   0.903   2.613   1.710 -0.6774  0.1102 -0.6122
  130TCq2    H2 1992   0.614   2.799   1.540 -0.1502  0.7553 -0.2966
  130TCq2    H3 1993   0.772   2.419   1.679  0.7143  0.3014 -1.3983
  130TCq2    H4 1994   0.393   2.430   1.484 -0.1742 -0.7225 -0.0127
  131MPD2     C 1995   4.301   2.127   9.042 -0.3004 -0.4149  0.2628
  131MPD2    C1 1996   4.392   2.066   9.123 -0.0762  0.8772 -0.4913
  131MPD2    C2 1997   4.381   1.932   9.141 -0.7687 -0.0513  1.1381
  131MPD2    C3 1998   4.281   1.853   9.078 -0.8946 -0.3220  0.0733
  131MPD2    C4 1999   4.190   1.915   8.996 -0.6147  0.7361 -0.4323
  131MPD2    C5 2000   4.195   2.054   8.985 -0.6110 -0.6186 -0.1814
  131MPD2     H 2001   4.455   1.884   9.203  1.0179  1.9455  0.5650
  131MPD2    H1 2002   4.126   1.862   8.926 -0.2218 -0.8786  0.4278
  131MPD2    H2 2003   4.307   2.234   9.029 -0.1012 -0.4368  0.1849
  131MPD2    H3 2004   4.118   2.114   8.938  2.2266  3.0455 -0.1325
  131MPD2     N 2005   4.270   1.711   9.105  0.2450 -0.1328  0.0497
  131MPD2    H5 2006   4.348   1.675   9.160 -0.9967 -0.0169  1.8828
  131MPD2    N1 2007   4.491   2.141   9.198 -0.4161  0.2219 -0.2821
  131MPD2    H7 2008   4.500   2.240   9.176 -0.1465  0.1997 -0.2674
  132TCq2    C1 2009   0.124   2.478   9.209  0.2314 -0.3365 -0.5552
  132TCq2    O2 2010   0.074   2.492   9.103 -0.3237 -0.1708 -0.1926
  132TCq2    C2 2011   0.060   2.396   9.308 -0.6010  0.3271 -0.6992
  132TCq2    C3 2012   0.130   2.371   9.434 -0.5924 -0.2609  0.3044
  132TCq2    C4 2013   0.103   2.258   9.506 -0.2300 -0.1697 -0.9709
  132TCq2    C5 2014   0.009   2.171   9.460  0.0960 -0.1140  0.2495
  132TCq2    C6 2015   4.677   2.193   9.338  0.6714  0.2871 -0.6652
  132TCq2    C7 2016   4.696   2.302   9.258  0.1311 -0.2069 -0.2618
  132TCq2    C8 2017   4.592   2.090   9.283  0.1297  0.5354 -0.0058
  132TCq2    O4 2018   4.623   1.977   9.297  0.4247 -0.9943  0.2324
  132TCq2    C9 2019   0.157   2.249   9.642  0.1302 -0.1740 -0.4151
  132TCq2    O5 2020   0.127   2.155   9.721 -0.9176  0.4280 -0.2982
  132TCq2    O6 2021   0.227   2.343   9.686  0.0701  0.3543 -0.4027
  132TCq2    H2 2022   0.191   2.450   9.476 -0.9167 -0.0720  0.4274
  132TCq2    H3 2023   4.710   2.083   9.519 -1.4318 -1.6947 -2.6907
  132TCq2    H4 2024   4.658   2.303   9.156  0.1098 -0.2069 -0.2540
  133MPD2     C 2025   3.128   1.566   8.751  0.8153  1.0621 -0.3926
  133MPD2    C1 2026   3.259   1.576   8.711  0.0035 -0.3155 -1.1853
  133MPD2    C2 2027   3.333   1.689   8.748 -0.3192 -0.7752 -0.2283
  133MPD2    C3 2028   3.272   1.791   8.820 -0.3120 -0.7572  0.2790
  133MPD2    C4 2029   3.138   1.779   8.846 -0.2641 -0.4549  0.7130
  133MPD2    C5 2030   3.068   1.667   8.815 -0.1359 -0.1991 -0.4159
  133MPD2     H 2031   3.436   1.686   8.713 -0.7498 -0.9856 -1.5052
  133MPD2    H1 2032   3.084   1.853   8.904 -2.2277 -0.7454 -0.7525
  133MPD2    H2 2033   3.090   1.465   8.752 -1.7387  2.0248 -0.5801
  133MPD2    H3 2034   2.971   1.653   8.859  0.3941 -0.2837  0.7195
  133MPD2     N 2035   3.339   1.910   8.859  0.3957  0.2338  0.4694
  133MPD2    H5 2036   3.289   1.965   8.928 -2.7279 -1.3540 -0.4981
  133MPD2    N1 2037   3.316   1.467   8.648  0.2266  0.2211 -0.1676
  133MPD2    H7 2038   3.252   1.389   8.636 -0.3010  0.3067  1.9800
  134TCq2    C1 2039   3.444   1.453   8.600 -0.0820 -1.1278  0.6066
  134TCq2    O2 2040   3.541   1.525   8.609 -0.1326  0.2307  0.1437
  134TCq2    C2 2041   3.473   1.319   8.551  0.1996  0.5131 -0.4596
  134TCq2    C3 2042   3.368   1.225   8.530  0.8385  0.2504 -0.2971
  134TCq2    C4 2043   3.390   1.092   8.529  0.0894  0.1406 -0.1138
  134TCq2    C5 2044   3.510   1.046   8.564 -0.2498  0.3105 -0.3001
  134TCq2    C6 2045   3.622   1.133   8.577 -0.8421  0.7547  0.0384
  134TCq2    C7 2046   3.602   1.266   8.560  0.2787 -0.1151 -0.7159
  134TCq2    C8 2047   3.758   1.076   8.590  0.0035  0.3062 -0.1925
  134TCq2    O4 2048   3.851   1.155   8.569  0.2891 -0.5173  0.2763
  134TCq2    C9 2049   3.281   1.003   8.513 -0.5215  0.1191  0.1309
  134TCq2    O5 2050   3.304   0.879   8.492  0.2850 -0.0246  0.4097
  134TCq2    O6 2051   3.166   1.049   8.535  0.0252  0.3408  0.1559
  134TCq2    H2 2052   3.266   1.258   8.516  0.3790 -1.6633 -1.4182
  134TCq2    H3 2053   3.521   0.938   8.563  2.6941  0.6066  1.0010
  134TCq2    H4 2054   3.685   1.335   8.573 -0.1351  0.1750  0.4458
  135MPD2     C 2055   1.045   3.664  10.096 -0.4489  0.2757 -0.4752
  135MPD2    C1 2056   1.178   3.660  10.116 -0.1254 -0.2078 -0.2269
  135MPD2    C2 2057   1.263   3.610  10.017 -0.3804 -0.4687  0.1936
  135MPD2    C3 2058   1.205   3.566   9.899 -0.3322 -0.3192 -0.9294
  135MPD2    C4 2059   1.064   3.551   9.890  0.3845 -0.3199  0.1076
  135MPD2    C5 2060   0.986   3.613   9.984 -0.1134  0.4882 -0.7583
  135MPD2     H 2061   1.371   3.597  10.023 -0.1905  1.4408  0.7668
  135MPD2    H1 2062   1.026   3.502   9.801  0.5585  0.9274 -0.6489
  135MPD2    H2 2063   0.984   3.721  10.165  1.2452  1.1319  0.3351
  135MPD2    H3 2064   0.878   3.616   9.977 -0.2426 -0.6214  0.6548
  135MPD2     N 2065   1.283   3.522   9.789  0.3338 -0.5087 -0.4094
  135MPD2    H5 2066   1.222   3.499   9.711 -1.0965 -0.7600  0.7838
  135MPD2    N1 2067   1.249   3.696  10.233  0.1978  0.4463  0.4103
  135MPD2    H7 2068   1.349   3.681  10.232  0.0163 -0.6369 -1.9637
  136TCq2    C1 2069   1.195   3.765  10.340 -0.5294 -0.1723  0.5269
  136TCq2    O2 2070   1.101   3.838  10.340 -0.1574  0.3833  0.2779
  136TCq2    C2 2071   1.293   3.787  10.446  0.6302 -0.0619  0.4641
  136TCq2    C3 2072   1.272   3.888  10.535 -1.5401  0.4069  0.2525
  136TCq2    C4 2073   1.348   3.883  10.650  0.0228 -0.0665 -0.1829
  136TCq2    C5 2074   1.450   3.791  10.669 -0.1133  1.0914  0.7678
  136TCq2    C6 2075   1.467   3.688  10.583 -0.0920  0.7345  0.6158
  136TCq2    C7 2076   1.388   3.695  10.470  0.0586  0.3203 -0.1204
  136TCq2    C8 2077   1.574   3.597  10.587 -0.4440  0.4177  0.2179
  136TCq2    O4 2078   1.676   3.634  10.641  0.2034 -0.6166 -0.3808
  136TCq2    C9 2079   1.314   3.977  10.753  0.2168  0.3918  0.1730
  136TCq2    O5 2080   1.217   4.054  10.737  0.3243 -0.2210  0.3419
  136TCq2    O6 2081   1.376   3.964  10.862 -0.7326 -0.5703  0.3704
  136TCq2    H2 2082   1.190   3.958  10.520 -0.9002  1.2994  0.9546
  136TCq2    H3 2083   1.504   3.794  10.763  0.1237  0.9501  0.6370
  136TCq2    H4 2084   1.398   3.614  10.399  1.5280  1.2941 -1.0043
  137MPD2     C 2085   1.655   2.078   9.354  0.2697 -0.3358 -0.5823
  137MPD2    C1 2086   1.763   2.168   9.357  0.2070 -0.7770 -0.3050
  137MPD2    C2 2087   1.848   2.179   9.470  0.2931  0.3166  0.1016
  137MPD2    C3 2088   1.817   2.114   9.585  0.0811 -0.5118  0.0823
  137MPD2    C4 2089   1.707   2.030   9.584  0.1411  0.3489  0.1278
  137MPD2    C5 2090   1.631   2.009   9.471 -0.1312  0.1132 -0.0134
  137MPD2     H 2091   1.927   2.253   9.465  1.9929 -1.6413 -1.8040
  137MPD2    H1 2092   1.677   1.981   9.676  2.2260 -0.7776  0.2083
  137MPD2    H2 2093   1.601   2.061   9.262  0.5752  3.5828 -1.4905
  137MPD2    H3 2094   1.553   1.934   9.473  0.2015 -0.2338 -0.1491
  137MPD2     N 2095   1.895   2.140   9.706 -0.0728 -0.2551  0.1768
  137MPD2    H5 2096   1.968   2.210   9.695 -0.6476  0.0366 -1.7705
  137MPD2    N1 2097   1.793   2.237   9.241 -0.2025 -0.1179 -0.0473
  137MPD2    H7 2098   1.721   2.250   9.171 -0.7086 -2.2934  0.0591
  138TCq2    C1 2099   1.925   2.269   9.207 -0.2395  0.2588  0.1073
  138TCq2    O2 2100   2.029   2.240   9.259  0.5477  0.3243  0.6024
  138TCq2    C2 2101   1.929   2.328   9.073  0.3593 -0.1752 -0.3175
  138TCq2    C3 2102   2.038   2.304   8.996  0.3995  0.4411  0.5483
  138TCq2    C4 2103   2.045   2.354   8.873 -0.2656 -0.1508 -0.2678
  138TCq2    C5 2104   1.932   2.408   8.820 -0.5658  0.2259  0.6209
  138TCq2    C6 2105   1.821   2.438   8.895  0.1326  0.4433  0.0397
  138TCq2    C7 2106   1.822   2.398   9.027 -0.0026 -0.7635  0.5942
  138TCq2    C8 2107   1.707   2.506   8.830 -0.0851 -0.0355  0.5783
  138TCq2    O4 2108   1.726   2.563   8.722 -0.4079 -0.1152 -0.3147
  138TCq2    C9 2109   2.161   2.330   8.787 -0.6852 -0.1075 -0.2690
  138TCq2    O5 2110   2.275   2.318   8.834  0.1485  0.2427 -0.1905
  138TCq2    O6 2111   2.135   2.306   8.666 -0.4844 -0.0155 -0.1929
  138TCq2    H2 2112   2.124   2.243   9.020  1.3960  1.8036  0.4738
  138TCq2    H3 2113   1.929   2.426   8.713  1.9602  2.4013  0.9120
  138TCq2    H4 2114   1.744   2.434   9.093  0.1102  2.8670 -1.2701
  139TMC2    C1 2115   1.866   1.191  13.312  0.1189  0.2513  0.4825
  139TMC2    C2 2116   1.752   1.114  13.289 -0.5053 -0.6433 -0.6345
  139TMC2    C3 2117   1.645   1.167  13.226 -0.8552 -0.0552 -0.5084
  139TMC2    C4 2118   1.872   1.321  13.278  0.8119 -0.4109 -0.1106
  139TMC2    C5 2119   1.761   1.373  13.217 -0.2854  0.1890 -0.4409
  139TMC2    C6 2120   1.645   1.298  13.184  0.0945 -0.4180  0.2321
  139TMC2     C 2121   1.993   1.112  13.328  0.7934  0.0058  0.0332
  139TMC2     O 2122   1.981   0.992  13.335 -0.9140 -0.5239  0.4803
  139TMC2     H 2123   1.746   1.007  13.305  0.3017 -0.7074 -0.7549
  139TMC2    H1 2124   1.964   1.372  13.304  1.5400  0.0332 -3.6933
  139TMC2    H2 2125   1.557   1.350  13.147  0.4494 -1.2384 -1.7907
  139TMC2    C7 2126   1.771   1.510  13.170 -0.7927 -0.0421  0.1953
  139TMC2    C8 2127   1.579   1.074  13.139 -0.5231 -0.5215 -0.8682
  139TMC2    O1 2128   1.670   1.579  13.144 -0.3113 -0.0459  0.4835
  139TMC2    O2 2129   1.571   0.957  13.168 -0.0413  0.3107  0.7224
  139TMC2    O5 2130   1.562   1.125  13.019  0.1719  0.0257  0.4368
  139TMC2    H5 2131   1.585   1.220  13.005  1.1289 -0.4917 -1.4780
  140MPD2     C 2132   2.340   1.200  13.406 -0.6121 -0.2788  0.3171
  140MPD2    C1 2133   2.237   1.128  13.353 -0.2981  0.0279 -0.8463
  140MPD2    C2 2134   2.262   1.007  13.295  0.6853 -0.0132  0.2546
  140MPD2    C3 2135   2.382   0.944  13.301 -0.0156 -0.3272 -0.3375
  140MPD2    C4 2136   2.482   1.010  13.368  0.0993 -0.2538  0.3022
  140MPD2    C5 2137   2.461   1.136  13.418  0.0688 -0.9528  0.1972
  140MPD2     H 2138   2.184   0.949  13.247 -2.0992  1.8491  2.5525
  140MPD2    H1 2139   2.583   0.970  13.376 -0.6521 -1.9758  1.3392
  140MPD2    H2 2140   2.326   1.296  13.456 -1.7009 -1.9708  3.2768
  140MPD2    H3 2141   2.541   1.188  13.470 -0.5304  0.3720 -0.1910
  140MPD2     N 2142   2.390   0.819  13.238  0.3296 -0.3579 -0.5055
  140MPD2    H5 2143   2.306   0.789  13.191 -0.5442 -0.0056  0.8512
  140MPD2    N1 2144   2.106   1.185  13.348 -0.1241  0.5794  0.6099
  140MPD2    H7 2145   2.102   1.286  13.361  3.0436  0.8364 -0.3919
  141TCq2    C1 2146   2.591   2.658  14.545 -0.2137 -0.0818 -0.3013
  141TCq2    O2 2147   2.546   2.747  14.468  0.1111 -0.4525  0.2435
  141TCq2    C2 2148   2.565   2.687  14.685 -0.5078 -0.3580  0.0073
  141TCq2    C3 2149   2.535   2.596  14.779  0.2769 -0.0435  0.1279
  141TCq2    C4 2150   2.502   2.639  14.909 -0.6840  0.3376 -0.5028
  141TCq2    C5 2151   2.506   2.769  14.943 -0.2950  0.7685 -0.1316
  141TCq2    C6 2152   2.537   2.857  14.846  0.6845  0.1475  0.4225
  141TCq2    C7 2153   2.567   2.821  14.717  0.5456  0.2331 -0.4811
  141TCq2    C8 2154   2.544   2.998  14.880  0.3956  0.3005 -0.2838
  141TCq2    O4 2155   2.539   3.025  14.998  0.4171 -0.9802  0.0440
  141TCq2    C9 2156   2.459   2.533  15.009 -0.2848 -0.0241  0.0045
  141TCq2    O5 2157   2.445   2.562  15.130  0.0732  0.2309 -0.8551
  141TCq2    O6 2158   2.433   2.419  14.962 -0.5522  0.6009  0.5517
  141TCq2    H2 2159   2.525   2.490  14.759 -0.7112 -0.1172  1.0330
  141TCq2    H3 2160   2.497   2.803  15.046  1.2028 -0.7508  0.4956
  141TCq2    H4 2161   2.589   2.890  14.636  0.3147  0.7064 -0.1399
  142MPD2     C 2162   4.036   1.479   8.567 -0.3811  0.2377  0.7932
  142MPD2    C1 2163   4.115   1.427   8.666 -0.1836  0.3819 -0.3492
  142MPD2    C2 2164   4.220   1.503   8.727 -0.3497 -1.4064 -0.1171
  142MPD2    C3 2165   4.244   1.631   8.675  0.2928 -0.5806 -0.6125
  142MPD2    C4 2166   4.167   1.678   8.569  0.3952  0.3238  0.2422
  142MPD2    C5 2167   4.061   1.604   8.521  0.1658  0.4796 -0.9411
  142MPD2     H 2168   4.290   1.460   8.798  0.5006 -0.1201 -0.1830
  142MPD2    H1 2169   4.178   1.779   8.533  2.1254  0.2814  0.6308
  142MPD2    H2 2170   3.951   1.421   8.533 -1.7074  2.8516 -0.3575
  142MPD2    H3 2171   3.992   1.644   8.448  0.8450  2.4702 -0.4819
  142MPD2     N 2172   4.349   1.718   8.723 -0.4054 -0.3694  0.7149
  142MPD2    H5 2173   4.340   1.818   8.710  1.0162  0.0621  3.0721
  142MPD2    N1 2174   4.072   1.302   8.714 -0.0081 -0.0016  0.4391
  142MPD2    H7 2175   3.988   1.262   8.673 -0.2421  0.8615  0.0879
  143TCq2    C1 2176   4.451   1.683   8.804 -0.5148  0.1081  0.0135
  143TCq2    O2 2177   4.497   1.569   8.826 -0.0664  0.3511  0.6450
  143TCq2    C2 2178   4.534   1.796   8.847  0.2922 -0.3571  0.3084
  143TCq2    C3 2179   4.534   1.917   8.780  0.2406 -0.2864 -0.1633
  143TCq2    C4 2180   4.620   2.012   8.826  0.3872 -0.3358  0.0206
  143TCq2    C5 2181   4.706   1.995   8.929  0.2628 -0.0691 -0.0026
  143TCq2    C6 2182   4.701   1.869   8.992  0.8102  0.3440 -0.1086
  143TCq2    C7 2183   4.615   1.775   8.953  0.5045  0.2880  0.1012
  143TCq2    C8 2184   0.083   1.834   9.089 -0.6400 -0.4850 -0.7481
  143TCq2    O4 2185   0.081   1.721   9.133 -0.0820 -0.2947  0.4299
  143TCq2    C9 2186   4.631   2.133   8.750  0.3597  0.0995  0.1100
  143TCq2    O5 2187   4.550   2.154   8.657 -0.2464  0.0439 -0.4800
  143TCq2    O6 2188   0.006   2.203   8.781 -0.0690 -0.6781  0.4048
  143TCq2    H2 2189   4.482   1.926   8.686 -0.3773 -0.2510  0.1753
  143TCq2    H3 2190   0.062   2.068   8.943 -0.2623  0.2195  1.4207
  143TCq2    H4 2191   4.605   1.686   9.014  0.5679  0.8205  0.8888
  144MPD2     C 2192   2.461   4.446   0.982  0.5658 -0.0633  0.5841
  144MPD2    C1 2193   2.552   4.456   0.879  0.2371  0.6597 -0.5056
  144MPD2    C2 2194   2.688   4.485   0.905  0.7794  0.2290  0.2124
  144MPD2    C3 2195   2.729   4.497   1.037  0.4732  0.3033 -0.2381
  144MPD2    C4 2196   2.631   4.481   1.136  0.2967 -0.0308 -0.4620
  144MPD2    C5 2197   2.502   4.453   1.113  0.1730  0.0291  0.4184
  144MPD2     H 2198   2.756   4.490   0.820 -0.7575  0.2246 -1.0243
  144MPD2    H1 2199   2.652   4.482   1.243  0.2986 -1.2512 -0.4514
  144MPD2    H2 2200   2.360   4.418   0.953  0.5824  1.5880 -1.0988
  144MPD2    H3 2201   2.427   4.445   1.192  0.8345  0.7272  1.1198
  144MPD2     N 2202   2.860   4.522   1.067 -0.0074  0.2449  0.0398
  144MPD2    H5 2203   2.894   4.532   1.162  2.2975 -1.1410 -0.6431
  144MPD2    N1 2204   2.520   4.435   0.737 -0.1799  0.2309 -0.3961
  144MPD2    H7 2205   2.597   4.439   0.672  1.1736 -0.6059  1.1459
  145TCq2    C1 2206   2.964   4.494   0.984 -0.5228  0.2577 -0.2916
  145TCq2    O2 2207   2.972   4.460   0.868  0.0232  0.1522  0.1669
  145TCq2    C2 2208   3.097   4.510   1.048  1.1253 -0.6648 -0.7638
  145TCq2    C3 2209   3.201   4.438   0.989 -0.5686  0.5902  0.6484
  145TCq2    C4 2210   3.308   4.424   1.067  0.5878 -0.3240  0.1631
  145TCq2    C5 2211   3.311   4.470   1.199  0.1488 -0.3452  0.5185
  145TCq2    C6 2212   3.205   4.534   1.253 -0.0431  0.6022 -0.6255
  145TCq2    C7 2213   3.095   4.561   1.176  0.1253 -0.0480 -0.0449
  145TCq2    C8 2214   3.230   4.604   1.382 -0.1084  0.0774 -0.3271
  145TCq2    O4 2215   3.349   4.605   1.413 -0.3106 -0.9041  0.4245
  145TCq2    C9 2216   3.421   4.364   1.012 -0.9092  0.4862  0.4214
  145TCq2    O5 2217   3.415   4.307   0.901  0.2727  0.1332 -0.2626
  145TCq2    O6 2218   3.526   4.361   1.083 -0.5079 -0.5593  0.2554
  145TCq2    H2 2219   3.201   4.392   0.891 -0.3787 -0.1107  0.9764
  145TCq2    H3 2220   3.389   4.449   1.271  1.8303  1.3525 -0.8428
  145TCq2    H4 2221   3.024   4.640   1.200 -2.0315 -2.3643  1.2257
  146TMC2    C1 2222   0.347   3.639  12.529 -0.2331 -0.7207  0.3955
  146TMC2    C2 2223   0.320   3.683  12.400 -0.4265  0.4916 -0.0605
  146TMC2    C3 2224   0.393   3.626  12.301 -0.2857 -0.0009 -0.5479
  146TMC2    C4 2225   0.456   3.557  12.559 -0.1801  0.0818  0.2868
  146TMC2    C5 2226   0.529   3.508  12.451 -0.2604 -0.3795  0.2824
  146TMC2    C6 2227   0.502   3.542  12.321  0.2121 -0.4594  0.3442
  146TMC2     C 2228   0.300   3.728  12.629  0.0483 -0.1899  0.1387
  146TMC2     O 2229   0.268   3.840  12.592  0.5339  0.2609 -0.4877
  146TMC2     H 2230   0.235   3.747  12.380  0.4406  0.4376 -3.9830
  146TMC2    H1 2231   0.482   3.535  12.662 -1.6209 -1.0226  0.4105
  146TMC2    H2 2232   0.567   3.521  12.237 -1.4041 -1.8830 -0.5523
  146TMC2    C7 2233   0.629   3.402  12.465  0.4691  0.2901 -0.2229
  146TMC2    C8 2234   0.376   3.677  12.165  0.1480  0.3214 -0.7018
  146TMC2    O1 2235   0.682   3.363  12.359  0.3833  0.1181 -0.1808
  146TMC2    O2 2236   0.462   3.664  12.071  0.1363 -0.6163 -0.5778
  146TMC2    O5 2237   0.245   3.698  12.143 -0.6241  0.1953 -0.5649
  146TMC2    H5 2238   0.177   3.676  12.210 -1.6169 -0.6095 -1.8398
  147MPD2     C 2239   0.917   3.078  12.752 -0.5835 -0.2852  0.4672
  147MPD2    C1 2240   0.796   3.103  12.821  0.0602  0.8882  0.9054
  147MPD2    C2 2241   0.706   3.195  12.758 -0.0708  0.2199 -0.0688
  147MPD2    C3 2242   0.733   3.255  12.641  0.0436 -0.4828  0.2238
  147MPD2    C4 2243   0.857   3.234  12.583 -0.2011  0.1581 -0.0023
  147MPD2    C5 2244   0.943   3.141  12.633  0.8027 -0.2082 -0.5561
  147MPD2     H 2245   0.619   3.222  12.817  0.6526  0.0844  1.0561
  147MPD2    H1 2246   0.884   3.280  12.488  1.7682 -1.9926 -0.4917
  147MPD2    H2 2247   0.987   3.003  12.787 -1.4720 -1.5418 -0.4679
  147MPD2    H3 2248   1.036   3.129  12.579  1.6444  0.3501  0.7609
  147MPD2     N 2249   0.637   3.346  12.589 -0.1158 -0.6513  0.0834
  147MPD2    H5 2250   0.562   3.377  12.651  0.5101 -0.8805  0.9570
  147MPD2    N1 2251   0.771   3.037  12.943 -0.0692 -0.0396 -0.3737
  147MPD2    H7 2252   0.847   2.978  12.977 -1.5498 -1.7707 -0.0852
  148MPD2     C 2253   4.532   1.562  10.394 -0.2134 -0.5933 -0.5815
  148MPD2    C1 2254   4.573   1.656  10.304 -0.7708  0.5571 -0.9169
  148MPD2    C2 2255   4.504   1.666  10.187  0.0315 -1.1519  0.1489
  148MPD2    C3 2256   4.393   1.585  10.161  0.4615 -0.1573  0.4458
  148MPD2    C4 2257   4.347   1.496  10.259 -0.0055  0.0332  0.0652
  148MPD2    C5 2258   4.416   1.483  10.374  0.8266 -0.0282  0.0467
  148MPD2     H 2259   4.539   1.742  10.117  0.9092 -1.1668  0.5800
  148MPD2    H1 2260   4.255   1.438  10.256  0.9705 -1.5565  0.9827
  148MPD2    H2 2261   4.598   1.540  10.477 -1.7685  0.6572  0.9952
  148MPD2    H3 2262   4.387   1.406  10.445 -0.8527  0.0726 -0.5476
  148MPD2     N 2263   4.308   1.606  10.049  0.0939 -0.0177  0.4604
  148MPD2    H5 2264   4.217   1.561  10.039 -0.1644  0.4210  0.8730
  148MPD2    N1 2265   4.691   1.738  10.306  0.0961 -0.4208  0.3229
  148MPD2    H7 2266   4.693   1.818  10.244  0.9219  1.4986  2.8670
  149TCq2    C1 2267   0.078   1.720  10.387  0.3555  0.2490  0.3946
  149TCq2    O2 2268   0.115   1.625  10.453 -0.4755 -0.2869 -0.0254
  149TCq2    C2 2269   0.180   1.804  10.335 -0.1131 -0.1155  0.3387
  149TCq2    C3 2270   0.136   1.924  10.303 -0.1137  0.3692  0.5202
  149TCq2    C4 2271   0.194   1.992  10.196 -0.0954 -0.2106  0.1697
  149TCq2    C5 2272   0.259   1.918  10.103 -0.0783  0.3070 -0.3420
  149TCq2    C6 2273   0.277   1.783  10.123 -0.2822  0.3848  0.5086
  149TCq2    C7 2274   0.252   1.731  10.247 -0.2244  0.2187 -0.2193
  149TCq2    C8 2275   0.300   1.699  10.008  0.1271  0.0197 -0.0963
  149TCq2    O4 2276   0.300   1.577  10.022  0.0597 -0.2123  0.2099
  149TCq2    C9 2277   0.110   2.102  10.156 -0.3167 -0.0509 -0.4970
  149TCq2    O5 2278   0.110   2.121  10.030 -0.1058  0.0738 -0.4063
  149TCq2    O6 2279   0.019   2.127  10.236  0.5939 -0.4713  0.2846
  149TCq2    H2 2280   0.066   1.974  10.370 -1.0558  1.8194 -1.5436
  149TCq2    H3 2281   0.269   1.971  10.009 -1.2395 -2.1365 -1.8245
  149TCq2    H4 2282   0.256   1.624  10.264  0.6826  0.4297  0.9389
  150MPD2     C 2283   1.582   1.242  11.714  0.9039 -0.3090  0.4467
  150MPD2    C1 2284   1.571   1.368  11.665  1.2072  0.2083  0.2099
  150MPD2    C2 2285   1.639   1.472  11.729  0.0111  0.4452  0.6451
  150MPD2    C3 2286   1.710   1.459  11.842  0.0582  0.3557 -0.5731
  150MPD2    C4 2287   1.727   1.332  11.886  0.3059  0.1293 -0.2244
  150MPD2    C5 2288   1.661   1.225  11.824  0.0705 -0.1753 -0.3178
  150MPD2     H 2289   1.631   1.576  11.697  0.3561  0.4302  0.5049
  150MPD2    H1 2290   1.784   1.300  11.973  1.0842  0.6983 -0.5273
  150MPD2    H2 2291   1.529   1.159  11.670 -1.0162 -0.7000  3.4464
  150MPD2    H3 2292   1.663   1.120  11.849 -1.9494  0.0131  0.6595
  150MPD2     N 2293   1.778   1.572  11.903 -0.1476 -0.6600  0.5913
  150MPD2    H5 2294   1.776   1.654  11.844 -1.4944  0.0384  1.6109
  150MPD2    N1 2295   1.480   1.384  11.562  0.5051  0.1606  0.4368
  150MPD2    H7 2296   1.417   1.304  11.556 -0.4712  1.0269 -0.8271
  151TCq2    C1 2297   1.853   1.569  12.017  0.7309 -0.0432  0.1889
  151TCq2    O2 2298   1.893   1.470  12.081  0.2723  0.0569 -0.1344
  151TCq2    C2 2299   1.900   1.705  12.051 -0.1001  0.1600  0.0407
  151TCq2    C3 2300   1.830   1.817  12.012  0.7859  0.0127 -0.4867
  151TCq2    C4 2301   1.867   1.937  12.054  0.9846 -0.6271 -0.1200
  151TCq2    C5 2302   1.985   1.952  12.124 -0.4606  0.1333  0.0781
  151TCq2    C6 2303   2.052   1.837  12.153 -0.4756  0.0526 -0.5193
  151TCq2    C7 2304   2.012   1.709  12.125 -0.3244  0.5139  0.2902
  151TCq2    C8 2305   2.184   1.867  12.198 -0.2105 -0.2003 -0.1831
  151TCq2    O4 2306   2.238   1.976  12.174 -0.3396 -0.2602 -0.3842
  151TCq2    C9 2307   1.794   2.051  12.008  0.2456  0.6581  0.3345
  151TCq2    O5 2308   1.698   2.034  11.928  0.4046  0.1627 -0.1388
  151TCq2    O6 2309   1.838   2.165  12.038  0.5557  0.2273 -0.3664
  151TCq2    H2 2310   1.747   1.807  11.944 -1.1072 -0.3934  1.8804
  151TCq2    H3 2311   2.018   2.052  12.149 -0.9504 -0.1505  1.8368
  151TCq2    H4 2312   2.083   1.627  12.128 -1.4613 -0.5142 -0.8750
  152MPD2     C 2313   1.357   1.273  12.400  0.4542  0.9026  0.3240
  152MPD2    C1 2314   1.362   1.394  12.336  0.3523  0.0729 -0.4675
  152MPD2    C2 2315   1.253   1.443  12.257  0.5238  0.1750 -0.4957
  152MPD2    C3 2316   1.142   1.368  12.247  0.3020  0.2582  0.1243
  152MPD2    C4 2317   1.137   1.247  12.311  0.2827  0.8231  1.4130
  152MPD2    C5 2318   1.241   1.194  12.381  0.1539  0.3437 -0.3733
  152MPD2     H 2319   1.262   1.539  12.207 -1.3078 -0.0734 -1.3071
  152MPD2    H1 2320   1.044   1.191  12.308 -0.1249  1.7385 -2.4700
  152MPD2    H2 2321   1.442   1.236  12.456  0.6273  0.1529 -0.4261
  152MPD2    H3 2322   1.229   1.096  12.426  1.7346  0.2793 -0.0835
  152MPD2     N 2323   1.045   1.412  12.154 -0.8184  0.4870 -0.8226
  152MPD2    H5 2324   1.075   1.487  12.093 -2.5753  1.9368  0.1226
  152MPD2    N1 2325   1.479   1.476  12.361 -0.0362  0.0044  0.3428
  152MPD2    H7 2326   1.549   1.429  12.418 -0.3118  1.2711  1.7201
  153TCq2    C1 2327   1.502   1.609  12.333  0.2147  0.5091  0.2136
  153TCq2    O2 2328   1.433   1.680  12.262 -0.1935  0.7207  0.1971
  153TCq2    C2 2329   1.638   1.651  12.380  0.3443  0.3466 -0.5947
  153TCq2    C3 2330   1.742   1.563  12.398  0.4139 -0.2677  0.1557
  153TCq2    C4 2331   1.866   1.609  12.408  0.0273  0.3414 -0.6208
  153TCq2    C5 2332   1.885   1.741  12.427 -0.3908  0.1045 -0.1666
  153TCq2    C6 2333   1.781   1.825  12.421  0.1505 -0.0886 -0.4633
  153TCq2    C7 2334   1.652   1.787  12.396 -0.2520  0.2008 -0.4053
  153TCq2    C8 2335   1.795   1.973  12.421 -0.3229 -0.2644 -0.0775
  153TCq2    O4 2336   1.705   2.052  12.399  0.5684  0.2458  0.0892
  153TCq2    C9 2337   1.982   1.519  12.385 -0.7624  0.1619 -0.2689
  153TCq2    O5 2338   2.097   1.563  12.415 -0.3418  0.4889  0.4598
  153TCq2    O6 2339   1.962   1.399  12.393 -0.3132  0.0799 -0.0367
  153TCq2    H2 2340   1.737   1.458  12.374  0.5077 -0.3002  0.2846
  153TCq2    H3 2341   1.989   1.771  12.415 -0.2900  0.7587  2.3281
  153TCq2    H4 2342   1.575   1.863  12.391  0.1952  0.7105  0.4817
  154MPD2     C 2343   3.256   1.562   0.380  0.3714  0.6032 -0.2712
  154MPD2    C1 2344   3.282   1.482   0.489 -0.0605 -0.3095  0.0746
  154MPD2    C2 2345   3.171   1.456   0.583 -0.1983 -0.1947 -0.4183
  154MPD2    C3 2346   3.045   1.520   0.567 -0.1728  0.2043  0.2517
  154MPD2    C4 2347   3.023   1.599   0.454  0.1905 -0.4037 -0.0991
  154MPD2    C5 2348   3.128   1.621   0.361  0.1221  0.5041  0.2540
  154MPD2     H 2349   3.194   1.397   0.670  1.8948  2.0505  0.5591
  154MPD2    H1 2350   2.931   1.649   0.426 -0.3437  0.1501  2.6686
  154MPD2    H2 2351   3.335   1.587   0.311  3.8840 -2.6398  2.5153
  154MPD2    H3 2352   3.105   1.679   0.272 -0.7198  0.7127  0.6011
  154MPD2     N 2353   2.939   1.504   0.649 -0.0009 -0.1579 -0.3417
  154MPD2    H5 2354   2.853   1.549   0.619  0.8894  1.8570  0.1353
  154MPD2    N1 2355   3.412   1.424   0.505 -0.0534  0.1873  0.1933
  154MPD2    H7 2356   3.471   1.428   0.422 -2.6722  1.6909 -1.5940
  155TCq2    C1 2357   3.463   1.358   0.617 -0.5043 -0.4540 -0.2007
  155TCq2    O2 2358   3.415   1.352   0.728 -0.6276 -0.4427 -0.4828
  155TCq2    C2 2359   3.575   1.263   0.592 -0.3125  0.5879 -1.1856
  155TCq2    C3 2360   3.568   1.148   0.665 -0.0024 -0.5122 -0.0563
  155TCq2    C4 2361   3.641   1.037   0.620 -0.3891 -0.1119 -0.3268
  155TCq2    C5 2362   3.704   1.044   0.498  0.0225 -0.2678 -0.3790
  155TCq2    C6 2363   3.697   1.159   0.427  0.4609  0.0613 -0.7007
  155TCq2    C7 2364   3.642   1.269   0.471  0.1334 -0.5586  0.4110
  155TCq2    C8 2365   3.761   1.161   0.299 -0.1664  0.5962 -0.3288
  155TCq2    O4 2366   3.790   1.273   0.260 -0.1207 -0.1184  0.4776
  155TCq2    C9 2367   3.632   0.911   0.685  0.4029  0.5029  0.6274
  155TCq2    O5 2368   3.559   0.910   0.787 -0.3487 -0.0229 -0.0379
  155TCq2    O6 2369   3.693   0.815   0.630  0.3111  0.4114 -0.3693
  155TCq2    H2 2370   3.514   1.137   0.758  0.1296  1.8719  0.3123
  155TCq2    H3 2371   3.757   0.957   0.461  3.5987  2.5711 -1.9188
  155TCq2    H4 2372   3.635   1.360   0.411  0.3212 -1.9799 -1.7766
  156MPD2     C 2373   1.341   3.270  12.065  0.5388 -0.0058  0.0521
  156MPD2    C1 2374   1.357   3.382  11.991  0.1693 -0.0514  0.5174
  156MPD2    C2 2375   1.437   3.483  12.031 -0.0583  0.0713  0.8555
  156MPD2    C3 2376   1.509   3.479  12.153  0.5187  0.1412  0.3314
  156MPD2    C4 2377   1.499   3.359  12.226 -0.6603  0.6182  0.3249
  156MPD2    C5 2378   1.407   3.257  12.185 -0.7788 -0.5126  0.1548
  156MPD2     H 2379   1.444   3.567  11.963 -2.1372 -0.1231  0.3979
  156MPD2    H1 2380   1.546   3.338  12.322  0.7752  0.9907 -0.2925
  156MPD2    H2 2381   1.271   3.191  12.043 -0.8102  1.4269 -0.7980
  156MPD2    H3 2382   1.393   3.173  12.252  2.3413 -0.3894  0.9281
  156MPD2     N 2383   1.577   3.595  12.192 -0.0525  0.0697  0.4540
  156MPD2    H5 2384   1.567   3.676  12.132 -1.3678 -1.6786 -1.6826
  156MPD2    N1 2385   1.294   3.384  11.863 -0.5250 -0.4623  0.1111
  156MPD2    H7 2386   1.248   3.300  11.830 -0.9242 -0.7348  1.3601
  157TCq2    C1 2387   1.265   3.503  11.795  0.4921 -0.5678  0.7295
  157TCq2    O2 2388   1.270   3.617  11.836 -0.1654  0.2541  0.8400
  157TCq2    C2 2389   1.173   3.472  11.682 -0.4942  0.0652 -0.1099
  157TCq2    C3 2390   1.202   3.390  11.577 -0.6420 -0.2316 -0.5108
  157TCq2    C4 2391   1.139   3.398  11.457 -0.6655 -0.1569  0.2903
  157TCq2    C5 2392   1.030   3.478  11.448  0.5281  0.8125 -0.0896
  157TCq2    C6 2393   0.993   3.546  11.558  0.0208  0.4351  1.2025
  157TCq2    C7 2394   1.065   3.557  11.678  0.7809  0.2816 -0.1708
  157TCq2    C8 2395   0.901   3.660  11.546 -1.0956  0.3478  0.3727
  157TCq2    O4 2396   0.937   3.758  11.608  0.3359  0.3815 -0.3816
  157TCq2    C9 2397   1.164   3.299  11.358  0.3366 -0.5321 -0.4078
  157TCq2    O5 2398   1.130   3.337  11.247  0.0019  0.2141  0.2392
  157TCq2    O6 2399   1.236   3.201  11.390  0.3582 -0.2656  0.3948
  157TCq2    H2 2400   1.282   3.317  11.583  2.4434  3.2949  1.5634
  157TCq2    H3 2401   0.977   3.464  11.355  1.4688  2.4276 -0.8573
  157TCq2    H4 2402   1.024   3.605  11.765  1.1600 -0.8364  0.6274
  158TMC2    C1 2403   2.431   3.198  13.549 -0.3536 -0.5639 -0.2187
  158TMC2    C2 2404   2.519   3.270  13.476  0.6447  0.8489  0.2845
  158TMC2    C3 2405   2.492   3.300  13.346 -0.2839  0.2470 -0.5532
  158TMC2    C4 2406   2.310   3.159  13.496 -0.3413  0.7243  0.2646
  158TMC2    C5 2407   2.295   3.180  13.361  0.0706 -0.3930  0.1231
  158TMC2    C6 2408   2.388   3.242  13.282  0.1671 -0.2008 -0.0047
  158TMC2     C 2409   2.481   3.140  13.673 -0.7726  0.5622  0.2881
  158TMC2     O 2410   2.590   3.178  13.712 -0.2885 -0.5163 -0.1618
  158TMC2     H 2411   2.606   3.311  13.526  1.2231 -0.6599  0.5301
  158TMC2    H1 2412   2.231   3.118  13.557 -0.2127 -1.0986 -0.7712
  158TMC2    H2 2413   2.363   3.257  13.178 -0.4484  0.9906  0.3147
  158TMC2    C7 2414   2.169   3.152  13.290  0.3000  0.8545  0.2852
  158TMC2    C8 2415   2.552   3.413  13.280 -0.4759  1.0606  0.5524
  158TMC2    O1 2416   2.134   3.241  13.214 -0.3235  0.2201 -0.0228
  158TMC2    O2 2417   2.501   3.479  13.189 -0.1834 -0.5184 -0.0090
  158TMC2    O5 2418   2.679   3.422  13.317  0.1653 -0.2794 -0.0712
  158TMC2    H5 2419   2.718   3.345  13.365 -0.1526 -0.1992  0.3096
  159MPD2     C 2420   2.443   2.867  14.089  0.2366 -0.4620  0.1744
  159MPD2    C1 2421   2.374   2.797  13.992 -0.8461 -0.5369  0.0931
  159MPD2    C2 2422   2.371   2.855  13.869 -0.1681  0.3711 -0.1309
  159MPD2    C3 2423   2.437   2.975  13.842  0.0315 -0.2890 -0.2302
  159MPD2    C4 2424   2.511   3.034  13.935  0.0477 -0.2819 -0.6312
  159MPD2    C5 2425   2.515   2.981  14.058 -0.4368  0.5518  0.8052
  159MPD2     H 2426   2.314   2.807  13.790  0.8202  0.1398 -0.7030
  159MPD2    H1 2427   2.565   3.128  13.932 -0.5072  0.0917  1.1566
  159MPD2    H2 2428   2.454   2.835  14.192  1.1343 -0.4594  0.0856
  159MPD2    H3 2429   2.573   3.024  14.139  1.7755 -3.1922  1.2083
  159MPD2     N 2430   2.408   3.041  13.722 -0.6497 -0.2960 -0.7245
  159MPD2    H5 2431   2.324   3.011  13.673  0.1233  0.7083 -2.6420
  159MPD2    N1 2432   2.306   2.675  14.030  0.4792 -0.5754  0.3394
  159MPD2    H7 2433   2.306   2.640  14.126 -0.8846  1.2540  1.0096
  160TMC2    C1 2434   1.881   0.239   1.318  0.6367 -0.8405  0.0453
  160TMC2    C2 2435   1.831   0.114   1.343  0.2823  0.7208 -0.0528
  160TMC2    C3 2436   1.825   0.025   1.245 -0.5400  0.8912 -1.0648
  160TMC2    C4 2437   1.919   0.275   1.192 -0.0783 -0.7207  0.1049
  160TMC2    C5 2438   1.917   0.179   1.090  0.3099  0.1620 -0.3045
  160TMC2    C6 2439   1.871   0.055   1.125 -0.7218 -0.2547 -0.6951
  160TMC2     C 2440   1.846   0.340   1.416  0.7814 -0.1077 -0.0292
  160TMC2     O 2441   1.831   0.303   1.533 -0.0385  0.1312  0.0552
  160TMC2     H 2442   1.794   0.092   1.443  0.0488 -1.5543 -0.6360
  160TMC2    H1 2443   1.973   0.368   1.177 -2.7300  0.9426  0.9319
  160TMC2    H2 2444   1.861   4.694   1.057 -0.1132  0.3609 -1.5299
  160TMC2    C7 2445   1.979   0.198   0.958  0.3659  0.1755  0.1679
  160TMC2    C8 2446   1.809   4.606   1.275 -0.7368 -0.9002 -0.6101
  160TMC2    O1 2447   1.999   0.095   0.893  0.5076  0.0128 -0.0441
  160TMC2    O2 2448   1.859   4.519   1.204 -0.4846 -0.1462 -0.4947
  160TMC2    O5 2449   1.759   4.596   1.399  0.7440  0.4416  0.0578
  160TMC2    H5 2450   1.712   4.679   1.421  0.5688  0.3703 -0.0508
  161MPD2     C 2451   1.766   0.599   1.550 -0.0738 -0.2749  0.0673
  161MPD2    C1 2452   1.782   0.587   1.420  0.3486  0.1516  0.0224
  161MPD2    C2 2453   1.742   0.689   1.329 -0.8194 -0.0750 -0.5515
  161MPD2    C3 2454   1.664   0.792   1.373 -0.7417 -0.2958  0.0123
  161MPD2    C4 2455   1.635   0.806   1.508 -0.5755  0.8042 -0.1315
  161MPD2    C5 2456   1.688   0.707   1.593  1.0525 -0.1173  0.1322
  161MPD2     H 2457   1.766   0.678   1.224 -0.7851  0.1776 -0.5702
  161MPD2    H1 2458   1.571   0.887   1.542 -2.9237  0.1413 -3.0126
  161MPD2    H2 2459   1.802   0.526   1.622  0.9411 -0.3046 -0.4807
  161MPD2    H3 2460   1.668   0.710   1.699 -2.6102  0.0749 -0.5528
  161MPD2     N 2461   1.604   0.879   1.286  0.0882 -0.3375  0.0576
  161MPD2    H5 2462   1.531   0.935   1.330 -0.6602 -0.7743 -0.6420
  161MPD2    N1 2463   1.827   0.465   1.360 -0.3730  0.3488 -0.6992
  161MPD2    H7 2464   1.844   0.457   1.260 -1.0999 -0.8847 -0.7294
  162TMC2    C1 2465   4.089   2.040   1.299 -0.3691  0.1095  0.9075
  162TMC2    C2 2466   3.961   2.006   1.328 -0.2786 -0.7924  0.4187
  162TMC2    C3 2467   3.928   1.994   1.459  0.0683 -0.3362 -0.8923
  162TMC2    C4 2468   4.185   2.056   1.392 -0.1883  0.2481  0.2273
  162TMC2    C5 2469   4.158   2.023   1.519  0.8231  0.0251  0.7687
  162TMC2    C6 2470   4.029   1.996   1.558  0.3082  0.6757  0.4075
  162TMC2     C 2471   4.130   2.065   1.165  0.1513  0.0995 -0.1426
  162TMC2     O 2472   4.243   2.027   1.143  0.7405 -0.6046  0.1059
  162TMC2     H 2473   3.891   1.979   1.250  1.8986 -0.2246 -1.7077
  162TMC2    H1 2474   4.290   2.065   1.366 -0.4677  2.8921 -0.0550
  162TMC2    H2 2475   4.021   1.940   1.651 -0.6106 -1.5715 -1.0086
  162TMC2    C7 2476   4.266   2.018   1.614  0.5626  0.2060  0.6104
  162TMC2    C8 2477   3.823   1.902   1.488 -0.0548 -0.2209  0.3941
  162TMC2    O1 2478   4.383   2.022   1.581  0.3419  0.4770 -0.2021
  162TMC2    O2 2479   3.838   1.810   1.569 -0.7715 -0.4010  0.2024
  162TMC2    O5 2480   3.716   1.916   1.408 -0.1109 -0.3131 -0.4204
  162TMC2    H5 2481   3.717   1.988   1.342 -0.8465  1.3681  1.3813
  163MPD2     C 2482   4.073   2.317   0.720 -0.0429  0.8353  0.0969
  163MPD2    C1 2483   4.180   2.244   0.765  0.1971  0.5026  0.4940
  163MPD2    C2 2484   4.171   2.180   0.888 -0.5103 -0.2678  0.1720
  163MPD2    C3 2485   4.051   2.178   0.957 -1.4567  0.3820  0.4213
  163MPD2    C4 2486   3.944   2.245   0.906  0.2951 -0.2202 -0.0253
  163MPD2    C5 2487   3.958   2.318   0.794  0.3953  0.3550 -0.4720
  163MPD2     H 2488   4.256   2.131   0.934  0.5616  0.3262 -1.1543
  163MPD2    H1 2489   3.845   2.240   0.949  0.9528  0.4881  1.6008
  163MPD2    H2 2490   4.083   2.387   0.638 -0.4966  2.7158  1.6497
  163MPD2    H3 2491   3.877   2.381   0.759  0.2626 -0.5129 -1.7139
  163MPD2     N 2492   4.033   2.115   1.080  0.4739  0.8124 -0.0362
  163MPD2    H5 2493   3.952   2.149   1.131 -0.2484 -0.7418 -0.1282
  163MPD2    N1 2494   4.304   2.251   0.693  0.1976 -0.0285  0.2551
  163MPD2    H7 2495   4.301   2.308   0.609 -0.2561  1.2324  1.1289
  164TCq2    C1 2496   0.315   1.988  10.708  0.1986  0.0296 -0.7771
  164TCq2    O2 2497   0.276   1.885  10.768  0.2649 -0.4582 -0.1807
  164TCq2    C2 2498   0.295   2.121  10.766 -0.6182  0.0729 -0.8876
  164TCq2    C3 2499   0.393   2.214  10.751 -0.1031 -0.7683  0.4220
  164TCq2    C4 2500   0.379   2.337  10.800  0.0732 -0.0693 -0.7440
  164TCq2    C5 2501   0.265   2.363  10.873 -0.1811  0.1304 -0.0439
  164TCq2    C6 2502   0.164   2.266  10.882 -0.2098  0.3343 -0.3857
  164TCq2    C7 2503   0.175   2.147  10.813 -0.5400  0.3207  0.2031
  164TCq2    C8 2504   0.038   2.301  10.948  0.0928 -0.0444  0.2963
  164TCq2    O4 2505   4.666   2.234  10.913  0.4041  0.6922  0.7371
  164TCq2    C9 2506   0.486   2.431  10.771 -0.3092  0.9497  0.6732
  164TCq2    O5 2507   0.483   2.534  10.847 -0.1694  0.0408 -0.4107
  164TCq2    O6 2508   0.591   2.386  10.722 -0.3849 -0.1852  0.0260
  164TCq2    H2 2509   0.494   2.180  10.731 -0.4267  0.3367 -2.9965
  164TCq2    H3 2510   0.250   2.464  10.909 -0.0005 -0.3300  1.3316
  164TCq2    H4 2511   0.097   2.072  10.815  0.3673 -0.6678 -2.1897
  165MPD2     C 2512   0.856   4.515   1.208  0.1812 -0.0894  0.3159
  165MPD2    C1 2513   0.945   4.464   1.304 -0.2216 -0.1530  0.3290
  165MPD2    C2 2514   1.008   4.554   1.390  0.5303 -1.2300 -0.3999
  165MPD2    C3 2515   0.992   4.692   1.377  0.2325  0.1677 -0.1643
  165MPD2    C4 2516   0.906   0.015   1.283 -0.4189  0.1625  0.1936
  165MPD2    C5 2517   0.837   4.650   1.202  0.4947  0.1499  0.1145
  165MPD2     H 2518   1.061   4.506   1.472  0.7151 -1.2806 -0.5488
  165MPD2    H1 2519   0.890   0.118   1.255  0.5239  0.1844 -0.2674
  165MPD2    H2 2520   0.798   4.451   1.143  0.3917 -0.9210  0.9485
  165MPD2    H3 2521   0.767   4.689   1.129 -0.8177  0.8295  1.7451
  165MPD2     N 2522   1.052   0.067   1.457 -0.2623  0.4754  0.1583
  165MPD2    H5 2523   1.033   0.162   1.428 -0.7591  0.3741  0.1484
  165MPD2    N1 2524   0.945   4.321   1.321  0.2360  0.5188  0.0994
  165MPD2    H7 2525   0.901   4.268   1.246  2.9632 -2.7725  0.8406
  166TCq2    C1 2526   1.105   0.042   1.582 -0.4324 -0.1521 -0.0684
  166TCq2    O2 2527   1.141   4.660   1.637  0.2797  0.1124  0.8571
  166TCq2    C2 2528   1.154   0.164   1.635  0.7689 -0.1605 -0.0811
  166TCq2    C3 2529   1.107   0.280   1.586 -0.7816 -0.6347  0.3310
  166TCq2    C4 2530   1.178   0.394   1.613  0.4972 -0.0912  0.9791
  166TCq2    C5 2531   1.296   0.393   1.684 -0.3569  0.1979 -0.1612
  166TCq2    C6 2532   1.342   0.271   1.729 -0.1654  0.3861 -0.1158
  166TCq2    C7 2533   1.272   0.155   1.704 -0.1858 -0.4205  0.1677
  166TCq2    C8 2534   1.475   0.252   1.789 -0.5948  0.0196  0.2830
  166TCq2    O4 2535   1.520   0.136   1.772 -0.0170  0.3048  0.5885
  166TCq2    C9 2536   1.142   0.520   1.559  1.0591  0.3813  0.4929
  166TCq2    O5 2537   1.054   0.521   1.477  0.2599  0.2419 -0.4186
  166TCq2    O6 2538   1.177   0.618   1.625  0.1392 -0.5771 -0.5299
  166TCq2    H2 2539   1.012   0.293   1.535 -0.7150 -1.5158 -0.0152
  166TCq2    H3 2540   1.352   0.484   1.701 -0.3281 -0.0020  0.8498
  166TCq2    H4 2541   1.301   0.058   1.743  0.5067 -0.0893  0.4698
  167TMC2    C1 2542   4.549   2.276  12.551 -0.0277  0.1991  0.0896
  167TMC2    C2 2543   4.543   2.299  12.691 -0.3488  0.2480  0.3803
  167TMC2    C3 2544   4.485   2.204  12.771 -0.1969  0.6211  0.0965
  167TMC2    C4 2545   4.513   2.156  12.494 -0.2244  0.2289  0.3858
  167TMC2    C5 2546   4.450   2.059  12.578  0.1542  0.6487 -0.0278
  167TMC2    C6 2547   4.433   2.083  12.713  0.0253 -0.4136 -0.4999
  167TMC2     C 2548   4.576   2.386  12.463 -0.0399 -0.3907  1.0816
  167TMC2     O 2549   4.650   2.474  12.507  0.0413 -0.6472 -0.0833
  167TMC2     H 2550   4.576   2.395  12.729 -0.5684  0.7344 -0.6494
  167TMC2    H1 2551   4.523   2.140  12.387  1.3070 -1.4346  0.7904
  167TMC2    H2 2552   4.377   2.014  12.774 -1.5569 -1.1502 -2.8100
  167TMC2    C7 2553   4.384   1.936  12.528  0.1120  0.3568  0.3048
  167TMC2    C8 2554   4.445   2.234  12.905  0.2460 -1.0128 -0.3764
  167TMC2    O1 2555   4.292   1.896  12.598  0.2881 -0.3863  0.0121
  167TMC2    O2 2556   4.414   2.150  12.987  0.5410  0.1010  0.0199
  167TMC2    O5 2557   4.378   2.350  12.884  0.3787 -0.6319  0.1823
  167TMC2    H5 2558   4.395   2.398  12.801  0.0445 -0.2699  0.3197
  168MPD2     C 2559   4.611   2.584  12.239  0.0145 -0.4555  0.0860
  168MPD2    C1 2560   4.525   2.476  12.234  0.4964  0.0098 -0.1754
  168MPD2    C2 2561   4.446   2.458  12.124  0.1118  0.0511  0.5919
  168MPD2    C3 2562   4.457   2.536  12.013  0.5985  1.0234  0.2000
  168MPD2    C4 2563   4.556   2.628  12.008 -0.6335  0.7483 -0.1654
  168MPD2    C5 2564   4.632   2.653  12.123  0.5616  0.1577 -0.1402
  168MPD2     H 2565   4.364   2.386  12.119 -0.8339  1.1379  0.4473
  168MPD2    H1 2566   4.571   2.689  11.919  1.9811 -0.0096 -0.2545
  168MPD2    H2 2567   4.680   2.600  12.321  1.3420  1.5232 -1.4148
  168MPD2    H3 2568   4.715   2.723  12.123 -0.5355  1.4601 -0.0614
  168MPD2     N 2569   4.377   2.502  11.901  0.3855  0.3080 -0.4928
  168MPD2    H5 2570   4.321   2.418  11.910  2.4007 -0.8368  1.6057
  168MPD2    N1 2571   4.511   2.386  12.343 -0.0076 -0.0477  0.3111
  168MPD2    H7 2572   4.457   2.300  12.332 -0.4596  0.1243  1.1599
  169MPD1     C 2573   2.733   0.039   8.699 -0.2213  0.4432 -0.1717
  169MPD1    C1 2574   2.661   0.041   8.814  0.0194 -0.3522 -0.3905
  169MPD1    C2 2575   2.702   0.124   8.914 -0.3564  0.6676 -0.4423
  169MPD1    C3 2576   2.799   0.225   8.890  0.2053 -0.0789 -0.0176
  169MPD1    C4 2577   2.865   0.220   8.765 -0.4610  0.1921  0.1912
  169MPD1    C5 2578   2.840   0.111   8.680 -0.2087 -0.1832 -0.3031
  169MPD1     H 2579   2.645   0.129   9.006 -2.2279  0.2524 -1.5716
  169MPD1    H1 2580   2.944   0.289   8.739 -1.1602  0.6853 -0.6060
  169MPD1    H2 2581   2.731   4.691   8.617  1.7533  1.4077 -1.0449
  169MPD1    H3 2582   2.906   0.095   8.596 -1.3999 -0.8247 -1.1143
  169MPD1     N 2583   2.819   0.321   8.993  0.8446  0.4914  0.0899
  169MPD1    H5 2584   2.763   0.315   9.077 -0.5114  1.9017 -0.7251
  169MPD1    N1 2585   2.572   4.657   8.838  0.2742  0.5561  0.2480
  169MPD1    H6 2586   2.532   4.620   8.752  0.4843  2.6878 -0.7667
  169MPD1    H7 2587   2.499   4.675   8.906  0.9601 -0.2225  1.1993
  170MPD1     C 2588   4.223   4.703  13.072  0.2895 -0.2136 -0.2827
  170MPD1    C1 2589   4.246   4.637  13.188 -0.5452  0.6163  0.6169
  170MPD1    C2 2590   4.385   4.633  13.226  0.2394 -0.0127  0.6483
  170MPD1    C3 2591   4.492   4.689  13.160  0.4735  0.2367  0.0071
  170MPD1    C4 2592   4.455   0.029  13.040  0.2099  0.6597 -0.6923
  170MPD1    C5 2593   4.326   0.041  13.003 -0.8822  0.4896 -0.5769
  170MPD1     H 2594   4.410   4.588  13.321 -1.1041 -0.2216  0.9130
  170MPD1    H1 2595   4.535   0.076  12.985  0.2432 -0.3525 -1.5058
  170MPD1    H2 2596   4.123   4.718  13.033  0.8278  1.6608 -0.9350
  170MPD1    H3 2597   4.312   0.102  12.915  2.2201  1.2432 -0.5581
  170MPD1     N 2598   4.627   4.673  13.211 -0.4055 -0.0779  0.1549
  170MPD1    H5 2599   4.637   4.623  13.299  1.9003  1.5646  0.8432
  170MPD1    N1 2600   4.145   4.571  13.267  0.8866  0.3086 -0.6000
  170MPD1    H6 2601   4.156   4.605  13.362 -0.9444 -0.7895  0.0123
  170MPD1    H7 2602   4.052   4.606  13.242  0.5004  0.0103  0.4384
  171MPD1     C 2603   3.421   0.804  15.128 -0.2120 -0.3956 -0.1891
  171MPD1    C1 2604   3.481   0.684  15.100  0.1269  0.2593 -0.8875
  171MPD1    C2 2605   3.570   0.625  15.187 -0.7099  0.1511 -0.6205
  171MPD1    C3 2606   3.614   0.690  15.299 -0.2560 -0.0733 -0.6354
  171MPD1    C4 2607   3.544   0.800  15.331 -0.1236 -0.7927 -0.7561
  171MPD1    C5 2608   3.456   0.862  15.249 -0.5599  0.2385  0.1745
  171MPD1     H 2609   3.621   0.536  15.153 -1.1996 -0.4401  0.2310
  171MPD1    H1 2610   3.572   0.842  15.427  0.4542 -0.5269 -1.0418
  171MPD1    H2 2611   3.352   0.856  15.063 -0.1732 -0.3473 -0.1915
  171MPD1    H3 2612   3.399   0.945  15.288  2.8228  2.0266  1.3611
  171MPD1     N 2613   3.706   0.627  15.380  0.0871  0.6540 -0.4699
  171MPD1    H5 2614   3.710   0.659  15.477 -1.0045 -0.8959  0.0866
  171MPD1    N1 2615   3.456   0.629  14.975  0.0082 -0.2004  0.0205
  171MPD1    H6 2616   3.359   0.643  14.947 -0.0142  0.7463  0.6017
  171MPD1    H7 2617   3.462   0.527  14.966  0.3772 -0.3255  1.8329
  172MPD1     C 2618   2.732   4.223  17.230 -0.7283 -0.1677 -0.3703
  172MPD1    C1 2619   2.746   4.141  17.336 -0.5845 -0.3924  0.5246
  172MPD1    C2 2620   2.817   4.187  17.445 -0.1878  0.3190  0.3322
  172MPD1    C3 2621   2.848   4.319  17.462 -0.9190  0.2851 -0.1592
  172MPD1    C4 2622   2.833   4.403  17.359  0.8795  0.5980  0.1251
  172MPD1    C5 2623   2.778   4.358  17.245  0.2317  0.0576 -0.2236
  172MPD1     H 2624   2.827   4.123  17.532 -1.5738  0.2958  0.4778
  172MPD1    H1 2625   2.859   4.508  17.367 -1.2598  1.1964 -0.9143
  172MPD1    H2 2626   2.685   4.192  17.138 -1.7211 -1.0238  0.4238
  172MPD1    H3 2627   2.766   4.425  17.160 -2.2750 -0.3272 -0.1799
  172MPD1     N 2628   2.891   4.366  17.589  0.5310 -0.5300 -0.6937
  172MPD1    H5 2629   2.893   4.467  17.600  0.0150 -0.4592 -1.2134
  172MPD1    N1 2630   2.728   4.004  17.318  0.5827 -0.0175  0.3084
  172MPD1    H6 2631   2.735   3.967  17.413 -0.6060  0.4028  0.5655
  172MPD1    H7 2632   2.646   3.968  17.271  0.7511  1.7704 -1.3817
  173MPD1     C 2633   4.691   0.225  13.510 -0.1560  0.8056 -0.4623
  173MPD1    C1 2634   0.012   0.186  13.632  0.5830 -0.7014  0.3783
  173MPD1    C2 2635   4.656   0.095  13.695 -0.1669  0.1305 -0.5093
  173MPD1    C3 2636   4.533   0.053  13.649 -0.1030  0.2578  0.5647
  173MPD1    C4 2637   4.484   0.105  13.534  0.2166  0.4958  0.0558
  173MPD1    C5 2638   4.562   0.192  13.467  0.0350  0.0426 -0.0988
  173MPD1     H 2639   4.698   0.053  13.785  2.6409  2.4672 -0.7245
  173MPD1    H1 2640   4.381   0.101  13.501  0.2481  3.9877 -0.4791
  173MPD1    H2 2641   0.029   0.287  13.446  0.8882 -1.8294 -2.0137
  173MPD1    H3 2642   4.535   0.225  13.367  1.1003  0.1217 -0.3688
  173MPD1     N 2643   4.462   4.677  13.728  0.0955  0.3212 -0.6136
  173MPD1    H5 2644   4.499   4.656  13.820  1.1677  0.5968 -0.9801
  173MPD1    N1 2645   0.144   0.215  13.673 -0.4307  0.0304 -0.0715
  173MPD1    H6 2646   0.163   0.197  13.771  1.4998  0.4123 -0.3619
  173MPD1    H7 2647   0.177   0.304  13.635  1.3648 -0.0721  1.2527
  174MPD1     C 2648   4.075   3.872  13.467 -0.1691  0.3817  0.4017
  174MPD1    C1 2649   4.209   3.911  13.465 -0.0382 -0.6295  0.4770
  174MPD1    C2 2650   4.250   4.006  13.547  0.6437 -0.3104 -0.2413
  174MPD1    C3 2651   4.169   4.063  13.645 -0.0486 -0.1506 -0.5778
  174MPD1    C4 2652   4.034   4.031  13.646  0.4102  0.3714  0.0984
  174MPD1    C5 2653   3.991   3.936  13.555  0.0890  0.2225  0.1928
  174MPD1     H 2654   4.353   4.039  13.547  0.6603 -0.3427  1.7368
  174MPD1    H1 2655   3.958   4.075  13.709  0.5549 -1.6625  1.6815
  174MPD1    H2 2656   4.029   3.812  13.390  1.6466 -0.3691 -0.0980
  174MPD1    H3 2657   3.887   3.907  13.561 -0.2042  1.4489  0.9133
  174MPD1     N 2658   4.220   4.156  13.740 -0.2446 -0.5388  0.4036
  174MPD1    H5 2659   4.309   4.200  13.720 -1.2896  1.7594  0.7299
  174MPD1    N1 2660   4.291   3.882  13.357 -0.2256 -0.5493  0.4951
  174MPD1    H6 2661   4.277   3.793  13.310 -0.5275  0.3074 -1.0517
  174MPD1    H7 2662   4.389   3.883  13.385  0.3457  2.4789 -1.6050
  175MPD1     C 2663   2.614   1.059  15.248 -0.1121 -0.2243  0.2406
  175MPD1    C1 2664   2.487   1.057  15.302 -0.1940 -0.0975 -0.4325
  175MPD1    C2 2665   2.465   0.959  15.398  0.3110 -0.4839 -0.6773
  175MPD1    C3 2666   2.563   0.859  15.435 -0.0156 -0.8621  0.0788
  175MPD1    C4 2667   2.683   0.864  15.374  0.0241  0.3428  0.4892
  175MPD1    C5 2668   2.702   0.963  15.281  0.4305  1.0646  0.2199
  175MPD1     H 2669   2.369   0.955  15.448 -0.2326 -1.5468 -1.8234
  175MPD1    H1 2670   2.760   0.795  15.408  1.9979  0.9972 -2.6195
  175MPD1    H2 2671   2.640   1.138  15.178  2.5036 -0.0736  1.3960
  175MPD1    H3 2672   2.796   0.956  15.227 -1.1539 -0.3028 -2.3813
  175MPD1     N 2673   2.555   0.773  15.544 -0.7900 -0.2594  0.6004
  175MPD1    H5 2674   2.630   0.709  15.567  0.0995 -0.5080 -3.0351
  175MPD1    N1 2675   2.395   1.163  15.281  0.9095  0.2859  0.1984
  175MPD1    H6 2676   2.410   1.198  15.186 -1.3028  0.5576 -0.0522
  175MPD1    H7 2677   2.300   1.127  15.287  0.8675  0.5065  0.8077
  176MPD1     C 2678   4.450   2.844  16.156 -0.2775 -0.0911  0.4012
  176MPD1    C1 2679   4.407   2.945  16.236 -0.1961 -0.0246 -0.1950
  176MPD1    C2 2680   4.443   2.944  16.371 -0.2947  0.6814  0.2220
  176MPD1    C3 2681   4.517   2.842  16.433 -0.2774 -0.1636 -0.0359
  176MPD1    C4 2682   4.552   2.731  16.351 -0.3952  0.3534 -0.2153
  176MPD1    C5 2683   4.519   2.740  16.215 -0.1599 -0.3264 -0.0455
  176MPD1     H 2684   4.410   3.031  16.428 -1.4497  1.0991 -1.0811
  176MPD1    H1 2685   4.605   2.645  16.390  0.2150  0.3664 -1.0018
  176MPD1    H2 2686   4.427   2.844  16.050  1.1530 -0.1594  0.0915
  176MPD1    H3 2687   4.559   2.656  16.158  1.0178  0.8294 -0.9120
  176MPD1     N 2688   4.538   2.840  16.572  0.1569  0.1735  0.1856
  176MPD1    H5 2689   4.503   2.922  16.621 -1.0880  0.0504 -0.5065
  176MPD1    N1 2690   4.347   3.068  16.194  0.1081 -0.2728 -0.5906
  176MPD1    H6 2691   4.297   3.058  16.106  1.4089 -0.7976 -1.2776
  176MPD1    H7 2692   4.288   3.105  16.268  0.3905 -0.8156 -0.0883
  177MPD1     C 2693   3.276   2.489  10.492  0.3900  0.6633 -0.0562
  177MPD1    C1 2694   3.261   2.395  10.392  0.7950  0.2400  0.4051
  177MPD1    C2 2695   3.219   2.426  10.268 -1.3769 -0.1367 -0.3000
  177MPD1    C3 2696   3.165   2.552  10.246  0.5852  0.0307 -0.1411
  177MPD1    C4 2697   3.163   2.642  10.357  0.7411  0.0776 -0.0943
  177MPD1    C5 2698   3.220   2.610  10.472 -0.2426  0.3060  0.4444
  177MPD1     H 2699   3.214   2.349  10.192  0.2949 -1.9263  1.4040
  177MPD1    H1 2700   3.135   2.746  10.347  0.2269 -0.0394  0.1332
  177MPD1    H2 2701   3.332   2.475  10.584  0.2473 -1.8008 -0.3228
  177MPD1    H3 2702   3.215   2.690  10.544  1.6683  1.4393 -0.6742
  177MPD1     N 2703   3.101   2.599  10.124 -0.6972 -0.1594 -0.0282
  177MPD1    H5 2704   3.052   2.688  10.118 -0.6591 -0.0647  1.0201
  177MPD1    N1 2705   3.329   2.276  10.408  0.1857  0.0021 -0.6134
  177MPD1    H6 2706   3.318   2.243  10.504  0.1301  0.0430 -0.6056
  177MPD1    H7 2707   3.290   2.198  10.357  0.9466 -0.6088 -0.2550
  178MPD1     C 2708   0.779   3.795   0.283 -0.2568  0.7523 -0.6744
  178MPD1    C1 2709   0.736   3.670   0.268 -0.7747 -0.0895  0.5124
  178MPD1    C2 2710   0.747   3.605   0.146 -0.1362 -0.0517 -0.3085
  178MPD1    C3 2711   0.792   3.678   0.036 -0.3979 -0.1846  0.3147
  178MPD1    C4 2712   0.818   3.813   0.050 -0.1429  1.0825  0.0456
  178MPD1    C5 2713   0.819   3.872   0.175  0.6926 -0.2500 -0.0345
  178MPD1     H 2714   0.744   3.497   0.140  0.9030 -0.0634 -0.6415
  178MPD1    H1 2715   0.844   3.872  17.655 -1.8002  0.4889 -0.8422
  178MPD1    H2 2716   0.763   3.845   0.378 -1.6990 -1.4225  0.2351
  178MPD1    H3 2717   0.837   3.975   0.200 -0.6938  0.5928 -2.4249
  178MPD1     N 2718   0.813   3.625  17.602 -0.0082  0.3776  0.2091
  178MPD1    H5 2719   0.861   3.688  17.539  1.1549  0.1834  0.9042
  178MPD1    N1 2720   0.685   3.596   0.375  0.2635  0.3180 -0.2293
  178MPD1    H6 2721   0.642   3.646   0.452 -1.8767 -3.2792  0.9158
  178MPD1    H7 2722   0.620   3.519   0.357 -0.3244  1.4766 -3.1641
  179MPD1     C 2723   0.291   2.234  16.177 -0.1353 -0.2736  0.3057
  179MPD1    C1 2724   0.309   2.211  16.048 -0.1301  0.2261 -0.3174
  179MPD1    C2 2725   0.223   2.134  15.976  0.3446  0.0287 -0.3261
  179MPD1    C3 2726   0.117   2.074  16.042  0.2664 -0.4216  0.7591
  179MPD1    C4 2727   0.102   2.098  16.178  0.9110  0.2122  0.7466
  179MPD1    C5 2728   0.184   2.182  16.243 -0.4477  0.1987  0.4749
  179MPD1     H 2729   0.253   2.104  15.876  1.8223 -0.0755  0.1493
  179MPD1    H1 2730   0.028   2.040  16.232  0.4917 -0.7496 -0.8651
  179MPD1    H2 2731   0.363   2.285  16.241 -0.1584  0.5879 -0.3491
  179MPD1    H3 2732   0.179   2.195  16.350 -0.3355 -2.4068  0.7807
  179MPD1     N 2733   0.035   1.979  15.984  0.1903  0.8891 -0.1439
  179MPD1    H5 2734   4.694   1.933  16.049 -0.5435  1.5252 -0.4193
  179MPD1    N1 2735   0.413   2.280  15.985 -0.3665 -0.1453 -0.4268
  179MPD1    H6 2736   0.491   2.297  16.048 -0.2085 -0.1875 -0.6126
  179MPD1    H7 2737   0.449   2.243  15.897 -1.4898  1.1934 -1.4322
  180MPD1     C 2738   0.291   3.550  15.509  0.0510  0.2021 -0.1215
  180MPD1    C1 2739   0.371   3.439  15.462  0.4766  0.7663 -0.2087
  180MPD1    C2 2740   0.312   3.361  15.359 -0.2277 -0.6245 -0.5396
  180MPD1    C3 2741   0.212   3.412  15.281  0.0319  0.1878 -0.2240
  180MPD1    C4 2742   0.166   3.538  15.309  0.2668 -0.0331 -0.4072
  180MPD1    C5 2743   0.191   3.596  15.431  0.1966 -0.5624 -0.2089
  180MPD1     H 2744   0.349   3.261  15.342 -0.7660 -1.0307  0.6972
  180MPD1    H1 2745   0.094   3.587  15.245 -0.3190 -0.5649 -0.1605
  180MPD1    H2 2746   0.304   3.593  15.608 -0.1993  0.4492 -0.1976
  180MPD1    H3 2747   0.147   3.693  15.453 -1.4955 -1.7960  1.8205
  180MPD1     N 2748   0.153   3.338  15.173  0.0951  0.1949 -0.2982
  180MPD1    H5 2749   0.200   3.252  15.145 -0.8354 -0.0235 -1.2280
  180MPD1    N1 2750   0.475   3.384  15.538 -0.3767 -0.5981  0.4021
  180MPD1    H6 2751   0.543   3.451  15.574 -1.4767 -0.6642  2.6214
  180MPD1    H7 2752   0.532   3.311  15.497  1.1219  0.2971  0.8765
  181MPD1     C 2753   0.831   0.002   9.577  0.1489 -0.4937 -0.1347
  181MPD1    C1 2754   0.897   0.113   9.528  0.4032 -0.1754  0.0766
  181MPD1    C2 2755   1.027   0.135   9.583 -0.3410  0.5076 -0.3766
  181MPD1    C3 2756   1.078   0.065   9.691 -0.3189 -0.6067 -0.2105
  181MPD1    C4 2757   1.006   4.681   9.738  0.0418 -0.2677 -0.4780
  181MPD1    C5 2758   0.891   4.648   9.679 -0.1733  0.1270 -0.1415
  181MPD1     H 2759   1.076   0.216   9.531 -0.1169  0.3655 -0.3827
  181MPD1    H1 2760   1.043   4.625   9.823  0.0394 -2.7917 -2.1671
  181MPD1    H2 2761   0.735   4.700   9.535  0.5480  0.1456 -1.4072
  181MPD1    H3 2762   0.847   4.553   9.710 -1.1056  0.7694  0.4904
  181MPD1     N 2763   1.204   0.073   9.749 -0.0866  0.4141 -0.4201
  181MPD1    H5 2764   1.221   0.003   9.821  0.2026  0.8671 -0.0517
  181MPD1    N1 2765   0.857   0.174   9.407 -0.3053  0.2518 -0.0161
  181MPD1    H6 2766   0.874   0.274   9.409 -1.1697  0.3641  1.4749
  181MPD1    H7 2767   0.757   0.169   9.390 -0.6190  1.8641  1.4365
  182MPD1     C 2768   3.266   3.310   1.042 -0.4432  0.2601  0.9190
  182MPD1    C1 2769   3.336   3.394   1.125 -0.6034 -0.0715 -0.5614
  182MPD1    C2 2770   3.279   3.430   1.249  0.0706  0.3116 -0.0358
  182MPD1    C3 2771   3.161   3.387   1.296  0.7031 -0.0202  0.5397
  182MPD1    C4 2772   3.091   3.317   1.194  0.2517 -0.7657 -0.1352
  182MPD1    C5 2773   3.132   3.298   1.065 -0.2720  0.7579  0.2806
  182MPD1     H 2774   3.346   3.484   1.315  0.6200 -1.7177  1.0644
  182MPD1    H1 2775   2.992   3.282   1.222  0.3813 -1.8296 -1.0077
  182MPD1    H2 2776   3.308   3.270   0.951 -2.7495 -0.8828  0.3845
  182MPD1    H3 2777   3.076   3.236   0.996 -0.9839  0.6529  0.9585
  182MPD1     N 2778   3.100   3.402   1.424  0.1139 -0.2855 -0.3438
  182MPD1    H5 2779   3.008   3.361   1.437  0.7885 -1.9317 -0.7197
  182MPD1    N1 2780   3.468   3.409   1.103 -0.2410  0.5636  0.1787
  182MPD1    H6 2781   3.501   3.501   1.132 -0.9583  0.9981 -0.4081
  182MPD1    H7 2782   3.490   3.393   1.005 -0.4852 -1.1893  0.4169
  183MPD1     C 2783   1.730   3.970   9.241  0.1601 -0.0113  0.2922
  183MPD1    C1 2784   1.640   4.024   9.329 -0.5995 -0.5158 -0.2428
  183MPD1    C2 2785   1.677   4.079   9.449 -0.5201  0.1528 -0.2101
  183MPD1    C3 2786   1.805   4.056   9.492  0.1954  0.8474 -0.2880
  183MPD1    C4 2787   1.897   3.990   9.413 -0.1343  0.8766 -0.3528
  183MPD1    C5 2788   1.860   3.952   9.282  0.3399 -0.1939 -0.1123
  183MPD1     H 2789   1.610   4.145   9.502 -2.7761  0.0607 -2.8861
  183MPD1    H1 2790   1.999   3.966   9.442 -0.1881 -0.0027 -0.8723
  183MPD1    H2 2791   1.706   3.958   9.136  2.6956 -1.3611 -0.1377
  183MPD1    H3 2792   1.927   3.893   9.222 -0.4771 -0.0723 -1.1502
  183MPD1     N 2793   1.841   4.112   9.619 -0.0686  0.2533 -0.2730
  183MPD1    H5 2794   1.769   4.175   9.656 -1.1657  0.2547 -2.4086
  183MPD1    N1 2795   1.508   4.058   9.278 -0.2021  0.1277 -0.1204
  183MPD1    H6 2796   1.442   4.055   9.356  0.2006 -2.0316  0.1340
  183MPD1    H7 2797   1.469   3.994   9.210  1.6340 -0.2104 -0.8509
  184MPD1     C 2798   1.888   1.583   9.303 -0.0308 -0.2725  0.0898
  184MPD1    C1 2799   2.015   1.587   9.264 -0.1684  0.4245 -0.0339
  184MPD1    C2 2800   2.091   1.702   9.295  0.2015 -1.1956  0.0624
  184MPD1    C3 2801   2.030   1.815   9.349  0.2275  0.0312 -0.0298
  184MPD1    C4 2802   1.896   1.807   9.375  0.1178  0.4809  0.5856
  184MPD1    C5 2803   1.825   1.695   9.351  0.3579 -0.0889 -1.2154
  184MPD1     H 2804   2.198   1.713   9.283 -0.0383 -0.1518 -1.1642
  184MPD1    H1 2805   1.842   1.886   9.426 -1.6830 -0.7840  0.6318
  184MPD1    H2 2806   1.842   1.485   9.300  1.3673 -1.0348  4.2109
  184MPD1    H3 2807   1.719   1.684   9.373  0.4893 -0.7400 -0.9222
  184MPD1     N 2808   2.098   1.934   9.387  0.2668 -0.3437 -0.1448
  184MPD1    H5 2809   2.043   2.000   9.441 -0.2380 -0.4293 -0.5520
  184MPD1    N1 2810   2.084   1.468   9.242 -0.3378  0.1528  0.1348
  184MPD1    H6 2811   2.166   1.485   9.184 -0.4112 -0.4241 -0.1354
  184MPD1    H7 2812   2.024   1.405   9.190 -0.6274  1.0206 -0.5924
  185MPD1     C 2813   2.883   2.386   8.971  0.3818  0.1766 -0.8783
  185MPD1    C1 2814   2.914   2.369   9.107 -0.0525  0.4275  1.2722
  185MPD1    C2 2815   2.813   2.333   9.194 -0.4213  0.0384  0.4018
  185MPD1    C3 2816   2.693   2.291   9.142  0.6043  0.3765  0.0049
  185MPD1    C4 2817   2.673   2.285   9.008  0.3454 -0.5258 -1.0095
  185MPD1    C5 2818   2.768   2.338   8.923 -0.2144  0.3757 -0.4498
  185MPD1     H 2819   2.834   2.321   9.300  0.7613 -0.7527  0.0760
  185MPD1    H1 2820   2.585   2.243   8.959 -0.2210  0.5197 -0.8833
  185MPD1    H2 2821   2.944   2.435   8.896 -1.2886  3.4761 -0.0733
  185MPD1    H3 2822   2.747   2.355   8.818 -1.2845  1.3021 -0.0985
  185MPD1     N 2823   2.582   2.259   9.226 -0.6172 -0.0940  0.0996
  185MPD1    H5 2824   2.508   2.211   9.177 -1.5442  1.0297  0.4156
  185MPD1    N1 2825   3.024   2.438   9.160  0.0125 -0.3787  0.3110
  185MPD1    H6 2826   3.100   2.428   9.093 -1.0697  1.0106 -1.1333
  185MPD1    H7 2827   3.035   2.399   9.254  0.2253 -1.3455 -0.1258
  186MPD1     C 2828   0.624   1.677  15.582  0.3869  0.4220 -0.1485
  186MPD1    C1 2829   0.551   1.628  15.687 -0.3981 -0.2619 -0.9930
  186MPD1    C2 2830   0.553   1.695  15.811 -0.4843 -0.0389 -0.4931
  186MPD1    C3 2831   0.640   1.800  15.843  0.4775  0.3225  0.4484
  186MPD1    C4 2832   0.714   1.849  15.736  0.5213  0.2164  0.2641
  186MPD1    C5 2833   0.705   1.788  15.610  0.5163 -0.9928 -0.0462
  186MPD1     H 2834   0.482   1.666  15.887 -0.3295  1.2309  0.1419
  186MPD1    H1 2835   0.784   1.931  15.744 -1.4848  1.8616  0.8778
  186MPD1    H2 2836   0.619   1.633  15.483 -1.9792 -0.6501  0.4543
  186MPD1    H3 2837   0.762   1.833  15.529  0.4926 -0.2473  0.3509
  186MPD1     N 2838   0.638   1.878  15.963  0.1873 -0.6602  0.0059
  186MPD1    H5 2839   0.700   1.958  15.959 -1.1297  0.3864  0.7142
  186MPD1    N1 2840   0.449   1.536  15.652  0.9273 -0.1204 -0.4008
  186MPD1    H6 2841   0.417   1.475  15.728  0.7705 -0.0679 -0.4247
  186MPD1    H7 2842   0.463   1.492  15.562  2.3790 -1.1733  0.3391
  187MPD1     C 2843   0.027   3.765   0.780  0.0875  0.4998  0.3490
  187MPD1    C1 2844   0.131   3.843   0.732  0.4318  0.0583  0.2655
  187MPD1    C2 2845   0.108   3.889   0.603 -0.1154  0.0120 -0.6947
  187MPD1    C3 2846   0.014   3.846   0.520  0.7411 -0.6443 -0.0428
  187MPD1    C4 2847   4.641   3.758   0.571 -0.5335 -0.1233 -0.2685
  187MPD1    C5 2848   4.656   3.715   0.699  0.0210 -0.4432  0.1781
  187MPD1     H 2849   0.176   3.968   0.573 -1.6273  1.4139 -0.4375
  187MPD1    H1 2850   4.553   3.724   0.519  0.4296 -1.9424 -0.7172
  187MPD1    H2 2851   0.032   3.718   0.877  0.2428  1.7039  0.9192
  187MPD1    H3 2852   4.587   3.641   0.738  0.1716  0.5062  2.3096
  187MPD1     N 2853   4.717   3.898   0.385  0.5292  0.5485  0.2579
  187MPD1    H5 2854   4.641   3.858   0.331  1.0701 -0.5853  0.3354
  187MPD1    N1 2855   0.228   3.903   0.817  0.5791  0.2251  0.0883
  187MPD1    H6 2856   0.304   3.929   0.755  0.4934 -0.6310 -0.3718
  187MPD1    H7 2857   0.263   3.836   0.886 -0.4101  0.1195  0.4865
  188MPD1     C 2858   4.048   3.822  10.096  0.3835 -0.9883 -0.4516
  188MPD1    C1 2859   4.166   3.770  10.049  0.2646  0.3645 -0.5961
  188MPD1    C2 2860   4.167   3.640  10.003 -0.2979 -0.3074 -0.6047
  188MPD1    C3 2861   4.055   3.574   9.972 -0.6463 -0.5332  0.5954
  188MPD1    C4 2862   3.930   3.634   9.997 -0.7966  0.2203 -0.0473
  188MPD1    C5 2863   3.933   3.758  10.060  0.0892 -0.1476  0.0937
  188MPD1     H 2864   4.266   3.599   9.987 -0.0657 -0.4834  1.3433
  188MPD1    H1 2865   3.837   3.579   9.987 -1.1271  0.5298  1.2449
  188MPD1    H2 2866   4.042   3.921  10.139 -3.2488 -1.4175  0.0079
  188MPD1    H3 2867   3.836   3.801  10.087  0.4669  0.0865  1.0989
  188MPD1     N 2868   4.056   3.442   9.916 -0.2147  0.3278  1.2229
  188MPD1    H5 2869   3.963   3.409   9.890  0.4239 -0.7931  0.3065
  188MPD1    N1 2870   4.290   3.835  10.073 -0.2034 -0.2451  0.5394
  188MPD1    H6 2871   4.361   3.788  10.017  0.7894 -0.1338  1.7002
  188MPD1    H7 2872   4.290   3.934  10.048  1.1176 -0.6795 -1.1890
  189MPD1     C 2873   1.500   4.430   0.879  0.1348  0.3953  0.2564
  189MPD1    C1 2874   1.496   4.560   0.844 -1.1896  0.0316 -0.6070
  189MPD1    C2 2875   1.393   4.600   0.763 -0.2072  0.5277  0.2709
  189MPD1    C3 2876   1.305   4.514   0.704 -0.6508  0.0596 -0.1131
  189MPD1    C4 2877   1.318   4.380   0.732 -0.2544 -0.2763  0.1516
  189MPD1    C5 2878   1.417   4.341   0.818  0.0326  0.2302  0.4034
  189MPD1     H 2879   1.375   4.706   0.750  2.2298  0.8455 -0.5377
  189MPD1    H1 2880   1.257   4.301   0.690 -1.2342 -0.2392  1.4994
  189MPD1    H2 2881   1.576   4.398   0.950 -1.0168 -1.5023  0.6318
  189MPD1    H3 2882   1.425   4.237   0.850  1.2200  0.4027  0.6568
  189MPD1     N 2883   1.199   4.565   0.624  0.5007  0.2548 -0.4533
  189MPD1    H5 2884   1.205   4.664   0.607 -1.6921  0.1920 -1.5472
  189MPD1    N1 2885   1.576   4.647   0.920 -0.1196  0.3208 -0.5238
  189MPD1    H6 2886   1.668   4.605   0.930 -0.8854 -0.9425  1.2544
  189MPD1    H7 2887   1.598   0.012   0.873  0.2013 -0.5712 -2.0407
  190MPD1     C 2888   4.380   3.583  15.579 -0.3991  0.5953  1.1906
  190MPD1    C1 2889   4.491   3.531  15.503  0.1691 -0.0945  1.0459
  190MPD1    C2 2890   4.568   3.428  15.562 -0.4032 -0.3120 -0.6148
  190MPD1    C3 2891   4.520   3.367  15.675 -0.5178  0.2389  0.4001
  190MPD1    C4 2892   4.409   3.409  15.739  0.1531  0.2182  0.5337
  190MPD1    C5 2893   4.335   3.513  15.691  0.7260 -0.2692 -0.0496
  190MPD1     H 2894   4.666   3.400  15.524  0.1680  0.4238  0.2952
  190MPD1    H1 2895   4.363   3.364  15.826 -1.5001  0.7158 -0.0951
  190MPD1    H2 2896   4.312   3.663  15.554 -3.7620 -2.8041 -0.4389
  190MPD1    H3 2897   4.254   3.549  15.753  1.0869 -1.2872  1.0163
  190MPD1     N 2898   4.600   3.262  15.725 -0.3973 -0.2748 -0.6024
  190MPD1    H5 2899   4.691   3.247  15.680  0.1454  1.8001 -0.2044
  190MPD1    N1 2900   4.547   3.599  15.393  0.0275 -0.4755  0.0535
  190MPD1    H6 2901   4.595   3.545  15.321  0.7400  2.4042 -1.6733
  190MPD1    H7 2902   4.491   3.672  15.349  0.1528  0.4593  1.4528
  191MPD1     C 2903   4.146   0.207  12.683  0.1717 -0.0555 -0.0629
  191MPD1    C1 2904   4.257   0.217  12.606  0.8127  0.2963 -0.3084
  191MPD1    C2 2905   4.244   0.305  12.502  0.3236  0.5098  0.1128
  191MPD1    C3 2906   4.122   0.361  12.457 -0.3756  0.1142 -0.0418
  191MPD1    C4 2907   4.010   0.341  12.533 -0.4342 -0.4766 -0.5028
  191MPD1    C5 2908   4.030   0.269  12.650  0.5105 -0.2025 -0.7087
  191MPD1     H 2909   4.334   0.343  12.455  0.2738 -0.0261 -0.4241
  191MPD1    H1 2910   3.911   0.384  12.522  0.4832  2.0549  1.0529
  191MPD1    H2 2911   4.138   0.162  12.781 -0.0008 -0.2615 -0.1739
  191MPD1    H3 2912   3.942   0.251  12.712 -0.7330  1.9920 -1.8418
  191MPD1     N 2913   4.126   0.436  12.337 -0.1215  0.3300  0.6666
  191MPD1    H5 2914   4.218   0.452  12.298 -0.6691  1.7861 -0.0369
  191MPD1    N1 2915   4.387   0.192  12.660  0.1534  0.3388  0.0264
  191MPD1    H6 2916   4.469   0.199  12.599  0.2267 -1.1840 -0.0624
  191MPD1    H7 2917   4.387   0.098  12.699 -0.4852 -0.3766 -1.6966
  192MPD1     C 2918   3.517   1.175  12.239 -0.2141  1.3576  0.3456
  192MPD1    C1 2919   3.601   1.202  12.134 -0.1332 -0.5949 -0.7189
  192MPD1    C2 2920   3.686   1.104  12.094  0.7139 -0.4096 -0.2215
  192MPD1    C3 2921   3.692   0.977  12.152 -0.5704 -0.1673  0.0176
  192MPD1    C4 2922   3.613   0.952  12.262  0.9652 -0.0671 -0.0564
  192MPD1    C5 2923   3.519   1.052  12.290  0.7474 -0.6154  0.0079
  192MPD1     H 2924   3.749   1.129  12.009  1.0290  0.1178  0.1726
  192MPD1    H1 2925   3.608   0.856  12.312 -0.2386  0.5574  1.0342
  192MPD1    H2 2926   3.444   1.247  12.276 -1.2357  2.0760 -3.0816
  192MPD1    H3 2927   3.441   1.035  12.363  0.2908  0.7160 -0.1736
  192MPD1     N 2928   3.785   0.878  12.116  0.0386 -0.0140  0.0444
  192MPD1    H5 2929   3.774   0.789  12.164  0.5598  0.0185  0.2209
  192MPD1    N1 2930   3.584   1.318  12.062  0.1279 -0.4638  0.3296
  192MPD1    H6 2931   3.668   1.337  12.009 -0.4093 -0.5989 -0.5613
  192MPD1    H7 2932   3.555   1.382  12.136  0.0418  1.4109 -1.3591
  193MPD1     C 2933   3.393   0.219  17.021  0.1859  0.2668 -0.0751
  193MPD1    C1 2934   3.389   0.232  16.884  0.2578  0.7323 -0.2309
  193MPD1    C2 2935   3.488   0.313  16.826  0.6652  1.0269  0.1698
  193MPD1    C3 2936   3.604   0.349  16.893 -0.1021 -0.4835 -0.4055
  193MPD1    C4 2937   3.606   0.319  17.031  0.2257 -0.7476  0.2229
  193MPD1    C5 2938   3.502   0.255  17.091  0.5853  0.2321  1.3413
  193MPD1     H 2939   3.477   0.337  16.721 -2.1739 -0.6305  0.0949
  193MPD1    H1 2940   3.680   0.357  17.100 -0.1748 -0.1259  0.3048
  193MPD1    H2 2941   3.316   0.169  17.079  0.4361 -0.9616 -0.7945
  193MPD1    H3 2942   3.498   0.245  17.199  1.0672 -0.5058  1.2837
  193MPD1     N 2943   3.705   0.432  16.836 -0.3902 -0.1041  0.4129
  193MPD1    H5 2944   3.769   0.462  16.909  3.1631 -1.4769 -2.1451
  193MPD1    N1 2945   3.270   0.199  16.819  0.5411 -0.8185  0.4136
  193MPD1    H6 2946   3.269   0.201  16.717  1.3437 -0.4768  0.4129
  193MPD1    H7 2947   3.199   0.138  16.860 -0.9922 -0.3286 -1.5181
  194MPD1     C 2948   2.553   2.609  17.080  0.3272  0.4117  0.1998
  194MPD1    C1 2949   2.432   2.569  17.031 -0.0993  0.3523 -0.5578
  194MPD1    C2 2950   2.418   2.454  16.964  0.5121  0.8881 -0.0452
  194MPD1    C3 2951   2.525   2.367  16.943 -0.4669 -0.1595 -0.2127
  194MPD1    C4 2952   2.648   2.403  16.991 -1.3515 -1.1829 -0.7506
  194MPD1    C5 2953   2.650   2.524  17.061  0.1511 -0.1811 -0.1661
  194MPD1     H 2954   2.317   2.426  16.936  1.2203  2.3435 -4.0696
  194MPD1    H1 2955   2.738   2.345  16.975 -0.4174 -0.4063  1.7221
  194MPD1    H2 2956   2.575   2.703  17.130 -1.7975  1.7704 -1.4191
  194MPD1    H3 2957   2.746   2.556  17.100 -0.5217 -0.8293  1.9975
  194MPD1     N 2958   2.512   2.240  16.889  0.4754  0.0392  0.3218
  194MPD1    H5 2959   2.595   2.182  16.885 -0.0410 -0.7062  0.2224
  194MPD1    N1 2960   2.332   2.666  17.035  0.1375  0.1976 -0.8526
  194MPD1    H6 2961   2.334   2.721  17.120 -0.8300 -2.4554  0.8671
  194MPD1    H7 2962   2.237   2.632  17.036  0.2142 -0.0103 -0.6837
  195MPD1     C 2963   3.436   3.009  17.489  0.4093  0.1621 -0.5516
  195MPD1    C1 2964   3.423   2.939  17.606  0.6669  0.1587 -0.3046
  195MPD1    C2 2965   3.541   2.904  17.671  0.0086  0.5749  0.4578
  195MPD1    C3 2966   3.665   2.964  17.634 -0.9194  0.5704 -0.1069
  195MPD1    C4 2967   3.672   3.029  17.516 -0.8565  0.1949 -0.2785
  195MPD1    C5 2968   3.559   3.062  17.445  0.3431 -0.8478 -0.3368
  195MPD1     H 2969   3.532   2.824   0.052  1.6239 -0.3615 -0.3815
  195MPD1    H1 2970   3.764   3.067  17.471 -1.0096 -0.0446 -0.7934
  195MPD1    H2 2971   3.347   3.029  17.431 -0.8111  0.0692  1.2886
  195MPD1    H3 2972   3.561   3.111  17.348 -2.3803 -0.7017 -0.3345
  195MPD1     N 2973   3.789   2.959   0.010 -0.2423  0.2705  0.7549
  195MPD1    H5 2974   3.866   3.010  17.662  0.3098  0.1070  1.5997
  195MPD1    N1 2975   3.297   2.885  17.635 -0.2921 -0.4386 -0.1948
  195MPD1    H6 2976   3.280   2.853   0.038  2.2822 -0.5300  0.2272
  195MPD1    H7 2977   3.216   2.935  17.597  1.0353  0.8147 -1.3659
  196MPD1     C 2978   3.287   2.837   0.762 -0.9139  0.5510 -0.0806
  196MPD1    C1 2979   3.175   2.880   0.834 -0.2172 -0.2903  0.4509
  196MPD1    C2 2980   3.201   2.931   0.963 -0.6582 -0.0664 -0.0455
  196MPD1    C3 2981   3.330   2.942   1.012  0.2578 -0.0522  0.2429
  196MPD1    C4 2982   3.441   2.897   0.942  0.0775 -0.1239 -0.4155
  196MPD1    C5 2983   3.410   2.846   0.820  0.7921  0.4184  0.1517
  196MPD1     H 2984   3.115   2.962   1.022  0.4714  0.5442  1.2779
  196MPD1    H1 2985   3.539   2.883   0.985 -0.4221 -0.3379  0.6569
  196MPD1    H2 2986   3.276   2.796   0.663  0.4008 -0.5017  0.2062
  196MPD1    H3 2987   3.494   2.808   0.763 -0.7050  1.3517 -2.6574
  196MPD1     N 2988   3.354   2.990   1.146  0.6804  0.2119 -0.8078
  196MPD1    H5 2989   3.451   2.984   1.176  0.9248 -2.4822 -2.1430
  196MPD1    N1 2990   3.051   2.887   0.769 -0.4086 -0.2865 -0.5853
  196MPD1    H6 2991   3.034   2.818   0.696  0.6424 -0.0800 -1.0346
  196MPD1    H7 2992   2.966   2.894   0.823 -0.0007 -1.3389  0.1891
  197MPD1     C 2993   2.424   0.610  17.269  0.6324  1.0347  0.0219
  197MPD1    C1 2994   2.548   0.630  17.339 -0.1988 -0.0515 -0.1984
  197MPD1    C2 2995   2.654   0.676  17.261  0.3533  0.5248  0.0781
  197MPD1    C3 2996   2.643   0.705  17.127 -0.0262  0.3910  0.3271
  197MPD1    C4 2997   2.525   0.680  17.065 -0.5157 -0.3966  0.2354
  197MPD1    C5 2998   2.418   0.631  17.134 -0.2913  0.2528  0.2952
  197MPD1     H 2999   2.750   0.673  17.310 -0.9931 -1.5137  2.5932
  197MPD1    H1 3000   2.510   0.694  16.958 -0.2789  1.3394  0.4316
  197MPD1    H2 3001   2.330   0.583  17.316 -0.8531  0.2561 -3.4287
  197MPD1    H3 3002   2.329   0.602  17.080 -1.8464  2.6069  1.5663
  197MPD1     N 3003   2.743   0.754  17.046  0.0934 -0.2997  0.1754
  197MPD1    H5 3004   2.722   0.779  16.950 -3.0924 -0.4424  0.8405
  197MPD1    N1 3005   2.552   0.636  17.481 -0.2662  1.0488 -0.2035
  197MPD1    H6 3006   2.496   0.566  17.528  0.9423  0.5467  0.5042
  197MPD1    H7 3007   2.648   0.623  17.513 -0.2837 -1.0323 -1.0172
  198MPD1     C 3008   0.205   3.389  15.942  0.3680 -0.2171  0.2135
  198MPD1    C1 3009   0.176   3.427  15.810 -0.1466  0.0425  0.1407
  198MPD1    C2 3010   0.100   3.547  15.788 -0.4377 -0.6735  0.5621
  198MPD1    C3 3011   0.071   3.635  15.901 -0.3185  0.0833  0.3609
  198MPD1    C4 3012   0.124   3.600  16.027  0.0618  0.4045 -0.1929
  198MPD1    C5 3013   0.183   3.478  16.042 -0.0022  0.4514  0.3700
  198MPD1     H 3014   0.059   3.570  15.690 -2.1924  0.7819  1.6270
  198MPD1    H1 3015   0.102   3.660  16.114  0.2080  1.0140 -0.5763
  198MPD1    H2 3016   0.252   3.295  15.968  0.0068 -0.7310 -0.9607
  198MPD1    H3 3017   0.214   3.451  16.142 -0.2696  2.1246  0.9022
  198MPD1     N 3018   0.014   3.764  15.872 -0.0114 -0.2307  0.3274
  198MPD1    H5 3019   4.718   3.785  15.774  0.8013  0.3292  0.2875
  198MPD1    N1 3020   0.194   3.336  15.706 -0.5075 -0.2146 -0.5085
  198MPD1    H6 3021   0.265   3.266  15.723 -0.2742  0.6175  1.9555
  198MPD1    H7 3022   0.213   3.385  15.619  0.4449 -1.3056 -0.9055
  199MPD1     C 3023   1.473   4.410   9.336  0.0327  0.7414 -1.0415
  199MPD1    C1 3024   1.560   4.430   9.239 -0.6686  0.0743  0.3084
  199MPD1    C2 3025   1.609   4.556   9.214 -0.0841  0.3210 -0.6344
  199MPD1    C3 3026   1.577   4.662   9.298  0.0683  0.0816  0.0169
  199MPD1    C4 3027   1.480   4.644   9.398 -0.2686 -0.7180 -0.2351
  199MPD1    C5 3028   1.436   4.514   9.414  0.3604  0.3943  0.5522
  199MPD1     H 3029   1.680   4.572   9.133 -0.8487 -1.9634 -1.7483
  199MPD1    H1 3030   1.449   4.714   9.475  1.7589 -1.1733  0.9914
  199MPD1    H2 3031   1.426   4.313   9.351 -0.1834  1.1553  1.0250
  199MPD1    H3 3032   1.372   4.494   9.499 -0.8420 -0.4922 -0.5698
  199MPD1     N 3033   1.631   0.070   9.280 -0.1702  0.4378 -0.3935
  199MPD1    H5 3034   1.579   0.151   9.312  0.0724  1.8233 -3.4861
  199MPD1    N1 3035   1.603   4.317   9.166  0.4894  0.2508 -0.0707
  199MPD1    H6 3036   1.572   4.228   9.205  0.6819  0.5164  0.6737
  199MPD1    H7 3037   1.697   4.318   9.127  1.2183 -1.7381  1.6428
  200MPD1     C 3038   0.686   0.874  15.374 -0.4719  0.6959  0.2550
  200MPD1    C1 3039   0.627   0.914  15.253 -0.0007  0.0928  0.4834
  200MPD1    C2 3040   0.675   0.858  15.140 -0.2213  0.9350  0.0995
  200MPD1    C3 3041   0.793   0.787  15.132  0.6157  0.3654 -0.4307
  200MPD1    C4 3042   0.851   0.745  15.247 -0.3367 -0.1937 -0.4150
  200MPD1    C5 3043   0.790   0.791  15.364  0.7688  0.0100 -0.4210
  200MPD1     H 3044   0.619   0.884  15.051 -0.2901 -3.0742 -1.0157
  200MPD1    H1 3045   0.949   0.700  15.251 -0.7958 -1.2599 -1.1352
  200MPD1    H2 3046   0.648   0.895  15.474  0.9363  0.2873  0.8692
  200MPD1    H3 3047   0.830   0.752  15.456  2.2633  0.7901 -0.7424
  200MPD1     N 3048   0.831   0.743  15.001  0.2954 -0.3181  0.5041
  200MPD1    H5 3049   0.766   0.776  14.930  0.7216 -0.5396  0.0123
  200MPD1    N1 3050   0.504   0.984  15.259  0.2079 -0.1672 -0.7312
  200MPD1    H6 3051   0.486   1.051  15.185 -0.8302 -0.7945 -1.0474
  200MPD1    H7 3052   0.491   1.028  15.350  1.9356  0.9955 -1.0687
  201MPD1     C 3053   3.136   0.087  12.735  0.1787 -0.3773 -0.3223
  201MPD1    C1 3054   3.274   0.072  12.719 -1.0065  0.6937  0.0747
  201MPD1    C2 3055   3.326   4.669  12.749 -0.4985 -0.3798 -0.2411
  201MPD1    C3 3056   3.247   4.565  12.803  0.4768 -0.1405 -0.2402
  201MPD1    C4 3057   3.113   4.588  12.822  0.2381  0.3218 -0.3091
  201MPD1    C5 3058   3.057   4.709  12.786 -0.1534 -0.2291  0.1051
  201MPD1     H 3059   3.433   4.649  12.748 -0.4665 -0.1377 -2.6304
  201MPD1    H1 3060   3.048   4.509  12.856 -0.9917  0.3458 -2.6338
  201MPD1    H2 3061   3.076   0.169  12.698  0.3843  0.7323  1.8174
  201MPD1    H3 3062   2.950   0.004  12.792 -0.2662 -1.3450  1.4590
  201MPD1     N 3063   3.313   4.447  12.841 -0.1167 -0.2509 -0.3920
  201MPD1    H5 3064   3.411   4.436  12.818 -0.6495 -3.7406 -1.0838
  201MPD1    N1 3065   3.361   0.178  12.692 -0.6985 -0.5197  0.9656
  201MPD1    H6 3066   3.425   0.157  12.616  0.6303 -2.0222  2.4956
  201MPD1    H7 3067   3.300   0.249  12.653  0.8394 -0.0463 -0.5475
  202MPD1     C 3068   2.615   3.254   9.187  0.0323  0.0183  0.3671
  202MPD1    C1 3069   2.532   3.307   9.281 -0.8104 -0.6251  0.1936
  202MPD1    C2 3070   2.607   3.357   9.392 -0.1294 -0.7112 -0.5004
  202MPD1    C3 3071   2.743   3.389   9.394  0.3129  0.8940 -0.0665
  202MPD1    C4 3072   2.814   3.339   9.287  0.1992 -0.1008 -0.2898
  202MPD1    C5 3073   2.746   3.263   9.192 -0.3094  0.1154  0.5442
  202MPD1     H 3074   2.549   3.375   9.482  1.9535 -0.2277  0.7313
  202MPD1    H1 3075   2.923   3.333   9.285  0.2077 -0.1565  0.6730
  202MPD1    H2 3076   2.574   3.204   9.100  0.4559  1.1319 -0.4701
  202MPD1    H3 3077   2.797   3.202   9.118  2.7090  1.2753  1.6379
  202MPD1     N 3078   2.817   3.452   9.500  0.0610 -0.0108  0.5414
  202MPD1    H5 3079   2.918   3.458   9.494 -0.0883  1.7935 -0.0938
  202MPD1    N1 3080   2.403   3.247   9.295 -0.0196 -0.3729  0.0509
  202MPD1    H6 3081   2.334   3.303   9.345 -1.0566 -2.1370  0.5650
  202MPD1    H7 3082   2.355   3.229   9.207  1.6092  0.0564 -0.9367
  203MPD1     C 3083   1.868   0.040  11.921 -0.2252  0.4694 -0.4504
  203MPD1    C1 3084   1.868   4.631  11.890  0.1554  0.4015 -0.3574
  203MPD1    C2 3085   1.935   4.545  11.974 -0.1178 -0.0845  0.5546
  203MPD1    C3 3086   1.992   4.581  12.095  0.4878 -0.0688 -1.0170
  203MPD1    C4 3087   1.991   4.717  12.122 -0.8030 -0.5902 -0.2391
  203MPD1    C5 3088   1.936   0.082  12.032  0.6933 -0.1543  0.4806
  203MPD1     H 3089   1.932   4.437  11.969  2.8577 -0.1798  1.1010
  203MPD1    H1 3090   2.021   0.041  12.215 -0.8059 -1.4437  0.1897
  203MPD1    H2 3091   1.814   0.112  11.860  0.0703  0.5503 -0.6127
  203MPD1    H3 3092   1.929   0.187  12.060  2.9626  0.4263 -1.1116
  203MPD1     N 3093   2.050   4.483  12.182  0.2028 -0.2356 -0.4303
  203MPD1    H5 3094   2.051   4.387  12.149 -1.9728  0.3422 -2.1655
  203MPD1    N1 3095   1.818   4.598  11.767 -0.4187  0.4654 -0.3845
  203MPD1    H6 3096   1.783   4.502  11.770 -0.7382  0.5576 -1.1315
  203MPD1    H7 3097   1.746   4.665  11.741 -1.3775 -0.1526  0.6644
  204MPD1     C 3098   1.595   0.786   0.037 -0.4378  0.4806 -0.2233
  204MPD1    C1 3099   1.705   0.757  17.655  0.0981 -0.2532  0.4699
  204MPD1    C2 3100   1.725   0.629  17.616  0.0747  0.9462  0.5167
  204MPD1    C3 3101   1.652   0.520  17.653  0.2250  1.0622 -0.0402
  204MPD1    C4 3102   1.540   0.553   0.031 -0.3914 -0.0610  0.4403
  204MPD1    C5 3103   1.518   0.680   0.076 -0.9406 -0.1820 -0.6219
  204MPD1     H 3104   1.810   0.619  17.549 -0.3847 -0.4056  0.1295
  204MPD1    H1 3105   1.467   0.474   0.046 -1.0543  0.3584 -0.5189
  204MPD1    H2 3106   1.577   0.886   0.073  0.2891 -0.4784  2.8441
  204MPD1    H3 3107   1.428   0.686   0.137  0.3562  1.2145  1.1368
  204MPD1     N 3108   1.691   0.391  17.611  0.0498 -0.0943  0.0953
  204MPD1    H5 3109   1.777   0.380  17.558  0.5328 -1.9007  1.2596
  204MPD1    N1 3110   1.770   0.856  17.584 -0.0029  0.4122 -0.0053
  204MPD1    H6 3111   1.859   0.814  17.559  0.3575  1.1687  0.0043
  204MPD1    H7 3112   1.779   0.943  17.636  3.1901 -1.1990  2.1456
  205MPD1     C 3113   1.960   3.158  17.289  0.7085 -0.6133  0.8504
  205MPD1    C1 3114   2.026   3.268  17.245 -0.1864 -0.1714 -0.1237
  205MPD1    C2 3115   2.005   3.377  17.320  0.7096  0.2989  0.9221
  205MPD1    C3 3116   1.965   3.382  17.449  0.0227  0.3294 -0.2866
  205MPD1    C4 3117   1.914   3.262  17.498 -1.1114  0.2760 -0.0875
  205MPD1    C5 3118   1.908   3.153  17.418  0.1638 -0.4614 -0.0289
  205MPD1     H 3119   2.027   3.470  17.269  1.1547 -1.1264 -1.4941
  205MPD1    H1 3120   1.880   3.264  17.601  0.3145 -2.3111  0.4450
  205MPD1    H2 3121   1.951   3.064  17.236 -3.6670  0.5627 -0.5426
  205MPD1    H3 3122   1.864   3.061  17.454 -0.6059 -1.2280 -2.9409
  205MPD1     N 3123   1.958   3.492  17.535  0.0143 -0.3730  0.0434
  205MPD1    H5 3124   1.931   3.466  17.629 -0.2126  0.0498  0.0929
  205MPD1    N1 3125   2.069   3.283  17.115  0.2155 -0.5346  0.2018
  205MPD1    H6 3126   2.144   3.352  17.115 -2.1358  1.9897  1.8328
  205MPD1    H7 3127   2.102   3.192  17.082  1.5695  0.9198 -2.4581
  206MPD1     C 3128   2.537   1.868  16.524 -0.1113  0.1097 -0.5512
  206MPD1    C1 3129   2.567   1.999  16.497  0.8839 -0.5558  0.8633
  206MPD1    C2 3130   2.486   2.061  16.407  0.0536  0.4328  0.2468
  206MPD1    C3 3131   2.369   2.003  16.358 -0.0662 -0.2290 -0.4889
  206MPD1    C4 3132   2.335   1.875  16.394  0.6152 -0.8007  0.2703
  206MPD1    C5 3133   2.424   1.804  16.469 -0.4115  0.4391 -0.6803
  206MPD1     H 3134   2.530   2.156  16.379 -0.7866  0.0698 -2.2904
  206MPD1    H1 3135   2.240   1.833  16.362 -0.0311  0.8137  0.0974
  206MPD1    H2 3136   2.609   1.808  16.579  0.8416  0.1801 -1.7233
  206MPD1    H3 3137   2.400   1.701  16.496 -0.3716  0.3738 -0.8943
  206MPD1     N 3138   2.292   2.072  16.263 -0.1885  0.6022  0.2738
  206MPD1    H5 3139   2.217   2.017  16.223 -0.8411  1.5140  0.2581
  206MPD1    N1 3140   2.699   2.045  16.515  0.1692  0.2493 -0.1245
  206MPD1    H6 3141   2.744   2.000  16.594  2.6720  0.5399 -1.3862
  206MPD1    H7 3142   2.691   2.143  16.543  1.4254  0.4557 -0.4690
  207MPD1     C 3143   3.258   1.251   8.968  0.7163 -0.2984  0.0625
  207MPD1    C1 3144   3.291   1.119   8.954  0.4209  0.9641  0.0351
  207MPD1    C2 3145   3.427   1.086   8.934 -0.3996  0.2253 -0.1521
  207MPD1    C3 3146   3.530   1.175   8.943  0.5566 -0.2334 -0.7309
  207MPD1    C4 3147   3.492   1.307   8.968  0.3304 -0.1856  0.2755
  207MPD1    C5 3148   3.362   1.344   8.974  0.3247 -0.3200  0.2365
  207MPD1     H 3149   3.454   0.984   8.909 -0.0591  0.4984 -0.9042
  207MPD1    H1 3150   3.567   1.385   8.973 -1.5947  1.7452 -0.7188
  207MPD1    H2 3151   3.156   1.285   8.975  1.1599  1.2121 -0.8398
  207MPD1    H3 3152   3.327   1.446   8.982 -0.6170 -0.8523  2.8336
  207MPD1     N 3153   3.663   1.149   8.943 -0.8457  0.4028  0.6936
  207MPD1    H5 3154   3.729   1.226   8.948  1.0936 -1.1954 -0.2879
  207MPD1    N1 3155   3.192   1.023   8.941 -0.3332  0.1376  0.1503
  207MPD1    H6 3156   3.240   0.936   8.959 -1.2541 -0.5144 -0.5769
  207MPD1    H7 3157   3.120   1.031   9.013  0.2635 -1.3337  0.9110
  208MPD1     C 3158   2.918   4.113   0.462  0.1641 -0.3175 -0.4287
  208MPD1    C1 3159   2.964   4.118   0.594  0.0177 -0.4838 -0.5261
  208MPD1    C2 3160   2.868   4.111   0.695 -0.1586 -0.3305 -1.6193
  208MPD1    C3 3161   2.729   4.092   0.675 -0.7377 -0.2913 -0.5124
  208MPD1    C4 3162   2.689   4.084   0.552  0.8149 -0.0344  0.0004
  208MPD1    C5 3163   2.780   4.103   0.449  0.2399  0.4458  0.7064
  208MPD1     H 3164   2.892   4.129   0.800 -2.7564 -0.8365 -0.9380
  208MPD1    H1 3165   2.585   4.089   0.523  1.0345 -0.4057 -0.8323
  208MPD1    H2 3166   2.983   4.121   0.376  0.1766  1.9648 -0.2276
  208MPD1    H3 3167   2.741   4.089   0.349  0.7916  1.5297  0.3449
  208MPD1     N 3168   2.648   4.101   0.792 -0.7732 -0.1416  0.1180
  208MPD1    H5 3169   2.701   4.120   0.877  1.1988 -1.7515 -0.7685
  208MPD1    N1 3170   3.097   4.156   0.625  0.7842 -0.1359  0.1473
  208MPD1    H6 3171   3.114   4.123   0.719  1.0965  0.0412  0.1553
  208MPD1    H7 3172   3.170   4.125   0.560  1.4900  0.3230  0.7265
  209MPD1     C 3173   4.222   0.236  10.513 -0.3683 -0.2927 -0.7242
  209MPD1    C1 3174   4.301   0.351  10.529 -0.2437  0.0466  0.0313
  209MPD1    C2 3175   4.319   0.430  10.420 -0.2132  0.7777 -0.5833
  209MPD1    C3 3176   4.281   0.391  10.291 -0.0749 -0.3072 -0.0672
  209MPD1    C4 3177   4.221   0.267  10.275  0.0892  0.9396  0.4067
  209MPD1    C5 3178   4.192   0.195  10.386  0.3239 -0.3514  0.5066
  209MPD1     H 3179   4.370   0.525  10.431  1.0946  0.0956 -0.6629
  209MPD1    H1 3180   4.194   0.221  10.181 -1.9591  1.7225  0.6034
  209MPD1    H2 3181   4.196   0.166  10.592 -0.1822  0.1555 -0.2685
  209MPD1    H3 3182   4.142   0.100  10.375 -2.5964  1.3728 -0.8998
  209MPD1     N 3183   4.302   0.479  10.184  0.3903 -0.1159  0.3400
  209MPD1    H5 3184   4.353   0.566  10.198 -0.2440  0.1874  0.7374
  209MPD1    N1 3185   4.347   0.378  10.657  0.0170 -0.0911 -0.4160
  209MPD1    H6 3186   4.314   0.308  10.724 -1.0635  1.1996  0.4162
  209MPD1    H7 3187   4.447   0.382  10.676 -0.1821 -1.7892  1.0215
  210MPD1     C 3188   0.194   1.052  10.195  0.1644 -0.3951 -0.0791
  210MPD1    C1 3189   0.169   1.053  10.058  0.1008  0.4519 -0.5148
  210MPD1    C2 3190   0.063   0.982  10.015  0.3358 -0.4348  0.3506
  210MPD1    C3 3191   4.717   0.898  10.100  0.3683  0.4428  0.6840
  210MPD1    C4 3192   0.025   0.895  10.233 -0.6226 -0.0867 -0.2128
  210MPD1    C5 3193   0.123   0.975  10.276 -0.3296 -0.3128 -0.6117
  210MPD1     H 3194   0.039   0.993   9.910  1.4583  2.3492  0.3754
  210MPD1    H1 3195   4.700   0.827  10.302 -1.6755 -1.0246 -1.8591
  210MPD1    H2 3196   0.272   1.116  10.234 -0.8375  1.3816 -0.9884
  210MPD1    H3 3197   0.136   0.972  10.383  0.7521 -0.7222 -0.7527
  210MPD1     N 3198   4.603   0.819  10.056  0.2768 -0.5220 -0.4668
  210MPD1    H5 3199   4.560   0.761  10.128  1.3226  1.5270  1.8100
  210MPD1    N1 3200   0.227   1.140   9.969 -0.9846  0.3611  0.5073
  210MPD1    H6 3201   0.320   1.168  10.000 -0.5085 -0.1559 -0.4655
  210MPD1    H7 3202   0.223   1.121   9.869  1.0900  1.3823  0.2260
  211MPD1     C 3203   2.700   4.253  16.347  0.0173  0.1117 -0.4124
  211MPD1    C1 3204   2.664   4.347  16.255 -0.2863 -0.3311  0.1170
  211MPD1    C2 3205   2.523   4.370  16.232  0.2020  0.3641  0.2967
  211MPD1    C3 3206   2.428   4.288  16.288 -0.3576  0.2146  0.3926
  211MPD1    C4 3207   2.464   4.191  16.378  0.2399  0.1361  0.0733
  211MPD1    C5 3208   2.601   4.177  16.406  0.6517 -0.8728  0.3893
  211MPD1     H 3209   2.493   4.448  16.164 -2.0880 -0.8676 -0.1129
  211MPD1    H1 3210   2.390   4.132  16.431  0.3884  0.5787  0.7749
  211MPD1    H2 3211   2.807   4.243  16.361  0.3453  3.4635 -0.6980
  211MPD1    H3 3212   2.635   4.102  16.476  1.7777 -0.7597 -0.0349
  211MPD1     N 3213   2.294   4.323  16.264 -0.0007 -0.1618 -0.0971
  211MPD1    H5 3214   2.268   4.412  16.223  0.6235 -0.3295 -0.8505
  211MPD1    N1 3215   2.758   4.446  16.220 -0.4539  0.2457  0.3689
  211MPD1    H6 3216   2.851   4.407  16.209 -0.6907  0.1135 -1.1343
  211MPD1    H7 3217   2.744   4.479  16.125 -0.2127 -2.3011 -0.5597
  212MPD1     C 3218   1.421   3.147  16.406 -0.1989  0.3443  0.4226
  212MPD1    C1 3219   1.433   3.024  16.345 -0.1621  0.0743  0.5599
  212MPD1    C2 3220   1.383   2.912  16.406  0.0127 -0.0355 -0.1680
  212MPD1    C3 3221   1.319   2.922  16.529 -0.6757  0.4582 -0.7986
  212MPD1    C4 3222   1.296   3.047  16.589  0.0860  0.2116  0.7405
  212MPD1    C5 3223   1.348   3.154  16.521  0.6585 -0.2194  0.0764
  212MPD1     H 3224   1.412   2.817  16.363  1.9388  1.3698 -1.9550
  212MPD1    H1 3225   1.235   3.061  16.677 -1.6755 -2.1233 -0.1066
  212MPD1    H2 3226   1.454   3.243  16.368 -0.2222  0.2362  0.1233
  212MPD1    H3 3227   1.324   3.256  16.551 -2.3672 -0.2289 -2.3347
  212MPD1     N 3228   1.270   2.810  16.602  0.1700  0.3820 -0.9435
  212MPD1    H5 3229   1.229   2.831  16.693  0.2840 -2.5714 -0.2057
  212MPD1    N1 3230   1.499   3.011  16.224 -0.1759  0.3007 -0.0897
  212MPD1    H6 3231   1.470   2.922  16.185 -0.8541 -0.5762  2.3985
  212MPD1    H7 3232   1.475   3.094  16.170 -0.8925 -0.7778 -1.4266
  213MPD1     C 3233   4.278   4.039  15.699  0.0176 -0.9324 -0.6516
  213MPD1    C1 3234   4.212   4.142  15.639  0.2475 -0.5088 -0.6333
  213MPD1    C2 3235   4.130   4.103  15.527  1.0441 -0.3834 -0.4572
  213MPD1    C3 3236   4.103   3.974  15.501 -0.5742 -0.4940  0.6450
  213MPD1    C4 3237   4.167   3.872  15.578 -0.6272  0.0349  0.1338
  213MPD1    C5 3238   4.258   3.910  15.676 -0.8281  0.0349 -0.5341
  213MPD1     H 3239   4.083   4.166  15.452 -0.4255 -1.5450 -0.5288
  213MPD1    H1 3240   4.147   3.767  15.560 -2.3435  0.5564 -0.9592
  213MPD1    H2 3241   4.340   4.063  15.785 -1.9751  0.8529  0.2999
  213MPD1    H3 3242   4.302   3.835  15.742  0.2544 -1.0595 -2.5204
  213MPD1     N 3243   4.029   3.932  15.391  0.6927 -0.1531  0.1035
  213MPD1    H5 3244   4.002   4.006  15.327 -2.0691 -0.5255  0.8426
  213MPD1    N1 3245   4.275   4.263  15.648  0.2322  0.0920 -0.1990
  213MPD1    H6 3246   4.303   4.279  15.745  0.4555  0.3053 -0.2959
  213MPD1    H7 3247   4.203   4.332  15.627 -1.2632 -1.7662 -1.1297
  214MPD1     C 3248   3.177   3.552  15.094 -0.5677 -0.3706  0.5633
  214MPD1    C1 3249   3.265   3.526  14.991 -0.0692 -0.7640  0.6056
  214MPD1    C2 3250   3.403   3.533  15.018  0.5577 -0.2551  0.4015
  214MPD1    C3 3251   3.446   3.567  15.142 -0.1493 -0.0751  0.4128
  214MPD1    C4 3252   3.363   3.606  15.243 -0.0340  0.4744 -0.3718
  214MPD1    C5 3253   3.227   3.605  15.213  0.3870 -0.6146  0.3948
  214MPD1     H 3254   3.470   3.505  14.937 -1.9401  0.3904 -1.8772
  214MPD1    H1 3255   3.399   3.643  15.339 -0.4703  1.2692 -0.5127
  214MPD1    H2 3256   3.070   3.551  15.079 -0.7427 -1.7497  1.9419
  214MPD1    H3 3257   3.158   3.624  15.294 -0.0371  2.7394 -0.7498
  214MPD1     N 3258   3.586   3.603  15.164 -0.1014  0.5129  0.0659
  214MPD1    H5 3259   3.609   3.659  15.245  1.8385  0.1133 -0.2103
  214MPD1    N1 3260   3.223   3.493  14.862 -0.1164 -0.1387  0.4038
  214MPD1    H6 3261   3.290   3.516  14.789 -1.2709  0.0597 -0.5972
  214MPD1    H7 3262   3.134   3.539  14.842  0.8234  1.0889 -0.9946
  215MPD1     C 3263   3.530   4.578  10.300 -0.0519 -0.4644  0.0346
  215MPD1    C1 3264   3.568   4.586  10.434 -0.1341  0.3173 -0.7065
  215MPD1    C2 3265   3.644   4.691  10.477  0.2153  0.1514 -0.5903
  215MPD1    C3 3266   3.696   0.059  10.388  0.4914  0.2704 -0.5671
  215MPD1    C4 3267   3.659   0.046  10.252  0.1133  0.1791 -0.3261
  215MPD1    C5 3268   3.578   4.671  10.214  0.5258  0.2164 -0.0081
  215MPD1     H 3269   3.670   4.714  10.580 -1.0564 -1.4143  0.0947
  215MPD1    H1 3270   3.695   0.116  10.178  1.4099 -0.6165 -0.4520
  215MPD1    H2 3271   3.469   4.496  10.264 -1.4338  0.5655  0.0214
  215MPD1    H3 3272   3.557   4.663  10.108  3.6562  2.4561 -0.8096
  215MPD1     N 3273   3.775   0.160  10.442  0.0617 -0.7808  0.3214
  215MPD1    H5 3274   3.786   0.158  10.543  1.1356  0.8838  0.2422
  215MPD1    N1 3275   3.536   4.488  10.529 -0.4594 -0.5559  0.8213
  215MPD1    H6 3276   3.470   4.520  10.600 -0.3256  1.2466  0.1285
  215MPD1    H7 3277   3.485   4.414  10.482 -0.3098  1.3607 -2.3770
  216MPD1     C 3278   1.925   1.992  16.972  0.1909 -0.4098 -0.0407
  216MPD1    C1 3279   2.004   1.921  17.058  0.5467 -0.1062  0.9020
  216MPD1    C2 3280   1.967   1.796  17.092  0.6736  0.4803 -0.2664
  216MPD1    C3 3281   1.869   1.730  17.030 -0.1395  0.4665  0.0934
  216MPD1    C4 3282   1.792   1.795  16.936  0.5991 -0.0204  0.1099
  216MPD1    C5 3283   1.814   1.931  16.912 -0.3354 -0.0536  0.2144
  216MPD1     H 3284   2.023   1.735  17.162  0.1328 -1.5770 -1.6326
  216MPD1    H1 3285   1.702   1.747  16.900  1.6203 -0.6753 -1.5648
  216MPD1    H2 3286   1.943   2.097  16.952  3.5804 -1.1985 -1.0352
  216MPD1    H3 3287   1.760   1.979  16.831 -0.6057 -3.1907 -1.4340
  216MPD1     N 3288   1.848   1.597  17.063  0.1532 -0.2423  1.0972
  216MPD1    H5 3289   1.917   1.545  17.115  0.0838 -0.6528  0.7748
  216MPD1    N1 3290   2.102   1.998  17.131 -0.2885 -0.5766 -0.1398
  216MPD1    H6 3291   2.176   1.931  17.150 -1.1415 -1.7075 -0.8002
  216MPD1    H7 3292   2.143   2.062  17.064 -2.5167  1.4847  0.4891
  217MPD1     C 3293   1.205   3.286   8.811  0.3016  0.2042 -0.0443
  217MPD1    C1 3294   1.160   3.386   8.894  0.2896 -0.2781 -0.3959
  217MPD1    C2 3295   1.223   3.409   9.015 -0.4120 -0.6128  0.2659
  217MPD1    C3 3296   1.303   3.317   9.064 -1.0941 -1.1889  0.4808
  217MPD1    C4 3297   1.332   3.207   8.990  0.5754  0.4836  0.5194
  217MPD1    C5 3298   1.288   3.197   8.863  0.6006 -0.1211 -0.5055
  217MPD1     H 3299   1.201   3.499   9.071 -3.0945  0.5585 -2.6415
  217MPD1    H1 3300   1.400   3.136   9.036  0.6327  0.2780  0.1239
  217MPD1    H2 3301   1.173   3.263   8.710  1.2651 -1.6065  0.0583
  217MPD1    H3 3302   1.309   3.106   8.807  0.3436 -0.5360  0.0779
  217MPD1     N 3303   1.355   3.317   9.195 -0.3604 -0.2959 -0.7124
  217MPD1    H5 3304   1.415   3.241   9.227 -0.2736 -0.3474 -0.9973
  217MPD1    N1 3305   1.070   3.487   8.849 -0.4686  0.1070  0.4137
  217MPD1    H6 3306   1.029   3.531   8.931 -1.3734 -2.0539  1.1038
  217MPD1    H7 3307   0.999   3.464   8.780  0.4716 -2.0737  0.1685
  218MPD1     C 3308   3.477   0.652  12.704 -0.2180 -0.2169  1.8252
  218MPD1    C1 3309   3.540   0.695  12.589 -0.0616 -0.0881  0.4933
  218MPD1    C2 3310   3.600   0.596  12.508 -0.4724 -0.0142  0.3905
  218MPD1    C3 3311   3.611   0.465  12.541 -0.1947 -0.4093  0.5316
  218MPD1    C4 3312   3.546   0.429  12.663  0.1458  0.0302  0.3536
  218MPD1    C5 3313   3.482   0.517  12.740 -0.6713  0.2778  0.5154
  218MPD1     H 3314   3.640   0.625  12.411 -0.8993 -1.2350 -0.1520
  218MPD1    H1 3315   3.551   0.324  12.692 -2.0565  0.4515  2.2463
  218MPD1    H2 3316   3.427   0.727  12.764 -3.0663 -0.5548 -0.1493
  218MPD1    H3 3317   3.442   0.484  12.835  2.2702  0.2530  1.7248
  218MPD1     N 3318   3.677   0.375  12.455  0.5488 -0.0468 -0.3696
  218MPD1    H5 3319   3.742   0.413  12.386  1.0067 -0.7878 -0.3524
  218MPD1    N1 3320   3.529   0.831  12.555  0.0227 -0.3589  0.1762
  218MPD1    H6 3321   3.614   0.879  12.527  1.0650 -1.5050  1.4074
  218MPD1    H7 3322   3.485   0.890  12.625  0.0253  2.4649 -2.1792
  219MPD1     C 3323   4.374   0.389  11.839 -0.1306 -0.1971 -0.1904
  219MPD1    C1 3324   4.242   0.377  11.790 -0.0346 -0.8968  0.1430
  219MPD1    C2 3325   4.153   0.322  11.878  0.1563 -0.1362  0.7036
  219MPD1    C3 3326   4.194   0.276  12.002 -0.6228 -0.1193  0.4897
  219MPD1    C4 3327   4.328   0.280  12.043 -0.6514 -0.3766  0.0065
  219MPD1    C5 3328   4.414   0.338  11.961 -0.0547 -0.3394 -0.2743
  219MPD1     H 3329   4.048   0.318  11.851  0.7201 -1.8174 -1.2576
  219MPD1    H1 3330   4.359   0.231  12.135 -0.6910  1.1578  0.8300
  219MPD1    H2 3331   4.453   0.441  11.785  0.8052 -0.6234  0.7538
  219MPD1    H3 3332   4.517   0.358  11.984  1.3021 -2.9722 -4.0076
  219MPD1     N 3333   4.109   0.210  12.096 -0.3339  0.6361 -0.4293
  219MPD1    H5 3334   4.149   0.164  12.177  0.3753  0.0395 -1.1128
  219MPD1    N1 3335   4.212   0.444  11.670 -0.0197 -0.4384 -0.3815
  219MPD1    H6 3336   4.293   0.440  11.608 -0.9163  1.5391 -1.6794
  219MPD1    H7 3337   4.137   0.395  11.623 -0.3874  0.9263 -1.2047
  220MPD1     C 3338   3.186   1.551   9.783  0.2332  0.1918 -0.3036
  220MPD1    C1 3339   3.314   1.554   9.733  0.5119 -0.8518  0.1192
  220MPD1    C2 3340   3.378   1.434   9.712  0.6395 -0.2636 -0.2133
  220MPD1    C3 3341   3.306   1.311   9.729 -0.5063  0.1020  1.0915
  220MPD1    C4 3342   3.177   1.311   9.792  0.3139  0.0821  0.2539
  220MPD1    C5 3343   3.127   1.433   9.817  0.1785 -0.1524 -0.0019
  220MPD1     H 3344   3.483   1.433   9.684  0.6949  0.6806 -0.0583
  220MPD1    H1 3345   3.130   1.219   9.826 -0.4264 -0.0234 -1.0664
  220MPD1    H2 3346   3.127   1.641   9.794 -0.9363 -0.6673  0.4444
  220MPD1    H3 3347   3.038   1.442   9.878 -1.0908 -1.8246 -1.6039
  220MPD1     N 3348   3.369   1.194   9.677  0.6192  0.3127 -0.6301
  220MPD1    H5 3349   3.456   1.227   9.638  0.5459  0.5772 -0.5719
  220MPD1    N1 3350   3.390   1.671   9.720 -0.2744 -0.1257  1.1583
  220MPD1    H6 3351   3.437   1.685   9.631 -0.7564 -1.3394  0.7088
  220MPD1    H7 3352   3.331   1.753   9.728 -0.6035 -0.0003 -2.7309
  221MPD1     C 3353   1.665   4.519  15.929 -0.3980 -0.2186 -0.4969
  221MPD1    C1 3354   1.772   4.601  15.926 -0.3117 -0.2898  0.0748
  221MPD1    C2 3355   1.904   4.547  15.905 -0.2661  0.6717 -0.3501
  221MPD1    C3 3356   1.919   4.411  15.892 -0.6873 -0.4219  0.2290
  221MPD1    C4 3357   1.807   4.334  15.904  0.0877 -0.3662 -0.2316
  221MPD1    C5 3358   1.677   4.384  15.923 -0.2803  0.2185 -0.5513
  221MPD1     H 3359   1.981   4.621  15.889  0.3824  0.3630  1.3515
  221MPD1    H1 3360   1.820   4.227  15.891  2.7746 -0.1399  0.6215
  221MPD1    H2 3361   1.565   4.562  15.933  0.7273  2.2447  0.6939
  221MPD1    H3 3362   1.594   4.314  15.924 -2.0994  2.3927 -0.0165
  221MPD1     N 3363   2.041   4.341  15.866 -0.3399 -0.6504  0.1692
  221MPD1    H5 3364   2.031   4.240  15.873 -1.5260 -0.4957  0.6352
  221MPD1    N1 3365   1.754   0.014  15.905  0.3804 -0.1173  0.1148
  221MPD1    H6 3366   1.825   0.062  15.959 -1.0880 -0.6019  2.4900
  221MPD1    H7 3367   1.667   0.044  15.950  0.0086  2.0328 -2.0589
  222MPD1     C 3368   1.305   1.819   0.084  0.8204 -0.2793  0.4001
  222MPD1    C1 3369   1.303   1.736  17.660  0.6790  0.5222  0.5137
  222MPD1    C2 3370   1.340   1.794  17.533 -0.8197 -0.2598 -1.0404
  222MPD1    C3 3371   1.353   1.930  17.522  0.5594  0.7151 -0.0866
  222MPD1    C4 3372   1.345   2.012  17.633  0.6566  0.2348  0.0395
  222MPD1    C5 3373   1.316   1.957   0.066 -0.6037 -0.2078  0.3892
  222MPD1     H 3374   1.330   1.736  17.442 -0.2103 -2.0842  0.0568
  222MPD1    H1 3375   1.355   2.120  17.633 -4.4457  0.7375 -2.3195
  222MPD1    H2 3376   1.275   1.782   0.181 -2.6393 -0.1126 -0.6182
  222MPD1    H3 3377   1.319   2.024   0.151 -1.6940  0.3614 -0.0272
  222MPD1     N 3378   1.369   1.998  17.399 -0.2069 -0.1063 -0.0173
  222MPD1    H5 3379   1.391   2.096  17.417  1.9670 -1.0239  2.2375
  222MPD1    N1 3380   1.292   1.593  17.675  0.2924 -0.2507  0.0212
  222MPD1    H6 3381   1.237   1.552  17.600 -0.9288  0.8422  0.3200
  222MPD1    H7 3382   1.237   1.560   0.062  0.6480 -0.3767  0.2171
  223MPD1     C 3383   1.678   2.030  16.358 -0.1885 -0.1958  0.4736
  223MPD1    C1 3384   1.656   2.157  16.404  0.1462  0.3173  0.3710
  223MPD1    C2 3385   1.601   2.177  16.527  1.1994 -0.2202 -0.3327
  223MPD1    C3 3386   1.554   2.064  16.593 -0.2176  0.2325 -0.0177
  223MPD1    C4 3387   1.544   1.944  16.533 -0.7929 -0.8467 -0.1959
  223MPD1    C5 3388   1.611   1.923  16.412 -0.1394 -0.9664  0.8764
  223MPD1     H 3389   1.603   2.274  16.575  0.3274  0.1155 -0.9924
  223MPD1    H1 3390   1.490   1.859  16.574 -0.4272  0.1345  2.3040
  223MPD1    H2 3391   1.725   2.017  16.261 -1.3696 -0.1068 -0.1020
  223MPD1    H3 3392   1.623   1.825  16.367 -0.2804  0.2991 -1.8728
  223MPD1     N 3393   1.505   2.094  16.724 -0.1893  0.8252  0.1499
  223MPD1    H5 3394   1.523   2.189  16.756  0.5663 -0.3110  3.1266
  223MPD1    N1 3395   1.741   2.254  16.342 -0.3999  0.1337 -0.0204
  223MPD1    H6 3396   1.763   2.234  16.244 -1.6551 -0.8131 -0.1047
  223MPD1    H7 3397   1.708   2.350  16.344 -1.6645 -0.3177  0.1900
  224MPD1     C 3398   1.692   3.495   9.135 -0.0911 -0.0859 -0.5855
  224MPD1    C1 3399   1.605   3.589   9.173 -0.2482 -0.0478 -0.1259
  224MPD1    C2 3400   1.628   3.657   9.292  0.1410 -0.5661  0.3351
  224MPD1    C3 3401   1.736   3.624   9.377  0.4185 -0.6351  0.2095
  224MPD1    C4 3402   1.827   3.535   9.332  1.1862  0.8785  0.1710
  224MPD1    C5 3403   1.802   3.469   9.213 -0.1100 -0.5896 -0.7768
  224MPD1     H 3404   1.567   3.739   9.329  0.1370 -0.7304  0.6857
  224MPD1    H1 3405   1.913   3.519   9.397  1.1631 -0.2445 -0.0737
  224MPD1    H2 3406   1.687   3.436   9.044  0.8234 -0.8010 -0.1735
  224MPD1    H3 3407   1.874   3.395   9.179  2.7008  1.8397 -0.0611
  224MPD1     N 3408   1.761   3.671   9.509  0.1198  0.8610 -0.3106
  224MPD1    H5 3409   1.854   3.651   9.547  0.2298 -0.5559 -1.3424
  224MPD1    N1 3410   1.514   3.638   9.080 -0.0769 -0.4040 -0.2806
  224MPD1    H6 3411   1.436   3.678   9.132  0.0541  1.1801 -1.2833
  224MPD1    H7 3412   1.492   3.555   9.026  0.4940 -0.7709  0.0661
  225MPD1     C 3413   3.232   1.394  12.410 -0.2897  0.2471  0.3588
  225MPD1    C1 3414   3.143   1.322  12.328 -0.3798 -0.0818  0.0296
  225MPD1    C2 3415   3.153   1.338  12.193  0.6861  0.0792 -0.3792
  225MPD1    C3 3416   3.240   1.430  12.135 -0.2880 -0.0362 -0.0131
  225MPD1    C4 3417   3.318   1.507  12.220  0.1159  0.1038 -0.2200
  225MPD1    C5 3418   3.307   1.499  12.356 -0.0072  0.4973 -0.6252
  225MPD1     H 3419   3.081   1.283  12.132  0.3364  2.3569 -2.0312
  225MPD1    H1 3420   3.376   1.585  12.172  0.4084 -0.2343 -0.4145
  225MPD1    H2 3421   3.228   1.387  12.518  0.6237  0.3603  0.3967
  225MPD1    H3 3422   3.378   1.553  12.418 -1.9996 -0.0348  2.1386
  225MPD1     N 3423   3.256   1.462  11.998  0.3009  0.9845 -0.2939
  225MPD1    H5 3424   3.316   1.542  11.980  1.5817  0.1590  0.3268
  225MPD1    N1 3425   3.044   1.255  12.385  0.1378 -0.0985 -0.0411
  225MPD1    H6 3426   2.996   1.184  12.330  1.7496 -0.8692 -0.4614
  225MPD1    H7 3427   3.063   1.204  12.471  1.8777  0.0966 -0.3153
  226MPD1     C 3428   2.881   0.119   9.506  0.7154  0.4730  0.0220
  226MPD1    C1 3429   2.750   0.060   9.509  0.2006  0.3477 -0.0581
  226MPD1    C2 3430   2.647   0.141   9.549 -0.0521 -0.1461 -0.7339
  226MPD1    C3 3431   2.662   0.273   9.588  0.6170  0.1397  0.1726
  226MPD1    C4 3432   2.784   0.329   9.562  0.1889  0.0188 -0.1505
  226MPD1    C5 3433   2.888   0.255   9.525 -0.4520  0.7034  0.5025
  226MPD1     H 3434   2.545   0.104   9.548 -0.4700  0.9708  0.1906
  226MPD1    H1 3435   2.807   0.434   9.576 -1.2675  0.4818 -1.2531
  226MPD1    H2 3436   2.963   0.068   9.457  0.5144  0.4047 -0.2439
  226MPD1    H3 3437   2.980   0.307   9.500 -1.5382  2.1504 -0.5151
  226MPD1     N 3438   2.553   0.341   9.641 -0.2530  0.2260  0.0821
  226MPD1    H5 3439   2.469   0.286   9.655 -0.7041  0.3912 -2.0252
  226MPD1    N1 3440   2.732   4.651   9.477  0.0205 -0.1111 -0.0843
  226MPD1    H6 3441   2.812   4.610   9.427 -0.8988 -0.7827 -1.0130
  226MPD1    H7 3442   2.651   4.629   9.420 -0.3000  1.3531 -0.1910
  227MPD1     C 3443   2.405   1.067  10.355  0.0594 -0.0893  0.0402
  227MPD1    C1 3444   2.515   0.988  10.332 -0.2906  0.0933 -0.5349
  227MPD1    C2 3445   2.507   0.909  10.224  0.2649  0.1932 -0.1806
  227MPD1    C3 3446   2.401   0.915  10.136  0.8318  0.8781  0.0399
  227MPD1    C4 3447   2.308   1.012  10.147 -0.3799 -0.2190  0.0692
  227MPD1    C5 3448   2.310   1.084  10.260 -0.1796  0.1542  0.6220
  227MPD1     H 3449   2.581   0.830  10.216  1.5685  1.2917  0.9764
  227MPD1    H1 3450   2.227   1.022  10.075 -1.7905 -3.1918  1.2064
  227MPD1    H2 3451   2.400   1.120  10.450  1.3976 -1.6770  0.9983
  227MPD1    H3 3452   2.235   1.161  10.276 -1.0098 -1.1174  2.8292
  227MPD1     N 3453   2.391   0.813  10.039  0.1711 -0.1739  0.0229
  227MPD1    H5 3454   2.457   0.737  10.051 -0.4612 -0.5307  1.2335
  227MPD1    N1 3455   2.626   0.980  10.429 -0.6672 -0.7914 -0.0303
  227MPD1    H6 3456   2.641   0.885  10.463  2.2374 -0.1692  0.4120
  227MPD1    H7 3457   2.596   1.022  10.517 -0.6469 -0.5481 -0.1397
  228MPD1     C 3458   1.024   2.245  12.987 -0.5997 -0.0924 -0.7119
  228MPD1    C1 3459   1.084   2.368  12.988  0.2950 -0.4120 -0.2161
  228MPD1    C2 3460   1.016   2.480  13.034  0.0395 -0.8384 -0.2315
  228MPD1    C3 3461   0.880   2.470  13.057 -0.6319 -0.6067 -0.8130
  228MPD1    C4 3462   0.816   2.346  13.052  0.1414  0.0137 -0.1510
  228MPD1    C5 3463   0.894   2.235  13.023  0.0980 -0.2797  0.2106
  228MPD1     H 3464   1.071   2.573  13.046 -2.7544  0.5010  2.2699
  228MPD1    H1 3465   0.709   2.340  13.072 -0.0527  0.8176 -0.9324
  228MPD1    H2 3466   1.073   2.152  12.961 -1.3065 -0.1879 -1.6867
  228MPD1    H3 3467   0.846   2.139  13.006 -1.6104  0.4595  0.8764
  228MPD1     N 3468   0.812   2.589  13.073  0.1283 -0.4282  0.4261
  228MPD1    H5 3469   0.861   2.674  13.048 -4.0234  0.3206 -5.1042
  228MPD1    N1 3470   1.224   2.384  12.977 -0.2572  0.0719  0.1797
  228MPD1    H6 3471   1.264   2.307  12.925  0.8518  1.0648 -0.4311
  228MPD1    H7 3472   1.259   2.473  12.942 -2.5267  0.6116 -0.7520
  229MPD1     C 3473   4.483   2.036  14.922  0.0583 -0.1799  0.5530
  229MPD1    C1 3474   4.566   2.033  14.807 -0.0981 -0.0909 -0.3410
  229MPD1    C2 3475   4.669   1.942  14.804 -0.5983 -0.0186 -0.0910
  229MPD1    C3 3476   4.702   1.867  14.923  0.0621  0.2768  0.0753
  229MPD1    C4 3477   4.629   1.885  15.035  0.5035 -0.7910 -0.0834
  229MPD1    C5 3478   4.524   1.972  15.034  0.0041 -0.0006 -0.3594
  229MPD1     H 3479   0.015   1.940  14.721  1.5563 -2.3211  1.7521
  229MPD1    H1 3480   4.650   1.828  15.125 -1.3009 -3.1622 -1.1456
  229MPD1    H2 3481   4.392   2.095  14.927 -0.5506 -0.9475 -1.2688
  229MPD1    H3 3482   4.477   1.977  15.131  0.7621  1.6900 -0.0746
  229MPD1     N 3483   0.084   1.773  14.929 -0.5518 -0.0634 -0.2215
  229MPD1    H5 3484   0.108   1.727  15.016 -1.6104 -1.4806 -0.6773
  229MPD1    N1 3485   4.526   2.095  14.691  0.0312  0.7032 -0.2892
  229MPD1    H6 3486   4.607   2.127  14.638 -0.1326  0.4497 -0.6880
  229MPD1    H7 3487   4.477   2.180  14.719 -1.6764 -0.2682 -0.3629
  230MPD1     C 3488   0.631   1.218  15.546  0.1472  0.0124  0.1309
  230MPD1    C1 3489   0.718   1.304  15.471  0.7044  0.2728 -0.2151
  230MPD1    C2 3490   0.672   1.361  15.354  0.0632 -0.6500  0.5706
  230MPD1    C3 3491   0.541   1.369  15.319  0.5589 -1.0685  0.0348
  230MPD1    C4 3492   0.458   1.298  15.402 -0.1842 -0.5951  0.5246
  230MPD1    C5 3493   0.504   1.218  15.509 -0.4307  0.0060  0.0585
  230MPD1     H 3494   0.736   1.409  15.281  0.0724 -1.6044 -0.0523
  230MPD1    H1 3495   0.352   1.285  15.383 -0.0443 -0.3838 -0.3820
  230MPD1    H2 3496   0.670   1.155  15.625  1.9622  2.7709  1.4398
  230MPD1    H3 3497   0.437   1.145  15.554  1.1114 -0.1286  2.1062
  230MPD1     N 3498   0.501   1.432  15.201  0.6062 -0.1861 -0.0709
  230MPD1    H5 3499   0.579   1.449  15.138  0.5175 -2.5862 -0.8102
  230MPD1    N1 3500   0.855   1.299  15.493  0.1466  0.3289  0.2188
  230MPD1    H6 3501   0.871   1.277  15.591  1.6502  2.5640  0.4527
  230MPD1    H7 3502   0.891   1.391  15.471  2.8953 -0.6332  0.7122
  231MPD1     C 3503   3.617   3.933  15.642 -0.0525  0.2296  0.1604
  231MPD1    C1 3504   3.525   3.896  15.545 -0.2206 -1.4793  0.1110
  231MPD1    C2 3505   3.550   3.916  15.411  0.1002  0.4997  0.0580
  231MPD1    C3 3506   3.650   4.009  15.368  0.0113 -0.0442 -0.5813
  231MPD1    C4 3507   3.734   4.053  15.469 -0.3887 -0.1269 -0.2249
  231MPD1    C5 3508   3.721   4.010  15.596  0.6155 -0.4239 -0.0172
  231MPD1     H 3509   3.471   3.882  15.346  0.8090 -0.9122 -0.0515
  231MPD1    H1 3510   3.812   4.126  15.450 -0.0321 -0.4621 -0.0614
  231MPD1    H2 3511   3.623   3.902  15.745 -0.0327  3.3299  1.0855
  231MPD1    H3 3512   3.796   4.032  15.672  0.3636 -0.0296  0.1227
  231MPD1     N 3513   3.663   4.046  15.225 -0.4006 -0.1828  0.0641
  231MPD1    H5 3514   3.597   4.008  15.157 -2.6237 -0.3430  2.3142
  231MPD1    N1 3515   3.423   3.808  15.588 -0.0495 -0.3982  0.6698
  231MPD1    H6 3516   3.389   3.842  15.678  0.3672 -0.3234  0.7982
  231MPD1    H7 3517   3.347   3.799  15.521  0.1260  0.0712  0.4044
  232MPD1     C 3518   1.082   2.102   0.337 -0.1361 -0.0274 -0.0612
  232MPD1    C1 3519   1.082   1.964   0.342 -0.2035 -0.2705  0.1699
  232MPD1    C2 3520   0.988   1.892   0.274 -0.5009  0.1446 -0.3331
  232MPD1    C3 3521   0.898   1.952   0.184  0.4101  0.4522  0.1385
  232MPD1    C4 3522   0.904   2.090   0.171 -0.0608  0.4181 -0.3539
  232MPD1    C5 3523   0.983   2.156   0.253  0.8426 -1.1482 -0.3313
  232MPD1     H 3524   0.980   1.787   0.297 -2.3895  0.3288 -0.1572
  232MPD1    H1 3525   0.838   2.153   0.112  0.6284  3.2575  1.9101
  232MPD1    H2 3526   1.134   2.169   0.405  0.5121 -0.9351  0.3381
  232MPD1    H3 3527   0.979   2.264   0.250  0.8511 -1.1992 -1.9688
  232MPD1     N 3528   0.795   1.877   0.134  0.1221 -0.5524  0.2405
  232MPD1    H5 3529   0.775   1.791   0.186 -2.2549 -1.5335 -2.2598
  232MPD1    N1 3530   1.159   1.899   0.443 -0.2043 -0.6486  0.4850
  232MPD1    H6 3531   1.249   1.940   0.467  0.3250 -1.5624  0.0937
  232MPD1    H7 3532   1.185   1.800   0.439 -2.2649 -1.1669  0.1705
  233MPD1     C 3533   2.644   0.197   2.679  0.1186  0.0710  0.3205
  233MPD1    C1 3534   2.647   0.093   2.756  0.1685 -0.2146  0.3507
  233MPD1    C2 3535   2.615   4.688   2.704 -0.1135 -0.0727  0.4999
  233MPD1    C3 3536   2.590   4.671   2.566 -0.2316  0.1602  0.2893
  233MPD1    C4 3537   2.584   0.064   2.489 -0.3997 -1.6013 -0.0814
  233MPD1    C5 3538   2.613   0.186   2.545  0.2249  0.6722 -0.4079
  233MPD1     H 3539   2.624   4.600   2.766  1.2208 -1.3447 -1.5075
  233MPD1    H1 3540   2.554   0.065   2.385 -0.5179  2.7994 -0.0199
  233MPD1    H2 3541   2.658   0.295   2.722  0.2961 -0.1691  0.8051
  233MPD1    H3 3542   2.617   0.276   2.485  1.0803  0.0819 -1.2374
  233MPD1     N 3543   2.556   4.551   2.510 -0.0326 -0.1909 -0.5039
  233MPD1    H5 3544   2.518   4.563   2.417 -1.2900 -1.7603 -0.1926
  233MPD1    N1 3545   2.663   0.106   2.891 -0.2534 -0.3216  0.0394
  233MPD1    H6 3546   2.726   0.184   2.910 -0.4275 -0.4548  1.1472
  233MPD1    H7 3547   2.709   0.025   2.933  1.0197  0.6939  0.5968
  234MPD1     C 3548   2.960   2.679   9.410  0.4863  0.0947 -0.1113
  234MPD1    C1 3549   2.861   2.734   9.338 -0.1654  0.6273  0.5337
  234MPD1    C2 3550   2.777   2.830   9.397  0.4826  0.3272 -0.6299
  234MPD1    C3 3551   2.806   2.883   9.523  0.2889  0.4477  0.8111
  234MPD1    C4 3552   2.913   2.830   9.589 -0.0615  0.7515 -0.1333
  234MPD1    C5 3553   2.994   2.731   9.531 -0.0629 -0.9700 -0.2021
  234MPD1     H 3554   2.688   2.872   9.351 -0.1050 -0.2809 -0.0402
  234MPD1    H1 3555   2.940   2.865   9.688  2.0426 -0.8407 -0.1249
  234MPD1    H2 3556   3.020   2.597   9.373 -1.3444 -0.4308 -1.9208
  234MPD1    H3 3557   3.079   2.692   9.585  0.1365  1.0605  0.9632
  234MPD1     N 3558   2.733   2.990   9.571 -0.0161  0.2212 -0.1017
  234MPD1    H5 3559   2.647   3.011   9.521 -1.0299  1.2743  2.0866
  234MPD1    N1 3560   2.852   2.705   9.203 -0.5155  0.0483  0.1812
  234MPD1    H6 3561   2.885   2.610   9.192  0.2831 -0.0166  3.2630
  234MPD1    H7 3562   2.760   2.698   9.159 -0.3716 -0.4024 -0.0441
  235MPD1     C 3563   3.667   0.822   9.335  0.7752  0.3808  0.9082
  235MPD1    C1 3564   3.798   0.794   9.362  0.4881  0.5933  0.8505
  235MPD1    C2 3565   3.889   0.901   9.360  0.4807 -0.1647  0.3148
  235MPD1    C3 3566   3.847   1.025   9.306 -0.0138  0.4488 -0.2758
  235MPD1    C4 3567   3.714   1.050   9.284  0.6244 -0.5798  0.0815
  235MPD1    C5 3568   3.623   0.951   9.304  0.0213 -0.1939 -0.2441
  235MPD1     H 3569   3.995   0.897   9.383 -0.0122 -1.5266  2.3499
  235MPD1    H1 3570   3.679   1.140   9.234  0.7277 -0.1020  0.8774
  235MPD1    H2 3571   3.590   0.746   9.341 -0.2034  1.3456  0.5461
  235MPD1    H3 3572   3.519   0.970   9.279  0.8238  1.1211 -2.5667
  235MPD1     N 3573   3.953   1.122   9.289 -0.5028  0.1373 -0.6926
  235MPD1    H5 3574   4.044   1.088   9.318 -1.8311 -1.1680  1.9128
  235MPD1    N1 3575   3.842   0.667   9.409  0.4409 -0.0772  0.2242
  235MPD1    H6 3576   3.795   0.591   9.360  0.8203 -1.0781  1.4297
  235MPD1    H7 3577   3.941   0.656   9.388  0.5126  0.3419  0.3548
  236MPD1     C 3578   3.957   2.464   9.624  0.0346 -0.4683  0.2619
  236MPD1    C1 3579   3.886   2.360   9.569  0.7901  0.6828  0.0834
  236MPD1    C2 3580   3.924   2.229   9.608 -0.5004 -1.0206  0.7655
  236MPD1    C3 3581   4.012   2.203   9.709 -0.1473 -0.1345 -0.2816
  236MPD1    C4 3582   4.061   2.310   9.779  0.0308  0.6447 -0.1065
  236MPD1    C5 3583   4.056   2.437   9.721 -0.3501 -0.2482 -0.5492
  236MPD1     H 3584   3.868   2.149   9.560 -0.9150 -0.9773  1.1746
  236MPD1    H1 3585   4.135   2.297   9.857  2.9065 -0.8841 -3.0874
  236MPD1    H2 3586   3.937   2.569   9.604  0.5059 -0.4162  0.0800
  236MPD1    H3 3587   4.101   2.524   9.769  0.2199 -0.3529 -0.8957
  236MPD1     N 3588   4.046   2.071   9.752 -0.3344  0.7276  0.3635
  236MPD1    H5 3589   4.122   2.066   9.819  1.2280  0.6994 -1.4275
  236MPD1    N1 3590   3.793   2.387   9.475  0.1626  0.4926 -0.1498
  236MPD1    H6 3591   3.839   2.385   9.385  1.2478 -0.4662  0.4351
  236MPD1    H7 3592   3.769   2.486   9.485 -0.1062  0.5307 -1.2347
  237MPD1     C 3593   3.798   4.674  15.118  0.5041 -0.9664  1.0637
  237MPD1    C1 3594   3.726   0.004  15.010  0.1261 -1.1876 -0.4150
  237MPD1    C2 3595   3.632   0.102  15.025 -0.1860  0.1799  0.2707
  237MPD1    C3 3596   3.588   0.136  15.156  0.3753 -0.0929  0.0330
  237MPD1    C4 3597   3.657   0.078  15.257  0.2338  0.3865  0.0233
  237MPD1    C5 3598   3.758   4.716  15.243 -0.3483  1.3566 -0.8765
  237MPD1     H 3599   3.579   0.136  14.936  0.6593  1.9222  0.4296
  237MPD1    H1 3600   3.624   0.099  15.359  1.9084 -1.0460  0.8543
  237MPD1    H2 3601   3.882   4.607  15.106  1.8537  0.5793  1.7924
  237MPD1    H3 3602   3.809   4.675  15.329  0.4927  2.3798 -0.8845
  237MPD1     N 3603   3.474   0.223  15.188  0.9161 -0.2538  1.0679
  237MPD1    H5 3604   3.450   0.242  15.285 -0.0686 -1.0460  0.9813
  237MPD1    N1 3605   3.766   4.682  14.881 -0.4113 -0.0497  0.7527
  237MPD1    H6 3606   3.814   4.593  14.892  1.1763  0.4393 -2.3686
  237MPD1    H7 3607   3.688   4.671  14.816 -1.3450  0.7174  1.7334
  238MPD1     C 3608   0.252   4.457  15.277  0.4729 -0.4543  0.3177
  238MPD1    C1 3609   0.280   4.463  15.139  0.1832 -0.0526  0.5101
  238MPD1    C2 3610   0.259   4.337  15.081 -0.1435 -0.4765 -0.4804
  238MPD1    C3 3611   0.208   4.224  15.142 -0.1493 -0.0014  0.2994
  238MPD1    C4 3612   0.167   4.229  15.277  0.4643 -0.5460 -0.1900
  238MPD1    C5 3613   0.187   4.345  15.339 -0.5121 -0.5104  0.2213
  238MPD1     H 3614   0.252   4.341  14.973  0.9652 -0.5879 -0.5510
  238MPD1    H1 3615   0.121   4.148  15.331  0.9350 -0.9556 -0.4012
  238MPD1    H2 3616   0.270   4.541  15.343 -1.2658  0.3554 -0.2307
  238MPD1    H3 3617   0.142   4.354  15.437  0.4045  1.1097  0.4932
  238MPD1     N 3618   0.204   4.094  15.080  0.3110 -0.1964 -0.5230
  238MPD1    H5 3619   0.153   4.020  15.127 -0.7536  0.0623 -1.2937
  238MPD1    N1 3620   0.341   4.568  15.067  0.6401  0.3337 -0.2865
  238MPD1    H6 3621   0.307   4.577  14.971  0.1191  1.1056 -0.0182
  238MPD1    H7 3622   0.319   4.659  15.106  0.1962  0.0453  0.1323
  239MPD1     C 3623   0.637   0.048  14.823 -0.5609  0.6065  0.0920
  239MPD1    C1 3624   0.743   0.042  14.737  0.6295 -0.2186 -0.2496
  239MPD1    C2 3625   0.721   0.069  14.600  0.5814 -0.0569 -0.6310
  239MPD1    C3 3626   0.596   0.098  14.558  0.3889 -0.7136 -0.1508
  239MPD1    C4 3627   0.486   0.089  14.643 -0.7398 -0.2982 -0.4763
  239MPD1    C5 3628   0.511   0.074  14.778  0.2852  0.1999  0.1189
  239MPD1     H 3629   0.809   0.071  14.535  0.0673 -0.7964 -1.3495
  239MPD1    H1 3630   0.383   0.110  14.615 -0.3296  0.7790 -1.1763
  239MPD1    H2 3631   0.659   0.024  14.927 -2.0240 -3.1078 -0.4696
  239MPD1    H3 3632   0.435   0.080  14.855  0.7143  1.4192  0.4505
  239MPD1     N 3633   0.570   0.125  14.418 -0.6283 -0.3147  0.8108
  239MPD1    H5 3634   0.469   0.121  14.403 -0.6552 -1.8220  1.3884
  239MPD1    N1 3635   0.871   0.005  14.781  0.3388  0.1574 -0.6780
  239MPD1    H6 3636   0.936   4.692  14.710  0.2627 -1.6617  0.1573
  239MPD1    H7 3637   0.868   4.653  14.850  0.8944 -0.2191 -1.0608
  240MPD1     C 3638   0.906   4.156  14.146  0.7859 -0.1032  0.2896
  240MPD1    C1 3639   0.881   4.193  14.279 -0.1570 -0.1400  0.3071
  240MPD1    C2 3640   0.747   4.200  14.325 -0.6967 -0.1421 -0.6379
  240MPD1    C3 3641   0.642   4.181  14.235 -0.2243  0.2150 -0.1111
  240MPD1    C4 3642   0.670   4.159  14.102  0.0275  0.0359 -0.0905
  240MPD1    C5 3643   0.802   4.142  14.066 -0.0116  0.1777  0.0167
  240MPD1     H 3644   0.723   4.215  14.429 -0.0021  1.7891 -0.7546
  240MPD1    H1 3645   0.599   4.140  14.023  2.0966  0.6857 -2.0934
  240MPD1    H2 3646   1.006   4.143  14.106  0.2724 -0.1253 -0.9784
  240MPD1    H3 3647   0.813   4.127  13.959 -0.7135 -2.5825  0.3264
  240MPD1     N 3648   0.513   4.164  14.292 -0.3996 -0.4171  0.0850
  240MPD1    H5 3649   0.511   4.149  14.392 -2.4544  1.2610  0.2979
  240MPD1    N1 3650   0.984   4.220  14.368  0.4535 -0.0537 -0.2458
  240MPD1    H6 3651   0.964   4.198  14.466 -0.4747  0.3632 -0.3462
  240MPD1    H7 3652   1.081   4.195  14.348  0.7029 -0.0185  0.8858
  241MPD1     C 3653   0.040   4.615  14.847 -0.0876 -0.7632  0.6018
  241MPD1    C1 3654   0.015   4.491  14.892  0.9605  0.0739 -0.3732
  241MPD1    C2 3655   0.051   4.389  14.808 -0.3198  0.9952  0.4881
  241MPD1    C3 3656   0.127   4.413  14.694 -0.5520 -0.3259  0.1364
  241MPD1    C4 3657   0.160   4.546  14.655  0.1773 -0.2023 -0.6115
  241MPD1    C5 3658   0.113   4.647  14.730  0.5435 -0.2245  0.3247
  241MPD1     H 3659   0.027   4.289  14.844 -0.2244  1.1175  0.8843
  241MPD1    H1 3660   0.202   4.567  14.557 -2.2208 -1.3414 -1.8608
  241MPD1    H2 3661   0.023   4.703  14.909  1.4580  0.6936 -1.0504
  241MPD1    H3 3662   0.135   0.028  14.706  0.3790 -0.6671 -1.7087
  241MPD1     N 3663   0.167   4.312  14.612 -0.1889  0.1672 -0.5729
  241MPD1    H5 3664   0.221   4.337  14.530  1.1596  0.7676  0.5110
  241MPD1    N1 3665   4.649   4.472  14.999  0.3293 -0.3092  0.0231
  241MPD1    H6 3666   4.673   4.386  15.046  1.1285 -0.1585 -0.1199
  241MPD1    H7 3667   4.657   4.557  15.053  1.6416  1.1445 -2.4415
  242MPD1     C 3668   4.404   3.128  15.465 -0.3731  0.0083 -0.3502
  242MPD1    C1 3669   4.456   3.162  15.340  0.0237  0.3993 -0.5175
  242MPD1    C2 3670   4.496   3.055  15.254 -0.3700 -0.1700  0.0858
  242MPD1    C3 3671   4.499   2.925  15.300  0.0620  0.3541 -0.8574
  242MPD1    C4 3672   4.469   2.906  15.435 -0.0848  0.3826  0.2721
  242MPD1    C5 3673   4.427   3.004  15.514 -0.8666  0.0880 -0.6478
  242MPD1     H 3674   4.508   3.078  15.149  0.8518 -1.3052 -0.0147
  242MPD1    H1 3675   4.473   2.802  15.465  2.2566  0.1441 -0.8466
  242MPD1    H2 3676   4.358   3.205  15.527 -1.5053 -1.5703  0.7671
  242MPD1    H3 3677   4.390   2.973  15.612  2.6046 -1.7455  0.0787
  242MPD1     N 3678   4.528   2.813  15.216 -0.3378 -0.0457  0.2153
  242MPD1    H5 3679   4.543   2.727  15.266  2.0237  0.2977  0.0648
  242MPD1    N1 3680   4.433   3.292  15.292 -0.2482  0.0080  0.0164
  242MPD1    H6 3681   4.438   3.371  15.356  1.1757 -0.5282  0.5655
  242MPD1    H7 3682   4.494   3.311  15.213 -0.1028  0.4574  0.2363
  243MPD1     C 3683   1.040   1.129  17.677 -0.3296  0.2416  0.0418
  243MPD1    C1 3684   1.164   1.108  17.627 -0.3344 -0.6215  0.4185
  243MPD1    C2 3685   1.216   0.983  17.626 -0.1585 -0.1677  0.2255
  243MPD1    C3 3686   1.139   0.873  17.661 -0.0304 -0.7429 -1.1125
  243MPD1    C4 3687   1.013   0.898   0.022  0.1677  1.0452  0.6275
  243MPD1    C5 3688   0.966   1.025   0.033  0.1354 -0.0184 -0.6806
  243MPD1     H 3689   1.317   0.972  17.590 -0.0455 -1.4763  0.9457
  243MPD1    H1 3690   0.943   0.821   0.051  0.0813  0.9946  0.2796
  243MPD1    H2 3691   1.005   1.231  17.685  2.5318  1.3649 -1.7291
  243MPD1    H3 3692   0.865   1.039   0.072  0.0793 -0.6897 -0.5891
  243MPD1     N 3693   1.192   0.746  17.640 -0.4186  0.6097  0.0007
  243MPD1    H5 3694   1.274   0.732  17.583 -1.2906 -3.1214 -0.3348
  243MPD1    N1 3695   1.248   1.220  17.606  0.5910 -0.1430 -0.0695
  243MPD1    H6 3696   1.181   1.292  17.578 -1.9336 -1.7985  1.6822
  243MPD1    H7 3697   1.322   1.199  17.539  0.9714 -0.7638  0.5504
  244MPD1     C 3698   1.348   4.542   0.341  0.7593  0.2520  0.3544
  244MPD1    C1 3699   1.445   4.638   0.325  0.0671  0.3461 -0.4852
  244MPD1    C2 3700   1.423   0.016   0.235  0.1123  1.3036 -0.8467
  244MPD1    C3 3701   1.311   0.016   0.155 -0.2880 -0.1711  0.0390
  244MPD1    C4 3702   1.214   4.633   0.164 -0.0984  0.5278  0.6158
  244MPD1    C5 3703   1.231   4.542   0.260 -0.1777 -0.4253  0.2104
  244MPD1     H 3704   1.496   0.095   0.220 -0.0462  1.1750 -2.3359
  244MPD1    H1 3705   1.124   4.629   0.103  0.9924 -0.5188 -0.9125
  244MPD1    H2 3706   1.360   4.466   0.417  0.3128  0.1372  0.3077
  244MPD1    H3 3707   1.155   4.465   0.246  0.5977 -1.3379  1.1011
  244MPD1     N 3708   1.305   0.125   0.067  0.1870 -0.3169  0.0312
  244MPD1    H5 3709   1.392   0.175   0.050 -0.0233  0.0459  0.0202
  244MPD1    N1 3710   1.541   4.652   0.423  0.5345  0.0524 -0.2959
  244MPD1    H6 3711   1.556   4.560   0.464  0.1399  0.9687  1.8740
  244MPD1    H7 3712   1.631   4.680   0.386  0.7824  1.0620  1.0906
  245MPD1     C 3713   4.146   2.348  12.360  0.5423 -0.4244 -0.5600
  245MPD1    C1 3714   4.163   2.470  12.412  0.2710 -0.0192 -0.4983
  245MPD1    C2 3715   4.116   2.493  12.537  0.0471  1.2483  0.2734
  245MPD1    C3 3716   4.078   2.389  12.616  0.2656  0.5887 -0.2219
  245MPD1    C4 3717   4.066   2.264  12.570 -0.8645 -0.6094 -0.5066
  245MPD1    C5 3718   4.098   2.244  12.437 -0.2892  0.6709 -0.1617
  245MPD1     H 3719   4.123   2.591  12.582 -0.2238  1.2420  0.3297
  245MPD1    H1 3720   4.024   2.184  12.630 -2.0419 -0.7454 -1.5336
  245MPD1    H2 3721   4.164   2.327  12.255  0.0318  0.8697 -0.8995
  245MPD1    H3 3722   4.079   2.145  12.398 -0.1925  0.0957  1.2518
  245MPD1     N 3723   4.038   2.420  12.749 -0.3444 -0.2261  0.3752
  245MPD1    H5 3724   4.025   2.516  12.778  0.5703  0.4784 -1.5524
  245MPD1    N1 3725   4.192   2.582  12.334 -0.0537  0.2122 -0.1697
  245MPD1    H6 3726   4.272   2.559  12.275  0.2325 -0.3268  0.4413
  245MPD1    H7 3727   4.223   2.654  12.398 -0.1777 -0.8894  1.1207
  246MPD1     C 3728   4.085   0.699   8.734  0.0417 -0.1128  0.1164
  246MPD1    C1 3729   3.959   0.654   8.753  0.0724 -0.2401 -0.0269
  246MPD1    C2 3730   3.853   0.736   8.720  0.0693 -0.1244  0.2204
  246MPD1    C3 3731   3.873   0.856   8.651  0.0652  0.1896  0.0010
  246MPD1    C4 3732   3.999   0.894   8.618 -0.0978 -0.0388  0.2957
  246MPD1    C5 3733   4.106   0.820   8.664 -0.2662  0.5885  0.1411
  246MPD1     H 3734   3.755   0.709   8.757 -0.8028  0.9617 -1.3191
  246MPD1    H1 3735   4.025   0.993   8.582 -4.3592  1.4644  1.3750
  246MPD1    H2 3736   4.171   0.641   8.767  0.3538  0.6894  0.7044
  246MPD1    H3 3737   4.204   0.863   8.649 -0.0004 -1.1597 -2.9729
  246MPD1     N 3738   3.756   0.940   8.625 -0.3925 -0.8315 -0.5443
  246MPD1    H5 3739   3.666   0.895   8.638 -0.1747 -0.9183  0.6449
  246MPD1    N1 3740   3.947   0.540   8.835  0.8111 -0.3308  0.6096
  246MPD1    H6 3741   4.011   0.461   8.834 -1.4280 -2.1490 -0.4729
  246MPD1    H7 3742   3.857   0.492   8.830 -0.6716  2.4730  0.2197
  247MPD1     C 3743   2.845   1.175  16.899 -0.1295  0.4608 -0.8452
  247MPD1    C1 3744   2.756   1.098  16.829  0.7986 -0.0042 -0.2349
  247MPD1    C2 3745   2.765   1.094  16.687  0.4711 -0.9355  0.0481
  247MPD1    C3 3746   2.859   1.173  16.625  0.3448 -0.1338  0.2466
  247MPD1    C4 3747   2.941   1.248  16.699  0.0844  0.0514  0.0831
  247MPD1    C5 3748   2.936   1.253  16.833 -0.1325 -0.2163  0.1074
  247MPD1     H 3749   2.701   1.026  16.631  0.5267 -0.4910 -0.5497
  247MPD1    H1 3750   3.006   1.324  16.655  0.6071 -0.9727 -0.8997
  247MPD1    H2 3751   2.853   1.167  17.007 -2.6894  0.8840 -0.6442
  247MPD1    H3 3752   3.004   1.313  16.892 -1.6760  0.1281  1.5502
  247MPD1     N 3753   2.868   1.181  16.483 -0.2217 -0.1885 -0.0235
  247MPD1    H5 3754   2.946   1.229  16.439  0.1418  1.0250  1.9175
  247MPD1    N1 3755   2.671   1.016  16.901  0.4275  0.0153  0.0105
  247MPD1    H6 3756   2.592   0.984  16.846  0.5304  1.0363 -0.7178
  247MPD1    H7 3757   2.622   1.068  16.974  0.0498  0.5923 -0.6620
  248MPD1     C 3758   3.904   0.939  17.553  0.5466 -1.3367 -0.6241
  248MPD1    C1 3759   3.834   0.849  17.624  0.4920 -0.0277 -0.7006
  248MPD1    C2 3760   3.787   0.882   0.055  1.1103 -0.5568  0.3912
  248MPD1    C3 3761   3.812   1.010   0.101  0.0745 -0.2819 -0.6185
  248MPD1    C4 3762   3.890   1.102   0.036  0.4664 -0.1602 -0.4578
  248MPD1    C5 3763   3.937   1.066  17.604 -0.9539 -0.0428 -0.1282
  248MPD1     H 3764   3.724   0.811   0.107 -0.2691  0.5695  0.2652
  248MPD1    H1 3765   3.913   1.193   0.089 -2.3816 -1.3815  2.8303
  248MPD1    H2 3766   3.938   0.907  17.455 -1.8721  0.3460 -2.0031
  248MPD1    H3 3767   4.007   1.121  17.542  0.7309  0.4053  2.2060
  248MPD1     N 3768   3.757   1.038   0.231  0.0320  0.6075 -0.3832
  248MPD1    H5 3769   3.711   0.961   0.278  0.4300 -0.4792 -1.7837
  248MPD1    N1 3770   3.813   0.726  17.569 -0.3760 -0.1044  0.5894
  248MPD1    H6 3771   3.883   0.713  17.497 -0.5719 -1.0722  0.5647
  248MPD1    H7 3772   3.827   0.656  17.642 -0.8879  0.0216  0.8104
  249MPD1     C 3773   4.302   4.694  10.884 -0.4726  0.2548  0.0247
  249MPD1    C1 3774   4.243   4.607  10.789  0.1749 -0.0434 -0.3264
  249MPD1    C2 3775   4.283   4.622  10.658 -0.5314 -0.4262  0.1188
  249MPD1    C3 3776   4.395   4.697  10.624  0.1322 -0.1560 -0.8607
  249MPD1    C4 3777   4.460   0.050  10.716  0.2589  0.2631 -0.3490
  249MPD1    C5 3778   4.409   0.046  10.846 -0.3117  0.0025 -0.4374
  249MPD1     H 3779   4.239   4.560  10.582 -1.0196  1.2525 -0.9574
  249MPD1    H1 3780   4.547   0.114  10.705 -0.0125  1.0240  1.8184
  249MPD1    H2 3781   4.271   4.696  10.988 -1.5719 -1.0702 -0.2641
  249MPD1    H3 3782   4.449   0.111  10.923 -0.9764 -0.7142  0.5060
  249MPD1     N 3783   4.420   4.704  10.483  0.2901  0.1426 -0.1283
  249MPD1    H5 3784   4.353   4.646  10.433  0.5060  1.4673 -1.9660
  249MPD1    N1 3785   4.121   4.545  10.819 -0.6176  0.2538 -0.6536
  249MPD1    H6 3786   4.107   4.525  10.918  2.5938 -1.6101 -0.5981
  249MPD1    H7 3787   4.096   4.464  10.762 -0.9749  0.3143 -0.5831
  250MPD2     C 3788   1.189   0.145  13.090  0.5138  0.0447  0.3147
  250MPD2    C1 3789   1.171   0.227  12.975  0.2506 -0.7785 -0.0831
  250MPD2    C2 3790   1.109   0.179  12.862  0.3204 -0.3196 -0.4657
  250MPD2    C3 3791   1.059   0.050  12.874 -0.3013 -0.0863 -0.0919
  250MPD2    C4 3792   1.067   4.698  12.990 -0.3655  1.3321  0.7241
  250MPD2    C5 3793   1.139   0.023  13.093 -0.1068  0.4826 -0.2574
  250MPD2     H 3794   1.099   0.228  12.766 -0.5465  0.0111 -0.2059
  250MPD2    H1 3795   1.038   4.594  12.988  0.1366  1.2240 -0.6762
  250MPD2    H2 3796   1.259   0.180  13.164  0.9712 -0.0378 -0.0756
  250MPD2    H3 3797   1.158   4.676  13.174 -1.7109  0.0046 -0.3030
  250MPD2     N 3798   1.013   4.701  12.764 -0.4436 -0.1439  0.1629
  250MPD2    H5 3799   0.972   4.611  12.785  1.8360 -1.5731 -1.5768
  250MPD2    N1 3800   1.213   0.357  12.982  0.5359  0.5185  0.2259
  250MPD2    H7 3801   1.253   0.386  13.071  0.9436 -3.2487  1.2935
  251TMC3    C1 3802   1.265   0.577  12.928 -0.6089 -0.0363  0.2260
  251TMC3    C2 3803   1.214   0.690  12.864  0.6686 -0.1458 -0.4708
  251TMC3    C3 3804   1.296   0.799  12.852  0.7777 -0.6601  0.0671
  251TMC3    C4 3805   1.396   0.574  12.973 -0.1307  0.6297 -0.2080
  251TMC3    C5 3806   1.468   0.685  12.954  1.0428  0.3580  0.9815
  251TMC3    C6 3807   1.426   0.800  12.894  0.0072  0.2114 -0.1307
  251TMC3     C 3808   1.202   0.457  12.884  0.3352  0.9634  0.4190
  251TMC3     O 3809   1.145   0.465  12.780 -0.8705 -0.0522 -0.4730
  251TMC3     H 3810   1.112   0.691  12.825  0.5497 -3.6750 -0.2293
  251TMC3    H1 3811   1.440   0.482  13.009 -1.9873  0.5392  1.8184
  251TMC3    H2 3812   1.497   0.882  12.897 -0.9316  1.0243 -0.0881
  251TMC3    C7 3813   1.606   0.647  12.915 -0.1750  0.8112  0.3679
  251TMC3    C8 3814   1.242   0.919  12.790  0.1882  0.1150  0.4077
  251TMC3    O1 3815   1.651   0.549  12.970  0.1480  0.2315  0.6653
  251TMC3    O2 3816   1.282   1.026  12.830 -0.1645 -1.0032  0.3264
  252TMC3    C1 3817   2.918   0.505   9.089  0.2946  0.0025 -0.3138
  252TMC3    C2 3818   3.043   0.564   9.112  0.1307  0.3153 -0.1808
  252TMC3    C3 3819   3.052   0.623   9.235 -0.7322  0.1744 -0.3006
  252TMC3    C4 3820   2.808   0.526   9.166 -0.4975  0.0606 -0.8378
  252TMC3    C5 3821   2.831   0.580   9.291  0.4623 -0.5039  0.3409
  252TMC3    C6 3822   2.955   0.627   9.331  0.1138  0.1080  0.3122
  252TMC3     C 3823   2.916   0.421   8.978  0.2205  0.2912 -0.1778
  252TMC3     O 3824   3.009   0.430   8.902  0.2595 -0.3723  0.1955
  252TMC3     H 3825   3.124   0.550   9.042 -0.7974  1.5213 -1.5108
  252TMC3    H1 3826   2.714   0.480   9.142 -0.0295 -0.9214 -0.7765
  252TMC3    H2 3827   2.970   0.667   9.430  0.2515 -1.9691  1.1392
  252TMC3    C7 3828   2.722   0.619   9.377 -0.5105  0.7270 -0.8470
  252TMC3    C8 3829   3.132   0.743   9.247 -0.3246 -0.4859  1.1781
  252TMC3    O1 3830   2.755   0.683   9.476  0.1895 -0.0852 -0.2022
  252TMC3    O2 3831   3.228   0.753   9.171  0.1651  0.2054 -0.5325
  253MPD2     C 3832   3.103   0.607  15.325 -0.2458 -0.7310  0.4368
  253MPD2    C1 3833   2.974   0.555  15.312  0.1853  0.4650 -0.0137
  253MPD2    C2 3834   2.931   0.465  15.408 -0.1149 -0.1956 -0.9864
  253MPD2    C3 3835   3.012   0.426  15.515 -0.2971  0.7165  0.3443
  253MPD2    C4 3836   3.138   0.494  15.528  0.7903  0.4110 -0.4512
  253MPD2    C5 3837   3.184   0.572  15.426 -0.1573 -0.8189 -0.2684
  253MPD2     H 3838   2.835   0.415  15.397  0.7611 -1.6350 -1.9927
  253MPD2    H1 3839   3.202   0.488  15.616 -0.8625 -1.3031  0.6254
  253MPD2    H2 3840   3.139   0.678  15.251  1.2737 -0.6559  1.2637
  253MPD2    H3 3841   3.286   0.608  15.416  0.2704 -2.3605 -1.3257
  253MPD2     N 3842   2.985   0.328  15.610  1.0121 -0.0713 -0.6899
  253MPD2    H5 3843   3.065   0.307  15.670 -1.6457 -1.4274  2.3948
  253MPD2    N1 3844   2.876   0.591  15.212  0.4290  0.6661  0.1133
  253MPD2    H7 3845   2.784   0.548  15.223  1.0235  0.2398  3.4086
  254TMC3    C1 3846   2.857   0.172  15.757  0.1492  0.5452 -0.4360
  254TMC3    C2 3847   2.737   0.112  15.782 -0.7607 -0.1749 -0.0852
  254TMC3    C3 3848   2.710   0.069  15.907 -0.5948  0.0751 -0.0071
  254TMC3    C4 3849   2.955   0.181  15.852 -0.2958  0.1289  0.6028
  254TMC3    C5 3850   2.925   0.120  15.971  0.3330  0.4354  0.9053
  254TMC3    C6 3851   2.807   0.064  15.999  0.0122 -0.0131 -0.4550
  254TMC3     C 3852   2.863   0.256  15.631  0.0763  0.1506  0.4456
  254TMC3     O 3853   2.760   0.278  15.566  0.3679  0.2950 -0.0613
  254TMC3     H 3854   2.660   0.114  15.706  1.1987 -1.4043 -2.1230
  254TMC3    H1 3855   3.050   0.233  15.843 -0.4969  0.2371 -0.9839
  254TMC3    H2 3856   2.786   0.018  16.094 -1.7681  0.1659 -0.7523
  254TMC3    C7 3857   3.024   0.101  16.072  0.2852  0.0951 -0.3555
  254TMC3    C8 3858   2.580   0.097  15.971 -0.0289 -0.9119  0.5903
  254TMC3    O1 3859   2.993   0.036  16.173  0.0044 -0.3853 -0.4379
  254TMC3    O2 3860   2.575   0.091  16.093 -0.1556 -0.5727 -0.2028
  255MPD2     C 3861   1.387   2.147  10.167  0.0102  0.3358  0.2969
  255MPD2    C1 3862   1.481   2.214  10.242 -1.0506 -0.1247  0.7990
  255MPD2    C2 3863   1.604   2.161  10.268 -0.9917 -0.3613 -0.6515
  255MPD2    C3 3864   1.630   2.045  10.195  0.2937 -0.3122  0.1180
  255MPD2    C4 3865   1.541   1.983  10.113  0.2129 -0.2587 -0.8102
  255MPD2    C5 3866   1.416   2.032  10.102  0.5920  0.2218 -0.0544
  255MPD2     H 3867   1.679   2.221  10.319 -2.3713  0.5660  0.2874
  255MPD2    H1 3868   1.570   1.889  10.066 -2.4637 -1.4395 -0.1064
  255MPD2    H2 3869   1.286   2.182  10.153  0.3173  1.0990 -0.0100
  255MPD2    H3 3870   1.330   1.989  10.051  0.6435  1.3216 -1.0685
  255MPD2     N 3871   1.761   1.989  10.198 -0.2514  0.6738  0.0852
  255MPD2    H5 3872   1.786   1.934  10.117 -2.1347  0.6293 -0.4560
  255MPD2    N1 3873   1.448   2.343  10.286  0.8221  0.5247 -0.5375
  255MPD2    H7 3874   1.357   2.385  10.269  0.4159 -0.7657 -1.5171
  256TMC3    C1 3875   1.462   2.565  10.360  0.4133  0.5854 -0.1114
  256TMC3    C2 3876   1.498   2.652  10.459 -0.6464 -0.4577 -0.0287
  256TMC3    C3 3877   1.482   2.784  10.425 -0.4757  0.9906  1.0114
  256TMC3    C4 3878   1.390   2.603  10.249  0.8699 -0.3940  0.2711
  256TMC3    C5 3879   1.369   2.740  10.231  0.2796 -0.7848  0.2060
  256TMC3    C6 3880   1.409   2.836  10.323 -0.2852  0.1144  0.7381
  256TMC3     C 3881   1.523   2.430  10.367 -0.5567  0.2867  0.2606
  256TMC3     O 3882   1.620   2.407  10.431  0.0511  0.1227 -0.0127
  256TMC3     H 3883   1.548   2.618  10.549  2.8880 -2.1618 -2.6374
  256TMC3    H1 3884   1.370   2.536  10.166 -1.2905  1.0522 -0.3469
  256TMC3    H2 3885   1.410   2.942  10.305 -1.4735 -0.3492 -2.0152
  256TMC3    C7 3886   1.294   2.789  10.115  0.0605  1.1060  0.3052
  256TMC3    C8 3887   1.565   2.871  10.507 -0.4344  0.7031 -1.2317
  256TMC3    O1 3888   1.296   2.709  10.026 -0.5062  0.4220 -0.1481
  256TMC3    O2 3889   1.658   2.824  10.571  0.1967 -0.0092 -0.0042
  257MPD2     C 3890   0.523   0.630  12.988 -0.6202 -0.1899  0.5669
  257MPD2    C1 3891   0.477   0.535  12.902 -0.0216  0.1745  0.3167
  257MPD2    C2 3892   0.450   0.408  12.949 -0.6704 -0.1237  0.1301
  257MPD2    C3 3893   0.461   0.381  13.082  0.0221  0.0416  0.6136
  257MPD2    C4 3894   0.496   0.481  13.172 -0.1727 -0.0573  0.8736
  257MPD2    C5 3895   0.529   0.604  13.124 -0.1468  0.2174 -0.4653
  257MPD2     H 3896   0.429   0.325  12.882  0.6685  0.9034 -1.5695
  257MPD2    H1 3897   0.499   0.472  13.280 -0.3931  1.3775  0.9913
  257MPD2    H2 3898   0.552   0.727  12.952 -0.0731  0.7992  3.6396
  257MPD2    H3 3899   0.569   0.675  13.196  0.7911 -0.0860 -0.6835
  257MPD2     N 3900   0.412   0.251  13.123  0.0422  0.9330 -0.0163
  257MPD2    H5 3901   0.397   0.186  13.046 -0.5218  0.8698  0.1490
  257MPD2    N1 3902   0.480   0.559  12.765  0.4930  0.6937 -0.0736
  257MPD2    H7 3903   0.527   0.642  12.731  0.6403  1.1489  1.2147
  258TMC3    C1 3904   0.346   0.074  13.254 -0.2022 -0.1832  0.0062
  258TMC3    C2 3905   0.245   0.045  13.164  0.0323 -1.0983 -1.2134
  258TMC3    C3 3906   0.137   4.693  13.207  0.8429 -0.3498  0.0127
  258TMC3    C4 3907   0.355   0.014  13.374 -0.2588  0.2580 -0.7877
  258TMC3    C5 3908   0.250   4.661  13.412  0.1299 -0.1132 -0.2714
  258TMC3    C6 3909   0.142   4.636  13.330 -0.1449 -0.5778  0.4779
  258TMC3     C 3910   0.401   0.200  13.249  0.1532  0.2322  0.0560
  258TMC3     O 3911   0.450   0.247  13.349  0.4038  0.4557  0.6620
  258TMC3     H 3912   0.243   0.087  13.064 -0.0089 -1.6270 -1.4322
  258TMC3    H1 3913   0.442   0.020  13.438 -0.8797 -5.7691  0.6347
  258TMC3    H2 3914   0.073   4.555  13.349  0.1470 -1.1236 -0.7433
  258TMC3    C7 3915   0.241   4.611  13.549  0.2215 -0.4617  0.2446
  258TMC3    C8 3916   0.011   4.709  13.135  0.1040 -0.8649 -0.4327
  258TMC3    O1 3917   0.129   4.589  13.584  0.1466 -0.3086  0.0656
  258TMC3    O2 3918   0.015   0.008  13.013  0.0861 -0.5019  1.0004
  259MPD2     C 3919   3.744   1.774   1.106  0.0631 -0.1395  0.0879
  259MPD2    C1 3920   3.860   1.705   1.123  0.4995  0.2568 -0.2781
  259MPD2    C2 3921   3.965   1.719   1.029  0.5513  0.0246  0.3055
  259MPD2    C3 3922   3.938   1.806   0.924 -0.1981 -0.3234 -0.2912
  259MPD2    C4 3923   3.825   1.873   0.915 -0.1328 -0.0701  0.3262
  259MPD2    C5 3924   3.724   1.862   1.005  0.4708  0.1125  0.2758
  259MPD2     H 3925   4.052   1.655   1.043  0.5790  0.2713  1.2460
  259MPD2    H1 3926   3.802   1.924   0.823 -0.9031 -1.6526 -0.3445
  259MPD2    H2 3927   3.662   1.754   1.174 -2.1392  0.5789 -2.3397
  259MPD2    H3 3928   3.623   1.896   0.988 -0.1010 -1.3521  0.7396
  259MPD2     N 3929   4.045   1.807   0.832 -0.4871  0.6947  0.1548
  259MPD2    H5 3930   4.114   1.734   0.846  0.5759  1.4707 -1.0195
  259MPD2    N1 3931   3.873   1.632   1.241 -0.6929 -0.1988 -0.3576
  259MPD2    H7 3932   3.788   1.610   1.292  0.2693  0.1464  1.3874
  260TMC3    C1 3933   4.145   1.846   0.621 -0.1596 -0.3385 -0.4037
  260TMC3    C2 3934   4.194   1.948   0.542  0.5247 -0.8015  0.0761
  260TMC3    C3 3935   4.286   1.920   0.443 -0.2428  0.4689  0.0879
  260TMC3    C4 3936   4.204   1.717   0.621 -0.5306 -0.1840  0.4883
  260TMC3    C5 3937   4.297   1.698   0.523  0.4645 -0.1972 -0.0389
  260TMC3    C6 3938   4.331   1.793   0.425 -0.5038  0.0912 -0.3814
  260TMC3     C 3939   4.044   1.883   0.715 -0.4659 -0.2078 -0.0287
  260TMC3     O 3940   3.950   1.948   0.665  0.1332  0.4216  0.6501
  260TMC3     H 3941   4.167   2.050   0.566  0.2772 -0.5778 -1.1543
  260TMC3    H1 3942   4.160   1.635   0.677 -1.5452  0.6226  0.8590
  260TMC3    H2 3943   4.403   1.760   0.351  0.1694  0.0652  0.2868
  260TMC3    C7 3944   4.350   1.562   0.507  0.3385 -0.0903  0.4434
  260TMC3    C8 3945   4.355   2.031   0.372 -0.6222 -0.3591  0.2701
  260TMC3    O1 3946   4.408   1.530   0.402  0.0704  0.2304 -0.1443
  260TMC3    O2 3947   4.301   2.137   0.362 -0.0544  0.3968 -0.3814
  261MPD2     C 3948   0.735   4.699  11.952  0.2956 -0.6530 -0.2539
  261MPD2    C1 3949   0.826   0.038  12.039 -0.1796 -0.1156  0.3264
  261MPD2    C2 3950   0.891   0.145  12.000  0.6941 -0.3395 -0.1534
  261MPD2    C3 3951   0.885   0.184  11.866  0.3509  0.9153  1.1519
  261MPD2    C4 3952   0.799   0.123  11.780  0.0737 -0.1606  0.0436
  261MPD2    C5 3953   0.723   0.024  11.826  0.0395 -0.2679 -0.0224
  261MPD2     H 3954   0.958   0.191  12.071  0.3047 -1.2535  0.8143
  261MPD2    H1 3955   0.779   0.155  11.678  3.1348  1.9260  0.1040
  261MPD2    H2 3956   0.672   4.616  11.982 -0.2032 -1.0107 -2.3331
  261MPD2    H3 3957   0.648   4.700  11.762  0.4391 -3.0970  1.5645
  261MPD2     N 3958   0.979   0.291  11.825  0.8087 -0.4971 -0.0987
  261MPD2    H5 3959   1.041   0.331  11.894  0.0580  1.1068 -0.3638
  261MPD2    N1 3960   0.844   0.001  12.171 -0.1459 -0.2096 -0.4237
  261MPD2    H7 3961   0.923   0.041  12.221 -0.7523  0.9872 -0.4324
  262TMC3    C1 3962   1.115   0.433  11.674 -0.3179 -0.0845 -0.4925
  262TMC3    C2 3963   1.128   0.541  11.759  0.9395  0.8568  0.5349
  262TMC3    C3 3964   1.225   0.634  11.735 -0.2236  0.2116 -0.5239
  262TMC3    C4 3965   1.173   0.426  11.549 -0.0029 -0.1529  0.6106
  262TMC3    C5 3966   1.272   0.520  11.530  1.3681 -0.1417 -0.0726
  262TMC3    C6 3967   1.300   0.620  11.622 -1.2489  0.8772  0.5716
  262TMC3     C 3968   1.006   0.333  11.699  0.3297 -0.1000 -0.0600
  262TMC3     O 3969   0.958   0.281  11.600 -0.4668 -0.0903 -0.6077
  262TMC3     H 3970   1.064   0.543  11.846 -2.9727  0.3887 -2.3419
  262TMC3    H1 3971   1.151   0.348  11.476  1.6689 -1.2036  1.2145
  262TMC3    H2 3972   1.371   0.699  11.599 -0.3368 -0.6090 -1.7682
  262TMC3    C7 3973   1.306   0.534  11.386 -0.4493 -0.2773 -0.4286
  262TMC3    C8 3974   1.205   0.771  11.770  0.4182  0.5015 -0.4258
  262TMC3    O1 3975   1.278   0.441  11.311 -0.0402 -0.9295  0.2531
  262TMC3    O2 3976   1.294   0.849  11.742  0.0945 -0.2774  0.0394
  263MPD2     C 3977   2.180   3.977  11.016 -0.5232 -0.1777 -0.2752
  263MPD2    C1 3978   2.229   4.098  11.070 -0.0094  0.1740  0.0318
  263MPD2    C2 3979   2.174   4.214  11.033  0.3403  0.0331 -0.0299
  263MPD2    C3 3980   2.079   4.217  10.935 -0.7488  0.1159  0.1378
  263MPD2    C4 3981   2.032   4.098  10.880  0.8337  0.0747 -0.3000
  263MPD2    C5 3982   2.080   3.978  10.924 -0.4581  0.2929  0.0792
  263MPD2     H 3983   2.221   4.305  11.070  3.5593 -2.1311  1.1941
  263MPD2    H1 3984   1.967   4.090  10.794 -0.0427 -0.6493  0.4270
  263MPD2    H2 3985   2.210   3.883  11.062  1.0879  0.9164  0.8931
  263MPD2    H3 3986   2.054   3.884  10.876  3.0716 -0.7722  0.2884
  263MPD2     N 3987   2.029   4.345  10.901 -0.5706 -0.4779 -0.4890
  263MPD2    H5 3988   2.058   4.421  10.962  2.7325 -3.1503  1.2924
  263MPD2    N1 3989   2.326   4.088  11.173 -0.3065 -0.4258  0.2349
  263MPD2    H7 3990   2.379   4.002  11.179  1.6037  0.8222  1.3515
  264TMC3    C1 3991   1.958   4.510  10.737  0.0848 -0.5691 -0.6330
  264TMC3    C2 3992   1.937   4.606  10.829  0.3118  0.1173  0.4812
  264TMC3    C3 3993   1.964   0.014  10.792 -0.2391 -0.1308  0.3312
  264TMC3    C4 3994   2.002   4.528  10.608 -0.1281  0.0026  0.4383
  264TMC3    C5 3995   2.025   4.661  10.579  0.3674 -0.3427 -0.2574
  264TMC3    C6 3996   2.005   0.042  10.664 -0.2933 -0.2505  0.4800
  264TMC3     C 3997   1.977   4.371  10.776 -0.3500 -0.6540  0.2196
  264TMC3     O 3998   1.941   4.287  10.697  0.7337 -0.5747 -0.2106
  264TMC3     H 3999   1.893   4.591  10.927  0.8330 -1.5766  0.4431
  264TMC3    H1 4000   2.035   4.450  10.540 -0.5921 -0.2432  0.5000
  264TMC3    H2 4001   2.040   0.142  10.640 -2.0181  0.5122  1.1748
  264TMC3    C7 4002   2.089   4.687  10.448 -0.0437  0.4058  0.8185
  264TMC3    C8 4003   2.037   0.094  10.890  0.6124  0.1782  0.4460
  264TMC3    O1 4004   2.157   4.594  10.409  0.7104  0.2238  0.5162
  264TMC3    O2 4005   2.143   0.141  10.845 -0.3382 -0.3869 -0.0188
  265MPD2     C 4006   4.216   4.648  15.403 -0.6476  0.7810  0.6819
  265MPD2    C1 4007   4.178   0.016  15.317 -0.1783 -0.4671 -0.5861
  265MPD2    C2 4008   4.232   0.021  15.192 -0.8560 -0.0715  0.1726
  265MPD2    C3 4009   4.325   4.649  15.149  0.1109  0.0781 -0.8231
  265MPD2    C4 4010   4.371   4.563  15.241  0.2358  0.6935  0.0830
  265MPD2    C5 4011   4.321   4.564  15.372  0.4722 -0.7866 -0.0558
  265MPD2     H 4012   4.193   0.091  15.118 -1.3499 -0.8499 -0.2983
  265MPD2    H1 4013   4.451   4.492  15.221  1.5375  2.5501 -1.2598
  265MPD2    H2 4014   4.172   4.635  15.501 -1.8270 -2.0487 -0.2221
  265MPD2    H3 4015   4.357   4.498  15.450 -0.4876  0.5200  1.4789
  265MPD2     N 4016   4.383   4.653  15.024 -0.8370  0.5127  0.1461
  265MPD2    H5 4017   4.432   4.566  15.005 -4.5445 -1.5338  0.0318
  265MPD2    N1 4018   4.081   0.111  15.353  0.4237  0.1512 -0.6206
  265MPD2    H7 4019   4.056   0.184  15.287  1.2381 -0.0433 -1.1377
  266TMC3    C1 4020   3.914   0.226  15.492  0.2903  0.0957  0.3362
  266TMC3    C2 4021   3.852   0.233  15.613 -0.7295 -0.1112  0.3742
  266TMC3    C3 4022   3.802   0.351  15.657  0.0123  0.0411 -0.8998
  266TMC3    C4 4023   3.921   0.334  15.408  0.6625 -0.3695 -0.2259
  266TMC3    C5 4024   3.850   0.446  15.451  0.7658  0.0729 -0.2147
  266TMC3    C6 4025   3.798   0.459  15.574 -1.4482  0.1756  0.0715
  266TMC3     C 4026   4.001   0.110  15.468 -0.1853  0.5199  0.9144
  266TMC3     O 4027   3.980   0.013  15.544 -0.5819 -0.5829 -0.2028
  266TMC3     H 4028   3.854   0.146  15.678  0.6728  0.3527  0.9491
  266TMC3    H1 4029   3.955   0.331  15.305  0.0945  0.8774 -0.4506
  266TMC3    H2 4030   3.762   0.555  15.609 -1.3513  0.0952  0.3877
  266TMC3    C7 4031   3.801   0.533  15.345 -0.2331 -0.5041 -0.2499
  266TMC3    C8 4032   3.744   0.368  15.789 -0.7954 -0.5048 -0.2591
  266TMC3    O1 4033   3.851   0.512  15.241  0.0625  0.4812 -0.2212
  266TMC3    O2 4034   3.701   0.265  15.841  0.6691 -0.2763  0.0306
  267MPD2     C 4035   2.207   0.763  17.456  0.6670 -0.1461 -0.2668
  267MPD2    C1 4036   2.259   0.870  17.391  0.2388  0.3131 -0.6191
  267MPD2    C2 4037   2.181   0.949  17.303  0.2353 -0.5369 -0.2601
  267MPD2    C3 4038   2.047   0.922  17.293  0.3843 -0.4317 -0.0377
  267MPD2    C4 4039   1.995   0.818  17.360  0.3193  0.1134 -0.0515
  267MPD2    C5 4040   2.079   0.733  17.437  0.7870 -0.4007  0.2417
  267MPD2     H 4041   2.218   1.037  17.252  0.1816  0.1516  0.8689
  267MPD2    H1 4042   1.891   0.793  17.344 -0.3328  1.5319  1.9832
  267MPD2    H2 4043   2.262   0.702  17.527  2.8136  1.4805 -0.5474
  267MPD2    H3 4044   2.043   0.642  17.484  0.2481  0.3941  1.3741
  267MPD2     N 4045   1.955   1.004  17.221 -0.2815 -0.4016  0.1501
  267MPD2    H5 4046   1.860   0.969  17.219 -0.3340 -0.3100  1.1711
  267MPD2    N1 4047   2.390   0.904  17.422  0.1408  0.3094 -0.1224
  267MPD2    H7 4048   2.443   0.835  17.474  2.1132  0.1662 -2.3059
  268TMC3    C1 4049   2.610   0.992  17.386 -0.1894 -0.4340  0.5502
  268TMC3    C2 4050   2.695   1.060  17.309 -0.2621 -0.1872 -0.4528
  268TMC3    C3 4051   2.828   1.073  17.348  0.9787  0.3769 -0.2674
  268TMC3    C4 4052   2.649   0.942  17.511  0.6458 -0.7302  0.1551
  268TMC3    C5 4053   2.777   0.970  17.553 -0.4132 -0.1696 -0.0381
  268TMC3    C6 4054   2.869   1.025  17.465 -0.6581  0.3867  0.5984
  268TMC3     C 4055   2.467   1.009  17.359  0.6856 -0.2837 -0.6475
  268TMC3     O 4056   2.433   1.086  17.271  0.3886  0.1351 -0.2533
  268TMC3     H 4057   2.654   1.101  17.217  1.7880  0.4319 -1.0897
  268TMC3    H1 4058   2.595   0.877  17.580 -0.3928  2.1846  2.0876
  268TMC3    H2 4059   2.968   1.038  17.506 -0.2812  1.3640 -0.6449
  268TMC3    C7 4060   2.791   0.962   0.006  0.4846 -0.4926  0.6561
  268TMC3    C8 4061   2.894   1.197  17.303 -0.1713  0.1654  0.5352
  268TMC3    O1 4062   2.712   0.894   0.064  0.2800 -0.7564  0.0319
  268TMC3    O2 4063   3.011   1.198  17.330  0.1496 -1.1600  0.2013
  269MPD2     C 4064   2.098   0.532  15.428  0.0616 -0.6050  0.7622
  269MPD2    C1 4065   1.958   0.545  15.416 -0.2371  0.7484 -0.1323
  269MPD2    C2 4066   1.905   0.670  15.395  0.0882 -0.4773  0.4358
  269MPD2    C3 4067   1.988   0.782  15.373 -0.3685 -0.3395 -0.0599
  269MPD2    C4 4068   2.122   0.764  15.387  0.2906 -0.3846 -0.1482
  269MPD2    C5 4069   2.176   0.639  15.402 -0.4195  0.5008  0.1520
  269MPD2     H 4070   1.799   0.693  15.402 -0.3520 -2.5880  0.6829
  269MPD2    H1 4071   2.191   0.847  15.385  0.5932 -0.6023  1.8733
  269MPD2    H2 4072   2.158   0.444  15.448  1.2811  0.0996  0.2332
  269MPD2    H3 4073   2.281   0.637  15.428 -0.4396 -1.9141  0.0537
  269MPD2     N 4074   1.928   0.899  15.355 -0.5563 -0.2374  0.1256
  269MPD2    H5 4075   1.826   0.899  15.359 -0.7261  0.6146 -3.9797
  269MPD2    N1 4076   1.880   0.437  15.447  0.2340 -0.3880 -0.4335
  269MPD2    H7 4077   1.920   0.346  15.469  1.7584  0.3998 -0.0001
  270TMC3    C1 4078   1.677   0.307  15.459 -0.1874  0.2573 -0.0632
  270TMC3    C2 4079   1.560   0.282  15.393  0.5975 -0.0864  0.1700
  270TMC3    C3 4080   1.533   0.152  15.365 -0.6911  0.0622 -0.3782
  270TMC3    C4 4081   1.758   0.204  15.500  0.5204 -0.1356 -0.0428
  270TMC3    C5 4082   1.714   0.074  15.475 -0.1185  0.7152  0.3317
  270TMC3    C6 4083   1.608   0.042  15.401  0.4237  0.1661 -0.5735
  270TMC3     C 4084   1.739   0.439  15.449  0.0174 -0.2995  0.9965
  270TMC3     O 4085   1.658   0.515  15.401 -0.1197  0.4663 -0.2439
  270TMC3     H 4086   1.496   0.357  15.348  0.4861  0.2604  0.9007
  270TMC3    H1 4087   1.850   0.223  15.554 -0.6110 -0.3207  1.9546
  270TMC3    H2 4088   1.576   4.670  15.360  1.0423 -0.7059  0.9738
  270TMC3    C7 4089   1.808   4.695  15.507 -0.1917 -0.2756 -0.1618
  270TMC3    C8 4090   1.420   0.130  15.275  0.2228 -0.0411  1.0397
  270TMC3    O1 4091   1.926   0.001  15.496 -0.0742 -0.3501 -0.3185
  270TMC3    O2 4092   1.327   0.208  15.282 -0.0803 -0.7540 -0.1089
  271MPD2     C 4093   1.029   0.353  13.539  0.3922  0.4069  0.7831
  271MPD2    C1 4094   0.996   0.344  13.676  0.4655  0.2241 -0.6328
  271MPD2    C2 4095   0.868   0.380  13.714  0.1647  0.3964 -0.6862
  271MPD2    C3 4096   0.779   0.442  13.623 -0.0457  0.7665  0.2333
  271MPD2    C4 4097   0.819   0.452  13.496  0.1708  0.7283 -0.5889
  271MPD2    C5 4098   0.939   0.405  13.451 -0.2610 -0.3474  0.4526
  271MPD2     H 4099   0.844   0.372  13.820  0.2928 -0.5722 -0.7327
  271MPD2    H1 4100   0.756   0.508  13.428  1.9882  1.8851 -1.3279
  271MPD2    H2 4101   1.120   0.310  13.502 -1.0226  0.0221 -2.2102
  271MPD2    H3 4102   0.971   0.397  13.347  0.5230  1.2843  0.5707
  271MPD2     N 4103   0.644   0.485  13.656 -0.5900  0.4297  0.0368
  271MPD2    H5 4104   0.588   0.527  13.582  0.6521  2.8080  0.4323
  271MPD2    N1 4105   1.085   0.300  13.775  0.1974  0.5884 -0.1483
  271MPD2    H7 4106   1.046   0.280  13.866  2.5328 -1.3636  0.4084
  272TMC3    C1 4107   1.273   0.216  13.876  0.4487 -0.3569 -0.1574
  272TMC3    C2 4108   1.405   0.178  13.881  1.2057 -0.0892  0.6126
  272TMC3    C3 4109   1.462   0.120  13.994 -0.2341 -0.1891 -0.0178
  272TMC3    C4 4110   1.200   0.198  13.990 -0.0702 -0.7804 -0.5952
  272TMC3    C5 4111   1.262   0.160  14.108  0.5834 -0.4176  0.7742
  272TMC3    C6 4112   1.395   0.124  14.116 -0.4482 -0.0933  0.3519
  272TMC3     C 4113   1.224   0.277  13.756  0.1570  0.4138 -0.1600
  272TMC3     O 4114   1.294   0.319  13.668  0.0248  0.7974 -0.6828
  272TMC3     H 4115   1.472   0.201  13.799  2.3786 -2.9336  0.7621
  272TMC3    H1 4116   1.092   0.201  13.989 -0.0039  1.5414 -0.6650
  272TMC3    H2 4117   1.442   0.096  14.209  0.0931 -1.6777 -0.4059
  272TMC3    C7 4118   1.191   0.177  14.232  0.4257 -0.2385 -0.1002
  272TMC3    C8 4119   1.606   0.095  13.993  0.6478  0.4398 -0.3916
  272TMC3    O1 4120   1.075   0.194  14.214 -0.4227 -0.1896  0.0678
  272TMC3    O2 4121   1.663   0.148  13.898  0.0180  0.5653  0.5161
  273MPD2     C 4122   2.977   3.104  11.583 -0.0811  0.2039 -0.2004
  273MPD2    C1 4123   3.021   3.230  11.569  0.1181  0.0922  0.4099
  273MPD2    C2 4124   3.045   3.277  11.438 -0.5058  0.1926 -0.8580
  273MPD2    C3 4125   3.031   3.191  11.323 -0.4027 -0.1874  0.8677
  273MPD2    C4 4126   2.993   3.061  11.344 -0.0570 -0.8887 -0.2510
  273MPD2    C5 4127   2.960   3.028  11.474  0.1029 -0.2724 -0.0090
  273MPD2     H 4128   3.069   3.383  11.434 -1.3384  0.3623 -1.3477
  273MPD2    H1 4129   2.994   2.987  11.264 -1.1837 -1.1023 -0.0635
  273MPD2    H2 4130   2.956   3.057  11.679 -2.2435  4.1501  1.2682
  273MPD2    H3 4131   2.927   2.926  11.488  0.5399 -0.2964  0.8210
  273MPD2     N 4132   3.072   3.242  11.193 -0.4828  1.1544 -0.1693
  273MPD2    H5 4133   3.063   3.180  11.113 -0.0506  1.0420 -0.1308
  273MPD2    N1 4134   3.053   3.299  11.687  0.5854  0.2507  0.3447
  273MPD2    H7 4135   3.020   3.255  11.772  2.2539  2.1577  1.9712
  274TMC3    C1 4136   3.141   3.408  11.038  0.2637  0.1409 -0.1273
  274TMC3    C2 4137   3.031   3.373  10.968 -0.4553 -0.0575 -0.6939
  274TMC3    C3 4138   2.985   3.466  10.874 -0.2758 -0.3603 -0.1155
  274TMC3    C4 4139   3.204   3.527  11.015 -1.0306 -0.0578  0.3827
  274TMC3    C5 4140   3.150   3.619  10.927  0.3500  0.8604  0.1718
  274TMC3    C6 4141   3.044   3.584  10.848  0.2955  0.1903 -0.5409
  274TMC3     C 4142   3.136   3.365  11.179 -0.0104 -1.0897 -0.4781
  274TMC3     O 4143   3.176   3.446  11.256 -0.6877 -0.0705 -0.5992
  274TMC3     H 4144   2.986   3.275  10.981 -0.7150  0.2754  0.9287
  274TMC3    H1 4145   3.285   3.549  11.084 -0.0726 -2.2562 -0.0564
  274TMC3    H2 4146   2.988   3.665  10.802  0.6158  0.8443  0.2166
  274TMC3    C7 4147   3.147   3.759  10.972 -0.3514  0.5128 -0.4159
  274TMC3    C8 4148   2.846   3.445  10.837  0.2142 -0.2310  0.1489
  274TMC3    O1 4149   3.050   3.835  10.945 -0.1328  0.6170  0.5743
  274TMC3    O2 4150   2.805   3.336  10.880 -0.5885 -0.1729 -0.0155
  275MPD2     C 4151   2.504   1.473  14.272  0.0671  0.5665 -0.0480
  275MPD2    C1 4152   2.394   1.549  14.312 -0.1603  0.4253 -0.3752
  275MPD2    C2 4153   2.273   1.509  14.267 -0.0248 -1.0304 -0.5432
  275MPD2    C3 4154   2.252   1.400  14.197 -0.0606  0.0003 -0.1776
  275MPD2    C4 4155   2.358   1.325  14.153 -0.8841 -0.4445  0.5955
  275MPD2    C5 4156   2.488   1.356  14.198 -0.6600  0.3948 -0.5819
  275MPD2     H 4157   2.189   1.568  14.303 -1.7607 -3.7832 -0.1413
  275MPD2    H1 4158   2.359   1.228  14.104  1.4705  1.1140 -2.4596
  275MPD2    H2 4159   2.601   1.485  14.318  0.8094  2.9895 -2.2627
  275MPD2    H3 4160   2.574   1.293  14.175 -1.3938 -1.0077  0.4994
  275MPD2     N 4161   2.122   1.345  14.167  0.1159 -0.1216  0.4751
  275MPD2    H5 4162   2.115   1.258  14.115  1.2478 -0.1388  0.3558
  275MPD2    N1 4163   2.400   1.659  14.393  0.6146 -0.0910  0.0626
  275MPD2    H7 4164   2.316   1.694  14.437 -0.4270 -1.0273 -1.1762
  276TMC3    C1 4165   2.508   1.729  14.595 -0.1145  0.4909 -0.1080
  276TMC3    C2 4166   2.382   1.719  14.647 -0.1424  0.0593 -0.2859
  276TMC3    C3 4167   2.375   1.697  14.780 -0.2030  0.1579 -0.1075
  276TMC3    C4 4168   2.620   1.729  14.673  0.4827 -0.4921 -0.3954
  276TMC3    C5 4169   2.606   1.718  14.807  0.2111  0.1169  0.2648
  276TMC3    C6 4170   2.481   1.710  14.860 -0.0473  0.0524  0.5607
  276TMC3     C 4171   2.523   1.705  14.448 -0.0695 -0.3083 -0.0463
  276TMC3     O 4172   2.641   1.683  14.419  0.6529  0.0163  0.0615
  276TMC3     H 4173   2.292   1.730  14.589 -0.6970 -0.9147  0.3878
  276TMC3    H1 4174   2.707   1.762  14.618  0.8447 -0.0559  0.4342
  276TMC3    H2 4175   2.467   1.693  14.966  1.5617  1.0808  0.9341
  276TMC3    C7 4176   2.710   1.770  14.891 -0.4383  0.1570 -0.0950
  276TMC3    C8 4177   2.280   1.596  14.814  0.3716  0.0539 -0.2583
  276TMC3    O1 4178   2.702   1.753  15.009  0.1536  0.2059  0.2449
  276TMC3    O2 4179   2.175   1.602  14.753  0.3391 -0.0349 -0.0077
  277MPD2     C 4180   4.050   0.318  13.141  0.3646 -0.2138  0.5680
  277MPD2    C1 4181   3.923   0.365  13.132  0.2914 -0.0381  0.1951
  277MPD2    C2 4182   3.846   0.352  13.243 -0.2140 -0.2077  0.1751
  277MPD2    C3 4183   3.884   0.287  13.356 -0.3006 -0.1577 -0.1797
  277MPD2    C4 4184   4.012   0.232  13.365  0.9451 -0.6497 -0.1950
  277MPD2    C5 4185   4.091   0.247  13.251 -0.0392  0.2029  0.9846
  277MPD2     H 4186   3.744   0.389  13.253  0.2924  0.7363  1.7296
  277MPD2    H1 4187   4.048   0.184  13.455  3.4675 -0.6124 -1.1838
  277MPD2    H2 4188   4.114   0.337  13.056  0.0651 -0.6220  0.2521
  277MPD2    H3 4189   4.193   0.211  13.246  0.0240  0.5598 -0.2067
  277MPD2     N 4190   3.793   0.285  13.466  0.5297 -0.2334  0.1718
  277MPD2    H5 4191   3.722   0.357  13.458  0.1584 -0.6796 -0.6130
  277MPD2    N1 4192   3.887   0.432  13.015 -0.3005 -0.0637  0.5228
  277MPD2    H7 4193   3.962   0.454  12.951  0.0169 -3.5829 -0.2978
  278TMC3    C1 4194   3.681   0.168  13.629 -0.4451  0.5026  0.2190
  278TMC3    C2 4195   3.630   0.044  13.653  0.1237 -0.7759  0.0909
  278TMC3    C3 4196   3.521   0.035  13.727 -0.4828 -0.2681  0.0562
  278TMC3    C4 4197   3.616   0.283  13.671  0.8401  0.2729  0.1327
  278TMC3    C5 4198   3.493   0.263  13.732 -0.8855 -0.4533 -0.2484
  278TMC3    C6 4199   3.437   0.139  13.762  0.1567 -0.8700 -0.2905
  278TMC3     C 4200   3.804   0.176  13.552 -0.2759  0.1870  0.1795
  278TMC3     O 4201   3.868   0.072  13.540 -0.0496 -0.4054  0.0321
  278TMC3     H 4202   3.684   4.682  13.610  2.7367 -0.2208  2.3102
  278TMC3    H1 4203   3.656   0.383  13.658  0.2446  0.2498 -1.8550
  278TMC3    H2 4204   3.350   0.119  13.824  0.9617  0.3198  1.2309
  278TMC3    C7 4205   3.412   0.377  13.757 -0.5233  0.2437 -0.4101
  278TMC3    C8 4206   3.466   4.629  13.748 -0.0997 -0.1786 -0.1331
  278TMC3    O1 4207   3.467   0.483  13.784  0.5741  0.2866 -0.0605
  278TMC3    O2 4208   3.393   4.613  13.844  0.1956 -0.0205 -0.0178
  279MPD2     C 4209   3.522   4.182   0.158  0.3208 -1.6018  0.0578
  279MPD2    C1 4210   3.473   4.303   0.182 -0.4726  0.1470 -0.1500
  279MPD2    C2 4211   3.537   4.410   0.132 -0.1570  1.0307  0.0788
  279MPD2    C3 4212   3.647   4.401   0.047  0.1087  0.2826 -0.0303
  279MPD2    C4 4213   3.691   4.272   0.022  0.5151 -0.0716  0.2183
  279MPD2    C5 4214   3.627   4.168   0.072  0.5711 -0.2803  0.0055
  279MPD2     H 4215   3.495   4.509   0.149  0.7412  1.6868 -1.4516
  279MPD2    H1 4216   3.773   4.247  17.649 -0.7246  0.6333 -1.6149
  279MPD2    H2 4217   3.487   4.093   0.208 -0.3210 -1.5434 -0.2987
  279MPD2    H3 4218   3.664   4.066   0.062 -2.1263 -1.3042  0.4610
  279MPD2     N 4219   3.722   4.512  17.689  0.0682  0.0011  0.3140
  279MPD2    H5 4220   3.788   4.488  17.615 -2.1289 -1.8149 -1.0275
  279MPD2    N1 4221   3.360   4.310   0.264  0.0291 -0.3457  0.5854
  279MPD2    H7 4222   3.313   4.221   0.283 -0.7717 -0.3324 -1.3539
  280TMC3    C1 4223   3.154   4.411   0.287 -0.1743 -0.4406 -0.0152
  280TMC3    C2 4224   3.096   4.324   0.193  0.8823  0.3275  0.0135
  280TMC3    C3 4225   2.987   4.365   0.123 -0.0327  0.0798  0.3949
  280TMC3    C4 4226   3.094   4.532   0.325  0.2838 -0.2599  0.0257
  280TMC3    C5 4227   2.979   4.562   0.258 -0.3088 -0.5557 -0.3120
  280TMC3    C6 4228   2.927   4.486   0.154 -0.2659 -0.5810  0.6400
  280TMC3     C 4229   3.297   4.419   0.303  0.8699  0.1314  0.1004
  280TMC3     O 4230   3.345   4.525   0.339 -0.3845  0.0844 -0.0549
  280TMC3     H 4231   3.141   4.229   0.164 -0.5666 -0.3693  0.0060
  280TMC3    H1 4232   3.133   4.607   0.393  0.2078  0.0342 -0.2523
  280TMC3    H2 4233   2.848   4.516   0.086 -0.5552  0.2263  1.3258
  280TMC3    C7 4234   2.933   4.693   0.266  0.3305 -0.1282 -0.1168
  280TMC3    C8 4235   2.940   4.289   0.004 -0.5654 -0.6274 -0.4833
  280TMC3    O1 4236   3.020   0.050   0.285  0.0079 -0.4041 -0.3682
  280TMC3    O2 4237   2.968   4.173   0.009 -0.5175  0.2109  0.7871
  281TMC3    C1 4238   2.476   0.628  13.134 -0.0206  1.0884  0.2685
  281TMC3    C2 4239   2.373   0.643  13.040 -0.0814 -0.2445  0.0553
  281TMC3    C3 4240   2.303   0.532  13.008 -0.0031 -0.2533  0.2248
  281TMC3    C4 4241   2.508   0.515  13.199  0.7146  0.0070 -0.2187
  281TMC3    C5 4242   2.416   0.411  13.183 -0.4513 -0.2294 -0.1958
  281TMC3    C6 4243   2.313   0.417  13.091  0.2274 -0.0326  0.4857
  281TMC3     C 4244   2.507   0.744  13.221 -0.1647 -0.2807  0.4114
  281TMC3     O 4245   2.621   0.754  13.262 -0.3661 -0.0498  0.1079
  281TMC3     H 4246   2.331   0.737  13.006  2.4078  1.3053  1.1997
  281TMC3    H1 4247   2.578   0.512  13.282  0.7157 -1.5923 -0.2677
  281TMC3    H2 4248   2.253   0.332  13.061 -0.2901  1.4609 -2.8249
  281TMC3    C7 4249   2.441   0.289  13.261  1.0005  0.0961  0.7975
  281TMC3    C8 4250   2.163   0.550  12.955 -0.0046 -0.8879  0.9493
  281TMC3    O1 4251   2.550   0.282  13.320  0.7188 -0.0039  0.3446
  281TMC3    O2 4252   2.073   0.471  12.989  0.0477 -0.4442  0.2180
  282MPD2     C 4253   3.735   2.070  14.631  0.5553 -0.5925  0.2119
  282MPD2    C1 4254   3.743   2.171  14.727 -0.2752  0.6153 -0.6601
  282MPD2    C2 4255   3.721   2.300  14.682 -0.6613 -0.6472  0.2460
  282MPD2    C3 4256   3.695   2.329  14.547 -0.2679 -0.1942  0.2850
  282MPD2    C4 4257   3.698   2.232  14.455 -0.7835 -0.3321  0.2334
  282MPD2    C5 4258   3.719   2.106  14.496  0.3487 -0.3890 -0.0624
  282MPD2     H 4259   3.724   2.376  14.759  0.2115 -0.9678  0.5222
  282MPD2    H1 4260   3.695   2.257  14.349 -2.0257  0.7360  0.5185
  282MPD2    H2 4261   3.742   1.967  14.662  1.4922 -0.4184  0.5792
  282MPD2    H3 4262   3.718   2.021  14.429  1.1065  0.2550 -0.9018
  282MPD2     N 4263   3.673   2.461  14.523 -0.3097  0.7739 -0.3007
  282MPD2    H5 4264   3.678   2.528  14.599 -0.3699  1.3886 -0.8321
  282MPD2    N1 4265   3.772   2.145  14.869  0.0657 -0.0078  0.0988
  282MPD2    H7 4266   3.768   2.221  14.937  2.5886  0.6973 -0.5561
  283TMC3    C1 4267   3.795   2.029  15.068  0.2838  0.3756  0.6650
  283TMC3    C2 4268   3.842   2.143  15.121  1.3505 -0.4259 -0.0847
  283TMC3    C3 4269   3.846   2.150  15.255 -0.6187  0.0350  0.3735
  283TMC3    C4 4270   3.735   1.931  15.138  0.0746 -0.1401 -1.1156
  283TMC3    C5 4271   3.721   1.950  15.271  0.1307 -0.2802  0.6690
  283TMC3    C6 4272   3.783   2.060  15.334  0.3673  0.7063  0.0725
  283TMC3     C 4273   3.788   2.023  14.928 -0.2194  0.2645 -0.6804
  283TMC3     O 4274   3.796   1.908  14.880 -0.0380 -0.2425 -0.0835
  283TMC3     H 4275   3.887   2.221  15.059  1.4338 -0.6573 -0.3151
  283TMC3    H1 4276   3.729   1.836  15.087  0.7962 -0.8768  0.1445
  283TMC3    H2 4277   3.785   2.055  15.442  0.0547 -0.6950  0.0134
  283TMC3    C7 4278   3.651   1.852  15.361  0.0444  0.2257  0.8711
  283TMC3    C8 4279   3.947   2.235  15.314 -0.2726  0.0281 -0.3635
  283TMC3    O1 4280   3.671   1.862  15.483 -0.8069  0.7456 -0.0685
  283TMC3    O2 4281   3.998   2.182  15.411  0.2034  0.2188  0.3372
  284MPD2     C 4282   2.276   0.929  12.087 -0.4511 -0.2159  0.2565
  284MPD2    C1 4283   2.289   0.947  11.949 -0.0960  0.2611 -0.0325
  284MPD2    C2 4284   2.254   0.833  11.870 -0.1028 -0.7539  0.3219
  284MPD2    C3 4285   2.177   0.731  11.918 -0.0099  0.0785 -0.3086
  284MPD2    C4 4286   2.161   0.725  12.055  0.0732  0.0547 -0.8451
  284MPD2    C5 4287   2.217   0.818  12.136 -0.2274  0.3327 -0.1696
  284MPD2     H 4288   2.271   0.837  11.763 -0.6581  2.0723  0.3526
  284MPD2    H1 4289   2.131   0.631  12.098 -1.2143 -0.0999 -2.1205
  284MPD2    H2 4290   2.309   1.002  12.160 -0.6542  1.1885 -1.0543
  284MPD2    H3 4291   2.212   0.815  12.244 -0.7984  0.3280 -0.1970
  284MPD2     N 4292   2.128   0.625  11.843 -0.3915 -0.2505  0.0394
  284MPD2    H5 4293   2.089   0.550  11.899 -1.2979 -2.3324 -3.3687
  284MPD2    N1 4294   2.352   1.059  11.887  0.5412 -0.0575 -0.3292
  284MPD2    H7 4295   2.361   1.051  11.786 -1.5310  4.4950 -0.8654
  285TMC3    C1 4296   2.472   1.242  11.845 -0.3631 -0.3977  0.0270
  285TMC3    C2 4297   2.449   1.221  11.709 -0.0958 -1.3455 -0.1544
  285TMC3    C3 4298   2.533   1.281  11.617  0.4221  0.2430 -0.1616
  285TMC3    C4 4299   2.567   1.330  11.890 -0.0644  0.2266  0.2821
  285TMC3    C5 4300   2.653   1.383  11.792 -0.4929  0.0815  0.4875
  285TMC3    C6 4301   2.635   1.362  11.655  0.0331 -0.1116  0.2114
  285TMC3     C 4302   2.406   1.164  11.950  0.8449  0.4551 -0.5872
  285TMC3     O 4303   2.405   1.205  12.065 -0.0746 -0.2614 -0.5568
  285TMC3     H 4304   2.364   1.163  11.675 -0.4523 -0.7199 -0.3367
  285TMC3    H1 4305   2.577   1.342  11.997  1.4589  2.5360 -0.1295
  285TMC3    H2 4306   2.708   1.409  11.590  0.3967 -2.0158 -0.7568
  285TMC3    C7 4307   2.733   1.497  11.830 -0.4343  0.5180 -0.1646
  285TMC3    C8 4308   2.525   1.231  11.485 -0.2084  0.4907  0.5339
  285TMC3    O1 4309   2.713   1.589  11.749 -0.3866  0.1292 -0.7976
  285TMC3    O2 4310   2.435   1.151  11.467 -0.1126  0.0959 -0.5462
  286MPD2     C 4311   2.701   4.548   2.219 -0.2838  0.8341 -0.3502
  286MPD2    C1 4312   2.635   4.464   2.136 -0.5107 -0.3453 -0.2241
  286MPD2    C2 4313   2.698   4.360   2.072  0.3481 -0.0925 -0.1063
  286MPD2    C3 4314   2.833   4.338   2.090  0.2200 -0.5605  0.6270
  286MPD2    C4 4315   2.901   4.412   2.184  0.3895 -0.4237 -0.7839
  286MPD2    C5 4316   2.833   4.514   2.244  0.0264 -0.2303 -0.3447
  286MPD2     H 4317   2.646   4.308   1.993 -0.3199  1.5780 -0.7744
  286MPD2    H1 4318   3.006   4.396   2.207  0.6966  3.3215  0.3854
  286MPD2    H2 4319   2.660   4.632   2.274 -0.5730 -0.1471  0.9281
  286MPD2    H3 4320   2.890   4.578   2.310 -0.0480 -0.1258 -0.3816
  286MPD2     N 4321   2.911   4.250   2.012  0.2712 -0.3464 -0.0647
  286MPD2    H5 4322   3.010   4.266   2.000 -0.0669  1.5065 -0.4883
  286MPD2    N1 4323   2.505   4.484   2.098 -0.1806  0.2773 -0.7785
  286MPD2    H7 4324   2.476   4.443   2.010 -0.5576 -0.9443 -0.0921
  287TMC3    C1 4325   2.964   4.089   1.856 -0.0344  0.5018  0.5233
  287TMC3    C2 4326   2.923   3.993   1.762 -0.5315  0.1664  1.0886
  287TMC3    C3 4327   3.021   3.920   1.702  0.4286 -0.0406  0.1029
  287TMC3    C4 4328   3.096   4.094   1.908 -0.5360 -0.6492 -0.5082
  287TMC3    C5 4329   3.186   4.007   1.855 -0.5262  0.7906 -0.3812
  287TMC3    C6 4330   3.150   3.921   1.754  0.6051 -0.0015 -0.2858
  287TMC3     C 4331   2.860   4.154   1.930 -0.6678 -0.2349 -0.1152
  287TMC3     O 4332   2.743   4.127   1.897 -0.0182 -0.1673  0.0687
  287TMC3     H 4333   2.821   3.998   1.724  0.2763  1.6897 -0.9038
  287TMC3    H1 4334   3.127   4.160   1.988 -0.8803  1.0099 -1.7644
  287TMC3    H2 4335   3.229   3.871   1.700  3.8044  4.3292  0.3846
  287TMC3    C7 4336   3.322   4.026   1.893 -0.6953  0.1777  0.0535
  287TMC3    C8 4337   2.983   3.849   1.575  0.1466 -0.2304 -0.0694
  287TMC3    O1 4338   3.357   4.138   1.934  0.2874  0.0617  0.1862
  287TMC3    O2 4339   2.865   3.828   1.558 -0.0946  0.0285  0.7089
  288TMC3    C1 4340   4.199   4.346  13.867 -0.2829 -0.1988  0.3442
  288TMC3    C2 4341   4.189   4.389  13.998 -0.0452 -0.6222  0.1686
  288TMC3    C3 4342   4.231   4.513  14.021 -1.0093  0.6225 -0.3431
  288TMC3    C4 4343   4.246   4.422  13.762  0.2488  0.3635  0.0467
  288TMC3    C5 4344   4.297   4.535  13.797  0.2165  0.4822  0.0611
  288TMC3    C6 4345   4.289   4.588  13.921  0.1481  0.2667  0.0804
  288TMC3     C 4346   4.143   4.218  13.836 -0.6102  0.2960 -0.0224
  288TMC3     O 4347   4.053   4.171  13.902  0.3326  0.3443  0.2046
  288TMC3     H 4348   4.116   4.346  14.065 -1.8473  1.3573 -0.5367
  288TMC3    H1 4349   4.249   4.392  13.658 -0.7899 -1.4667  0.5475
  288TMC3    H2 4350   4.304   4.693  13.942  0.2674  0.3650 -0.5003
  288TMC3    C7 4351   4.344   4.618  13.688 -0.2046  0.2706 -0.1974
  288TMC3    C8 4352   4.201   4.578  14.150  0.0945 -0.3935  0.5164
  288TMC3    O1 4353   4.304   4.612  13.570 -0.5423 -0.2621 -0.1972
  288TMC3    O2 4354   4.224   4.697  14.163 -0.1481  0.1084  0.1464
  289MPD2     C 4355   4.629   3.619  14.288  0.2424 -0.3639  0.4076
  289MPD2    C1 4356   4.614   3.743  14.227 -0.0566 -0.0356  0.0189
  289MPD2    C2 4357   4.507   3.759  14.142  0.1734 -0.1005  0.1942
  289MPD2    C3 4358   4.426   3.660  14.104 -0.2360  0.1190  0.1162
  289MPD2    C4 4359   4.451   3.540  14.155  0.2355 -0.0899  0.3958
  289MPD2    C5 4360   4.548   3.520  14.246  0.3500 -0.2176  0.2764
  289MPD2     H 4361   4.473   3.860  14.121 -1.0480 -0.6430 -0.4342
  289MPD2    H1 4362   4.406   3.451  14.113 -0.0197  0.0122  0.4528
  289MPD2    H2 4363   4.715   3.610  14.353  0.0477 -1.7473  0.4667
  289MPD2    H3 4364   4.564   3.417  14.277 -1.1287  0.3721  3.0359
  289MPD2     N 4365   4.313   3.675  14.020  0.5625 -0.3127  0.0034
  289MPD2    H5 4366   4.260   3.592  13.994  1.2333 -0.2494 -1.5628
  289MPD2    N1 4367   4.686   3.850  14.275  0.1461 -0.3169 -0.3798
  289MPD2    H7 4368   0.017   3.830  14.359 -0.7996  1.0503  0.5474
  290TMC3    C1 4369   4.137   3.780  13.903  0.2246 -0.0253 -0.1897
  290TMC3    C2 4370   4.035   3.870  13.933  0.0488 -0.2253  0.2427
  290TMC3    C3 4371   3.908   3.835  13.892  0.2856 -0.1304  0.1790
  290TMC3    C4 4372   4.121   3.681  13.806  0.2160 -0.8038 -1.0132
  290TMC3    C5 4373   3.998   3.671  13.749 -0.1902  0.6703 -0.0882
  290TMC3    C6 4374   3.889   3.735  13.803  0.4669 -0.0821  0.8143
  290TMC3     C 4375   4.255   3.793  13.982  0.0250 -0.2299 -0.2374
  290TMC3     O 4376   4.274   3.903  14.030 -0.3801 -0.1799 -0.1049
  290TMC3     H 4377   4.048   3.945  14.011 -1.3579 -2.1321  2.3010
  290TMC3    H1 4378   4.215   3.641  13.771  0.7918  0.6860 -1.1662
  290TMC3    H2 4379   3.792   3.719  13.758  0.1387  0.5002  1.3058
  290TMC3    C7 4380   3.962   3.550  13.673 -0.0720  0.0053  0.4244
  290TMC3    C8 4381   3.790   3.913  13.931  0.7660 -0.2959  0.3230
  290TMC3    O1 4382   3.878   3.572  13.589  0.6839 -0.2151  0.4635
  290TMC3    O2 4383   3.681   3.853  13.918 -0.0487 -0.0753 -0.4081
  291MPD2     C 4384   4.104   2.734   0.935 -0.5030  0.2625 -0.2439
  291MPD2    C1 4385   3.998   2.687   0.862  0.1763 -0.5948 -1.3042
  291MPD2    C2 4386   3.999   2.685   0.730 -0.1108  0.4365 -0.1057
  291MPD2    C3 4387   4.099   2.737   0.655  0.5145 -0.4077 -0.3199
  291MPD2    C4 4388   4.206   2.786   0.724  0.3440  0.4270 -0.9910
  291MPD2    C5 4389   4.206   2.793   0.860  0.4956 -0.1368 -0.3440
  291MPD2     H 4390   3.915   2.645   0.676  0.5858 -0.1848 -0.7270
  291MPD2    H1 4391   4.295   2.821   0.672  2.0368  0.2895  1.7807
  291MPD2    H2 4392   4.104   2.739   1.043  3.0962 -1.5489 -0.1593
  291MPD2    H3 4393   4.287   2.842   0.913  0.0235 -3.8838  3.8977
  291MPD2     N 4394   4.074   2.757   0.517  0.7140 -0.2016 -0.4366
  291MPD2    H5 4395   3.982   2.732   0.482 -0.6901  3.3747  0.7959
  291MPD2    N1 4396   3.877   2.647   0.924 -0.4673  0.1720 -0.1139
  291MPD2    H7 4397   3.806   2.626   0.855 -1.4034  1.5326  0.4225
  292TMC3    C1 4398   3.709   2.604   1.085 -0.2176 -0.3176 -0.2893
  292TMC3    C2 4399   3.647   2.666   1.186 -0.5413  0.0795 -0.1092
  292TMC3    C3 4400   3.519   2.633   1.205  0.4215 -0.0852  0.4103
  292TMC3    C4 4401   3.643   2.524   1.003 -0.2795  0.4961 -0.1538
  292TMC3    C5 4402   3.514   2.500   1.023  0.2184 -0.2435  0.1890
  292TMC3    C6 4403   3.443   2.558   1.120  0.6670  0.4126 -0.1764
  292TMC3     C 4404   3.848   2.643   1.059  0.1309  0.2268  1.1053
  292TMC3     O 4405   3.913   2.688   1.147  0.6666 -0.0037  0.0715
  292TMC3     H 4406   3.693   2.734   1.256  1.4727  0.5085 -1.8486
  292TMC3    H1 4407   3.695   2.468   0.926  1.7959 -0.8874  2.2525
  292TMC3    H2 4408   3.346   2.518   1.148  1.2428 -0.1699  0.9879
  292TMC3    C7 4409   3.436   2.453   0.907 -0.0502  0.2712 -0.5046
  292TMC3    C8 4410   3.465   2.689   1.329  0.0426  0.0968  0.0696
  292TMC3    O1 4411   3.500   2.405   0.812 -0.5659  0.3720  0.4772
  292TMC3    O2 4412   3.547   2.731   1.411  0.2203  0.4480 -0.1852
  293MPD2     C 4413   0.675   0.307  12.206 -0.0799 -0.3777  0.1198
  293MPD2    C1 4414   0.589   0.228  12.277 -0.2883  0.8375  0.4738
  293MPD2    C2 4415   0.610   0.242  12.413 -0.8276  0.3703 -0.1745
  293MPD2    C3 4416   0.712   0.319  12.473  0.4306  0.5686  0.6124
  293MPD2    C4 4417   0.799   0.384  12.391 -0.0930  0.3586 -0.3070
  293MPD2    C5 4418   0.783   0.376  12.254 -0.4172  0.3851  0.2333
  293MPD2     H 4419   0.555   0.178  12.480 -1.1685 -0.7517 -1.5310
  293MPD2    H1 4420   0.882   0.445  12.425 -1.1434 -0.9218  4.5857
  293MPD2    H2 4421   0.676   0.310  12.097  0.9056 -2.0807  0.0896
  293MPD2    H3 4422   0.839   0.430  12.179  0.7090 -1.8185 -0.5151
  293MPD2     N 4423   0.745   0.315  12.608 -0.2197 -0.1308 -0.5288
  293MPD2    H5 4424   0.822   0.373  12.640  0.4149 -2.4348  2.2096
  293MPD2    N1 4425   0.503   0.145  12.205 -0.2312 -0.2521  0.2715
  293MPD2    H7 4426   0.505   0.156  12.104  2.2962  0.6383  0.4171
  294TMC3    C1 4427   0.331   4.704  12.165 -0.4717 -0.3324  0.2261
  294TMC3    C2 4428   0.228   4.644  12.227 -0.2021 -0.7949 -0.1557
  294TMC3    C3 4429   0.131   4.595  12.150  0.3613  0.4208 -0.3512
  294TMC3    C4 4430   0.344   4.718  12.025  0.1341 -0.0956  0.5162
  294TMC3    C5 4431   0.254   4.650  11.948 -0.0371 -0.5128  0.7869
  294TMC3    C6 4432   0.149   4.589  12.014  0.1809 -0.3605  0.2082
  294TMC3     C 4433   0.425   0.047  12.260  0.2160  0.1288  0.2933
  294TMC3     O 4434   0.410   0.028  12.381 -0.3911  0.6186  0.0159
  294TMC3     H 4435   0.230   4.632  12.335  1.7537  1.2089  0.0331
  294TMC3    H1 4436   0.440   0.019  11.980 -1.2869  2.1527 -1.3276
  294TMC3    H2 4437   0.066   4.554  11.954 -0.5318 -0.4058  1.2389
  294TMC3    C7 4438   0.283   4.631  11.806 -0.3439 -0.2156  0.2925
  294TMC3    C8 4439   0.010   4.572  12.216 -0.0411 -0.6837  0.0588
  294TMC3    O1 4440   0.239   4.529  11.757  0.0399 -0.6938  0.0070
  294TMC3    O2 4441   4.709   4.629  12.323  0.5765 -0.1617  0.5613
  295MPD2     C 4442   0.464   3.020   0.009  0.4577  0.3474  0.2086
  295MPD2    C1 4443   0.578   3.084   0.065  0.6479 -0.5963 -1.2802
  295MPD2    C2 4444   0.565   3.141   0.190  0.5085  0.3647 -0.1040
  295MPD2    C3 4445   0.440   3.137   0.250 -0.3127 -0.3765  0.4216
  295MPD2    C4 4446   0.331   3.075   0.197 -0.5100  0.2678 -0.3096
  295MPD2    C5 4447   0.339   3.026   0.072 -0.6495  0.1403  0.8054
  295MPD2     H 4448   0.647   3.192   0.238  0.6492 -1.0301  1.1331
  295MPD2    H1 4449   0.238   3.071   0.253 -2.3103 -0.1800 -3.3255
  295MPD2    H2 4450   0.473   2.956  17.615  1.1936  0.3571  0.2770
  295MPD2    H3 4451   0.258   2.967   0.029 -1.4336  0.9287  1.1884
  295MPD2     N 4452   0.427   3.176   0.387 -0.4469 -0.3263 -0.0450
  295MPD2    H5 4453   0.355   3.133   0.445  1.6891  0.4763  3.2093
  295MPD2    N1 4454   0.702   3.092   0.001  0.3374 -0.7525 -0.0652
  295MPD2    H7 4455   0.775   3.122   0.064  0.5689 -1.5135  0.0228
  296TMC3    C1 4456   0.492   3.274   0.591  0.1828 -0.5138  0.0663
  296TMC3    C2 4457   0.543   3.388   0.648  0.2530 -0.0542  0.2447
  296TMC3    C3 4458   0.554   3.404   0.780 -0.3955 -0.5090  0.3722
  296TMC3    C4 4459   0.426   3.181   0.675  0.7146 -0.2829 -1.1590
  296TMC3    C5 4460   0.432   3.202   0.806  0.7562 -0.1673 -0.6491
  296TMC3    C6 4461   0.500   3.310   0.861  0.2978  0.8738  0.1103
  296TMC3     C 4462   0.515   3.265   0.448 -0.2638 -0.6622 -0.0617
  296TMC3     O 4463   0.592   3.344   0.388  0.3229 -0.5185 -1.1634
  296TMC3     H 4464   0.578   3.469   0.585 -0.2306  0.0752  0.1429
  296TMC3    H1 4465   0.394   3.085   0.638 -1.6445  0.2305 -0.4912
  296TMC3    H2 4466   0.490   3.340   0.965  1.2708 -0.5945  0.6222
  296TMC3    C7 4467   0.336   3.133   0.894 -0.5082  0.2195  0.0287
  296TMC3    C8 4468   0.622   3.518   0.833 -0.1045  0.0892 -0.3985
  296TMC3    O1 4469   0.255   3.070   0.830 -0.2095  0.0378  0.2304
  296TMC3    O2 4470   0.670   3.501   0.940 -0.1032 -0.2033 -0.1312
  297MPD2     C 4471   2.989   0.490  16.051 -0.0054  0.2650  0.5092
  297MPD2    C1 4472   2.967   0.560  15.931 -0.2088  0.1239  0.5189
  297MPD2    C2 4473   3.081   0.626  15.878  0.0585  0.0904  0.0457
  297MPD2    C3 4474   3.200   0.630  15.946  1.3559  0.0498 -0.6154
  297MPD2    C4 4475   3.215   0.557  16.061 -0.0300 -0.4301  0.3495
  297MPD2    C5 4476   3.112   0.479  16.107 -0.2347  0.5785 -0.9494
  297MPD2     H 4477   3.070   0.684  15.788 -0.4764 -0.7743 -0.4516
  297MPD2    H1 4478   3.305   0.556  16.122  0.8007  0.7170 -0.8707
  297MPD2    H2 4479   2.910   0.442  16.107 -0.2303 -0.8306 -0.7401
  297MPD2    H3 4480   3.127   0.421  16.198 -1.7086  3.1133  0.9057
  297MPD2     N 4481   3.309   0.709  15.907  0.1522  0.4638 -0.5388
  297MPD2    H5 4482   3.308   0.742  15.811  0.5589  0.4548 -0.5460
  297MPD2    N1 4483   2.840   0.573  15.869  0.7820 -0.3495 -0.6375
  297MPD2    H7 4484   2.829   0.634  15.789  1.1192  0.5344 -0.0071
  298TMC3    C1 4485   2.605   0.550  15.862  0.0047 -0.2357 -0.4016
  298TMC3    C2 4486   2.581   0.602  15.735  0.1825 -0.5865  0.0454
  298TMC3    C3 4487   2.454   0.646  15.714  0.6359  0.5748 -0.5579
  298TMC3    C4 4488   2.502   0.536  15.959 -0.3181  0.6728 -0.4762
  298TMC3    C5 4489   2.377   0.572  15.923  0.0960 -0.1916  1.2880
  298TMC3    C6 4490   2.352   0.636  15.803 -0.0834 -0.6104  0.9261
  298TMC3     C 4491   2.734   0.492  15.903  0.7723 -0.0533  0.1650
  298TMC3     O 4492   2.728   0.392  15.974  0.6322  0.4052 -0.5400
  298TMC3     H 4493   2.663   0.594  15.664  0.7668 -1.3019  0.7985
  298TMC3    H1 4494   2.519   0.502  16.061  0.3121  1.1734 -0.4187
  298TMC3    H2 4495   2.256   0.671  15.768  0.3189 -1.0660 -0.6385
  298TMC3    C7 4496   2.284   0.601  16.031  0.0842  0.3685 -0.3414
  298TMC3    C8 4497   2.444   0.759  15.621 -0.3289 -0.0626  0.8832
  298TMC3    O1 4498   2.334   0.602  16.142 -0.2177 -0.2762 -0.6162
  298TMC3    O2 4499   2.334   0.815  15.625  0.1128 -0.2109  0.1949
  299MPD2     C 4500   3.600   0.560  10.528  1.0314 -0.6065 -0.3741
  299MPD2    C1 4501   3.606   0.663  10.436  0.4951  0.2462 -0.5786
  299MPD2    C2 4502   3.547   0.650  10.309  0.1180  0.8484  0.0149
  299MPD2    C3 4503   3.480   0.529  10.284  0.1023  0.0466  0.1326
  299MPD2    C4 4504   3.491   0.423  10.370  0.6759 -0.7930  0.0862
  299MPD2    C5 4505   3.550   0.439  10.496  0.6599 -0.0841  0.3345
  299MPD2     H 4506   3.553   0.726  10.232 -0.6457  0.7040 -0.1857
  299MPD2    H1 4507   3.444   0.327  10.353  0.0782 -0.6258  0.8137
  299MPD2    H2 4508   3.641   0.580  10.626 -0.3282 -0.9843  0.2785
  299MPD2    H3 4509   3.561   0.363  10.572  0.7947  0.3193  0.7192
  299MPD2     N 4510   3.382   0.521  10.181  0.2630 -0.1519 -0.4186
  299MPD2    H5 4511   3.332   0.435  10.159  0.6447 -0.5038  0.0965
  299MPD2    N1 4512   3.670   0.778  10.493  0.0271  0.1429 -0.5900
  299MPD2    H7 4513   3.712   0.765  10.584  0.1900  0.4111 -0.6279
  300TMC3    C1 4514   3.185   0.587  10.076  0.2723 -0.5167 -0.9470
  300TMC3    C2 4515   3.123   0.680   9.994  0.2160 -0.7885 -0.4188
  300TMC3    C3 4516   2.990   0.665   9.972 -0.2845  0.2324  0.8990
  300TMC3    C4 4517   3.116   0.479  10.130  0.5038 -0.4166  0.5938
  300TMC3    C5 4518   2.983   0.474  10.108  0.8121  1.1142  0.4227
  300TMC3    C6 4519   2.918   0.570  10.037  0.5485  0.2500 -0.4786
  300TMC3     C 4520   3.325   0.623  10.102 -0.3999  0.0308  0.0105
  300TMC3     O 4521   3.358   0.743  10.099 -0.3317  0.2042  0.1508
  300TMC3     H 4522   3.168   0.756   9.932 -2.3085  0.4595 -0.7100
  300TMC3    H1 4523   3.139   0.414  10.214  0.5839 -3.4460 -1.7613
  300TMC3    H2 4524   2.811   0.566  10.022  0.9839  0.1583 -3.5972
  300TMC3    C7 4525   2.911   0.375  10.182  0.6903 -0.2625  0.2791
  300TMC3    C8 4526   2.911   0.781   9.943 -0.2123  0.4448 -0.1711
  300TMC3    O1 4527   2.963   0.266  10.202  0.2702  0.8634  0.3141
  300TMC3    O2 4528   2.802   0.755   9.890  0.4957 -0.1814  0.2360
  301MPD2     C 4529   1.252   1.608   1.530  0.1265  0.0258 -0.1807
  301MPD2    C1 4530   1.158   1.560   1.441  0.3506  0.6126 -0.2501
  301MPD2    C2 4531   1.194   1.462   1.348  0.3850 -0.5418 -0.3615
  301MPD2    C3 4532   1.327   1.412   1.355  0.5867 -0.0003 -0.5839
  301MPD2    C4 4533   1.414   1.449   1.453 -0.1547 -0.5421  0.0452
  301MPD2    C5 4534   1.373   1.545   1.538  0.3677 -0.4571 -0.1338
  301MPD2     H 4535   1.125   1.440   1.267 -0.5219  2.8316 -0.5096
  301MPD2    H1 4536   1.508   1.400   1.477  0.6568  0.8849 -0.2324
  301MPD2    H2 4537   1.231   1.688   1.599 -0.5280  1.8294 -2.4740
  301MPD2    H3 4538   1.440   1.570   1.620  0.3019  0.6241 -0.4111
  301MPD2     N 4539   1.373   1.308   1.269  0.5812 -0.7095 -0.1592
  301MPD2    H5 4540   1.467   1.274   1.289  0.8588 -0.9732 -1.8974
  301MPD2    N1 4541   1.032   1.620   1.421 -0.3957  0.1245  0.0056
  301MPD2    H7 4542   0.986   1.590   1.336 -1.6263  0.3145  0.6081
  302TMC3    C1 4543   1.381   1.151   1.087 -0.1878 -0.5507  0.5961
  302TMC3    C2 4544   1.488   1.087   1.146  0.0625 -0.5994  0.2510
  302TMC3    C3 4545   1.546   0.982   1.080 -0.2088  0.4046 -0.1090
  302TMC3    C4 4546   1.334   1.110   0.962 -0.1092  0.1616  0.3289
  302TMC3    C5 4547   1.376   0.996   0.909 -0.4751  0.3061  0.6379
  302TMC3    C6 4548   1.487   0.937   0.967 -0.5839 -0.3657 -0.6777
  302TMC3     C 4549   1.305   1.251   1.166  0.0321  0.6275 -0.2395
  302TMC3     O 4550   1.187   1.264   1.138 -0.1832  0.3132  1.0731
  302TMC3     H 4551   1.519   1.111   1.248 -3.0066 -2.0833  1.5425
  302TMC3    H1 4552   1.259   1.169   0.911 -0.5533 -0.0207  0.7731
  302TMC3    H2 4553   1.532   0.855   0.912  0.6621 -1.1830  1.5437
  302TMC3    C7 4554   1.349   0.967   0.769 -0.2027  0.1729  0.5889
  302TMC3    C8 4555   1.621   0.886   1.152  0.6700  0.1419  0.5240
  302TMC3    O1 4556   1.444   0.925   0.707 -0.2474  0.1885  0.3350
  302TMC3    O2 4557   1.713   0.837   1.085 -0.6185  0.3164  0.2920
  303MPD2     C 4558   1.469   0.093  10.243  0.1359  0.3560  0.2627
  303MPD2    C1 4559   1.367   0.024  10.182  0.1729 -0.0151  0.2554
  303MPD2    C2 4560   1.268   0.094  10.113 -0.5404 -0.0806 -0.8324
  303MPD2    C3 4561   1.279   0.233  10.096 -0.4798  0.0973 -0.2574
  303MPD2    C4 4562   1.391   0.292  10.134 -0.1355 -0.1491  0.4721
  303MPD2    C5 4563   1.482   0.225  10.215  0.8340  0.1918  0.3952
  303MPD2     H 4564   1.190   0.040  10.060 -0.2211  0.0092 -1.3909
  303MPD2    H1 4565   1.418   0.394  10.112  0.2392 -0.2858  0.3012
  303MPD2    H2 4566   1.548   0.047  10.301 -1.3252 -0.4370  1.6635
  303MPD2    H3 4567   1.567   0.282  10.249 -0.3402  1.0864  1.7860
  303MPD2     N 4568   1.174   0.304  10.023 -0.9151  0.3229  0.1787
  303MPD2    H5 4569   1.192   0.400   9.994  1.7056  0.0321  0.8427
  303MPD2    N1 4570   1.365   4.607  10.197  0.5984  0.3027 -0.1901
  303MPD2    H7 4571   1.424   4.572  10.272 -0.0906 -1.3863 -0.4376
  304TMC3    C1 4572   1.315   4.383  10.142  0.4188 -0.4272 -0.2402
  304TMC3    C2 4573   1.259   4.347  10.264 -0.1144 -0.1155 -0.1258
  304TMC3    C3 4574   1.235   4.214  10.283 -0.1290 -0.0328 -0.4555
  304TMC3    C4 4575   1.351   4.297  10.042  0.0501 -0.0291  0.0131
  304TMC3    C5 4576   1.332   4.167  10.065  0.8165  0.0125  0.4405
  304TMC3    C6 4577   1.281   4.125  10.187  0.1649 -0.2862 -0.4731
  304TMC3     C 4578   1.299   4.522  10.105 -0.4284 -0.1667 -0.5757
  304TMC3     O 4579   1.265   4.555   9.994 -0.6332  0.2749 -0.5086
  304TMC3     H 4580   1.230   4.425  10.333 -0.0369 -0.5844  0.4349
  304TMC3    H1 4581   1.379   4.323   9.940 -0.9516  1.9524  0.2340
  304TMC3    H2 4582   1.244   4.023  10.201  4.1216 -1.6512  0.0960
  304TMC3    C7 4583   1.260   4.105   9.950 -0.6343 -0.1477  0.0121
  304TMC3    C8 4584   1.093   4.188  10.312 -0.0258 -0.0881  0.3224
  304TMC3    O1 4585   1.339   4.095   9.856 -0.3062  0.0005  0.2997
  304TMC3    O2 4586   1.029   4.121  10.233  0.2706  0.1651 -0.1761
  305MPD2     C 4587   4.364   2.086  13.792 -0.4894  0.2518 -0.1517
  305MPD2    C1 4588   4.239   2.020  13.800 -0.4699  0.1473 -0.2319
  305MPD2    C2 4589   4.193   1.947  13.694  0.5989 -0.1086 -0.5378
  305MPD2    C3 4590   4.255   1.963  13.571  0.0458 -0.4200 -0.4056
  305MPD2    C4 4591   4.372   2.033  13.561 -0.0241 -0.2648 -0.2419
  305MPD2    C5 4592   4.424   2.093  13.674 -0.1390  0.3305  0.0690
  305MPD2     H 4593   4.098   1.896  13.707  0.5689 -0.4053 -1.9437
  305MPD2    H1 4594   4.432   2.044  13.471  2.3497 -0.7485  1.2750
  305MPD2    H2 4595   4.398   2.145  13.877  0.5839 -0.0157 -0.3922
  305MPD2    H3 4596   4.514   2.153  13.667 -0.1176  0.4790  1.7923
  305MPD2     N 4597   4.205   1.908  13.452  0.5369 -0.3500  0.0275
  305MPD2    H5 4598   4.262   1.924  13.369 -1.4563  2.6049 -0.7695
  305MPD2    N1 4599   4.173   2.019  13.928  0.7702 -0.2392 -0.4151
  305MPD2    H7 4600   4.196   2.086  14.001 -0.7869  0.5367 -0.6361
  306TMC3    C1 4601   4.018   1.975  14.099  0.0491 -0.3149  0.0444
  306TMC3    C2 4602   4.033   1.884  14.199  0.7389 -0.1070 -0.2315
  306TMC3    C3 4603   4.043   1.924  14.324 -0.1505 -0.6090  0.1722
  306TMC3    C4 4604   4.025   2.109  14.125  0.8038  0.1329 -0.0802
  306TMC3    C5 4605   4.024   2.145  14.256  0.1376  0.3741 -0.3261
  306TMC3    C6 4606   4.038   2.055  14.359 -0.1731  0.2120  0.6020
  306TMC3     C 4607   4.076   1.933  13.970  1.0132  0.1272  0.3812
  306TMC3     O 4608   4.034   1.829  13.922  0.3920 -0.3680  0.0662
  306TMC3     H 4609   4.041   1.778  14.178 -1.2164  0.1605 -2.2262
  306TMC3    H1 4610   4.026   2.185  14.048 -1.0406 -1.1799 -1.3800
  306TMC3    H2 4611   4.040   2.088  14.462  1.5727  0.5211  0.4628
  306TMC3    C7 4612   4.022   2.288  14.279 -0.0729  0.2449  0.0560
  306TMC3    C8 4613   4.114   1.833  14.413  0.2619 -0.0660  0.6128
  306TMC3    O1 4614   3.976   2.355  14.190 -0.1896 -0.2849 -0.2985
  306TMC3    O2 4615   4.179   1.736  14.372 -0.3052  0.2027  0.1877
  307MPD2     C 4616   1.836   4.180   1.147 -0.4067  0.2409  0.1176
  307MPD2    C1 4617   1.733   4.137   1.066 -0.2114 -0.6267  0.4653
  307MPD2    C2 4618   1.604   4.153   1.110 -0.1839 -0.1961  0.4612
  307MPD2    C3 4619   1.583   4.218   1.227  0.0119  0.3332 -0.0078
  307MPD2    C4 4620   1.680   4.257   1.314  0.2783  0.7806  0.1760
  307MPD2    C5 4621   1.806   4.233   1.268 -0.1384 -0.4343 -0.3217
  307MPD2     H 4622   1.525   4.118   1.044  0.5596 -3.7623  1.4471
  307MPD2    H1 4623   1.662   4.309   1.407 -0.3051  0.5638  0.1854
  307MPD2    H2 4624   1.940   4.171   1.116 -0.4596 -0.5329  0.1463
  307MPD2    H3 4625   1.887   4.261   1.335 -0.3471  0.4812 -0.4547
  307MPD2     N 4626   1.453   4.257   1.243  0.3099 -0.0418  0.1554
  307MPD2    H5 4627   1.405   4.247   1.154 -0.4674  0.6346  0.4925
  307MPD2    N1 4628   1.769   4.097   0.940 -0.4206  0.2639 -0.8962
  307MPD2    H7 4629   1.864   4.109   0.908  0.0063 -1.3386 -0.2030
  308TMC3    C1 4630   1.228   4.496   1.073 -0.2068 -0.5862  0.7312
  308TMC3    C2 4631   1.253   4.628   1.103  0.1863 -0.9498  0.4877
  308TMC3    C3 4632   1.303   4.651   1.228  0.0405  0.0949 -0.4373
  308TMC3    C4 4633   1.256   4.403   1.167  0.1298 -0.7074  0.4796
  308TMC3    C5 4634   1.301   4.431   1.288  0.3669  0.3679 -0.0610
  308TMC3    C6 4635   1.319   4.556   1.327 -0.5591  0.1518  0.2635
  308TMC3     C 4636   1.126   4.459   0.985 -0.3673  0.2914 -0.2339
  308TMC3     O 4637   1.126   4.341   0.952 -0.7379 -0.4681  0.1130
  308TMC3     H 4638   1.249   4.705   1.027 -1.2725 -0.8186  0.7095
  308TMC3    H1 4639   1.233   4.298   1.151 -0.5393 -0.2522 -1.5231
  308TMC3    H2 4640   1.365   4.576   1.423  0.9204  1.9698 -0.8076
  308TMC3    C7 4641   1.408   4.346   1.342 -0.3438  0.4540  0.2363
  308TMC3    C8 4642   1.367   0.054   1.254  0.4935  0.0577 -0.2346
  308TMC3    O1 4643   1.449   4.367   1.456 -0.0667  0.6668  0.0040
  308TMC3    O2 4644   1.374   0.096   1.369  0.3455  0.6649 -0.2379
  309MPD2     C 4645   1.035   0.247  17.192  0.2454  0.7181  0.1728
  309MPD2    C1 4646   0.946   0.299  17.095  0.2831  0.0245  0.7111
  309MPD2    C2 4647   0.826   0.349  17.125 -0.0122  0.0318  0.0276
  309MPD2    C3 4648   0.789   0.365  17.257 -0.7653 -0.2355 -0.2513
  309MPD2    C4 4649   0.874   0.325  17.358  0.3132 -0.2876  0.0378
  309MPD2    C5 4650   0.991   0.267  17.318  0.2063  0.1924 -0.1983
  309MPD2     H 4651   0.783   0.410  17.047 -1.5120 -0.2373  0.6385
  309MPD2    H1 4652   0.855   0.343  17.463  2.9796 -4.1218  1.1793
  309MPD2    H2 4653   1.130   0.195  17.183 -1.3027 -2.1146  0.3178
  309MPD2    H3 4654   1.063   0.223  17.386  0.8889 -2.6184 -2.7351
  309MPD2     N 4655   0.666   0.432  17.293 -0.1521  0.6712  0.7346
  309MPD2    H5 4656   0.645   0.439  17.392 -0.9615  0.3378  0.5859
  309MPD2    N1 4657   0.984   0.306  16.953  0.4250  0.2400  0.1589
  309MPD2    H7 4658   0.915   0.353  16.895  0.2426  0.5198  0.6082
  310TMC3    C1 4659   1.097   0.264  16.749 -0.4014  0.3278  0.1874
  310TMC3    C2 4660   1.032   0.371  16.689  0.0420 -0.2383 -0.3922
  310TMC3    C3 4661   1.062   0.392  16.555  0.4707 -0.0408 -0.3801
  310TMC3    C4 4662   1.181   0.179  16.674 -0.0315  0.2826  0.8395
  310TMC3    C5 4663   1.212   0.217  16.546  0.0309  0.0414  0.0874
  310TMC3    C6 4664   1.152   0.319  16.479 -0.9300  0.0346 -0.3813
  310TMC3     C 4665   1.083   0.229  16.893  0.9790 -0.3612  0.6843
  310TMC3     O 4666   1.148   0.134  16.942  0.2180  0.1272  0.5202
  310TMC3     H 4667   0.960   0.432  16.744  0.4302 -0.2433  0.1257
  310TMC3    H1 4668   1.229   0.100  16.731  1.3318  1.5170  1.4178
  310TMC3    H2 4669   1.162   0.333  16.372 -0.2541 -0.5192 -0.3893
  310TMC3    C7 4670   1.340   0.160  16.498  0.8861  0.7221 -0.5670
  310TMC3    C8 4671   0.999   0.507  16.497  0.2860 -0.8025  0.4099
  310TMC3    O1 4672   1.365   0.043  16.517  0.2040  0.3312 -0.8637
  310TMC3    O2 4673   1.052   0.547  16.395 -0.3643  0.1823 -0.2426
  311MPD2     C 4674   3.317   1.925  12.904  0.3009 -0.1753 -0.4262
  311MPD2    C1 4675   3.321   2.030  12.821 -1.2972 -0.0762 -0.1324
  311MPD2    C2 4676   3.201   2.100  12.793 -0.3794 -0.0898  0.0477
  311MPD2    C3 4677   3.077   2.046  12.830 -0.5853  0.1031 -0.2316
  311MPD2    C4 4678   3.074   1.942  12.918 -1.1672  0.1337 -0.1315
  311MPD2    C5 4679   3.197   1.891  12.964  0.3398  0.0428 -0.0865
  311MPD2     H 4680   3.197   2.184  12.725  1.5607 -0.3443 -0.3892
  311MPD2    H1 4681   2.982   1.903  12.961 -0.1847  0.5784  2.4071
  311MPD2    H2 4682   3.405   1.877  12.943 -1.6345 -2.7210  0.8151
  311MPD2    H3 4683   3.202   1.806  13.031  0.6468  0.5032  0.4676
  311MPD2     N 4684   2.961   2.114  12.787 -0.1924  0.5797 -0.0665
  311MPD2    H5 4685   2.980   2.206  12.749  2.3072 -1.7481 -4.4126
  311MPD2    N1 4686   3.443   2.081  12.774 -0.5901 -0.0354 -0.2121
  311MPD2    H7 4687   3.527   2.058  12.826  0.0877  0.7334 -0.9599
  312TMC3    C1 4688   2.735   2.159  12.752 -0.0822 -0.8706 -0.4156
  312TMC3    C2 4689   2.629   2.119  12.675 -0.9804  0.1643 -0.2368
  312TMC3    C3 4690   2.542   2.216  12.627  0.5341  0.3677  0.1506
  312TMC3    C4 4691   2.758   2.287  12.787  0.2054 -0.2335  0.8102
  312TMC3    C5 4692   2.667   2.379  12.744 -0.3751  0.0798 -0.1810
  312TMC3    C6 4693   2.569   2.348  12.652 -0.2114  0.2383 -0.0940
  312TMC3     C 4694   2.834   2.059  12.781 -0.2604  0.8913 -0.0907
  312TMC3     O 4695   2.795   1.945  12.801 -0.2253 -0.5051 -0.3071
  312TMC3     H 4696   2.625   2.018  12.636  0.8663 -0.3051  0.7621
  312TMC3    H1 4697   2.826   2.304  12.869  0.5295  2.2797 -0.0018
  312TMC3    H2 4698   2.494   2.425  12.633 -0.3616  0.2030  0.3380
  312TMC3    C7 4699   2.683   2.516  12.794  0.1068 -0.7030  0.6200
  312TMC3    C8 4700   2.422   2.171  12.563 -0.2066  0.2803  0.2447
  312TMC3    O1 4701   2.618   2.608  12.743  0.3874 -0.2920  0.0820
  312TMC3    O2 4702   2.397   2.052  12.581  1.5201 -0.3207 -0.0552
  313MPD2     C 4703   2.056   1.062  11.112  0.2306  0.2888 -0.0020
  313MPD2    C1 4704   2.070   1.050  10.980 -0.0879 -0.0586  0.1795
  313MPD2    C2 4705   2.009   0.943  10.918  0.1160  0.0264  0.0484
  313MPD2    C3 4706   1.920   0.859  10.982  0.4435 -0.1592 -0.4517
  313MPD2    C4 4707   1.898   0.884  11.117 -0.2652  0.3991 -0.8132
  313MPD2    C5 4708   1.964   0.987  11.180 -0.2052  0.0206 -0.0322
  313MPD2     H 4709   2.029   0.939  10.812  1.8454 -0.6566  0.4085
  313MPD2    H1 4710   1.830   0.829  11.181  0.2867 -0.5268 -1.0198
  313MPD2    H2 4711   2.104   1.136  11.175 -0.8616  0.2751  0.8281
  313MPD2    H3 4712   1.945   1.012  11.284 -0.5948 -2.2720  0.4483
  313MPD2     N 4713   1.859   0.752  10.910  0.7609  0.3249 -0.1091
  313MPD2    H5 4714   1.872   0.749  10.809  1.9520 -2.2265  0.0972
  313MPD2    N1 4715   2.145   1.140  10.899 -0.4904  0.2617  0.8124
  313MPD2    H7 4716   2.153   1.127  10.798  0.2569  1.3871  0.7149
  314TMC3    C1 4717   2.234   1.344  10.838  0.2208 -0.2268  0.2390
  314TMC3    C2 4718   2.321   1.437  10.872  0.2355 -0.4133 -0.1466
  314TMC3    C3 4719   2.386   1.505  10.779 -0.0853 -0.4067 -0.8289
  314TMC3    C4 4720   2.205   1.317  10.707 -0.8534  0.9557 -0.1122
  314TMC3    C5 4721   2.271   1.394  10.611  0.6782  0.5691 -0.3114
  314TMC3    C6 4722   2.366   1.486  10.642 -0.5682  0.3880 -0.2881
  314TMC3     C 4723   2.213   1.250  10.945 -0.5634  0.2442 -0.5752
  314TMC3     O 4724   2.251   1.283  11.056  0.5559 -0.0458  0.0047
  314TMC3     H 4725   2.344   1.471  10.972  2.3389 -0.3598 -0.6373
  314TMC3    H1 4726   2.135   1.238  10.681 -0.7821  0.8801 -0.0738
  314TMC3    H2 4727   2.421   1.541  10.567 -1.8583  0.4408 -1.1800
  314TMC3    C7 4728   2.210   1.409  10.479 -0.4000  0.7355  0.1206
  314TMC3    C8 4729   2.462   1.627  10.820 -0.2873  0.6358  0.1988
  314TMC3    O1 4730   2.090   1.399  10.474 -0.0493  0.3048  0.6341
  314TMC3    O2 4731   2.570   1.652  10.761  0.2038  0.3968 -0.0248
  315MPD2     C 4732   2.152   4.175   0.021 -0.8534  1.0109 -0.2245
  315MPD2    C1 4733   2.174   4.278   0.106 -0.2115 -0.2446 -0.1476
  315MPD2    C2 4734   2.184   4.412   0.063 -0.2092 -0.1321 -0.2648
  315MPD2    C3 4735   2.158   4.444  17.621  0.1493  0.8098  0.0762
  315MPD2    C4 4736   2.126   4.334  17.538 -0.4205  0.0878  0.5182
  315MPD2    C5 4737   2.122   4.206  17.582  0.3659 -0.5866  0.3602
  315MPD2     H 4738   2.215   4.496   0.125  0.7461  0.4966 -1.5875
  315MPD2    H1 4739   2.113   4.350  17.431  1.5039  1.7443  0.5580
  315MPD2    H2 4740   2.182   4.074   0.044 -0.5723  0.9860 -0.6984
  315MPD2    H3 4741   2.111   4.128  17.507  2.6376  0.1351 -0.7187
  315MPD2     N 4742   2.168   4.582  17.587 -0.5611 -0.1781  0.0422
  315MPD2    H5 4743   2.209   4.636  17.662 -2.9417  3.1415 -1.0512
  315MPD2    N1 4744   2.204   4.267   0.243  0.7187 -0.4758  0.1193
  315MPD2    H7 4745   2.239   4.351   0.289 -0.1286 -0.1316  0.1373
  316TMC3    C1 4746   2.171   0.051  17.445 -0.1826 -0.4111  0.9346
  316TMC3    C2 4747   2.272   0.097  17.524  0.0955  0.2075 -0.2795
  316TMC3    C3 4748   2.285   0.236  17.528  0.0003 -1.0041 -0.7955
  316TMC3    C4 4749   2.081   0.133  17.387  0.5906 -0.2850  0.9595
  316TMC3    C5 4750   2.108   0.267  17.385  0.1665 -0.4412  0.3054
  316TMC3    C6 4751   2.206   0.319  17.461 -0.3883  0.2862  0.1063
  316TMC3     C 4752   2.138   4.632  17.461 -0.7801 -0.0132  0.5192
  316TMC3     O 4753   2.092   4.569  17.367 -0.1910  0.0934 -0.0073
  316TMC3     H 4754   2.347   0.031  17.566 -1.7762 -2.1269 -0.6006
  316TMC3    H1 4755   1.995   0.101  17.329 -0.1764 -0.2282  2.0578
  316TMC3    H2 4756   2.206   0.421  17.497 -0.7474 -0.0538  1.0776
  316TMC3    C7 4757   1.993   0.349  17.372  1.1661 -0.4572  0.0091
  316TMC3    C8 4758   2.385   0.297  17.617  0.1274  0.3130  0.3463
  316TMC3    O1 4759   1.948   0.376  17.481  0.6068 -0.2637  0.2768
  316TMC3    O2 4760   2.411   0.415  17.586 -0.2837 -0.3459 -0.4077
  317MPD2     C 4761   0.255   3.891  12.893  0.4560  0.1421 -0.3402
  317MPD2    C1 4762   0.262   3.751  12.881  0.4687 -0.0647 -0.9757
  317MPD2    C2 4763   0.238   3.675  12.996  0.1153  0.5887 -0.6131
  317MPD2    C3 4764   0.201   3.736  13.120  0.9292  0.4111 -0.2292
  317MPD2    C4 4765   0.173   3.874  13.115 -1.2502 -0.6014 -0.7779
  317MPD2    C5 4766   0.207   3.943  13.005 -0.3629 -0.3598  0.2710
  317MPD2     H 4767   0.260   3.569  13.002 -1.2195  0.3814  0.7060
  317MPD2    H1 4768   0.122   3.925  13.196  1.1918 -0.0722  0.4224
  317MPD2    H2 4769   0.261   3.955  12.806 -0.6637  0.3912 -0.2368
  317MPD2    H3 4770   0.195   4.050  12.994 -0.7817 -0.4857 -0.4663
  317MPD2     N 4771   0.208   3.662  13.241  0.2591  0.3117  0.3036
  317MPD2    H5 4772   0.203   3.562  13.227  2.3446  0.2504 -0.0285
  317MPD2    N1 4773   0.301   3.680  12.756  0.1966 -0.2276 -0.4137
  317MPD2    H7 4774   0.329   3.583  12.771 -0.4236 -0.7451 -2.6092
  318TMC3    C1 4775   0.217   3.600  13.462 -0.8241 -0.1351 -0.2628
  318TMC3    C2 4776   0.133   3.487  13.443  0.3089  0.4355 -0.2042
  318TMC3    C3 4777   0.128   3.385  13.530 -0.6092  0.0312  0.2993
  318TMC3    C4 4778   0.286   3.612  13.581  0.4561 -0.2273  0.1929
  318TMC3    C5 4779   0.297   3.489  13.649 -0.4872  0.4198  0.2707
  318TMC3    C6 4780   0.208   3.389  13.635  0.3743  0.0260 -0.1322
  318TMC3     C 4781   0.215   3.710  13.367  0.2661 -0.1364 -0.1104
  318TMC3     O 4782   0.225   3.823  13.422 -0.0289  0.2724 -0.5857
  318TMC3     H 4783   0.084   3.483  13.346 -0.1071 -0.0035  0.0266
  318TMC3    H1 4784   0.341   3.704  13.602 -0.3029  0.2202  0.2128
  318TMC3    H2 4785   0.224   3.291  13.679 -0.4579 -0.9046 -1.8798
  318TMC3    C7 4786   0.368   3.502  13.773 -0.2248  0.3452 -0.0357
  318TMC3    C8 4787   0.063   3.261  13.494  0.6322 -0.0493 -0.7078
  318TMC3    O1 4788   0.407   3.612  13.806 -0.3986  0.0145  0.2976
  318TMC3    O2 4789   0.083   3.169  13.571 -0.3415 -0.1334 -0.1817
  319MPD2     C 4790   0.663   0.107  16.513 -0.3632 -0.0587  0.1877
  319MPD2    C1 4791   0.581   0.078  16.621 -0.0695  0.1593  0.2962
  319MPD2    C2 4792   0.443   0.068  16.605 -0.6943 -0.3566 -0.7705
  319MPD2    C3 4793   0.383   0.125  16.498 -0.1548 -0.4979 -1.0137
  319MPD2    C4 4794   0.466   0.169  16.397  0.2139 -0.1865  0.1713
  319MPD2    C5 4795   0.604   0.156  16.403 -0.3526 -0.0985 -0.8224
  319MPD2     H 4796   0.397   0.009  16.683 -0.4663  0.8043  0.2217
  319MPD2    H1 4797   0.416   0.204  16.307 -0.1227 -0.9857  0.0492
  319MPD2    H2 4798   0.770   0.111  16.524 -0.5304  1.1977  1.2558
  319MPD2    H3 4799   0.673   0.182  16.324 -0.4986  2.3668 -0.1282
  319MPD2     N 4800   0.244   0.150  16.486  0.0554  0.1930 -1.1792
  319MPD2    H5 4801   0.201   0.202  16.410 -0.2447 -1.3287 -2.0641
  319MPD2    N1 4802   0.625   0.022  16.741  0.4520 -0.7635  0.2829
  319MPD2    H7 4803   0.551   0.004  16.809 -1.0248  2.2854 -0.5250
  320TMC3    C1 4804   0.015   0.090  16.517 -0.0400  0.5280  0.3772
  320TMC3    C2 4805   0.007   0.100  16.379 -0.2925  0.6178  0.6935
  320TMC3    C3 4806   4.615   0.041  16.326 -0.7571  0.1693  0.2468
  320TMC3    C4 4807   4.662   0.010  16.598  0.3278  1.1408  0.0494
  320TMC3    C5 4808   4.570   4.658  16.538 -0.5863  0.1232  0.3185
  320TMC3    C6 4809   4.533   4.685  16.404 -0.3914 -0.0555 -0.4354
  320TMC3     C 4810   0.148   0.117  16.579  0.0927 -0.2216 -0.6839
  320TMC3     O 4811   0.170   0.076  16.692 -0.0105 -0.2016 -0.0131
  320TMC3     H 4812   0.067   0.162  16.313 -1.3974 -0.5518 -1.4249
  320TMC3    H1 4813   4.687   4.719  16.703 -0.1927  4.0856  0.5633
  320TMC3    H2 4814   4.450   4.630  16.360 -0.5961 -0.5365  0.5456
  320TMC3    C7 4815   4.526   4.522  16.584 -0.0220  0.0955 -0.0074
  320TMC3    C8 4816   4.575   0.083  16.192 -1.1653 -0.8244 -0.1110
  320TMC3    O1 4817   4.468   4.449  16.504 -0.1212  0.6719  0.0082
  320TMC3    O2 4818   4.641   0.175  16.145 -0.2566  0.1964 -0.0222
  321TMC3    C1 4819   0.751   4.671  16.922  0.2235 -0.0400 -0.7919
  321TMC3    C2 4820   0.652   4.585  16.964 -0.1507  0.1081  0.2968
  321TMC3    C3 4821   0.656   4.545  17.093 -0.2279 -0.1995  0.4641
  321TMC3    C4 4822   0.863   4.691  17.002 -0.1690 -0.7410 -0.2611
  321TMC3    C5 4823   0.857   4.663  17.132  0.1659  0.1902  0.4425
  321TMC3    C6 4824   0.742   4.601  17.179 -0.2353  0.1754 -0.3062
  321TMC3     C 4825   0.752   4.719  16.786 -0.3973  0.3873 -0.0992
  321TMC3     O 4826   0.863   0.026  16.743 -0.5344 -0.6367  0.7376
  321TMC3     H 4827   0.572   4.544  16.904 -1.3304  0.0267  1.9338
  321TMC3    H1 4828   0.950   0.006  16.951  0.4915 -0.4338  1.1102
  321TMC3    H2 4829   0.735   4.608  17.287  1.9925  1.8300 -0.2725
  321TMC3    C7 4830   0.971   4.602  17.199  0.7382 -0.5284  0.2291
  321TMC3    C8 4831   0.639   4.403  17.126  0.6974 -0.1646  0.5554
  321TMC3    O1 4832   0.948   4.533  17.299 -0.6548  0.2292  0.7297
  321TMC3    O2 4833   0.549   4.342  17.082 -0.1683  0.4619 -0.0334
  322MPD2     C 4834   3.916   1.383  13.578  0.0588 -0.1610 -0.1030
  322MPD2    C1 4835   3.967   1.301  13.673  0.7385  0.1849 -0.2245
  322MPD2    C2 4836   3.959   1.168  13.648 -0.8120  0.1661  0.3109
  322MPD2    C3 4837   3.920   1.115  13.529 -0.8293 -0.1376 -0.0052
  322MPD2    C4 4838   3.892   1.201  13.424 -0.0614 -0.2337 -0.5665
  322MPD2    C5 4839   3.889   1.331  13.451 -0.0165  0.0571  0.0552
  322MPD2     H 4840   4.008   1.098  13.714  0.5075 -0.8503 -1.7242
  322MPD2    H1 4841   3.863   1.180  13.321 -0.8455  3.0156 -0.9964
  322MPD2    H2 4842   3.902   1.490  13.584 -1.0120 -0.2944 -0.2532
  322MPD2    H3 4843   3.871   1.388  13.361 -2.0197 -0.8285 -0.1147
  322MPD2     N 4844   3.924   0.975  13.517 -0.2979  0.1151  0.8308
  322MPD2    H5 4845   3.936   0.927  13.605 -2.8212 -1.4487  0.3496
  322MPD2    N1 4846   4.007   1.357  13.796  0.1568  0.0798  0.1873
  322MPD2    H7 4847   4.026   1.456  13.790 -1.0807  0.4472  2.1345
  323TMC3    C1 4848   4.080   1.356  14.015 -0.1805 -0.5897  0.0713
  323TMC3    C2 4849   4.148   1.477  13.993 -0.6261 -0.9921  0.3236
  323TMC3    C3 4850   4.223   1.535  14.084  0.1520 -0.2070  0.4977
  323TMC3    C4 4851   4.083   1.302  14.138  0.6528 -0.0501  0.8281
  323TMC3    C5 4852   4.170   1.360  14.226 -0.3545 -0.0271  0.5417
  323TMC3    C6 4853   4.231   1.479  14.205  0.0840 -1.0400 -0.2750
  323TMC3     C 4854   4.026   1.280  13.906 -0.0458  0.5441 -0.4631
  323TMC3     O 4855   3.989   1.163  13.934 -0.6261 -0.5131  0.2491
  323TMC3     H 4856   4.149   1.534  13.901  0.0893  0.0166  0.9591
  323TMC3    H1 4857   4.039   1.205  14.154 -0.5114  0.7018  2.1390
  323TMC3    H2 4858   4.314   1.512  14.266 -0.8890 -0.8410  0.9336
  323TMC3    C7 4859   4.264   1.260  14.274  0.4087  0.7415  0.4060
  323TMC3    C8 4860   4.333   1.614  14.046 -0.3040 -0.6564 -0.2040
  323TMC3    O1 4861   4.322   1.185  14.197  0.5840 -0.1020 -0.4289
  323TMC3    O2 4862   4.392   1.587  13.941 -0.7378 -0.0039 -0.7036
  324MPD2     C 4863   1.356   2.437  13.962 -0.0376  0.1351 -0.1374
  324MPD2    C1 4864   1.361   2.524  14.069 -0.4087  0.0371 -0.3422
  324MPD2    C2 4865   1.241   2.531  14.146  0.5306  0.6758 -0.7805
  324MPD2    C3 4866   1.128   2.457  14.122  0.4971 -0.3571 -0.2005
  324MPD2    C4 4867   1.131   2.365  14.016  0.2644  0.4762 -0.4945
  324MPD2    C5 4868   1.243   2.364  13.935 -0.2128 -0.1559  0.8150
  324MPD2     H 4869   1.255   2.587  14.238  1.3228  0.7632 -0.9570
  324MPD2    H1 4870   1.047   2.303  13.987 -0.7110  0.8642  1.4859
  324MPD2    H2 4871   1.447   2.421  13.907 -0.0439  0.7850 -0.3364
  324MPD2    H3 4872   1.247   2.294  13.852 -0.4053  1.5936 -0.6747
  324MPD2     N 4873   1.007   2.454  14.202  0.0571  0.2625  0.0845
  324MPD2    H5 4874   0.932   2.390  14.176  0.4739 -0.2617  0.1788
  324MPD2    N1 4875   1.477   2.589  14.108 -0.5954  0.1036 -0.5358
  324MPD2    H7 4876   1.485   2.613  14.207  2.5126 -0.6444 -0.6055
  325TMC3    C1 4877   0.855   2.539  14.366  0.0047 -0.2391  0.2392
  325TMC3    C2 4878   0.756   2.506  14.280  0.4682  0.3083  0.0857
  325TMC3    C3 4879   0.636   2.566  14.291 -0.1011  0.2655  0.6252
  325TMC3    C4 4880   0.843   2.639  14.456 -0.6804 -0.5528  0.2001
  325TMC3    C5 4881   0.723   2.699  14.471  0.3577 -0.1504 -0.2804
  325TMC3    C6 4882   0.616   2.659  14.393  0.2662  0.2814  0.4552
  325TMC3     C 4883   0.992   2.526  14.319  0.0162 -0.2695  1.4305
  325TMC3     O 4884   1.073   2.605  14.372  0.4253 -0.0499 -0.3016
  325TMC3     H 4885   0.764   2.441  14.194  1.5599  0.6062 -0.0423
  325TMC3    H1 4886   0.930   2.675  14.510 -0.3441 -0.8612 -0.1299
  325TMC3    H2 4887   0.533   2.728  14.380 -0.6017 -0.9560 -0.4853
  325TMC3    C7 4888   0.713   2.835  14.521 -0.1122 -0.7102 -0.1783
  325TMC3    C8 4889   0.525   2.524  14.218  0.5978 -0.2300  0.1412
  325TMC3    O1 4890   0.822   2.898  14.516  0.1487  0.0675 -0.0676
  325TMC3    O2 4891   0.553   2.434  14.140  0.0339 -0.0157 -0.6511
  326MPD2     C 4892   2.656   3.443  11.180 -0.3128 -0.1928 -0.3653
  326MPD2    C1 4893   2.566   3.499  11.091 -0.0988  0.2172  0.5257
  326MPD2    C2 4894   2.605   3.606  11.012  0.2559 -0.4302  0.4771
  326MPD2    C3 4895   2.725   3.672  11.040 -0.3897 -0.1780 -0.1568
  326MPD2    C4 4896   2.808   3.626  11.138 -0.2868 -0.4977  0.5438
  326MPD2    C5 4897   2.764   3.512  11.215 -0.5392 -0.0738  0.1328
  326MPD2     H 4898   2.547   3.644  10.929 -0.3370  0.8245  1.4687
  326MPD2    H1 4899   2.897   3.677  11.172  1.2023 -0.6550 -3.0855
  326MPD2    H2 4900   2.655   3.345  11.225  0.4859  0.1376  0.3646
  326MPD2    H3 4901   2.837   3.477  11.287 -0.6797  0.7234  0.6580
  326MPD2     N 4902   2.759   3.789  10.962  0.0212 -0.4131  0.4466
  326MPD2    H5 4903   2.855   3.820  10.966  0.3144 -1.2114 -0.4685
  326MPD2    N1 4904   2.440   3.450  11.074  0.2698  0.4166  0.1570
  326MPD2    H7 4905   2.379   3.514  11.023 -0.0503 -0.6480 -0.7944
  327TMC3    C1 4906   2.257   3.317  11.070 -0.6357  0.2916  0.1151
  327TMC3    C2 4907   2.159   3.404  11.106 -1.0617 -0.4487  0.0145
  327TMC3    C3 4908   2.069   3.451  11.018 -0.7818 -0.4902 -0.3601
  327TMC3    C4 4909   2.261   3.270  10.942 -0.7829  0.1087  0.1351
  327TMC3    C5 4910   2.170   3.326  10.851  0.0342  0.4950  0.0736
  327TMC3    C6 4911   2.072   3.413  10.885 -0.4198  0.4334 -0.7955
  327TMC3     C 4912   2.388   3.335  11.124 -0.0032  0.3101  0.0281
  327TMC3     O 4913   2.449   3.239  11.170 -0.8100 -0.0185  0.1083
  327TMC3     H 4914   2.135   3.417  11.211 -1.6252  0.8768 -0.2710
  327TMC3    H1 4915   2.315   3.189  10.895 -1.7868 -1.3349  1.4603
  327TMC3    H2 4916   2.015   3.467  10.810 -0.6651  1.1955 -0.0612
  327TMC3    C7 4917   2.219   3.360  10.720  0.2430 -0.4226 -0.5411
  327TMC3    C8 4918   1.972   3.555  11.059  0.3987  0.0544  0.0997
  327TMC3    O1 4919   2.151   3.423  10.639  0.0295  0.7108  0.2729
  327TMC3    O2 4920   1.887   3.579  10.977 -0.0381  0.0672  0.0217
  328MPD2     C 4921   0.066   3.249  17.269  0.6826  0.0582 -0.9502
  328MPD2    C1 4922   4.691   3.242  17.177 -0.3372 -0.2303 -0.5740
  328MPD2    C2 4923   4.610   3.357  17.157  0.1678  0.1496 -1.2304
  328MPD2    C3 4924   4.629   3.461  17.239  0.6397  0.4921 -0.0492
  328MPD2    C4 4925   0.008   3.463  17.331 -0.3976  0.0162 -0.4152
  328MPD2    C5 4926   0.094   3.357  17.344 -0.6109 -0.1643  0.2890
  328MPD2     H 4927   4.535   3.349  17.079  0.1050 -0.2713 -1.1309
  328MPD2    H1 4928   0.019   3.539  17.407  0.0454 -2.1509  1.6843
  328MPD2    H2 4929   0.130   3.167  17.298 -1.1939 -0.6549  1.2202
  328MPD2    H3 4930   0.180   3.360  17.410 -1.9705 -0.2932  2.0549
  328MPD2     N 4931   4.549   3.574  17.240  0.8030 -0.2188  0.1674
  328MPD2    H5 4932   4.588   3.645  17.302  0.7738  0.3030 -0.4113
  328MPD2    N1 4933   4.688   3.119  17.106 -0.4544 -0.4931 -0.5902
  328MPD2    H7 4934   0.011   3.039  17.149  0.4009 -0.8541 -2.1843
  329TMC3    C1 4935   4.623   2.946  16.953  0.5181  0.5036 -0.1699
  329TMC3    C2 4936   4.632   2.851  17.052 -0.2370 -0.0232  0.8954
  329TMC3    C3 4937   4.605   2.719  17.018  0.1416 -0.3613  0.7495
  329TMC3    C4 4938   4.593   2.911  16.825  0.0014 -0.2992  0.4284
  329TMC3    C5 4939   4.595   2.778  16.794 -0.2394  0.1937 -0.1061
  329TMC3    C6 4940   4.596   2.673  16.888 -0.3515 -0.1692  0.0916
  329TMC3     C 4941   4.602   3.078  17.008 -0.3417  0.6095 -0.2038
  329TMC3     O 4942   4.535   3.145  16.927  0.7404 -0.3911 -0.8377
  329TMC3     H 4943   4.655   2.880  17.154  1.6300 -2.3924  1.1398
  329TMC3    H1 4944   4.609   2.988  16.750 -1.3184 -0.8456 -0.4046
  329TMC3    H2 4945   4.585   2.570  16.857 -0.7091 -0.1720  0.2189
  329TMC3    C7 4946   4.598   2.747  16.654 -0.4298  0.2155  0.2316
  329TMC3    C8 4947   4.579   2.615  17.116 -0.3028  0.0685 -0.5339
  329TMC3    O1 4948   4.626   2.635  16.613 -0.2467  0.1144 -0.2797
  329TMC3    O2 4949   4.562   2.503  17.072 -0.6040 -0.2932  0.2460
  330TMC3    C1 4950   2.795   2.678   9.896  0.4231 -0.0973 -1.6268
  330TMC3    C2 4951   2.748   2.576   9.821  0.2755 -0.3085 -0.4703
  330TMC3    C3 4952   2.834   2.483   9.781 -0.3673  0.0067 -0.7673
  330TMC3    C4 4953   2.927   2.677   9.938 -0.1030 -0.0928  0.3400
  330TMC3    C5 4954   3.010   2.577   9.903  0.1333 -0.4183  0.0483
  330TMC3    C6 4955   2.967   2.481   9.813 -0.1733 -0.4222 -0.6493
  330TMC3     C 4956   2.706   2.772   9.959  0.1022  0.2850  0.1975
  330TMC3     O 4957   2.745   2.825  10.064 -0.1085 -0.0266 -0.3978
  330TMC3     H 4958   2.643   2.551   9.818 -0.1888  1.5657  0.4379
  330TMC3    H1 4959   2.961   2.761   9.998  0.3860  0.0510 -0.1343
  330TMC3    H2 4960   3.034   2.400   9.789  1.4012  0.0865  2.0048
  330TMC3    C7 4961   3.105   2.524  10.005 -0.6251 -0.0726 -0.1070
  330TMC3    C8 4962   2.778   2.363   9.730 -0.8940  0.0761 -0.3352
  330TMC3    O1 4963   3.157   2.416   9.990 -0.1487  0.1402 -0.2567
  330TMC3    O2 4964   2.664   2.327   9.754 -0.1743  0.0546  0.6585
  331MPD2     C 4965   0.249   1.800  12.180 -0.0794 -0.4205  0.0856
  331MPD2    C1 4966   0.358   1.867  12.124 -0.6209  0.4765  0.8275
  331MPD2    C2 4967   0.427   1.791  12.026 -0.5399 -0.0491 -0.0665
  331MPD2    C3 4968   0.400   1.662  12.004 -0.1484  0.6587 -0.6410
  331MPD2    C4 4969   0.289   1.598  12.057 -0.0384  0.3826  0.0450
  331MPD2    C5 4970   0.209   1.669  12.144  0.1834 -0.3675  0.5342
  331MPD2     H 4971   0.513   1.830  11.974 -1.3365 -0.6289 -1.7951
  331MPD2    H1 4972   0.267   1.493  12.044 -1.8948  0.8777 -0.7609
  331MPD2    H2 4973   0.189   1.849  12.256 -1.2859 -0.3551 -0.9158
  331MPD2    H3 4974   0.121   1.626  12.191  1.8997 -0.8181  3.3292
  331MPD2     N 4975   0.509   1.591  11.941 -0.3016  0.6067  0.6425
  331MPD2    H5 4976   0.589   1.644  11.908  0.8851 -0.8060  1.2473
  331MPD2    N1 4977   0.387   1.999  12.153  0.0394  0.0929  0.7526
  331MPD2    H7 4978   0.326   2.042  12.222  0.7178 -1.8646  2.5567
  332TMC3    C1 4979   0.656   1.417  11.901  0.1522 -0.0248 -1.0186
  332TMC3    C2 4980   0.718   1.474  11.798 -0.4730  0.5228  1.0439
  332TMC3    C3 4981   0.860   1.469  11.805  0.8873  0.2928  0.2883
  332TMC3    C4 4982   0.720   1.370  12.012 -0.3717 -0.2480  0.0606
  332TMC3    C5 4983   0.856   1.381  12.017  0.3028  0.4044  0.2621
  332TMC3    C6 4984   0.928   1.426  11.915 -0.3090 -0.3055 -0.6928
  332TMC3     C 4985   0.521   1.457  11.916 -0.1232 -0.3664  0.2097
  332TMC3     O 4986   0.447   1.369  11.949 -0.7907  0.0277 -0.3936
  332TMC3     H 4987   0.654   1.513  11.720  0.1052 -0.0050  0.3184
  332TMC3    H1 4988   0.660   1.322  12.088 -1.0804 -1.6274 -1.3786
  332TMC3    H2 4989   1.036   1.433  11.907 -0.0419 -0.3208  2.8308
  332TMC3    C7 4990   0.921   1.364  12.140 -0.3244 -0.6180 -0.6881
  332TMC3    C8 4991   0.940   1.537  11.700  0.0255 -0.1963  0.6981
  332TMC3    O1 4992   0.855   1.301  12.221  0.2957 -0.3831 -0.9543
  332TMC3    O2 4993   1.047   1.581  11.734 -0.5609  0.3454 -0.1338
  333MPD2     C 4994   0.717   1.846  10.771  0.2394  0.7299 -0.1708
  333MPD2    C1 4995   0.825   1.761  10.739  0.5172 -0.2643  0.1637
  333MPD2    C2 4996   0.840   1.642  10.807  0.3690  0.9910  0.3625
  333MPD2    C3 4997   0.743   1.605  10.901 -0.3425  0.6361  0.1066
  333MPD2    C4 4998   0.634   1.689  10.925 -0.0361  0.5089 -0.0534
  333MPD2    C5 4999   0.619   1.810  10.859  0.0041 -0.3536 -0.0149
  333MPD2     H 5000   0.909   1.562  10.780  0.2466  0.5935  1.2373
  333MPD2    H1 5001   0.551   1.669  10.991  0.5668 -0.2103  0.4847
  333MPD2    H2 5002   0.707   1.944  10.726 -1.0479 -0.5660 -2.6919
  333MPD2    H3 5003   0.546   1.881  10.897 -2.1088 -2.0077 -1.0310
  333MPD2     N 5004   0.754   1.477  10.957 -0.0835 -0.1691  0.2166
  333MPD2    H5 5005   0.829   1.416  10.926  0.5231  0.4858  0.3841
  333MPD2    N1 5006   0.909   1.806  10.636 -0.1087  0.3071  0.8409
  333MPD2    H7 5007   0.888   1.895  10.593  1.1346 -0.4895 -1.4347
  334TMC3    C1 5008   1.061   1.780  10.463  0.5043  0.7322  0.7949
  334TMC3    C2 5009   1.185   1.739  10.431 -0.0058 -0.8685  0.1423
  334TMC3    C3 5010   1.217   1.756  10.297  0.1428 -0.1649 -0.3485
  334TMC3    C4 5011   0.960   1.828  10.377  0.3500 -0.1615  0.6787
  334TMC3    C5 5012   1.013   1.858  10.258 -0.1642  0.7036 -0.3679
  334TMC3    C6 5013   1.137   1.822  10.213  0.0428 -0.1620 -0.0347
  334TMC3     C 5014   1.016   1.733  10.593  0.6193  0.4125 -0.0715
  334TMC3     O 5015   1.077   1.637  10.637 -0.3037  0.5121  0.0201
  334TMC3     H 5016   1.258   1.690  10.494  1.7455 -0.2849 -1.4432
  334TMC3    H1 5017   0.859   1.859  10.404 -0.1230 -1.5604  0.5085
  334TMC3    H2 5018   1.170   1.874  10.123 -0.4786 -1.2268 -0.8445
  334TMC3    C7 5019   0.963   1.989  10.207 -0.1092  0.4862  0.5848
  334TMC3    C8 5020   1.330   1.692  10.227  0.5127 -0.7312 -0.1343
  334TMC3    O1 5021   0.901   2.056  10.289  0.8359 -0.3377 -0.4077
  334TMC3    O2 5022   1.317   1.679  10.109 -0.4048  0.2737  0.0792
  335TMC3    C1 5023   0.804   3.473  17.428 -0.5686  0.5918 -0.2519
  335TMC3    C2 5024   0.734   3.383  17.356 -0.2454  0.8069 -0.1517
  335TMC3    C3 5025   0.788   3.336  17.238  0.5634  1.2401  0.5671
  335TMC3    C4 5026   0.923   3.521  17.385 -0.1832  0.8200  0.4108
  335TMC3    C5 5027   0.985   3.463  17.273  0.1061 -0.0740  0.2013
  335TMC3    C6 5028   0.914   3.377  17.192 -0.0946  0.3918  0.2453
  335TMC3     C 5029   0.757   3.505  17.558 -0.5015  0.2756 -0.4994
  335TMC3     O 5030   0.667   3.435  17.602  0.5064  0.0123  0.6732
  335TMC3     H 5031   0.636   3.358  17.395 -0.0827 -0.2075 -0.3856
  335TMC3    H1 5032   0.988   3.588  17.441  1.7758 -2.6621  2.3284
  335TMC3    H2 5033   0.951   3.339  17.098  1.1648  0.5006  0.6976
  335TMC3    C7 5034   1.108   3.519  17.231  0.0558 -0.7475  0.5062
  335TMC3    C8 5035   0.700   3.267  17.148 -0.0530 -0.2721 -0.3188
  335TMC3    O1 5036   1.201   3.446  17.201  0.1861 -0.6942  0.1697
  335TMC3    O2 5037   0.740   3.264  17.031  0.3635  0.4132 -0.0338
  336MPD2     C 5038   4.604   1.490  16.321  0.1006 -0.0122 -0.7246
  336MPD2    C1 5039   4.657   1.454  16.203  0.2016 -0.5956  0.2524
  336MPD2    C2 5040   0.016   1.341  16.209 -0.2275  0.2237 -0.3113
  336MPD2    C3 5041   0.040   1.266  16.324  0.1745  0.0157 -0.1692
  336MPD2    C4 5042   4.691   1.296  16.439  0.4438  0.6021 -0.5190
  336MPD2    C5 5043   4.612   1.408  16.432  0.6176 -0.0678 -0.1323
  336MPD2     H 5044   0.077   1.331  16.120 -0.9305  0.7087 -0.8470
  336MPD2    H1 5045   4.711   1.241  16.530 -2.7803  0.1967 -0.0724
  336MPD2    H2 5046   4.556   1.587  16.328  2.3698  1.1726 -1.5853
  336MPD2    H3 5047   4.547   1.429  16.516  1.8132 -1.1723  1.0544
  336MPD2     N 5048   0.109   1.141  16.321 -0.2550  0.2530  0.1137
  336MPD2    H5 5049   0.098   1.077  16.399 -2.1132  1.2953  0.7192
  336MPD2    N1 5050   4.643   1.537  16.090  0.0396 -0.3448 -0.0677
  336MPD2    H7 5051   4.616   1.634  16.104 -0.7598 -0.9475  2.5933
  337TMC3    C1 5052   4.639   1.601  15.858 -0.0111 -0.8260  1.0289
  337TMC3    C2 5053   4.568   1.580  15.738 -0.1688  0.0187 -0.5652
  337TMC3    C3 5054   4.544   1.694  15.661 -0.4120  0.2758 -0.4586
  337TMC3    C4 5055   4.669   1.719  15.910 -0.5694  0.3380 -0.5716
  337TMC3    C5 5056   4.655   1.830  15.830  0.1415 -0.7994 -0.7420
  337TMC3    C6 5057   4.594   1.816  15.709 -0.4883  0.4745 -0.2447
  337TMC3     C 5058   4.649   1.499  15.963  0.1158 -0.1310  0.0200
  337TMC3     O 5059   4.644   1.385  15.915  0.2223 -0.2935 -0.0276
  337TMC3     H 5060   4.537   1.480  15.711  0.0947 -0.9960  2.9017
  337TMC3    H1 5061   0.020   1.728  15.990  0.8933  1.7560 -2.0780
  337TMC3    H2 5062   4.585   1.907  15.652 -0.6974  0.0584 -0.8713
  337TMC3    C7 5063   0.019   1.942  15.851 -0.0316  0.0074  0.0997
  337TMC3    C8 5064   4.445   1.704  15.554 -0.0807 -0.2362 -0.3830
  337TMC3    O1 5065   0.059   2.007  15.754 -0.6192 -0.0960 -0.0813
  337TMC3    O2 5066   4.409   1.811  15.518 -0.4068  0.3583  0.0481
  338MPD2     C 5067   0.437   0.657   1.107 -0.4428 -0.0213  0.8363
  338MPD2    C1 5068   0.434   0.688   0.969  0.2497  0.5361  0.0145
  338MPD2    C2 5069   0.371   0.806   0.933  0.0443  0.4123  0.2317
  338MPD2    C3 5070   0.290   0.874   1.021  0.6052 -0.0144 -0.6291
  338MPD2    C4 5071   0.305   0.854   1.153 -0.8022 -0.0376  0.4319
  338MPD2    C5 5072   0.371   0.741   1.193 -0.0776  0.2225  0.3076
  338MPD2     H 5073   0.380   0.842   0.831 -0.3916 -2.4978 -0.8306
  338MPD2    H1 5074   0.245   0.909   1.225  0.9976  1.9593  0.3786
  338MPD2    H2 5075   0.480   0.568   1.152  1.5958  0.1316 -0.8057
  338MPD2    H3 5076   0.363   0.717   1.298  0.4173  0.9416  0.5148
  338MPD2     N 5077   0.226   0.984   0.961  0.6676 -0.7851 -0.0742
  338MPD2    H5 5078   0.231   0.986   0.859  2.4553  1.8455  0.0602
  338MPD2    N1 5079   0.498   0.611   0.869  0.4170 -0.0291  0.0116
  338MPD2    H7 5080   0.482   0.640   0.774 -0.5459 -1.2912 -0.2152
  339TMC3    C1 5081   0.034   1.099   0.917  0.1570  0.1361  0.7651
  339TMC3    C2 5082   4.684   0.987   0.902 -0.2897  0.0586  0.1795
  339TMC3    C3 5083   4.675   0.933   0.773  0.5487 -0.2386  0.2075
  339TMC3    C4 5084   0.095   1.155   0.809 -0.1222 -0.2758 -0.2265
  339TMC3    C5 5085   0.070   1.109   0.682  0.0115 -0.1882  0.5162
  339TMC3    C6 5086   4.722   0.997   0.664  0.6620 -0.0635  0.3680
  339TMC3     C 5087   0.133   1.071   1.017  0.2580 -0.4604 -0.7287
  339TMC3     O 5088   0.101   1.069   1.132  0.3708  0.0343 -0.1080
  339TMC3     H 5089   4.645   0.933   0.987  3.1295  1.4144  2.5669
  339TMC3    H1 5090   0.163   1.240   0.816  0.2042 -0.6065  0.7000
  339TMC3    H2 5091   4.712   0.954   0.565  0.6346  4.1674 -1.4270
  339TMC3    C7 5092   0.132   1.184   0.572  0.2978 -0.3389 -0.3983
  339TMC3    C8 5093   0.007   0.799   0.764  0.2294  0.5471  0.4770
  339TMC3    O1 5094   0.141   1.305   0.580  0.5670 -0.0517 -0.5020
  339TMC3    O2 5095   0.071   0.775   0.664  0.0163  0.0811  0.1524
  340MPD2     C 5096   0.933   3.075   9.872 -0.2233 -0.4418  0.0143
  340MPD2    C1 5097   1.004   2.962   9.828  0.4089  0.1204  0.3105
  340MPD2    C2 5098   1.096   2.909   9.916  0.4209  0.1314  0.3144
  340MPD2    C3 5099   1.126   2.955  10.042  0.2292 -0.4662  0.0154
  340MPD2    C4 5100   1.068   3.075  10.070 -0.2904  0.4478  0.7875
  340MPD2    C5 5101   0.968   3.126   9.995 -0.7366  0.4188 -0.1286
  340MPD2     H 5102   1.153   2.822   9.887 -0.3224 -1.0213  2.3104
  340MPD2    H1 5103   1.093   3.133  10.159 -0.6511  0.0341  1.1622
  340MPD2    H2 5104   0.842   3.099   9.819  1.1077 -0.8075 -2.4078
  340MPD2    H3 5105   0.918   3.213  10.035  0.4303  0.7921  0.5075
  340MPD2     N 5106   1.217   2.901  10.136 -0.4093  0.0976  0.2806
  340MPD2    H5 5107   1.218   2.947  10.226 -0.0617  2.0801 -0.7266
  340MPD2    N1 5108   0.983   2.919   9.698 -0.1221 -0.6286  0.0241
  340MPD2    H7 5109   0.916   2.974   9.644 -1.8240 -1.2303  1.5112
  341TMC3    C1 5110   1.031   2.792   9.503  0.2291  0.7270 -0.1803
  341TMC3    C2 5111   0.902   2.777   9.467 -0.2517 -0.6250 -0.5218
  341TMC3    C3 5112   0.870   2.722   9.340  0.2916  0.1750  0.5999
  341TMC3    C4 5113   1.129   2.749   9.424 -0.3804  0.1128  0.4591
  341TMC3    C5 5114   1.094   2.698   9.300  0.0112  0.6516 -0.0269
  341TMC3    C6 5115   0.965   2.684   9.257  0.1754 -0.5280 -0.2357
  341TMC3     C 5116   1.068   2.823   9.641 -0.3767  0.0636 -0.1132
  341TMC3     O 5117   1.175   2.773   9.672  0.0241 -0.2904 -0.0079
  341TMC3     H 5118   0.819   2.805   9.531  1.1919 -1.7123  1.7991
  341TMC3    H1 5119   1.234   2.766   9.445 -0.5800  0.4097  1.2186
  341TMC3    H2 5120   0.935   2.639   9.164 -2.0920  1.2687 -0.3770
  341TMC3    C7 5121   1.201   2.671   9.211  0.2521 -0.2101 -0.8985
  341TMC3    C8 5122   0.735   2.705   9.308  0.0812  0.2080 -0.0652
  341TMC3    O1 5123   1.317   2.662   9.256 -0.1937 -0.0622  0.4346
  341TMC3    O2 5124   0.657   2.699   9.403 -0.1596 -0.0064 -0.1140
  342MPD2     C 5125   3.048   1.418  17.605 -0.1976 -0.6651  0.0965
  342MPD2    C1 5126   3.178   1.446  17.629  0.3002 -0.2284  0.3262
  342MPD2    C2 5127   3.220   1.578  17.663  0.6966  0.0941 -0.4414
  342MPD2    C3 5128   3.121   1.673  17.683  0.1002 -0.3564  0.8014
  342MPD2    C4 5129   2.988   1.643  17.653  0.6408 -0.5022  0.2224
  342MPD2    C5 5130   2.956   1.516  17.618 -0.1239 -0.5258  0.1951
  342MPD2     H 5131   3.326   1.600  17.668  0.7197 -0.1568  0.2569
  342MPD2    H1 5132   2.909   1.716  17.640  0.4382 -0.5895  0.9812
  342MPD2    H2 5133   3.016   1.318  17.579 -1.2569 -0.6557  1.3663
  342MPD2    H3 5134   2.851   1.496  17.601 -1.0292  1.9771  2.6763
  342MPD2     N 5135   3.161   1.809   0.021  0.2523 -0.9702 -0.1526
  342MPD2    H5 5136   3.260   1.833   0.021 -0.1711  0.7535  1.1309
  342MPD2    N1 5137   3.272   1.337  17.633  0.1639 -0.1002  0.5580
  342MPD2    H7 5138   3.370   1.359  17.649  0.9687 -2.3928 -1.1645
  343TMC3    C1 5139   3.373   1.121  17.636  0.6769  1.3029 -0.1992
  343TMC3    C2 5140   3.476   1.164  17.564 -0.0652  0.6201  0.5979
  343TMC3    C3 5141   3.549   1.066  17.501  0.0578  0.0589 -1.1897
  343TMC3    C4 5142   3.346   0.990  17.666 -0.4481 -0.2960  0.1278
  343TMC3    C5 5143   3.424   0.896  17.608  0.3859  0.5301 -0.3552
  343TMC3    C6 5144   3.526   0.931  17.521  0.1776 -0.9809 -0.1663
  343TMC3     C 5145   3.250   1.198  17.631 -0.2696  0.2160  0.0099
  343TMC3     O 5146   3.140   1.140  17.646 -0.6540  0.3008  0.2072
  343TMC3     H 5147   3.497   1.271  17.558 -1.3494  0.9746  2.5090
  343TMC3    H1 5148   3.272   0.959   0.047 -0.7720  2.0486  0.8044
  343TMC3    H2 5149   3.596   0.860  17.480 -0.4058 -0.6476 -1.7653
  343TMC3    C7 5150   3.381   0.757  17.615 -0.0656 -0.0083  0.5245
  343TMC3    C8 5151   3.662   1.114  17.428 -0.4312 -0.7386 -0.2640
  343TMC3    O1 5152   3.282   0.737  17.679  0.8294  0.7022 -0.3156
  343TMC3    O2 5153   3.716   1.215  17.462  0.2132 -0.1578 -0.0094
  344MPD2     C 5154   4.384   1.089  10.447 -0.2308  0.6582 -0.5457
  344MPD2    C1 5155   4.278   1.109  10.359 -0.7386 -0.2616 -0.0160
  344MPD2    C2 5156   4.308   1.130  10.225 -0.4658  0.0071  0.1218
  344MPD2    C3 5157   4.433   1.148  10.172  0.1162 -0.0184 -0.4109
  344MPD2    C4 5158   4.540   1.134  10.259 -0.3290 -0.3735  0.7576
  344MPD2    C5 5159   4.514   1.108  10.392 -0.0169  0.6134  0.3768
  344MPD2     H 5160   4.218   1.137  10.165  0.6433  0.9464 -1.4163
  344MPD2    H1 5161   4.643   1.151  10.232 -0.4906 -3.2258 -1.6451
  344MPD2    H2 5162   4.368   1.079  10.554 -0.5451 -0.9296 -0.7314
  344MPD2    H3 5163   4.590   1.093  10.467  0.1802  2.4215  0.5377
  344MPD2     N 5164   4.459   1.185  10.040 -0.1766  0.0705 -0.0185
  344MPD2    H5 5165   4.559   1.186  10.024 -0.1049  0.2459  0.4575
  344MPD2    N1 5166   4.138   1.114  10.403 -0.3447  0.5784 -0.1947
  344MPD2    H7 5167   4.061   1.126  10.339 -1.5114 -0.1518  1.0663
  345TMC3    C1 5168   4.414   1.239   9.817 -0.3086  0.1770  0.2487
  345TMC3    C2 5169   4.553   1.244   9.801  0.3695 -0.5390 -0.3771
  345TMC3    C3 5170   4.597   1.318   9.691  0.3067  0.3980 -0.0671
  345TMC3    C4 5171   4.330   1.278   9.719 -0.2648  0.3345  0.4520
  345TMC3    C5 5172   4.380   1.331   9.603  0.3659 -0.4645  0.6014
  345TMC3    C6 5173   4.516   1.344   9.585 -0.0679  0.0926 -0.0572
  345TMC3     C 5174   4.358   1.207   9.947  0.2930 -0.4556 -0.4246
  345TMC3     O 5175   4.233   1.221   9.963  0.8301  0.0930  0.2113
  345TMC3     H 5176   4.630   1.211   9.870 -3.1086 -2.2444  2.7268
  345TMC3    H1 5177   4.224   1.260   9.731 -0.3879  0.8944  0.1891
  345TMC3    H2 5178   4.553   1.368   9.486 -2.0737  0.6341 -0.6820
  345TMC3    C7 5179   4.302   1.413   9.520 -0.1086 -0.5295 -0.3719
  345TMC3    C8 5180   4.708   1.400   9.720  0.4699 -0.1010  0.1995
  345TMC3    O1 5181   4.369   1.489   9.452 -0.2681  0.3799  0.1225
  345TMC3    O2 5182   0.030   1.394   9.832 -0.4073  0.0568 -0.2790
  346MPD2     C 5183   4.225   3.237  14.305  0.0911  0.0441 -0.7820
  346MPD2    C1 5184   4.354   3.199  14.285 -0.1477 -0.9746  0.7189
  346MPD2    C2 5185   4.439   3.214  14.389 -0.4434  0.4399  0.2654
  346MPD2    C3 5186   4.396   3.274  14.508 -0.5941 -1.1562  0.2649
  346MPD2    C4 5187   4.269   3.313  14.524  0.3483 -0.0284 -0.2601
  346MPD2    C5 5188   4.184   3.297  14.421 -0.9031  0.3625 -0.2212
  346MPD2     H 5189   4.540   3.177  14.372 -0.7464  0.6126 -1.8469
  346MPD2    H1 5190   4.239   3.345  14.623 -3.5053 -1.0498 -1.0964
  346MPD2    H2 5191   4.143   3.219  14.237  0.7276 -0.2083 -1.4821
  346MPD2    H3 5192   4.082   3.335  14.422 -0.8616  0.4458  1.2217
  346MPD2     N 5193   4.496   3.280  14.609  0.6167 -0.2469 -0.4937
  346MPD2    H5 5194   4.592   3.260  14.585  0.5315 -0.8091 -0.3575
  346MPD2    N1 5195   4.401   3.128  14.171  0.1260 -0.4123 -0.3255
  346MPD2    H7 5196   4.501   3.112  14.173 -0.1516 -1.9816  1.0264
  347TMC3    C1 5197   4.577   3.246  14.827  0.2559 -0.8694  0.0996
  347TMC3    C2 5198   4.666   3.153  14.771  0.1596  0.0389  0.8991
  347TMC3    C3 5199   0.042   3.108  14.859  0.1334 -0.8963 -0.0042
  347TMC3    C4 5200   4.606   3.316  14.934 -0.2335  0.0059  0.7552
  347TMC3    C5 5201   4.711   3.283  15.013 -0.5079  0.4401  0.0100
  347TMC3    C6 5202   0.059   3.175  14.981  0.0001 -0.5379  0.6524
  347TMC3     C 5203   4.474   3.308  14.745  0.3726  0.4199  0.2661
  347TMC3     O 5204   4.381   3.369  14.792 -0.0879  0.1029  0.1919
  347TMC3     H 5205   4.653   3.098  14.678  0.9003 -0.0717  0.8653
  347TMC3    H1 5206   4.550   3.405  14.959  1.6011  0.9283  1.5800
  347TMC3    H2 5207   0.131   3.135  15.051  0.4147 -0.2717  0.3751
  347TMC3    C7 5208   0.024   3.365  15.125 -0.2225 -0.0631  0.5749
  347TMC3    C8 5209   0.155   3.058  14.782 -0.4189  0.3675 -0.3405
  347TMC3    O1 5210   4.658   3.436  15.169  0.1463  0.3385 -0.5827
  347TMC3    O2 5211   0.132   2.967  14.700 -0.2329 -0.5229 -0.0577
  348MPD2     C 5212   2.941   2.877  12.056 -0.4406 -0.1549  0.5299
  348MPD2    C1 5213   3.070   2.834  12.041  1.1162 -0.3338 -0.6780
  348MPD2    C2 5214   3.100   2.781  11.918 -0.5679 -0.5363 -0.6396
  348MPD2    C3 5215   3.010   2.794  11.809 -0.8804 -0.3252  0.3039
  348MPD2    C4 5216   2.885   2.838  11.836  0.2073  0.5100 -0.5157
  348MPD2    C5 5217   2.852   2.884  11.959  0.6549  1.0539  0.3821
  348MPD2     H 5218   3.197   2.743  11.892  0.7051  1.4989  1.1207
  348MPD2    H1 5219   2.803   2.842  11.764 -0.1583  0.0007 -0.1227
  348MPD2    H2 5220   2.906   2.902  12.156  2.1830  0.7731  1.2069
  348MPD2    H3 5221   2.755   2.926  11.981  0.1504  0.1151 -0.0504
  348MPD2     N 5222   3.058   2.745  11.681  0.0393  0.0220 -0.2626
  348MPD2    H5 5223   3.156   2.726  11.661  0.7748  2.5578  0.8981
  348MPD2    N1 5224   3.169   2.826  12.138  0.0839 -0.7066 -0.3088
  348MPD2    H7 5225   3.246   2.763  12.120 -1.8264 -3.0704 -0.3438
  349TMC3    C1 5226   3.290   2.882  12.330  0.7054 -0.1492 -0.2651
  349TMC3    C2 5227   3.272   2.810  12.440  0.6523  0.2134 -0.3616
  349TMC3    C3 5228   3.365   2.725  12.481  0.4294 -0.0533 -0.3194
  349TMC3    C4 5229   3.401   2.869  12.254 -0.4631 -0.0694 -0.2548
  349TMC3    C5 5230   3.499   2.782  12.296 -0.2781 -0.4094 -0.4737
  349TMC3    C6 5231   3.486   2.722  12.424  0.2208 -0.0971  0.5656
  349TMC3     C 5232   3.168   2.899  12.255  0.1994  0.3578 -0.0710
  349TMC3     O 5233   3.089   2.978  12.302 -0.1697  0.4290  0.2800
  349TMC3     H 5234   3.186   2.830  12.502  1.1286 -2.7588  1.2889
  349TMC3    H1 5235   3.407   2.932  12.166  1.6516 -0.3708 -0.3083
  349TMC3    H2 5236   3.562   2.651  12.457  0.6485  0.3658  0.5715
  349TMC3    C7 5237   3.516   2.681  12.199 -0.2263 -0.9069 -0.8831
  349TMC3    C8 5238   3.312   2.601  12.522  0.1240  0.0954  0.8204
  349TMC3    O1 5239   3.491   2.566  12.228 -0.4026  0.3330  0.0315
  349TMC3    O2 5240   3.396   2.523  12.571  0.2802  0.2221  0.3870
  350MPD2     C 5241   1.832   0.554  10.065  0.1463 -0.3629  0.8416
  350MPD2    C1 5242   1.779   0.444  10.127  0.6971 -0.1860  0.0206
  350MPD2    C2 5243   1.791   0.427  10.263  0.0819 -0.7389  0.1893
  350MPD2    C3 5244   1.848   0.527  10.347  0.6855  0.0639  0.5175
  350MPD2    C4 5245   1.897   0.643  10.281 -0.1217 -0.2054 -0.0729
  350MPD2    C5 5246   1.893   0.654  10.142  0.1706  0.3363  0.5432
  350MPD2     H 5247   1.759   0.335  10.309 -1.6549  2.1997  4.8012
  350MPD2    H1 5248   1.942   0.727  10.333 -1.4760  0.7879 -0.4868
  350MPD2    H2 5249   1.844   0.555   9.957  1.7033  1.2686  1.0173
  350MPD2    H3 5250   1.947   0.737  10.097 -0.6459  1.4345  1.5828
  350MPD2     N 5251   1.860   0.511  10.487  0.6309 -0.2038  0.2679
  350MPD2    H5 5252   1.884   0.592  10.543  2.1370 -0.1984 -0.3732
  350MPD2    N1 5253   1.710   0.343  10.057  0.1114 -0.7324 -0.4484
  350MPD2    H7 5254   1.695   0.251  10.099 -0.3594 -0.4847 -0.0742
  351TMC3    C1 5255   1.618   0.246   9.867 -0.5914  0.2043  0.3500
  351TMC3    C2 5256   1.656   0.126   9.922 -0.0831  0.0010 -0.0821
  351TMC3    C3 5257   1.575   0.019   9.890 -0.6053  0.3042  0.5897
  351TMC3    C4 5258   1.505   0.267   9.792  0.1380  0.3794  0.1285
  351TMC3    C5 5259   1.422   0.160   9.780 -0.0783 -0.0648  0.1266
  351TMC3    C6 5260   1.452   0.035   9.832 -0.2313 -0.0132  0.0875
  351TMC3     C 5261   1.669   0.367   9.929  0.7935  0.1934 -0.1846
  351TMC3     O 5262   1.649   0.474   9.873 -0.1630 -0.2292 -0.1360
  351TMC3     H 5263   1.754   0.115   9.967  0.6477 -1.0483 -1.9593
  351TMC3    H1 5264   1.482   0.365   9.750  1.0834 -0.2402 -1.8205
  351TMC3    H2 5265   1.388   4.671   9.825 -0.9315  0.4983  0.2514
  351TMC3    C7 5266   1.296   0.173   9.718  0.4607 -0.3161  0.5334
  351TMC3    C8 5267   1.614   4.596   9.916 -0.0473  0.6120  0.2459
  351TMC3    O1 5268   1.285   0.264   9.639  0.0834 -0.3750 -0.0104
  351TMC3    O2 5269   1.575   4.513   9.837 -0.2921  0.1680  0.9982
  352MPD2     C 5270   0.844   2.547   1.283 -0.2739 -0.2238  0.2548
  352MPD2    C1 5271   0.729   2.481   1.254  0.1848 -0.2987  1.2025
  352MPD2    C2 5272   0.715   2.350   1.291  0.5808  0.8173  0.0412
  352MPD2    C3 5273   0.817   2.284   1.356 -0.7948  0.3620 -0.1364
  352MPD2    C4 5274   0.938   2.347   1.373  0.7467  0.2983  0.1008
  352MPD2    C5 5275   0.945   2.484   1.351  0.1242 -0.6145  0.3306
  352MPD2     H 5276   0.623   2.301   1.263  2.0307 -1.6656 -0.3374
  352MPD2    H1 5277   1.024   2.292   1.409 -0.7347 -0.7668  2.0441
  352MPD2    H2 5278   0.865   2.652   1.265  0.1306 -0.2430  0.6045
  352MPD2    H3 5279   1.028   2.542   1.389  0.9059 -1.2214 -0.4484
  352MPD2     N 5280   0.801   2.152   1.396  0.3000  0.0878 -0.0112
  352MPD2    H5 5281   0.889   2.113   1.429  0.9978 -0.7853 -2.9204
  352MPD2    N1 5282   0.630   2.553   1.181 -0.0474  0.1223  0.0580
  352MPD2    H7 5283   0.649   2.650   1.156 -1.7616  0.1756 -1.0558
  353TMC3    C1 5284   0.712   1.935   1.386 -0.6394  0.0704  0.7456
  353TMC3    C2 5285   0.820   1.889   1.456  1.0847 -0.1977 -0.1448
  353TMC3    C3 5286   0.853   1.755   1.449 -0.1282  0.6897 -0.5844
  353TMC3    C4 5287   0.619   1.844   1.326 -0.5483 -0.5136 -0.0184
  353TMC3    C5 5288   0.646   1.713   1.329 -0.0802 -0.4582  0.7430
  353TMC3    C6 5289   0.772   1.666   1.380 -0.6250  0.5581 -0.5087
  353TMC3     C 5290   0.688   2.071   1.369 -0.6803  0.6768 -0.8124
  353TMC3     O 5291   0.569   2.107   1.366 -0.3013  0.0360  0.2462
  353TMC3     H 5292   0.868   1.962   1.520 -0.9864  2.3065 -1.4615
  353TMC3    H1 5293   0.538   1.890   1.271 -0.3170 -1.1760 -0.9161
  353TMC3    H2 5294   0.800   1.562   1.378 -2.1704  0.1486 -0.5210
  353TMC3    C7 5295   0.610   1.650   1.202 -0.1901  0.2924  0.4118
  353TMC3    C8 5296   0.980   1.716   1.504  0.4092  0.8183 -0.4919
  353TMC3    O1 5297   0.587   1.714   1.100  0.4025  0.2738  0.4545
  353TMC3    O2 5298   1.012   1.770   1.606  0.1235 -0.2491  0.1724
  354TMC3    C1 5299   2.313   3.979  13.458 -0.5202 -0.1314 -0.5629
  354TMC3    C2 5300   2.371   4.109  13.466 -0.6521  0.3039 -0.5503
  354TMC3    C3 5301   2.323   4.198  13.383  0.0019 -0.2571 -0.3588
  354TMC3    C4 5302   2.223   3.937  13.365  0.3227  0.5230  0.8278
  354TMC3    C5 5303   2.169   4.039  13.291  0.0731 -0.3761  0.4056
  354TMC3    C6 5304   2.222   4.164  13.297  0.6884 -0.1879 -0.1827
  354TMC3     C 5305   2.305   3.911  13.589 -0.1309 -0.1770 -0.2265
  354TMC3     O 5306   2.194   3.906  13.631  0.2657 -0.5076  0.2233
  354TMC3     H 5307   2.439   4.140  13.545 -0.4848 -0.6089 -0.3355
  354TMC3    H1 5308   2.173   3.843  13.384  2.0603 -0.7994 -1.1834
  354TMC3    H2 5309   2.175   4.234  13.229 -1.6383 -0.1105  1.4972
  354TMC3    C7 5310   2.139   4.013  13.153 -0.7960  0.0416 -0.5891
  354TMC3    C8 5311   2.430   4.271  13.319  0.3121 -0.1928 -0.4218
  354TMC3    O1 5312   2.059   4.081  13.093  0.4734  0.2965  0.1007
  354TMC3    O2 5313   2.532   4.298  13.383 -0.0670 -0.1955  0.1625
  355MPD2     C 5314   2.759   4.540  11.940 -0.3043  0.0474 -0.2627
  355MPD2    C1 5315   2.741   4.570  11.812 -0.6109 -0.3544  0.3672
  355MPD2    C2 5316   2.826   4.659  11.756  0.1700  0.2480 -0.0182
  355MPD2    C3 5317   2.911   0.013  11.834 -0.2004 -0.0476  0.6989
  355MPD2    C4 5318   2.921   4.709  11.969  0.2216 -0.9139  0.4197
  355MPD2    C5 5319   2.840   4.610  12.019  0.5205 -0.7760  0.2432
  355MPD2     H 5320   2.836   4.667  11.648  2.5402  0.3371  0.2189
  355MPD2    H1 5321   2.983   0.044  12.037 -0.9410  1.6138 -0.6506
  355MPD2    H2 5322   2.710   4.453  11.983  0.3577  0.8244  2.1030
  355MPD2    H3 5323   2.849   4.580  12.123  0.0451 -1.0286  0.2121
  355MPD2     N 5324   2.986   0.127  11.787  0.3348  0.3220 -0.4083
  355MPD2    H5 5325   3.036   0.187  11.851  2.6980  0.3233 -2.2388
  355MPD2    N1 5326   2.631   4.498  11.756 -0.0984  0.3006  1.1426
  355MPD2    H7 5327   2.595   4.426  11.818  0.3954  0.6449  1.8422
  356TMC3    C1 5328   3.094   0.272  11.627  0.7020 -0.0262 -0.2051
  356TMC3    C2 5329   3.116   0.315  11.498 -0.5038 -0.4912  0.1516
  356TMC3    C3 5330   3.195   0.419  11.477  0.3105  0.0085 -0.0827
  356TMC3    C4 5331   3.150   0.342  11.730 -0.0742  0.1888  0.4185
  356TMC3    C5 5332   3.235   0.452  11.707  0.6800 -0.1919 -0.8554
  356TMC3    C6 5333   3.259   0.490  11.574 -0.0993 -0.0137  0.1361
  356TMC3     C 5334   2.988   0.173  11.656 -0.3705  0.5794 -0.5369
  356TMC3     O 5335   2.934   0.130  11.555 -0.6540 -0.2595 -0.3564
  356TMC3     H 5336   3.066   0.264  11.416 -0.8913  0.0003  0.0844
  356TMC3    H1 5337   3.122   0.320  11.833 -0.6983 -1.8736 -0.1846
  356TMC3    H2 5338   3.321   0.575  11.548 -0.3427  1.2458  3.7397
  356TMC3    C7 5339   3.241   0.559  11.812 -1.1953 -0.9784  0.0333
  356TMC3    C8 5340   3.197   0.459  11.337  0.3075 -0.6663  0.0873
  356TMC3    O1 5341   3.190   0.532  11.922  0.1738 -0.7940 -0.4912
  356TMC3    O2 5342   3.165   0.370  11.259  0.5432  0.0638 -0.3768
  357MPD2     C 5343   3.112   3.879   2.169  0.3882  1.1249 -0.9318
  357MPD2    C1 5344   2.990   3.837   2.119 -0.0463 -0.0778 -0.2092
  357MPD2    C2 5345   2.877   3.884   2.177 -0.1620  0.5277  1.5361
  357MPD2    C3 5346   2.884   3.992   2.269  0.8113 -0.0684 -0.0573
  357MPD2    C4 5347   3.007   4.046   2.301 -0.6890 -0.0945  0.1497
  357MPD2    C5 5348   3.119   3.981   2.258  0.1936  0.6225 -0.3712
  357MPD2     H 5349   2.785   3.832   2.155  1.4801 -2.9143  2.6081
  357MPD2    H1 5350   3.023   4.146   2.341  1.4698 -0.3965  0.0702
  357MPD2    H2 5351   3.205   3.851   2.121  1.6415 -1.6574  3.0921
  357MPD2    H3 5352   3.221   4.012   2.276  0.5514 -0.1787 -1.0400
  357MPD2     N 5353   2.776   4.052   2.326  0.0634 -0.0628  0.3211
  357MPD2    H5 5354   2.799   4.129   2.387  0.3860 -0.8141  1.1598
  357MPD2    N1 5355   2.980   3.722   2.034  0.3412 -0.2897 -0.0953
  357MPD2    H7 5356   2.884   3.687   2.028 -0.1670  0.6915  2.4578
  358TMC3    C1 5357   3.030   3.571   1.864 -0.1692  0.0393 -0.4726
  358TMC3    C2 5358   2.899   3.525   1.862 -0.1798  0.1211 -0.0956
  358TMC3    C3 5359   2.847   3.494   1.740 -0.1634  0.2529 -0.1759
  358TMC3    C4 5360   3.112   3.546   1.757 -0.1438 -0.2317  0.7476
  358TMC3    C5 5361   3.059   3.496   1.642 -0.3414 -0.3383 -0.2916
  358TMC3    C6 5362   2.927   3.489   1.627 -0.1684 -0.1209 -0.5260
  358TMC3     C 5363   3.079   3.678   1.954 -0.6550 -0.4230  0.7857
  358TMC3     O 5364   3.199   3.708   1.945  0.3713  0.0248 -0.0109
  358TMC3     H 5365   2.834   3.544   1.947 -2.3830 -0.9073 -1.5457
  358TMC3    H1 5366   3.219   3.562   1.761 -0.4108  1.7295 -0.2926
  358TMC3    H2 5367   2.886   3.461   1.530 -1.4089  0.8476 -0.2841
  358TMC3    C7 5368   3.145   3.480   1.525  0.4683 -0.1581 -0.1619
  358TMC3    C8 5369   2.706   3.509   1.729 -0.5466 -0.2049 -0.7602
  358TMC3    O1 5370   3.264   3.519   1.541  0.6972 -0.3950  0.0127
  358TMC3    O2 5371   2.637   3.476   1.828  0.3718 -0.0231  0.4398
  359MPD2     C 5372   2.991   3.908  12.238 -0.1750  0.1344 -0.0386
  359MPD2    C1 5373   2.926   3.818  12.151 -0.3143 -0.1417 -0.7560
  359MPD2    C2 5374   2.793   3.802  12.165 -0.2160  0.1649  0.7275
  359MPD2    C3 5375   2.730   3.860  12.269 -0.7639  0.9428 -0.1518
  359MPD2    C4 5376   2.789   3.949  12.353 -0.1937 -0.2526  0.7956
  359MPD2    C5 5377   2.920   3.972  12.339  0.4895 -0.1261 -0.1580
  359MPD2     H 5378   2.735   3.732  12.106  0.8198 -1.3344  1.4929
  359MPD2    H1 5379   2.741   3.993  12.439 -0.4293  1.0617 -0.0104
  359MPD2    H2 5380   3.097   3.933  12.235 -0.3121  0.6746 -0.3580
  359MPD2    H3 5381   2.984   4.040  12.394  1.2490 -0.3101 -0.8137
  359MPD2     N 5382   2.598   3.814  12.282 -0.0774  0.5126 -0.4516
  359MPD2    H5 5383   2.551   3.773  12.202  0.8030 -0.3885 -0.5217
  359MPD2    N1 5384   3.000   3.735  12.067  0.4840 -0.3773 -0.2847
  359MPD2    H7 5385   2.950   3.663  12.016 -2.1886  0.5085  1.0806
  360TMC3    C1 5386   3.187   3.633  11.962  0.6747 -0.2259 -0.6770
  360TMC3    C2 5387   3.321   3.640  11.936 -0.5704  0.2677 -0.0476
  360TMC3    C3 5388   3.370   3.529  11.865 -0.0844  0.6332 -0.0598
  360TMC3    C4 5389   3.106   3.541  11.903 -0.7836  0.2635  0.1369
  360TMC3    C5 5390   3.159   3.450  11.811 -0.4605 -0.5951  0.0893
  360TMC3    C6 5391   3.292   3.436  11.800  0.3137  0.6720  0.1030
  360TMC3     C 5392   3.134   3.716  12.073 -0.4414 -0.7712  0.0658
  360TMC3     O 5393   3.218   3.760  12.152  0.3843 -0.4724 -0.4177
  360TMC3     H 5394   3.387   3.693  12.004 -0.4546 -1.3093  1.0815
  360TMC3    H1 5395   2.998   3.547  11.900 -0.7300  1.4247  0.6417
  360TMC3    H2 5396   3.320   3.365  11.723 -1.0229  0.0039  0.2306
  360TMC3    C7 5397   3.095   3.427  11.686 -0.3426  0.5906  0.3370
  360TMC3    C8 5398   3.498   3.567  11.807 -0.0428  0.0109 -0.0771
  360TMC3    O1 5399   3.105   3.512  11.601  0.0203 -0.1717 -0.7526
  360TMC3    O2 5400   3.541   3.678  11.835 -0.2163 -0.1781 -0.2534
  361MPD2     C 5401   3.945   1.915  16.953  0.6930 -0.4564  0.5046
  361MPD2    C1 5402   4.006   1.969  17.059  0.4185  0.1605  0.6526
  361MPD2    C2 5403   4.138   1.943  17.084 -0.3077 -0.7099  0.7182
  361MPD2    C3 5404   4.204   1.843  17.022 -0.6673  0.2351  0.1204
  361MPD2    C4 5405   4.144   1.787  16.913 -0.2483 -0.2252 -0.5166
  361MPD2    C5 5406   4.013   1.815  16.878  0.3914 -0.6561 -0.6107
  361MPD2     H 5407   4.183   1.996  17.168  0.8562 -0.1384 -0.2651
  361MPD2    H1 5408   4.191   1.721  16.841 -1.1242 -0.7190 -0.6460
  361MPD2    H2 5409   3.842   1.938  16.928  0.5003 -1.6047  0.2523
  361MPD2    H3 5410   3.969   1.771  16.788 -1.1452  1.6076 -0.9601
  361MPD2     N 5411   4.331   1.801  17.066 -0.0228  0.0908  0.4960
  361MPD2    H5 5412   4.370   1.718  17.022  0.6450  1.7882 -2.1926
  361MPD2    N1 5413   3.938   2.056  17.140  0.3238 -0.1436  0.2836
  361MPD2    H7 5414   3.988   2.130  17.188 -0.4399  1.3507 -1.2553
  362TMC3    C1 5415   3.766   2.189  17.230  0.3818 -1.0413  0.8838
  362TMC3    C2 5416   3.645   2.182  17.286  0.0431 -0.2747  0.4607
  362TMC3    C3 5417   3.594   2.295  17.340  0.0174 -0.4779  0.4989
  362TMC3    C4 5418   3.833   2.307  17.217 -0.9312 -1.1956  0.2458
  362TMC3    C5 5419   3.776   2.418  17.263 -1.1635 -0.0949 -0.4821
  362TMC3    C6 5420   3.657   2.410  17.332  0.0597  0.3376  0.0362
  362TMC3     C 5421   3.806   2.072  17.147  1.3374  0.0321  0.3441
  362TMC3     O 5422   3.718   1.989  17.129  0.0128 -0.3056 -0.2614
  362TMC3     H 5423   3.606   2.082  17.302 -0.0450 -0.5008 -1.1598
  362TMC3    H1 5424   3.935   2.309  17.181 -0.7313 -1.2653  0.8027
  362TMC3    H2 5425   3.616   2.506  17.363  0.9341  0.9323 -0.6386
  362TMC3    C7 5426   3.803   2.552  17.204 -0.0074 -0.1867  0.4035
  362TMC3    C8 5427   3.469   2.292  17.411  0.4269  0.2008  0.0279
  362TMC3    O1 5428   3.758   2.651  17.263 -0.2399  0.2150 -0.5351
  362TMC3    O2 5429   3.396   2.197  17.385  0.4378 -0.0718 -0.1531
  363TMC3    C1 5430   1.985   4.197   9.784 -0.0999 -0.7434 -0.5045
  363TMC3    C2 5431   2.078   4.158   9.873 -0.0763 -0.1931 -0.0348
  363TMC3    C3 5432   2.126   4.257   9.957  0.5636  0.6013 -0.4868
  363TMC3    C4 5433   1.932   4.326   9.771  0.9334  0.2301  0.0012
  363TMC3    C5 5434   1.982   4.416   9.860 -0.3600  0.1941 -0.2109
  363TMC3    C6 5435   2.076   4.384   9.952 -0.2272 -0.0585  0.5010
  363TMC3     C 5436   1.965   4.104   9.677  0.6654  0.6171  0.0127
  363TMC3     O 5437   2.049   4.014   9.664  0.1179 -0.5076  0.1967
  363TMC3     H 5438   2.116   4.056   9.880  0.7943  0.1027 -0.4527
  363TMC3    H1 5439   1.881   4.363   9.683 -1.5226 -1.8919  0.5166
  363TMC3    H2 5440   2.098   4.455  10.031  1.4209  1.1176 -1.0115
  363TMC3    C7 5441   1.991   4.557   9.830  0.2600 -0.6662  0.9977
  363TMC3    C8 5442   2.252   4.239  10.030  0.1719  0.1392 -0.3997
  363TMC3    O1 5443   2.075   4.627   9.883  0.9484 -0.2620  0.0455
  363TMC3    O2 5444   2.281   4.330  10.113  0.1615 -0.1672 -0.0307
  364MPD2     C 5445   1.880   4.011  11.278 -0.1515  0.3022 -0.5016
  364MPD2    C1 5446   1.820   3.950  11.164 -0.1108  0.3025  0.2381
  364MPD2    C2 5447   1.864   3.819  11.127 -0.3665  0.5686 -0.7874
  364MPD2    C3 5448   1.955   3.747  11.208  0.6090 -0.2950 -0.3402
  364MPD2    C4 5449   1.996   3.808  11.317  0.5232  0.0819 -0.1104
  364MPD2    C5 5450   1.958   3.934  11.356  0.0805  0.8216  0.0803
  364MPD2     H 5451   1.810   3.784  11.040 -2.7425 -0.8501  1.2486
  364MPD2    H1 5452   2.062   3.753  11.383 -0.6766 -0.6607  0.4863
  364MPD2    H2 5453   1.851   4.112  11.305 -1.3031 -0.7718  2.2446
  364MPD2    H3 5454   2.000   3.960  11.453  0.0508  0.0805  0.2955
  364MPD2     N 5455   2.007   3.620  11.176  0.0831  0.0353  0.4327
  364MPD2    H5 5456   2.087   3.576  11.221 -0.3880 -3.5433 -2.1910
  364MPD2    N1 5457   1.749   4.033  11.072 -0.0287  0.0902 -0.4935
  364MPD2    H7 5458   1.724   4.127  11.101  0.0539  0.6490 -2.2352
  365TMC3    C1 5459   1.667   4.100  10.856  0.0681 -0.4744  0.3467
  365TMC3    C2 5460   1.698   4.077  10.720  0.4634  0.5029  0.3033
  365TMC3    C3 5461   1.658   4.168  10.633  0.5797  0.4154  0.1485
  365TMC3    C4 5462   1.585   4.193  10.905 -0.2304  0.1684  0.1799
  365TMC3    C5 5463   1.552   4.291  10.811  0.3545  0.7810 -0.4590
  365TMC3    C6 5464   1.591   4.276  10.680 -0.6378  0.1297 -0.5723
  365TMC3     C 5465   1.709   3.996  10.939  0.4754  0.3938  0.4957
  365TMC3     O 5466   1.734   3.895  10.874  0.2995 -0.0599  0.4363
  365TMC3     H 5467   1.780   4.015  10.686  1.1982  1.1131  0.9626
  365TMC3    H1 5468   1.560   4.190  11.010  1.1859 -0.8552  0.4840
  365TMC3    H2 5469   1.546   4.347  10.612  0.6587  1.5453  0.0548
  365TMC3    C7 5470   1.519   4.426  10.857  0.1940 -0.2758  0.1090
  365TMC3    C8 5471   1.608   4.113  10.507 -0.8658  0.0818 -0.1948
  365TMC3    O1 5472   1.590   4.513  10.813  0.0954 -0.5926  0.4243
  365TMC3    O2 5473   1.541   4.186  10.442 -0.2460  0.0670  0.3775
  366MPD2     C 5474   0.521   0.182  15.724 -0.2891  0.9413  0.4871
  366MPD2    C1 5475   0.468   0.198  15.601  0.0196  0.4364 -0.1246
  366MPD2    C2 5476   0.522   0.131  15.498 -0.7173 -1.0251 -0.1628
  366MPD2    C3 5477   0.648   0.066  15.516 -0.5441  0.2321  0.3970
  366MPD2    C4 5478   0.695   0.042  15.643 -0.1538 -0.4448 -0.5954
  366MPD2    C5 5479   0.623   0.088  15.751  0.0365 -0.2038 -0.0267
  366MPD2     H 5480   0.487   0.137  15.395 -1.3556 -0.7173  0.0696
  366MPD2    H1 5481   0.785   4.710  15.670 -0.0564 -0.7323 -1.5145
  366MPD2    H2 5482   0.483   0.239  15.808 -1.3289  2.4303 -0.9959
  366MPD2    H3 5483   0.652   0.080  15.855 -0.6188  0.1106  0.1838
  366MPD2     N 5484   0.736   0.044  15.410 -0.3034  0.2146  0.0142
  366MPD2    H5 5485   0.805   4.696  15.430  0.1103  0.6425  0.1021
  366MPD2    N1 5486   0.357   0.284  15.599  0.1374 -0.1082  0.0419
  366MPD2    H7 5487   0.339   0.326  15.690  0.1032  1.8810 -0.8875
  367TMC3    C1 5488   0.194   0.432  15.495 -0.6386  0.0361  0.5403
  367TMC3    C2 5489   0.225   0.518  15.595 -0.8333  0.5360 -0.4020
  367TMC3    C3 5490   0.168   0.642  15.579 -0.4449  0.7753  0.4304
  367TMC3    C4 5491   0.121   0.453  15.381  0.4979 -0.1596 -1.0540
  367TMC3    C5 5492   0.069   0.581  15.375  0.1485 -0.6073  0.4811
  367TMC3    C6 5493   0.079   0.676  15.473 -0.0939 -0.1247 -0.7455
  367TMC3     C 5494   0.275   0.312  15.492  0.3837 -0.3133  0.3150
  367TMC3     O 5495   0.287   0.256  15.384  0.0996 -0.0888  0.5030
  367TMC3     H 5496   0.294   0.498  15.676 -2.2395  1.0053  0.9072
  367TMC3    H1 5497   0.104   0.382  15.301  0.7923 -0.3665 -0.9322
  367TMC3    H2 5498   0.036   0.773  15.452  0.4381  0.1594 -0.5263
  367TMC3    C7 5499   4.679   0.606  15.278  0.9244  0.0161  0.5831
  367TMC3    C8 5500   0.229   0.743  15.669  0.1778  1.0290  0.2703
  367TMC3    O1 5501   4.656   0.722  15.255  0.4652  0.2858  0.0202
  367TMC3    O2 5502   0.308   0.707  15.754  0.1809 -0.0133 -0.4558
  368MPD2     C 5503   1.176   2.510  12.665  0.0485 -0.4295  1.2089
  368MPD2    C1 5504   1.144   2.636  12.609 -0.0645 -0.1980 -0.0837
  368MPD2    C2 5505   1.250   2.703  12.548  0.3958 -0.5127 -0.9160
  368MPD2    C3 5506   1.383   2.660  12.546 -0.5376  0.3340 -0.2727
  368MPD2    C4 5507   1.413   2.538  12.599  0.5094  0.3803  0.5742
  368MPD2    C5 5508   1.313   2.477  12.670  0.1182  0.4570  1.0605
  368MPD2     H 5509   1.224   2.796  12.499  1.3126  1.5213  2.4490
  368MPD2    H1 5510   1.510   2.495  12.620  0.3614  0.4461  1.3991
  368MPD2    H2 5511   1.109   2.441  12.714 -0.7227 -0.2542  0.3919
  368MPD2    H3 5512   1.341   2.388  12.726 -1.3899 -1.4370 -1.2119
  368MPD2     N 5513   1.496   2.717  12.480  0.4389 -0.8595 -0.3633
  368MPD2    H5 5514   1.588   2.689  12.514  2.1387  3.8734 -1.0098
  368MPD2    N1 5515   1.011   2.683  12.611 -0.6159 -0.3652  0.2243
  368MPD2    H7 5516   0.933   2.626  12.643 -2.5478  0.9144 -2.2289
  369TMC3    C1 5517   0.819   2.803  12.544  0.2669  0.1399  0.4936
  369TMC3    C2 5518   0.763   2.886  12.447 -0.1087  0.8938 -0.2347
  369TMC3    C3 5519   0.632   2.920  12.457 -0.4694  0.3282  0.9323
  369TMC3    C4 5520   0.752   2.768  12.662  0.0775  0.6450  1.1722
  369TMC3    C5 5521   0.622   2.808  12.670  0.9513 -0.6659 -0.3001
  369TMC3    C6 5522   0.563   2.879  12.566 -0.2274  0.2422 -0.3794
  369TMC3     C 5523   0.962   2.796  12.549 -0.6020 -0.8517 -0.5117
  369TMC3     O 5524   1.018   2.894  12.502 -0.0311  0.0434 -0.2221
  369TMC3     H 5525   0.835   2.942  12.388 -0.8336  1.8759 -0.1937
  369TMC3    H1 5526   0.795   2.720  12.749  0.9623 -0.7401 -0.0327
  369TMC3    H2 5527   0.457   2.899  12.573  0.2068  2.9476 -1.5053
  369TMC3    C7 5528   0.548   2.754  12.780 -0.6953 -0.0315  0.1650
  369TMC3    C8 5529   0.571   2.999  12.351 -0.3541 -0.3418 -0.3021
  369TMC3    O1 5530   0.589   2.655  12.832 -0.0101 -0.1646  0.2019
  369TMC3    O2 5531   0.462   3.048  12.376  0.3957  0.2351 -0.0614
  370TMC3    C1 5532   0.638   2.907  16.250 -0.1790 -0.4831  0.0703
  370TMC3    C2 5533   0.600   2.841  16.357 -0.3804  0.3575 -0.1266
  370TMC3    C3 5534   0.535   2.719  16.342 -0.0464  0.4658 -0.1569
  370TMC3    C4 5535   0.578   2.884  16.130  0.0762 -0.0225 -0.5083
  370TMC3    C5 5536   0.502   2.767  16.117 -0.1809 -1.3765  0.6106
  370TMC3    C6 5537   0.497   2.672  16.218  0.2648  0.3433 -0.3266
  370TMC3     C 5538   0.719   3.025  16.271  0.4585 -0.6232  0.1026
  370TMC3     O 5539   0.798   3.027  16.364 -0.4920 -0.3252  0.1361
  370TMC3     H 5540   0.647   2.862  16.452 -1.6868  1.0612  0.3690
  370TMC3    H1 5541   0.615   2.935  16.042 -2.4782 -0.1294 -1.6423
  370TMC3    H2 5542   0.432   2.588  16.194  2.2322 -0.7354 -1.8930
  370TMC3    C7 5543   0.508   2.711  15.983 -0.1060 -0.3744  0.3747
  370TMC3    C8 5544   0.515   2.624  16.449  0.1381  0.0314  0.4514
  370TMC3    O1 5545   0.471   2.787  15.896 -0.1621 -0.3698  0.3862
  370TMC3    O2 5546   0.463   2.519  16.419 -0.3789  0.4457 -0.1407
  371TMC3    C1 5547   1.916   1.135  15.309 -0.5764  0.1318 -0.2843
  371TMC3    C2 5548   1.791   1.139  15.366 -0.5036  0.2970  0.4311
  371TMC3    C3 5549   1.728   1.259  15.368 -0.0857  0.2421  0.1278
  371TMC3    C4 5550   1.960   1.246  15.235 -0.6809  0.5084  0.0053
  371TMC3    C5 5551   1.888   1.365  15.242 -0.8047  0.0384  0.2512
  371TMC3    C6 5552   1.767   1.371  15.313 -0.5732 -0.2545 -0.1289
  371TMC3     C 5553   1.994   1.011  15.305  0.0708 -0.8144 -0.4367
  371TMC3     O 5554   2.103   1.024  15.253 -0.4230 -0.3357  0.0999
  371TMC3     H 5555   1.756   1.057  15.426 -0.2590  0.6783  1.0901
  371TMC3    H1 5556   2.053   1.233  15.182 -0.9137  0.3458 -0.3658
  371TMC3    H2 5557   1.723   1.470  15.318  2.0824  0.8885  0.5646
  371TMC3    C7 5558   1.959   1.490  15.207 -0.8396  0.5620  0.1488
  371TMC3    C8 5559   1.592   1.260  15.423  0.1797 -1.4580  0.1459
  371TMC3    O1 5560   1.884   1.584  15.180 -0.4521  0.3177 -0.2084
  371TMC3    O2 5561   1.536   1.149  15.439  0.0083 -0.2085 -0.4673
  372MPD2     C 5562   1.985   3.017  13.096 -0.0750  0.4018 -0.7266
  372MPD2    C1 5563   2.030   2.962  13.215 -0.0832 -0.2600 -0.9510
  372MPD2    C2 5564   1.992   2.830  13.240  0.0334 -0.2498 -0.7786
  372MPD2    C3 5565   1.925   2.754  13.149  0.6205  0.1698 -0.8196
  372MPD2    C4 5566   1.885   2.810  13.028 -0.0145 -0.0186 -0.3538
  372MPD2    C5 5567   1.917   2.943  13.001 -0.5773 -0.6233  0.4867
  372MPD2     H 5568   2.022   2.784  13.334  0.0608  0.4267 -0.4514
  372MPD2    H1 5569   1.820   2.760  12.956 -2.0375  2.0858 -0.0078
  372MPD2    H2 5570   2.010   3.121  13.073 -2.2348  0.9660 -0.4983
  372MPD2    H3 5571   1.889   2.986  12.906  1.0327  0.2568  0.4270
  372MPD2     N 5572   1.883   2.620  13.186 -0.2435  0.1441  0.0330
  372MPD2    H5 5573   1.899   2.595  13.283 -1.0850  1.1234  0.4278
  372MPD2    N1 5574   2.114   3.026  13.313  0.2112 -0.3044  0.2007
  372MPD2    H7 5575   2.150   2.967  13.388 -0.9653 -0.4871  0.6111
  373TMC3    C1 5576   1.765   2.422  13.162  0.4321  0.2822  0.2313
  373TMC3    C2 5577   1.669   2.456  13.257 -0.2912  0.2239  0.2809
  373TMC3    C3 5578   1.566   2.371  13.290 -0.9810  0.5524 -0.6780
  373TMC3    C4 5579   1.779   2.298  13.120  0.3566  0.4202 -0.7480
  373TMC3    C5 5580   1.686   2.206  13.169  0.4444  0.0409  0.7461
  373TMC3    C6 5581   1.576   2.242  13.244  0.4314  0.1429  1.2035
  373TMC3     C 5582   1.848   2.525  13.101 -0.4712  0.0497  0.7337
  373TMC3     O 5583   1.857   2.517  12.979  0.0449 -0.2063  0.0577
  373TMC3     H 5584   1.650   2.561  13.280  0.4628  0.0614  1.6445
  373TMC3    H1 5585   1.842   2.274  13.035 -1.8506 -2.1096 -1.6601
  373TMC3    H2 5586   1.499   2.167  13.258  1.4047 -1.2218 -0.8609
  373TMC3    C7 5587   1.725   2.066  13.166 -1.0090  0.0713 -0.0750
  373TMC3    C8 5588   1.557   2.384  13.430  0.6379 -0.7766  0.3713
  373TMC3    O1 5589   1.647   1.976  13.182  0.0508  0.3867  0.1158
  373TMC3    O2 5590   1.601   2.485  13.485 -0.0314 -0.5905  0.0893
  374TMC3    C1 5591   2.282   2.083   9.422 -0.2219 -0.4120 -0.4567
  374TMC3    C2 5592   2.214   2.155   9.514 -0.0270 -0.1823 -0.0639
  374TMC3    C3 5593   2.283   2.257   9.568  0.2069 -0.4205 -0.7789
  374TMC3    C4 5594   2.408   2.116   9.385  0.5559 -0.2450  0.4866
  374TMC3    C5 5595   2.475   2.222   9.440  0.0843 -0.1020  0.0358
  374TMC3    C6 5596   2.411   2.293   9.534  0.1083  0.1768 -0.1993
  374TMC3     C 5597   2.229   1.965   9.348 -0.1309 -1.3014  0.2911
  374TMC3     O 5598   2.302   1.916   9.261 -0.3759  0.0914 -0.7073
  374TMC3     H 5599   2.117   2.130   9.554 -0.8565 -1.5063 -2.9254
  374TMC3    H1 5600   2.465   2.059   9.313  0.0433  0.0321 -0.1414
  374TMC3    H2 5601   2.445   2.391   9.564  0.3456  0.3172 -0.9457
  374TMC3    C7 5602   2.582   2.283   9.366 -0.6409  0.7816  0.5016
  374TMC3    C8 5603   2.223   2.325   9.681 -0.0046 -0.6775  0.0484
  374TMC3    O1 5604   2.633   2.376   9.427 -0.6426  0.0272  0.1097
  374TMC3    O2 5605   2.100   2.327   9.684  0.1328 -0.6607  0.4592
  375MPD2     C 5606   2.299   3.919  16.767 -0.2469 -0.0663  0.6533
  375MPD2    C1 5607   2.200   3.820  16.753  0.0252 -0.8144 -0.4301
  375MPD2    C2 5608   2.195   3.735  16.639 -0.1258  0.2080 -0.2041
  375MPD2    C3 5609   2.295   3.743  16.539  0.3577  0.3202 -0.5668
  375MPD2    C4 5610   2.393   3.829  16.558 -0.1638 -0.1682  0.3231
  375MPD2    C5 5611   2.394   3.914  16.667  0.3244 -0.5121  0.7564
  375MPD2     H 5612   2.126   3.652  16.629 -1.5961  1.8612 -3.5391
  375MPD2    H1 5613   2.477   3.828  16.489 -0.2828  1.1283  0.1498
  375MPD2    H2 5614   2.316   3.977  16.857  3.1378 -0.3751  0.2051
  375MPD2    H3 5615   2.482   3.973  16.690  0.3919 -0.4851  0.4225
  375MPD2     N 5616   2.300   3.659  16.428 -0.3594 -0.0084 -0.4408
  375MPD2    H5 5617   2.377   3.675  16.364 -1.8307 -0.2526 -2.2912
  375MPD2    N1 5618   2.113   3.781  16.857 -0.4202  0.1269 -0.1354
  375MPD2    H7 5619   2.051   3.703  16.834 -0.9817  0.6508 -0.3780
  376TMC3    C1 5620   2.261   3.482  16.280 -0.6028 -0.1882  0.0304
  376TMC3    C2 5621   2.387   3.424  16.284 -0.3975 -0.5880 -0.4578
  376TMC3    C3 5622   2.410   3.319  16.196  0.1745 -0.3778  0.4170
  376TMC3    C4 5623   2.160   3.434  16.203 -0.5022  0.3300  0.3575
  376TMC3    C5 5624   2.194   3.338  16.114 -0.3099  0.4155  0.0007
  376TMC3    C6 5625   2.317   3.281  16.107  0.7613  0.0862  0.2642
  376TMC3     C 5626   2.206   3.559  16.396 -0.1670  0.0586 -0.4069
  376TMC3     O 5627   2.090   3.548  16.428 -0.6320  0.0048  0.1521
  376TMC3     H 5628   2.460   3.452  16.358 -2.4992 -1.3150  1.8888
  376TMC3    H1 5629   2.070   3.495  16.209 -1.1549 -0.4454 -1.6204
  376TMC3    H2 5630   2.330   3.203  16.032  1.0244  0.1054  0.2908
  376TMC3    C7 5631   2.103   3.306  16.009 -0.0894 -0.6080  0.0491
  376TMC3    C8 5632   2.543   3.262  16.200 -0.5465 -0.3122 -0.0736
  376TMC3    O1 5633   2.158   3.282  15.903 -0.0445 -0.5849  0.3962
  376TMC3    O2 5634   2.626   3.338  16.249  0.6543  1.6377  0.2502
  377MPD2     C 5635   0.109   2.952  12.496  0.4833 -0.0462 -0.0216
  377MPD2    C1 5636   0.156   2.824  12.475 -0.2154 -1.0999 -0.2964
  377MPD2    C2 5637   0.148   2.734  12.574 -0.3209  0.0264 -0.5698
  377MPD2    C3 5638   0.108   2.772  12.700 -0.2898  0.3520  0.2714
  377MPD2    C4 5639   0.055   2.897  12.723 -0.4322 -0.0389  0.2685
  377MPD2    C5 5640   0.061   2.988  12.621  0.0644  0.0945 -0.1620
  377MPD2     H 5641   0.167   2.629  12.556  1.0280  0.0782  0.5327
  377MPD2    H1 5642   0.022   2.925  12.822 -1.1937 -1.8006  0.4942
  377MPD2    H2 5643   0.122   3.035  12.427  0.6386 -0.8368 -0.9464
  377MPD2    H3 5644   0.038   3.092  12.643 -0.4204  0.0861 -0.6359
  377MPD2     N 5645   0.094   2.689  12.814 -0.1250 -0.0131 -0.6811
  377MPD2    H5 5646   0.055   2.735  12.896  1.3241  0.3376 -0.1761
  377MPD2    N1 5647   0.207   2.787  12.346 -0.1817  0.3012 -0.2352
  377MPD2    H7 5648   0.218   2.863  12.280 -2.1419  0.9877  0.2368
  378TMC3    C1 5649   0.395   2.812  12.009  0.5421 -0.2104  0.0927
  378TMC3    C2 5650   0.307   2.765  12.096  0.1299 -0.3320  0.0559
  378TMC3    C3 5651   0.357   2.693  12.205 -0.5208  0.0173  0.0806
  378TMC3    C4 5652   0.530   2.780  12.025  0.4742  0.5056 -0.1901
  378TMC3    C5 5653   0.576   2.709  12.131 -0.3205 -1.0232  0.5868
  378TMC3    C6 5654   0.487   2.666  12.224  0.1527  0.3301 -0.5974
  378TMC3     C 5655   0.349   2.896  11.897  0.3258  0.6072  0.4631
  378TMC3     O 5656   0.246   2.955  11.906 -0.6528  0.0055 -0.0582
  378TMC3     H 5657   0.203   2.792  12.081 -0.0041 -0.3100  1.0175
  378TMC3    H1 5658   0.598   2.815  11.949 -1.2689 -0.9241 -2.4381
  378TMC3    H2 5659   0.510   2.595  12.303  0.6788  0.1844 -0.8861
  378TMC3    C7 5660   0.719   2.694  12.162  0.2614 -0.0704 -0.0239
  378TMC3    C8 5661   0.264   2.668  12.313 -0.3198 -0.3087 -0.0869
  378TMC3    O1 5662   0.746   2.640  12.268 -0.4915 -0.7139  0.1456
  378TMC3    O2 5663   0.294   2.572  12.386 -0.0184 -0.3101  0.1150
  379MPD2     C 5664   0.607   0.809  16.414  0.0181 -0.3387 -0.3802
  379MPD2    C1 5665   0.737   0.817  16.371 -0.2096  0.9018 -0.2003
  379MPD2    C2 5666   0.830   0.723  16.405 -0.6783  0.0410  0.3179
  379MPD2    C3 5667   0.792   0.628  16.498 -0.8862  0.3099  0.4801
  379MPD2    C4 5668   0.663   0.624  16.542 -0.1353 -1.1510  0.2444
  379MPD2    C5 5669   0.571   0.715  16.506 -0.0193 -0.8248  0.0091
  379MPD2     H 5670   0.930   0.741  16.367  0.0057 -0.9332  1.6451
  379MPD2    H1 5671   0.636   0.544  16.609 -0.2205 -2.2754 -1.1337
  379MPD2    H2 5672   0.527   0.877  16.386 -0.4029 -0.3943  0.6758
  379MPD2    H3 5673   0.472   0.707  16.548  0.0088  0.8702  0.3853
  379MPD2     N 5674   0.872   0.529  16.550  0.1881 -0.1344 -0.0988
  379MPD2    H5 5675   0.837   0.472  16.626  1.8974 -1.9895 -0.6991
  379MPD2    N1 5676   0.776   0.930  16.296 -0.0075  0.2729  0.1922
  379MPD2    H7 5677   0.849   0.912  16.228  0.5414 -1.6496  1.2961
  380TMC3    C1 5678   0.722   1.119  16.176 -0.0291  0.7116 -0.8375
  380TMC3    C2 5679   0.811   1.069  16.086 -0.2357  0.5024  0.3547
  380TMC3    C3 5680   0.828   1.147  15.969  0.1236  0.1827  0.3883
  380TMC3    C4 5681   0.624   1.208  16.143 -0.3680 -0.3117 -0.5603
  380TMC3    C5 5682   0.639   1.281  16.027 -0.1840 -0.4340  0.1442
  380TMC3    C6 5683   0.743   1.252  15.945  0.0040 -0.4128 -0.1610
  380TMC3     C 5684   0.708   1.049  16.304  0.1110 -1.0112 -0.4129
  380TMC3     O 5685   0.639   1.095  16.391  0.3145  0.1476  0.4274
  380TMC3     H 5686   0.849   0.968  16.073 -1.1786  0.1364  0.3923
  380TMC3    H1 5687   0.543   1.227  16.212 -0.0971 -0.8709 -0.0951
  380TMC3    H2 5688   0.753   1.310  15.854  1.5200 -0.3953  0.0110
  380TMC3    C7 5689   0.519   1.281  15.947  0.8896 -0.2148  0.7502
  380TMC3    C8 5690   0.928   1.119  15.859  0.4151  0.7035 -0.5487
  380TMC3    O1 5691   0.485   1.392  15.917 -0.1215  0.4254  0.1121
  380TMC3    O2 5692   0.939   1.192  15.767 -0.3413 -0.0052  0.2433
  381TMC3    C1 5693   0.578   1.955  16.183  0.2476 -0.5314  0.5332
  381TMC3    C2 5694   0.619   2.084  16.168  0.4900  0.0036  0.0413
  381TMC3    C3 5695   0.618   2.165  16.285  0.0022  0.1081  0.5454
  381TMC3    C4 5696   0.517   1.922  16.300  0.4871  0.2418  0.2716
  381TMC3    C5 5697   0.481   2.016  16.396  0.1873 -0.8942 -0.0606
  381TMC3    C6 5698   0.535   2.142  16.395 -0.0481 -0.0481  0.2356
  381TMC3     C 5699   0.569   1.848  16.077  0.5412 -1.0430  0.8449
  381TMC3     O 5700   0.494   1.754  16.093  0.1571 -0.0911  0.0396
  381TMC3     H 5701   0.663   2.121  16.077 -0.7431  0.8253 -0.2279
  381TMC3    H1 5702   0.475   1.822  16.314  0.5596  0.4737  2.1724
  381TMC3    H2 5703   0.509   2.215  16.472  0.1220  2.6777 -2.3021
  381TMC3    C7 5704   0.424   1.963  16.523 -0.0026 -0.2281 -0.0205
  381TMC3    C8 5705   0.656   2.303  16.263 -0.0377 -0.4071 -0.3678
  381TMC3    O1 5706   0.424   1.840  16.544 -0.3425  0.3370 -0.0894
  381TMC3    O2 5707   0.630   2.354  16.151  0.7090 -0.4919  0.3440
  382MPD2     C 5708   0.301   4.471  17.200  0.4624 -0.2770  0.6282
  382MPD2    C1 5709   0.274   4.524  17.321 -0.3351 -0.0944 -0.2656
  382MPD2    C2 5710   0.203   4.450  17.408 -0.1138  0.8281 -0.2434
  382MPD2    C3 5711   0.160   4.323  17.387 -0.0774 -0.2615 -0.2030
  382MPD2    C4 5712   0.182   4.271  17.261 -0.0107  0.0675  0.4366
  382MPD2    C5 5713   0.248   4.351  17.169  0.2677  0.0696  0.1083
  382MPD2     H 5714   0.178   4.496  17.503  3.8859 -3.0038  2.6427
  382MPD2    H1 5715   0.143   4.175  17.229 -1.0459  0.0026  1.9287
  382MPD2    H2 5716   0.352   4.524  17.120  1.2839 -2.5356 -0.3369
  382MPD2    H3 5717   0.266   4.316  17.068  0.1644 -0.2391  0.1949
  382MPD2     N 5718   0.092   4.245  17.483  0.1114  0.2985 -0.2809
  382MPD2    H5 5719   0.069   4.151  17.453  1.4806  0.5158 -2.0579
  382MPD2    N1 5720   0.328   4.644  17.366 -1.0323  0.5046 -0.2312
  382MPD2    H7 5721   0.295   4.668  17.459  2.1810 -0.3964  1.1270
  383TMC3    C1 5722   0.041   4.140  17.676  0.2539 -0.1161  0.2977
  383TMC3    C2 5723   4.681   4.048  17.613 -0.3044 -0.3574  0.6431
  383TMC3    C3 5724   4.655   3.935  17.682  0.2252  0.0052 -0.2793
  383TMC3    C4 5725   0.075   4.111   0.110 -0.0506 -1.0286  0.5316
  383TMC3    C5 5726   0.039   3.997   0.183 -0.1496 -0.3456 -0.1323
  383TMC3    C6 5727   4.698   3.899   0.115  0.0685 -0.3858  0.1938
  383TMC3     C 5728   0.094   4.257  17.619  0.1172  0.1810 -0.2534
  383TMC3     O 5729   0.131   4.348   0.005 -0.3103 -0.3099 -0.2916
  383TMC3     H 5730   4.635   4.057  17.515 -2.2739 -0.3395  1.5730
  383TMC3    H1 5731   0.121   4.188   0.170  1.0344  0.2181 -1.9107
  383TMC3    H2 5732   4.675   3.798   0.147  0.3344 -1.0456 -1.6661
  383TMC3    C7 5733   0.076   3.984   0.322 -0.3656  0.3133  0.5125
  383TMC3    C8 5734   4.534   3.867  17.635 -0.2674  1.1796  0.6838
  383TMC3    O1 5735   0.161   4.059   0.370  0.1739  0.4758  0.1479
  383TMC3    O2 5736   4.437   3.936  17.604 -0.9511 -0.0920  0.1446
  384MPD2     C 5737   1.504   0.400  11.800  0.3072  0.3928  0.2917
  384MPD2    C1 5738   1.526   0.388  11.935 -0.3819 -0.6804  0.5531
  384MPD2    C2 5739   1.523   0.263  11.996 -0.0972 -0.6694 -0.0193
  384MPD2    C3 5740   1.529   0.148  11.912  0.5284  0.4327 -0.4288
  384MPD2    C4 5741   1.521   0.161  11.777  0.1726 -0.6737 -0.4093
  384MPD2    C5 5742   1.512   0.287  11.721  0.4869  0.3622 -0.7488
  384MPD2     H 5743   1.512   0.245  12.102  0.0303  0.6166  0.2104
  384MPD2    H1 5744   1.520   0.076  11.709 -2.5576 -0.2796 -0.8584
  384MPD2    H2 5745   1.473   0.493  11.753  1.0270  0.5454  0.1171
  384MPD2    H3 5746   1.501   0.299  11.614  1.3293 -1.9199 -1.0840
  384MPD2     N 5747   1.532   0.020  11.987 -0.6371  0.0949 -0.2000
  384MPD2    H5 5748   1.544   0.029  12.088  0.2391  0.1858 -0.3113
  384MPD2    N1 5749   1.529   0.509  12.004 -0.7858  0.3045  0.7113
  384MPD2    H7 5750   1.503   0.592  11.952 -0.0722  0.9091  1.3054
  385TMC3    C1 5751   1.506   4.531  12.052  0.9984 -0.0609  0.4827
  385TMC3    C2 5752   1.375   4.488  12.063  0.6445  0.5196  0.1553
  385TMC3    C3 5753   1.324   4.477  12.191  0.1602 -0.1313  0.1561
  385TMC3    C4 5754   1.581   4.563  12.166 -0.3694 -0.6509 -0.8389
  385TMC3    C5 5755   1.527   4.560  12.285 -0.8875 -0.3637  0.2728
  385TMC3    C6 5756   1.404   4.505  12.300 -0.6721 -0.0884 -1.0708
  385TMC3     C 5757   1.515   4.612  11.939  0.3579  0.4472 -0.2745
  385TMC3     O 5758   1.481   4.579  11.825 -0.0487  0.1343 -0.7652
  385TMC3     H 5759   1.327   4.443  11.977 -1.1188  2.1425  0.3074
  385TMC3    H1 5760   1.677   4.611  12.154  0.5591 -1.8326  1.9762
  385TMC3    H2 5761   1.356   4.514  12.397  0.8354  0.5494 -0.3937
  385TMC3    C7 5762   1.540   4.694  12.343  0.5763 -0.0383 -0.1709
  385TMC3    C8 5763   1.185   4.460  12.213 -0.5921  0.1640  0.0429
  385TMC3    O1 5764   1.581   0.059  12.261 -0.3525  0.3792 -0.6009
  385TMC3    O2 5765   1.145   4.412  12.317  0.0837  0.3290  0.1719
  386TMC3    C1 5766   0.938   3.067  11.453  0.3063  1.2511 -0.3026
  386TMC3    C2 5767   0.973   3.009  11.337 -0.3599  0.3619 -0.3059
  386TMC3    C3 5768   0.916   3.057  11.222  0.5995  0.3166  0.5810
  386TMC3    C4 5769   0.845   3.167  11.470  0.1992  0.6696  0.0982
  386TMC3    C5 5770   0.803   3.217  11.354  0.1820  0.0889  0.0803
  386TMC3    C6 5771   0.832   3.163  11.229 -0.3330  0.1375 -0.5368
  386TMC3     C 5772   0.996   3.016  11.573 -0.7258  0.4799  0.7744
  386TMC3     O 5773   0.915   2.963  11.649 -0.1234  0.1323  0.5030
  386TMC3     H 5774   1.044   2.927  11.336 -0.7338  0.0561 -1.4842
  386TMC3    H1 5775   0.799   3.202  11.562  0.1507 -0.3170  0.4417
  386TMC3    H2 5776   0.806   3.224  11.144 -0.2812 -1.0231 -1.3791
  386TMC3    C7 5777   0.704   3.319  11.360 -0.3523 -0.5581 -0.0126
  386TMC3    C8 5778   0.946   3.011  11.087  0.3737 -0.7301 -0.2243
  386TMC3    O1 5779   0.705   3.385  11.465 -0.3816 -0.2303 -0.3768
  386TMC3    O2 5780   0.866   3.047  11.001 -0.4297 -0.0883  0.0345
  387MPD2     C 5781   3.830   2.898   9.374  0.2239  0.4551 -0.0114
  387MPD2    C1 5782   3.954   2.880   9.429 -0.4666  0.1242  0.1369
  387MPD2    C2 5783   4.031   2.773   9.386 -0.1040  0.0772 -0.1763
  387MPD2    C3 5784   3.980   2.672   9.307 -0.2483 -0.3728 -0.3285
  387MPD2    C4 5785   3.852   2.691   9.258  0.2954 -0.4246 -0.1427
  387MPD2    C5 5786   3.787   2.808   9.282  0.0309 -0.0167  0.2292
  387MPD2     H 5787   4.130   2.761   9.427 -0.4739 -1.0377  0.4104
  387MPD2    H1 5788   3.802   2.622   9.192 -0.1647 -0.8469  0.6528
  387MPD2    H2 5789   3.766   2.982   9.398 -0.0346 -0.0732  1.1209
  387MPD2    H3 5790   3.696   2.823   9.224 -1.1916 -0.7974  1.9535
  387MPD2     N 5791   4.060   2.557   9.278  0.4732 -0.2265  0.6832
  387MPD2    H5 5792   4.159   2.558   9.301  0.5708 -1.7387  0.3386
  387MPD2    N1 5793   4.012   2.970   9.529 -0.1439 -0.7175  0.3399
  387MPD2    H7 5794   4.111   2.965   9.552  0.6779  1.1860 -2.8020
  388TMC3    C1 5795   4.024   3.079   9.725 -0.3980 -0.1723 -0.9167
  388TMC3    C2 5796   4.034   3.204   9.772  0.2038  0.5867 -0.2466
  388TMC3    C3 5797   4.139   3.230   9.850 -0.4532 -0.4461 -0.8135
  388TMC3    C4 5798   4.117   2.982   9.755 -0.2959 -0.3027  0.2259
  388TMC3    C5 5799   4.224   3.017   9.828 -0.5279  0.7925 -0.2633
  388TMC3    C6 5800   4.234   3.140   9.878 -0.1238 -0.3648  0.0319
  388TMC3     C 5801   3.949   3.059   9.602 -0.0224 -0.2258 -0.5565
  388TMC3     O 5802   3.839   3.107   9.604  0.0152  0.0133  0.4084
  388TMC3     H 5803   3.958   3.276   9.744 -0.3528  0.4347  0.8679
  388TMC3    H1 5804   4.090   2.881   9.725 -0.7797  0.5136 -2.0681
  388TMC3    H2 5805   4.317   3.153   9.947  0.0602  1.2954 -0.5004
  388TMC3    C7 5806   4.303   2.906   9.882  0.0128 -0.3184 -1.2584
  388TMC3    C8 5807   4.170   3.363   9.894  0.8262  0.2684 -0.6157
  388TMC3    O1 5808   4.344   2.916   9.995 -0.3505  0.4107 -0.0785
  388TMC3    O2 5809   4.289   3.390   9.910 -0.1390  0.0340  0.1412
  389MPD2     C 5810   3.242   1.550  10.956  0.3292 -0.4506 -0.0479
  389MPD2    C1 5811   3.191   1.454  10.873  0.6953  1.0251 -0.0684
  389MPD2    C2 5812   3.132   1.344  10.924 -0.6993  0.1875  0.2299
  389MPD2    C3 5813   3.129   1.315  11.057 -0.0627 -0.3406  0.4105
  389MPD2    C4 5814   3.172   1.412  11.147 -0.5239  0.5419 -0.7178
  389MPD2    C5 5815   3.231   1.528  11.095 -0.0388  0.2662 -0.0777
  389MPD2     H 5816   3.088   1.274  10.853  0.3602  1.2647 -1.5064
  389MPD2    H1 5817   3.184   1.388  11.252 -1.4239  0.4371 -0.6383
  389MPD2    H2 5818   3.299   1.634  10.919 -0.5823  1.1120  2.1548
  389MPD2    H3 5819   3.271   1.602  11.163  0.5424 -1.1073  1.0994
  389MPD2     N 5820   3.071   1.199  11.115  0.4091  0.5754 -0.0946
  389MPD2    H5 5821   3.071   1.203  11.216 -0.1255  0.3775 -0.0902
  389MPD2    N1 5822   3.195   1.488  10.740  0.2737 -0.2694  0.2865
  389MPD2    H7 5823   3.238   1.577  10.716 -1.1514  0.4966  0.5715
  390TMC3    C1 5824   2.989   0.971  11.119 -0.4396  0.0533  0.6866
  390TMC3    C2 5825   3.015   0.958  11.252 -0.2196 -0.5660  0.2540
  390TMC3    C3 5826   2.957   0.857  11.310  0.5071  0.4394 -0.6545
  390TMC3    C4 5827   2.907   0.885  11.044  0.1278 -1.1114 -0.3285
  390TMC3    C5 5828   2.846   0.788  11.115  0.3386 -0.2923 -0.1107
  390TMC3    C6 5829   2.865   0.772  11.247 -0.4045  0.2893 -0.8732
  390TMC3     C 5830   3.056   1.081  11.046 -0.4721 -0.0774 -0.4586
  390TMC3     O 5831   3.065   1.068  10.924 -0.6320 -0.6017 -0.7737
  390TMC3     H 5832   3.083   1.015  11.314 -0.6548  1.9673 -1.6218
  390TMC3    H1 5833   2.870   0.918  10.948  1.3388 -0.0292 -0.4306
  390TMC3    H2 5834   2.796   0.705  11.298 -1.5699 -0.4235 -3.4023
  390TMC3    C7 5835   2.748   0.700  11.058  0.3530  0.2799 -0.1130
  390TMC3    C8 5836   3.012   0.809  11.427 -0.0271 -0.0044  0.1360
  390TMC3    O1 5837   2.783   0.634  10.963  0.3860  0.3762  0.0633
  390TMC3    O2 5838   3.072   0.879  11.505  0.1540 -0.2589  1.0459
  391MPD2     C 5839   2.816   2.247  11.027 -0.6023 -0.1906  0.6288
  391MPD2    C1 5840   2.910   2.349  11.013 -0.1845 -0.2559 -0.6080
  391MPD2    C2 5841   2.947   2.376  10.885  0.2210  1.3219  0.8026
  391MPD2    C3 5842   2.899   2.315  10.773 -0.6443 -1.2227 -0.2417
  391MPD2    C4 5843   2.815   2.211  10.784  0.2017  0.1491  0.2270
  391MPD2    C5 5844   2.763   2.196  10.913 -0.5212 -1.0819 -0.0952
  391MPD2     H 5845   3.016   2.459  10.875  2.3416 -0.5390 -0.0664
  391MPD2    H1 5846   2.773   2.153  10.703 -2.6123 -0.9716  2.5095
  391MPD2    H2 5847   2.777   2.218  11.124  0.8046 -1.7651  0.7378
  391MPD2    H3 5848   2.689   2.116  10.921 -0.8419 -0.8653 -0.9440
  391MPD2     N 5849   2.927   2.381  10.650 -0.3288  0.6710  0.3451
  391MPD2    H5 5850   2.978   2.469  10.650 -0.3471  0.6827  0.5024
  391MPD2    N1 5851   2.942   2.419  11.134  0.2498  0.1561  0.2029
  391MPD2    H7 5852   2.895   2.406  11.223 -0.5583  0.5781 -0.1652
  392TMC3    C1 5853   2.856   2.455  10.443  0.8778 -0.1880 -0.2830
  392TMC3    C2 5854   2.791   2.422  10.328 -0.1750  0.6962 -0.6848
  392TMC3    C3 5855   2.712   2.526  10.279  0.3115 -0.3864 -0.3415
  392TMC3    C4 5856   2.843   2.581  10.498 -0.1058 -0.2334  0.3218
  392TMC3    C5 5857   2.785   2.685  10.429 -0.1915 -0.2417 -0.3227
  392TMC3    C6 5858   2.703   2.657  10.325  0.0570  0.1131 -0.2756
  392TMC3     C 5859   2.868   2.340  10.531  0.1724 -0.3635  0.2597
  392TMC3     O 5860   2.787   2.254  10.506 -0.1443 -0.2751 -0.1003
  392TMC3     H 5861   2.793   2.321  10.288  1.4242  0.6370 -0.4493
  392TMC3    H1 5862   2.893   2.611  10.589  0.6949 -0.2754 -0.1000
  392TMC3    H2 5863   2.645   2.731  10.270 -2.4108 -1.8818 -0.3634
  392TMC3    C7 5864   2.859   2.808  10.430  0.2481 -1.0406 -0.2841
  392TMC3    C8 5865   2.620   2.481  10.174  0.2409  1.2091 -0.0479
  392TMC3    O1 5866   2.931   2.830  10.526 -0.2566  0.3285  0.7926
  392TMC3    O2 5867   2.640   2.375  10.111  0.0778 -0.0716  0.2550
  393TMC3    C1 5868   1.034   0.539  10.236  0.5391 -0.2732 -0.2477
  393TMC3    C2 5869   0.915   0.522  10.166 -0.1035  0.6699 -0.0154
  393TMC3    C3 5870   0.809   0.466  10.229 -0.0175  0.2485  0.2934
  393TMC3    C4 5871   1.041   0.512  10.368  0.6925 -0.0592  0.0093
  393TMC3    C5 5872   0.931   0.450  10.424 -0.1891  0.5549  0.7532
  393TMC3    C6 5873   0.809   0.432  10.363 -0.4361  0.3265 -0.6063
  393TMC3     C 5874   1.145   0.597  10.170  0.3894  0.1124 -0.7033
  393TMC3     O 5875   1.134   0.595  10.048 -0.0033  0.6032  0.3352
  393TMC3     H 5876   0.908   0.543  10.060  2.4060 -2.7235 -0.8642
  393TMC3    H1 5877   1.119   0.548  10.435  0.4199 -0.2659  0.4357
  393TMC3    H2 5878   0.736   0.373  10.418  0.0026  2.4859  2.3071
  393TMC3    C7 5879   0.934   0.426  10.566  0.2208  0.3963 -0.6111
  393TMC3    C8 5880   0.697   0.453  10.146  0.7749  0.2821  0.0038
  393TMC3    O1 5881   0.830   0.432  10.625  0.5878 -0.0114  0.3285
  393TMC3    O2 5882   0.680   0.535  10.059 -0.0824  0.0788 -0.1973
  394TMC3    C1 5883   3.129   1.504  10.515 -1.1249 -0.1562  0.1416
  394TMC3    C2 5884   3.021   1.492  10.432 -0.0584 -0.3161  0.2981
  394TMC3    C3 5885   3.037   1.504  10.299  0.2690  0.3502 -0.4708
  394TMC3    C4 5886   3.257   1.528  10.458 -0.2572 -0.9520 -0.2356
  394TMC3    C5 5887   3.259   1.519  10.324  0.2478 -0.2941 -0.4580
  394TMC3    C6 5888   3.156   1.498  10.241 -0.4038  0.0490 -0.7011
  394TMC3     C 5889   3.114   1.438  10.640  0.6860 -0.2167 -0.2949
  394TMC3     O 5890   3.031   1.346  10.635 -0.3320 -0.3509 -0.1126
  394TMC3     H 5891   2.918   1.483  10.465  0.3452 -0.6825  1.4348
  394TMC3    H1 5892   3.345   1.532  10.521  0.8372 -0.5754 -1.7891
  394TMC3    H2 5893   3.171   1.509  10.134  0.6640  0.0331 -0.5555
  394TMC3    C7 5894   3.386   1.509  10.258  0.1566  0.1974 -0.2421
  394TMC3    C8 5895   2.924   1.450  10.221  0.8637 -0.1119 -0.1891
  394TMC3    O1 5896   3.475   1.595  10.285  0.3489 -0.1038  0.4565
  394TMC3    O2 5897   2.807   1.475  10.245 -0.0958  0.0022  0.4694
  395TMC3    C1 5898   2.925   3.518  14.296 -0.1593 -0.4586  0.5764
  395TMC3    C2 5899   2.799   3.569  14.332 -0.5582 -0.1838  0.2113
  395TMC3    C3 5900   2.796   3.670  14.421 -0.4491 -0.3423 -0.3268
  395TMC3    C4 5901   3.034   3.592  14.326  0.3272  0.1497  0.1657
  395TMC3    C5 5902   3.020   3.711  14.401  0.0825  0.2930  0.1730
  395TMC3    C6 5903   2.901   3.758  14.433 -0.3284 -0.3975 -0.1939
  395TMC3     C 5904   2.952   3.383  14.336 -0.3824 -0.2562 -0.4269
  395TMC3     O 5905   3.037   3.374  14.424  0.0189  0.0153  0.3748
  395TMC3     H 5906   2.715   3.501  14.325 -1.6144  1.1279  0.3509
  395TMC3    H1 5907   3.132   3.570  14.284 -0.2374 -2.1879  0.0757
  395TMC3    H2 5908   2.892   3.839  14.504 -1.2063 -0.7545  0.1170
  395TMC3    C7 5909   3.129   3.760  14.473 -0.6596  0.1000 -0.1351
  395TMC3    C8 5910   2.743   3.633  14.553 -0.3092 -0.0175 -0.5817
  395TMC3    O1 5911   3.138   3.877  14.510  0.0053 -0.1276  0.9449
  395TMC3    O2 5912   2.774   3.711  14.643 -0.1738  0.1582  0.4078
  396MPD2     C 5913   3.199   4.311  17.416 -0.3683 -0.7370  0.2566
  396MPD2    C1 5914   3.219   4.202  17.338 -0.1797  0.3546 -0.0227
  396MPD2    C2 5915   3.232   4.211  17.202 -0.7958  0.1231  0.3512
  396MPD2    C3 5916   3.242   4.340  17.139  0.4374 -0.1233 -0.3028
  396MPD2    C4 5917   3.204   4.448  17.220 -0.3482 -0.1130  0.1735
  396MPD2    C5 5918   3.194   4.434  17.356 -0.4552  0.6238 -0.2326
  396MPD2     H 5919   3.241   4.119  17.147  0.1675  0.7936 -0.6134
  396MPD2    H1 5920   3.194   4.548  17.180  1.5682 -0.4724 -1.2343
  396MPD2    H2 5921   3.200   4.297  17.524  0.9982 -0.9985  0.2122
  396MPD2    H3 5922   3.174   4.511  17.429  0.6559  0.8069 -0.1159
  396MPD2     N 5923   3.265   4.353  17.004  0.3685 -0.5737  0.5854
  396MPD2    H5 5924   3.305   4.275  16.954  1.4493  0.4203 -0.0919
  396MPD2    N1 5925   3.198   4.078  17.412 -0.0198  0.4255 -0.4046
  396MPD2    H7 5926   3.196   4.089  17.513  1.3724 -1.3413 -0.2024
  397TMC3    C1 5927   3.140   3.842  17.447 -0.6701  0.3197 -0.0143
  397TMC3    C2 5928   3.128   3.726  17.363  0.7500 -0.1474 -0.5793
  397TMC3    C3 5929   3.011   3.656  17.376 -0.0928 -0.2894  0.0420
  397TMC3    C4 5930   3.048   3.862  17.548  0.1902 -0.5799  0.0563
  397TMC3    C5 5931   2.948   3.772  17.567  0.1833  0.4119 -0.1644
  397TMC3    C6 5932   2.925   3.666  17.488  0.1560 -0.1075  0.0801
  397TMC3     C 5933   3.171   3.956  17.355 -0.5629  0.3028 -0.7067
  397TMC3     O 5934   3.165   3.927  17.238 -0.5930 -0.0132  0.4950
  397TMC3     H 5935   3.202   3.704  17.287  1.5687 -0.3774  0.2932
  397TMC3    H1 5936   3.047   3.953  17.608  2.9319  0.4712 -1.4912
  397TMC3    H2 5937   2.837   3.604  17.490 -0.5994  0.9964  0.5471
  397TMC3    C7 5938   2.825   3.834  17.616 -0.6205 -0.7195 -0.3077
  397TMC3    C8 5939   2.948   3.592  17.262 -0.0229 -0.3007  0.8975
  397TMC3    O1 5940   2.735   3.848  17.528 -0.2710  0.1194 -0.1417
  397TMC3    O2 5941   2.869   3.499  17.272  0.2619 -0.0517 -0.1830
  398MPD2     C 5942   1.028   0.475   0.345 -0.0068  0.3027 -0.7114
  398MPD2    C1 5943   1.098   0.364   0.376  0.5788  0.5069  0.1823
  398MPD2    C2 5944   1.232   0.373   0.390 -0.3856 -0.1483 -0.3859
  398MPD2    C3 5945   1.302   0.491   0.389  1.0332 -0.8340 -0.2558
  398MPD2    C4 5946   1.233   0.613   0.362 -0.7866 -0.3310 -0.2773
  398MPD2    C5 5947   1.099   0.598   0.330  0.4370  0.3793 -0.2952
  398MPD2     H 5948   1.288   0.283   0.410  1.7817  1.1646 -0.5021
  398MPD2    H1 5949   1.281   0.710   0.370 -1.6779  0.1417 -0.7357
  398MPD2    H2 5950   0.920   0.472   0.347  0.0682 -0.4991  1.9001
  398MPD2    H3 5951   1.045   0.689   0.306 -0.8968 -0.1540  0.6990
  398MPD2     N 5952   1.433   0.479   0.419  0.3581  0.3798  0.2861
  398MPD2    H5 5953   1.476   0.387   0.432  0.9022  0.7269  0.9469
  398MPD2    N1 5954   1.048   0.232   0.398 -0.1971 -0.0918  0.2763
  398MPD2    H7 5955   1.110   0.171   0.449 -2.8135 -2.0045  1.1695
  399TMC3    C1 5956   0.920   0.031   0.390 -0.4994  0.2252  0.3756
  399TMC3    C2 5957   1.003   4.696   0.486  0.2243 -0.2011  1.4303
  399TMC3    C3 5958   0.985   4.565   0.517 -0.0801  0.1348  0.8917
  399TMC3    C4 5959   0.832   4.682   0.307  0.0967  0.0329  0.1496
  399TMC3    C5 5960   0.824   4.545   0.341  0.0335 -0.6092 -0.3437
  399TMC3    C6 5961   0.906   4.484   0.440 -0.6975  0.1290 -0.0348
  399TMC3     C 5962   0.933   0.175   0.355  0.7817  0.5840  0.2497
  399TMC3     O 5963   0.844   0.227   0.290  0.1274  0.1838 -0.0618
  399TMC3     H 5964   1.040   0.036   0.566  1.8130 -1.5991  1.7865
  399TMC3    H1 5965   0.757   0.013   0.250  1.0856  0.9342 -0.3042
  399TMC3    H2 5966   0.906   4.375   0.444  0.4977  0.1902  1.4965
  399TMC3    C7 5967   0.751   4.446   0.266 -0.6832  0.1974 -0.3262
  399TMC3    C8 5968   1.090   4.491   0.579 -0.3895  0.7973  0.2898
  399TMC3    O1 5969   0.756   4.337   0.310 -0.6384  0.0492  0.3957
  399TMC3    O2 5970   1.057   4.375   0.604 -0.3464 -0.3200 -0.7075
  400TMC3    C1 5971   4.348   3.697  17.236 -0.0119  0.0051 -0.4639
  400TMC3    C2 5972   4.207   3.696  17.232 -0.0339  0.0946 -0.3681
  400TMC3    C3 5973   4.142   3.812  17.262  0.5817  0.3727  0.0848
  400TMC3    C4 5974   4.420   3.814  17.264 -0.2429 -0.3711  0.4910
  400TMC3    C5 5975   4.349   3.921  17.279  0.0744  0.4134 -0.0699
  400TMC3    C6 5976   4.212   3.925  17.291  0.5082  0.1309  0.5873
  400TMC3     C 5977   4.419   3.580  17.189  0.4404  0.1596 -0.6422
  400TMC3     O 5978   4.350   3.489  17.140 -0.2975  0.0330  0.2576
  400TMC3     H 5979   4.144   3.608  17.225 -0.3560  0.4874 -2.3345
  400TMC3    H1 5980   4.528   3.814  17.260 -0.2747 -1.1027 -0.4488
  400TMC3    H2 5981   4.162   4.014  17.325  2.0276  0.4261  1.9958
  400TMC3    C7 5982   4.427   4.043  17.280  0.4183  0.0198  0.8893
  400TMC3    C8 5983   3.997   3.832  17.236 -0.3126 -0.0759 -0.1939
  400TMC3    O1 5984   4.532   4.038  17.220 -0.0332  0.1795 -0.1441
  400TMC3    O2 5985   3.950   3.946  17.245  0.2410 -0.1913  0.0278
  401MPD2     C 5986   2.472   2.210   0.977  0.3821 -0.2013  0.4730
  401MPD2    C1 5987   2.527   2.143   1.082  0.4846  0.5414 -0.8881
  401MPD2    C2 5988   2.563   2.015   1.066 -0.0133 -0.3485  0.6262
  401MPD2    C3 5989   2.542   1.945   0.949  0.0981 -0.6053  0.7665
  401MPD2    C4 5990   2.473   1.999   0.847  0.5451  0.1954  0.0477
  401MPD2    C5 5991   2.437   2.136   0.866 -0.2158  0.3206 -0.2070
  401MPD2     H 5992   2.610   1.963   1.149  0.6257  0.3037  0.6730
  401MPD2    H1 5993   2.454   1.952   0.751  2.2213  1.2586 -0.7953
  401MPD2    H2 5994   2.436   2.313   0.972  0.7273 -0.1305 -0.4848
  401MPD2    H3 5995   2.396   2.188   0.781 -2.6123 -1.8665 -0.3639
  401MPD2     N 5996   2.597   1.812   0.933  0.4043 -0.4033  0.4346
  401MPD2    H5 5997   2.643   1.772   1.014  0.4897  0.6258  0.9033
  401MPD2    N1 5998   2.557   2.213   1.202 -1.1236 -0.3862  0.2241
  401MPD2    H7 5999   2.599   2.166   1.281  0.0498  1.2350  0.5593
  402TMC3    C1 6000   2.608   1.592   0.882  0.1429  0.9260  0.1727
  402TMC3    C2 6001   2.601   1.552   1.010  0.7934 -0.3807  0.9335
  402TMC3    C3 6002   2.682   1.444   1.042 -0.6763  0.2506 -0.8275
  402TMC3    C4 6003   2.709   1.546   0.791  0.0444  0.7041 -0.8852
  402TMC3    C5 6004   2.795   1.445   0.833 -0.3485 -0.3408  0.5130
  402TMC3    C6 6005   2.779   1.395   0.956 -0.4864 -0.2199  0.4214
  402TMC3     C 6006   2.563   1.721   0.843 -0.6213 -0.1975 -0.7087
  402TMC3     O 6007   2.538   1.732   0.720 -0.0713  0.4934 -0.4745
  402TMC3     H 6008   2.527   1.593   1.078  1.8937  0.2108  1.7731
  402TMC3    H1 6009   2.707   1.584   0.690  0.4687  0.4235 -0.9987
  402TMC3    H2 6010   2.846   1.319   0.995  1.3736  1.3352  0.2569
  402TMC3    C7 6011   2.926   1.432   0.768 -0.0662  0.4731  0.2938
  402TMC3    C8 6012   2.673   1.393   1.178  0.3636  0.1018 -0.3719
  402TMC3    O1 6013   3.011   1.368   0.827  0.0163  0.0348 -0.0246
  402TMC3    O2 6014   2.781   1.340   1.214 -0.0873  0.1004 -0.0043
  403MPD2     C 6015   0.840   0.849  12.929 -0.3676 -0.0659  0.0576
  403MPD2    C1 6016   0.897   0.751  13.009  0.3242 -0.1758 -0.4246
  403MPD2    C2 6017   0.984   0.786  13.113  0.4467  0.2283 -0.0966
  403MPD2    C3 6018   1.033   0.914  13.128  0.3785  0.5845 -0.0413
  403MPD2    C4 6019   0.964   1.013  13.059  0.9830  0.0152  0.0858
  403MPD2    C5 6020   0.871   0.973  12.964 -0.3247  0.2608 -0.4217
  403MPD2     H 6021   1.029   0.712  13.178 -1.2094  0.7098  1.6091
  403MPD2    H1 6022   0.987   1.119  13.059 -0.3582  0.3048  1.2405
  403MPD2    H2 6023   0.765   0.829  12.854 -1.3428 -1.7582  1.4877
  403MPD2    H3 6024   0.823   1.054  12.911  1.5204  1.4515 -0.2999
  403MPD2     N 6025   1.127   0.944  13.225  0.1374 -0.2312 -0.0560
  403MPD2    H5 6026   1.161   0.868  13.283 -1.4416 -1.9772 -1.4315
  403MPD2    N1 6027   0.848   0.613  12.977  0.4004  0.5915 -0.3278
  403MPD2    H7 6028   0.782   0.594  12.902  1.8336 -1.0375 -1.1746
  404TMC3    C1 6029   0.839   0.383  13.006  0.8550  0.8112 -0.7618
  404TMC3    C2 6030   0.826   0.279  13.097 -0.1352 -0.1564  0.3979
  404TMC3    C3 6031   0.768   0.160  13.050  0.1497 -0.0915 -0.9617
  404TMC3    C4 6032   0.798   0.370  12.875 -0.6964  0.3274  0.1741
  404TMC3    C5 6033   0.731   0.257  12.844  0.7559 -0.1967  0.5431
  404TMC3    C6 6034   0.715   0.158  12.927  0.2197 -0.2687 -0.1620
  404TMC3     C 6035   0.891   0.508  13.049 -0.0495 -0.0860 -0.0996
  404TMC3     O 6036   0.968   0.500  13.142 -0.9847  0.4137 -0.5628
  404TMC3     H 6037   0.874   0.293  13.193 -0.0751  3.4958 -0.1865
  404TMC3    H1 6038   0.804   0.452  12.805 -0.7273 -1.7061 -2.2037
  404TMC3    H2 6039   0.670   0.068  12.888 -1.0549 -0.4367  1.6716
  404TMC3    C7 6040   0.683   0.238  12.707 -0.6056  0.3614  0.0669
  404TMC3    C8 6041   0.747   0.054  13.146  0.5238 -0.2766  0.3542
  404TMC3    O1 6042   0.610   0.141  12.689 -0.4486 -0.6226  0.4708
  404TMC3    O2 6043   0.742   4.660  13.110  0.2705  0.0584  0.0421
  405MPD2     C 6044   1.310   1.082  14.484 -0.4190 -0.6394 -0.0514
  405MPD2    C1 6045   1.220   0.995  14.420  0.0598  0.1501  1.0989
  405MPD2    C2 6046   1.154   1.039  14.305 -0.0600  0.3107  0.1089
  405MPD2    C3 6047   1.168   1.168  14.266 -0.1159  0.3980 -0.1811
  405MPD2    C4 6048   1.256   1.254  14.331  0.2544  0.2045 -0.5163
  405MPD2    C5 6049   1.329   1.210  14.438 -0.0538  0.3326  0.0323
  405MPD2     H 6050   1.077   0.972  14.270 -0.8830  1.0291  0.5366
  405MPD2    H1 6051   1.278   1.355  14.297 -1.0732  0.4720 -0.5619
  405MPD2    H2 6052   1.366   1.062  14.575 -0.6793 -3.6264 -0.5429
  405MPD2    H3 6053   1.403   1.272  14.487 -0.8480  0.6160  0.8604
  405MPD2     N 6054   1.097   1.214  14.156 -0.1994 -0.8779 -0.5432
  405MPD2    H5 6055   1.036   1.146  14.112  0.0051 -0.4374 -1.4948
  405MPD2    N1 6056   1.178   0.876  14.485  0.4803 -0.1713 -0.5894
  405MPD2    H7 6057   1.105   0.833  14.429 -0.3700  2.9955 -1.9248
  406TMC3    C1 6058   0.744   1.438  14.064  0.3620 -0.9283  0.3480
  406TMC3    C2 6059   0.687   1.320  14.047  0.4494  0.0285  0.2267
  406TMC3    C3 6060   0.767   1.217  14.003  1.3276  0.2815  0.0354
  406TMC3    C4 6061   0.881   1.462  14.050  0.0608 -0.3503  0.1816
  406TMC3    C5 6062   0.960   1.352  14.033  0.5422  0.5647 -0.4607
  406TMC3    C6 6063   0.899   1.232  14.002  0.9327  0.4711 -0.0490
  406TMC3     C 6064   0.664   1.556  14.093 -0.1462 -0.5554 -0.2481
  406TMC3     O 6065   0.721   1.659  14.062 -0.0153 -0.6367  0.0002
  406TMC3     H 6066   0.579   1.318  14.039  0.5748 -1.6388 -1.0463
  406TMC3    H1 6067   0.927   1.558  14.067  0.6168 -0.9340  2.0666
  406TMC3    H2 6068   0.958   1.147  13.969  0.1103  0.3436 -1.1898
  406TMC3    C7 6069   1.079   1.344  14.117 -0.7545  0.4431 -0.1369
  406TMC3    C8 6070   0.737   1.099  14.083 -0.0419 -0.1351 -0.7936
  406TMC3    O1 6071   1.122   1.450  14.165  0.1131  0.9757 -0.0931
  406TMC3    O2 6072   0.828   1.019  14.092  0.5631  0.7026  0.1441
  407MPD2     C 6073   3.306   2.617   9.189  0.7873  0.0426  0.0986
  407MPD2    C1 6074   3.406   2.540   9.249 -0.2209 -0.0538 -0.5713
  407MPD2    C2 6075   3.475   2.589   9.358  0.2941  0.6549 -0.5159
  407MPD2    C3 6076   3.445   2.716   9.406  0.0717  0.6216  0.3326
  407MPD2    C4 6077   3.352   2.794   9.341  0.4914  0.4699  0.2033
  407MPD2    C5 6078   3.281   2.741   9.236  0.1204 -0.6105 -0.5926
  407MPD2     H 6079   3.563   2.535   9.391 -1.9339 -1.2010  2.3163
  407MPD2    H1 6080   3.335   2.899   9.362  0.8365  0.5056  0.3083
  407MPD2    H2 6081   3.247   2.590   9.102  1.4241  1.5037 -0.7881
  407MPD2    H3 6082   3.211   2.805   9.184 -0.2869  0.6807  1.5308
  407MPD2     N 6083   3.500   2.770   9.524 -0.3114  0.5184  0.1809
  407MPD2    H5 6084   3.469   2.865   9.546  1.8394  1.3416 -0.3898
  407MPD2    N1 6085   3.465   2.429   9.191 -0.8155 -0.4954  0.6171
  407MPD2    H7 6086   3.547   2.392   9.238 -0.0122  1.3237  0.6341
  408TMC3    C1 6087   3.496   2.257   9.034 -0.1519  0.6169 -0.0408
  408TMC3    C2 6088   3.628   2.292   9.008  0.5023 -0.0466  0.1060
  408TMC3    C3 6089   3.690   2.233   8.905  0.1789 -0.5163  0.1155
  408TMC3    C4 6090   3.432   2.151   8.968  0.5267 -0.3546 -0.6880
  408TMC3    C5 6091   3.510   2.082   8.868  0.5468  0.3884  0.2882
  408TMC3    C6 6092   3.638   2.125   8.835  0.1296  0.0786  0.4670
  408TMC3     C 6093   3.406   2.359   9.087  0.3511  0.3763  0.5918
  408TMC3     O 6094   3.308   2.386   9.020  0.3308  0.2813  0.5686
  408TMC3     H 6095   3.671   2.375   9.063  0.5039  0.4171 -0.5970
  408TMC3    H1 6096   3.327   2.128   8.982  0.2602  2.7632  2.6406
  408TMC3    H2 6097   3.691   2.068   8.760 -0.8197  0.5853 -0.5938
  408TMC3    C7 6098   3.462   1.952   8.818  0.6122 -0.7521 -1.1337
  408TMC3    C8 6099   3.827   2.268   8.875 -0.4756  0.3260 -0.0348
  408TMC3    O1 6100   3.539   1.887   8.743  0.4629  0.5227 -0.2980
  408TMC3    O2 6101   3.902   2.186   8.817  0.1649 -0.1081  0.0186
  409MPD2     C 6102   3.164   3.231  17.663 -0.1626 -0.0082  0.0491
  409MPD2    C1 6103   3.280   3.251   0.044 -0.3939 -0.8831  0.1285
  409MPD2    C2 6104   3.371   3.343   0.004  0.3246 -0.3086 -0.3265
  409MPD2    C3 6105   3.359   3.410  17.580 -0.6655  0.5121  0.4156
  409MPD2    C4 6106   3.244   3.394  17.511  0.1649  0.6920  0.3015
  409MPD2    C5 6107   3.144   3.306  17.552  0.4817 -0.2037  0.1957
  409MPD2     H 6108   3.456   3.358   0.070 -0.0722  1.5167 -0.2338
  409MPD2    H1 6109   3.226   3.463  17.429 -1.0570  0.5383  0.4443
  409MPD2    H2 6110   3.099   3.148  17.688 -0.4913  1.0064  2.5869
  409MPD2    H3 6111   3.051   3.285  17.501 -0.7513  1.4107  1.7638
  409MPD2     N 6112   3.470   3.485  17.525  0.2372 -0.1799 -0.0098
  409MPD2    H5 6113   3.461   3.541  17.441  2.1463 -1.0797 -0.8011
  409MPD2    N1 6114   3.307   3.184   0.166 -0.1734 -0.2247 -0.5273
  409MPD2    H7 6115   3.406   3.190   0.188 -0.6788  2.3822  1.0621
  410TMC3    C1 6116   3.676   3.596  17.544  0.6122 -0.1081 -0.0055
  410TMC3    C2 6117   3.810   3.586  17.568 -0.5214  0.5519  0.0325
  410TMC3    C3 6118   3.888   3.695  17.560  0.7725 -0.3557  0.8094
  410TMC3    C4 6119   3.612   3.708  17.514 -0.2175 -0.6053 -0.1219
  410TMC3    C5 6120   3.694   3.824  17.517  0.2310  0.1717  0.2858
  410TMC3    C6 6121   3.832   3.816  17.544  0.5698 -0.6471 -0.3913
  410TMC3     C 6122   3.599   3.480  17.580 -0.7536 -0.4635  0.5207
  410TMC3     O 6123   3.648   3.409  17.670  0.6175 -0.0681 -0.5167
  410TMC3     H 6124   3.852   3.490  17.593 -0.4950  0.1388 -1.5651
  410TMC3    H1 6125   3.506   3.728  17.504 -0.4724 -2.3885 -0.8913
  410TMC3    H2 6126   3.894   3.905  17.546 -1.6989  0.9698 -0.7711
  410TMC3    C7 6127   3.639   3.944  17.472 -0.3565 -0.0798  0.2473
  410TMC3    C8 6128   4.030   3.694  17.571 -0.1462  0.6282 -0.7263
  410TMC3    O1 6129   3.519   3.952  17.487 -0.0800  0.4202 -0.1723
  410TMC3    O2 6130   4.087   3.803  17.590  0.9903 -0.2907 -0.0933
  411MPD2     C 6131   3.770   0.090  14.451 -0.5000 -0.3485  0.3412
  411MPD2    C1 6132   3.685   0.012  14.521  0.1849 -0.9588  0.3637
  411MPD2    C2 6133   3.673   4.602  14.494 -0.2028 -0.2444  0.3503
  411MPD2    C3 6134   3.760   4.534  14.414  0.4420  0.0391  0.1456
  411MPD2    C4 6135   3.849   4.606  14.343  0.2397  0.4469  0.1094
  411MPD2    C5 6136   3.859   0.024  14.365  0.5123  1.0348 -0.0194
  411MPD2     H 6137   3.596   4.546  14.548  1.8718 -0.8563  2.6755
  411MPD2    H1 6138   3.922   4.553  14.284  0.6471  0.0889  0.9340
  411MPD2    H2 6139   3.792   0.195  14.469  0.8807 -0.6358  0.3440
  411MPD2    H3 6140   3.946   0.080  14.333  1.7152 -0.9851 -0.3215
  411MPD2     N 6141   3.744   4.397  14.379  0.0005  0.4484  0.2615
  411MPD2    H5 6142   3.821   4.361  14.322  1.8663  3.4206  0.9301
  411MPD2    N1 6143   3.591   0.068  14.610  0.2859 -0.5398 -0.2706
  411MPD2    H7 6144   3.598   0.167  14.631 -1.8112 -0.1125 -1.6044
  412TMC3    C1 6145   3.643   4.179  14.342 -0.0346  0.0135  0.0303
  412TMC3    C2 6146   3.523   4.116  14.335  0.0494  0.4060  0.2730
  412TMC3    C3 6147   3.514   3.986  14.368  1.0781 -1.0542 -0.2943
  412TMC3    C4 6148   3.762   4.118  14.368 -0.1659 -0.1909  0.3576
  412TMC3    C5 6149   3.746   3.986  14.399  0.3685  0.1124  0.4259
  412TMC3    C6 6150   3.626   3.918  14.408 -0.5105  0.0163 -0.1159
  412TMC3     C 6151   3.631   4.318  14.397  0.4730 -0.1371 -0.1370
  412TMC3     O 6152   3.527   4.349  14.458 -0.1068 -0.0585  0.3234
  412TMC3     H 6153   3.428   4.168  14.327  1.3331  2.3499 -2.2167
  412TMC3    H1 6154   3.862   4.158  14.364 -0.6623  1.2034  2.0977
  412TMC3    H2 6155   3.619   3.813  14.435  0.6170  0.4144  1.7044
  412TMC3    C7 6156   3.839   3.906  14.324  0.0610 -0.0898  0.6221
  412TMC3    C8 6157   3.432   3.897  14.291 -0.1900 -0.2564  0.5367
  412TMC3    O1 6158   3.955   3.935  14.315 -0.4848 -0.1801 -0.1217
  412TMC3    O2 6159   3.483   3.789  14.273  0.6323 -0.3052 -0.0406
  413MPD2     C 6160   0.383   2.549  15.176  0.2815  0.0577  0.6397
  413MPD2    C1 6161   0.304   2.456  15.109  0.0637 -0.8253  0.8320
  413MPD2    C2 6162   0.365   2.341  15.050  0.0932 -0.3192  0.1764
  413MPD2    C3 6163   0.496   2.320  15.066  0.3085  0.0486  0.0423
  413MPD2    C4 6164   0.572   2.407  15.145 -0.7077  0.0134  0.2869
  413MPD2    C5 6165   0.513   2.516  15.206 -0.1321 -0.4087 -0.0864
  413MPD2     H 6166   0.310   2.275  14.984  0.8969 -2.0572  1.2203
  413MPD2    H1 6167   0.679   2.391  15.156 -0.4712  1.7004  0.3901
  413MPD2    H2 6168   0.333   2.636  15.216 -0.2767  1.6549 -3.5235
  413MPD2    H3 6169   0.578   2.577  15.267  1.2600  1.8880 -3.8003
  413MPD2     N 6170   0.552   2.202  15.003 -0.0294  0.1902  0.7723
  413MPD2    H5 6171   0.489   2.149  14.942  1.1945  0.4785 -0.7460
  413MPD2    N1 6172   0.167   2.486  15.091 -0.2543 -0.8551 -0.3750
  413MPD2    H7 6173   0.137   2.579  15.117 -0.8853 -0.9265 -0.8736
  414TMC3    C1 6174   0.702   2.038  14.946 -0.2606 -0.3903 -1.0360
  414TMC3    C2 6175   0.788   1.945  15.000 -0.0425  0.4264 -0.3587
  414TMC3    C3 6176   0.786   1.823  14.939  0.9135 -0.0002  0.3647
  414TMC3    C4 6177   0.640   2.021  14.824 -0.0895  0.5192  0.0230
  414TMC3    C5 6178   0.662   1.900  14.759 -0.7311 -0.6933 -0.0654
  414TMC3    C6 6179   0.722   1.794  14.819  0.2481 -0.1837 -0.7591
  414TMC3     C 6180   0.676   2.154  15.021 -0.0829 -0.4006  0.5391
  414TMC3     O 6181   0.751   2.179  15.114 -0.4207  0.1808 -0.2547
  414TMC3     H 6182   0.824   1.963  15.100 -2.5831  1.0762  0.4396
  414TMC3    H1 6183   0.605   2.106  14.766 -1.5060  0.1577  0.3395
  414TMC3    H2 6184   0.716   1.692  14.782  1.9777 -0.1148 -1.2399
  414TMC3    C7 6185   0.597   1.880  14.636  0.3557 -0.8213 -0.3965
  414TMC3    C8 6186   0.882   1.714  14.979 -0.1334 -0.2451 -0.4435
  414TMC3    O1 6187   0.485   1.927  14.647 -0.1632 -0.8219  0.0161
  414TMC3    O2 6188   0.885   1.619  14.906 -0.1505  0.2049 -0.0527
  415TMC3    C1 6189   0.973   0.326   9.902 -0.5202  0.3752 -0.7377
  415TMC3    C2 6190   1.033   0.415   9.811  0.6694  0.3765  0.1427
  415TMC3    C3 6191   0.961   0.487   9.722 -0.5216 -0.6892  0.2684
  415TMC3    C4 6192   0.846   0.277   9.872  0.4607  0.5759 -0.7661
  415TMC3    C5 6193   0.783   0.348   9.775 -0.3945  0.0461  0.2705
  415TMC3    C6 6194   0.832   0.457   9.711 -0.0100 -0.0333 -0.0045
  415TMC3     C 6195   1.052   0.247   9.991  0.1990 -0.1893 -0.2040
  415TMC3     O 6196   0.997   0.144  10.039  0.3217 -0.2403 -0.4841
  415TMC3     H 6197   1.141   0.422   9.815  0.5009  2.1888  1.1972
  415TMC3    H1 6198   0.785   0.229   9.948 -0.2055 -0.8152 -2.1567
  415TMC3    H2 6199   0.773   0.519   9.644  1.1983 -0.2026 -1.2407
  415TMC3    C7 6200   0.657   0.291   9.718  0.3219 -0.7751  0.1820
  415TMC3    C8 6201   1.024   0.583   9.627  0.1954  0.0444  0.1726
  415TMC3    O1 6202   0.600   0.359   9.633  0.5511  0.4129 -0.2869
  415TMC3    O2 6203   0.947   0.640   9.551  0.1858  0.1619  0.0482
  416MPD2     C 6204   3.148   4.036  11.408 -0.0119 -0.7194  0.0093
  416MPD2    C1 6205   3.042   3.990  11.334 -0.1228 -0.2774 -0.1444
  416MPD2    C2 6206   3.071   3.897  11.229  0.0199 -0.1221 -0.2738
  416MPD2    C3 6207   3.197   3.863  11.192  0.7453 -0.3405 -0.3743
  416MPD2    C4 6208   3.294   3.901  11.280  0.0481  0.0148  0.4971
  416MPD2    C5 6209   3.272   3.985  11.388 -0.8410 -0.3482  0.5447
  416MPD2     H 6210   2.995   3.874  11.156  1.6490 -1.7888 -1.4432
  416MPD2    H1 6211   3.392   3.856  11.271 -0.6970 -2.0891  3.0024
  416MPD2    H2 6212   3.126   4.101  11.492 -3.2709 -3.4009  1.2166
  416MPD2    H3 6213   3.353   4.002  11.458  1.0511  0.1602 -1.7375
  416MPD2     N 6214   3.231   3.781  11.082 -0.6879 -0.1430 -0.5526
  416MPD2    H5 6215   3.320   3.736  11.098 -1.4639 -1.0238  1.3492
  416MPD2    N1 6216   2.916   4.037  11.368  0.0205  0.2199 -0.4791
  416MPD2    H7 6217   2.901   4.101  11.446  2.2215  1.0652 -0.7554
  417TMC3    C1 6218   2.683   4.063  11.350 -0.5494  0.2504  0.0059
  417TMC3    C2 6219   2.676   4.064  11.494 -0.1408 -0.3876  0.8906
  417TMC3    C3 6220   2.558   4.114  11.554 -0.0734 -0.0560 -0.3707
  417TMC3    C4 6221   2.571   4.097  11.275 -0.1573 -0.2787  0.2057
  417TMC3    C5 6222   2.463   4.137  11.345  0.3957 -0.2962  0.2976
  417TMC3    C6 6223   2.454   4.149  11.478 -0.0316 -0.4205  0.0112
  417TMC3     C 6224   2.804   4.022  11.288  0.2940 -0.1963 -0.8116
  417TMC3     O 6225   2.787   3.987  11.170  0.6342 -0.0291  0.1552
  417TMC3     H 6226   2.751   4.018  11.558  0.1755 -0.8851  0.1562
  417TMC3    H1 6227   2.586   4.108  11.168 -0.7684 -0.0898  0.1426
  417TMC3    H2 6228   2.361   4.188  11.518 -0.6353 -2.8908  1.0490
  417TMC3    C7 6229   2.346   4.175  11.273  0.0765  0.3035 -0.7578
  417TMC3    C8 6230   2.561   4.141  11.697  0.6688  0.4754  0.1046
  417TMC3    O1 6231   2.280   4.273  11.306  0.5567 -0.0730  0.2904
  417TMC3    O2 6232   2.451   4.163  11.746 -0.1504 -0.5112  0.1752
  418TMC3    C1 6233   1.795   0.332   0.427 -0.0860  0.5331  0.0304
  418TMC3    C2 6234   1.707   0.428   0.373  0.2104  0.5610 -0.2848
  418TMC3    C3 6235   1.649   0.509   0.465  0.6033  0.4108 -0.5842
  418TMC3    C4 6236   1.825   0.316   0.561 -0.4333  0.0280  0.1413
  418TMC3    C5 6237   1.742   0.389   0.649 -0.1228  0.5267  0.1377
  418TMC3    C6 6238   1.662   0.489   0.606  0.4977  0.4282  0.6026
  418TMC3     C 6239   1.852   0.234   0.337 -0.3703 -0.0310  0.2453
  418TMC3     O 6240   1.848   0.270   0.221 -0.1500  1.1261 -0.0503
  418TMC3     H 6241   1.691   0.442   0.266 -0.9175  0.6235 -0.1122
  418TMC3    H1 6242   1.896   0.243   0.599 -0.6101 -0.2524 -0.0663
  418TMC3    H2 6243   1.595   0.545   0.670  0.2932  0.0960  0.6828
  418TMC3    C7 6244   1.709   0.330   0.779 -0.8583 -0.2129 -0.2365
  418TMC3    C8 6245   1.526   0.575   0.426 -0.5891 -0.4460 -0.7462
  418TMC3    O1 6246   1.714   0.210   0.781 -0.1457 -0.2619  0.4188
  418TMC3    O2 6247   1.518   0.693   0.454 -0.4179  0.0176 -0.3196
  419MPD2     C 6248   0.041   3.955  12.250 -0.2771  0.9708  0.0512
  419MPD2    C1 6249   4.632   3.976  12.283 -0.6954 -0.6980  0.1234
  419MPD2    C2 6250   4.603   4.050  12.397  0.2810  0.9398  0.3280
  419MPD2    C3 6251   4.707   4.094  12.477  0.5591 -0.6410  0.0223
  419MPD2    C4 6252   0.117   4.058  12.443 -0.0017 -0.6139 -0.3385
  419MPD2    C5 6253   0.138   3.997  12.331 -0.2942  0.1889  0.0378
  419MPD2     H 6254   4.498   4.071  12.414 -0.1083  0.6672 -1.6529
  419MPD2    H1 6255   0.208   4.069  12.501  0.0153  1.9037 -0.8476
  419MPD2    H2 6256   0.074   3.897  12.165  0.5200  0.9138  0.4037
  419MPD2    H3 6257   0.239   3.964  12.310 -0.0939  1.8938 -1.6659
  419MPD2     N 6258   4.676   4.180  12.587 -0.7675  0.3351 -0.2342
  419MPD2    H5 6259   4.579   4.197  12.612 -0.5625 -1.9182  2.1081
  419MPD2    N1 6260   4.523   3.927  12.205  0.0420  0.0984  1.0597
  419MPD2    H7 6261   4.427   3.948  12.231 -0.5964  2.0749 -2.8824
  420TMC3    C1 6262   4.706   4.299  12.784 -0.2979  0.5310  0.2015
  420TMC3    C2 6263   4.574   4.341  12.786  0.2073  0.0301 -0.0426
  420TMC3    C3 6264   4.525   4.394  12.903 -0.3584 -0.2539  0.0918
  420TMC3    C4 6265   0.064   4.319  12.891  0.4238  0.3149 -0.1456
  420TMC3    C5 6266   0.009   4.363  13.009  0.0043 -0.3948  0.4732
  420TMC3    C6 6267   4.599   4.398  13.019 -0.0042  0.3115 -0.6293
  420TMC3     C 6268   0.044   4.245  12.664 -0.5686 -0.3848  0.3036
  420TMC3     O 6269   0.164   4.256  12.655  0.0123 -0.2223 -0.0673
  420TMC3     H 6270   4.512   4.318  12.700  0.2190  1.0132 -0.3134
  420TMC3    H1 6271   0.164   4.279  12.896  0.3232 -0.0258 -0.8802
  420TMC3    H2 6272   4.549   4.423  13.112 -1.2476 -0.8494 -0.9813
  420TMC3    C7 6273   0.076   4.338  13.128  1.2487  0.1600  0.1376
  420TMC3    C8 6274   4.389   4.405  12.926 -0.1496 -0.1791 -0.5996
  420TMC3    O1 6275   0.010   4.302  13.226  0.0355 -0.5071  0.6064
  420TMC3    O2 6276   4.341   4.377  13.036 -0.1819  0.0996 -0.4262
  421TMC3    C1 6277   1.290   1.081  13.341 -0.1181  1.0683 -0.1905
  421TMC3    C2 6278   1.307   1.206  13.393 -0.9063 -0.0173  0.2389
  421TMC3    C3 6279   1.406   1.222  13.486 -0.1503  1.0766  0.2127
  421TMC3    C4 6280   1.360   0.970  13.382  0.4808 -0.7599  0.3132
  421TMC3    C5 6281   1.454   1.000  13.474  0.6101  0.8534 -0.3227
  421TMC3    C6 6282   1.482   1.120  13.527  0.0703  0.6155  0.5529
  421TMC3     C 6283   1.199   1.059  13.228 -0.0110  0.5350 -0.7435
  421TMC3     O 6284   1.187   1.160  13.166 -0.1410 -0.5118 -0.1109
  421TMC3     H 6285   1.243   1.291  13.371  1.7789  2.4016  1.7709
  421TMC3    H1 6286   1.333   0.868  13.355  1.5957 -1.2360  1.0367
  421TMC3    H2 6287   1.565   1.133  13.595 -1.0712  1.2567  1.8171
  421TMC3    C7 6288   1.543   0.894  13.523  0.2677 -0.1584 -0.0979
  421TMC3    C8 6289   1.461   1.357  13.513 -0.5418 -0.4661 -0.3417
  421TMC3    O1 6290   1.616   0.919  13.622  0.0593 -0.6101  0.7571
  421TMC3    O2 6291   1.561   1.360  13.581 -0.0365  0.5405  0.1362
  422TMC3    C1 6292   3.717   2.296  12.456 -0.2673 -0.6367 -0.3447
  422TMC3    C2 6293   3.756   2.397  12.537  0.5577  0.3216  0.5615
  422TMC3    C3 6294   3.699   2.408  12.664 -0.4253 -0.0211 -0.2646
  422TMC3    C4 6295   3.633   2.199  12.507  0.2789  0.5584 -0.1951
  422TMC3    C5 6296   3.584   2.206  12.633  0.3156 -0.1183  0.3578
  422TMC3    C6 6297   3.621   2.308  12.714 -0.4197  0.7004 -0.0613
  422TMC3     C 6298   3.758   2.307  12.315 -0.8115  0.5047 -0.6153
  422TMC3     O 6299   3.836   2.393  12.282  0.2404 -0.8328  0.1366
  422TMC3     H 6300   3.813   2.481  12.500  2.4503 -0.0362  2.6953
  422TMC3    H1 6301   3.581   2.135  12.436 -0.4365  1.5408 -0.5627
  422TMC3    H2 6302   3.596   2.304  12.820 -0.7427 -0.6889 -0.1932
  422TMC3    C7 6303   3.460   2.146  12.649 -0.2908 -0.2989  0.5130
  422TMC3    C8 6304   3.713   2.540  12.720 -0.4710  0.4423 -0.4805
  422TMC3    O1 6305   3.381   2.135  12.554 -0.1756 -0.8134 -0.6818
  422TMC3    O2 6306   3.801   2.613  12.670  0.6035 -0.0674  0.2276
  423MPD2     C 6307   0.628   2.929   0.541  0.2047 -0.5378  0.2870
  423MPD2    C1 6308   0.525   2.843   0.550 -0.4800 -0.3257  0.5435
  423MPD2    C2 6309   0.492   2.774   0.433  0.2114 -0.0492  0.4675
  423MPD2    C3 6310   0.565   2.791   0.316 -0.7192  0.1072 -0.0842
  423MPD2    C4 6311   0.672   2.882   0.312  0.0333  0.1963  0.0836
  423MPD2    C5 6312   0.699   2.951   0.424  0.5934 -0.3813  0.0260
  423MPD2     H 6313   0.407   2.707   0.435  0.0392  0.0913 -1.7787
  423MPD2    H1 6314   0.731   2.895   0.222 -0.9313  0.7995 -0.4626
  423MPD2    H2 6315   0.642   2.989   0.630 -3.2543  1.9018 -0.8052
  423MPD2    H3 6316   0.782   3.019   0.437 -1.0647  1.1838  2.6640
  423MPD2     N 6317   0.548   2.726   0.191 -0.4004 -0.1131  0.6140
  423MPD2    H5 6318   0.604   2.762   0.114 -0.2529 -2.6367 -0.4624
  423MPD2    N1 6319   0.457   2.810   0.670 -0.2510  0.1976 -0.2181
  423MPD2    H7 6320   0.389   2.736   0.660  2.8283 -2.8993  1.5068
  424TMC3    C1 6321   0.411   2.748   0.883  0.6650 -0.3077 -0.0043
  424TMC3    C2 6322   0.475   2.684   0.981  0.4659 -0.5690 -0.2829
  424TMC3    C3 6323   0.413   2.597   1.062  0.0299  0.0528 -0.8973
  424TMC3    C4 6324   0.281   2.727   0.851 -0.2792 -0.7176 -0.2798
  424TMC3    C5 6325   0.223   2.629   0.929  0.3992 -0.3825  0.2509
  424TMC3    C6 6326   0.285   2.557   1.028  0.4848  0.0980 -0.2186
  424TMC3     C 6327   0.496   2.829   0.796 -0.4311  0.0792 -0.0211
  424TMC3     O 6328   0.587   2.899   0.841 -0.5912  0.9101 -0.0145
  424TMC3     H 6329   0.581   2.698   1.003  0.9445 -0.3341 -2.6859
  424TMC3    H1 6330   0.227   2.789   0.781 -0.1457 -1.6540 -1.1994
  424TMC3    H2 6331   0.236   2.482   1.089  0.7752 -0.0179 -0.1262
  424TMC3    C7 6332   0.089   2.593   0.901  0.1183 -0.2120 -0.0803
  424TMC3    C8 6333   0.504   2.509   1.141  0.0004  0.3957  0.0272
  424TMC3    O1 6334   0.059   2.614   0.783 -0.2153 -0.3762  0.6013
  424TMC3    O2 6335   0.444   2.423   1.206 -0.4211 -0.2010 -0.1690
  425MPD2     C 6336   3.919   2.088  17.512  1.1364  0.4986  0.4639
  425MPD2    C1 6337   3.837   1.977  17.484  0.1723  0.4116 -0.3597
  425MPD2    C2 6338   3.711   1.978  17.550  0.6404  0.6567  0.2014
  425MPD2    C3 6339   3.669   2.090  17.618  0.2497 -0.2164 -0.6721
  425MPD2    C4 6340   3.750   2.196  17.631 -0.3220 -0.0773  0.5363
  425MPD2    C5 6341   3.875   2.190  17.587 -0.1589 -0.0630  0.5159
  425MPD2     H 6342   3.649   1.889  17.550 -0.5745  1.5108  2.3395
  425MPD2    H1 6343   3.735   2.291  17.680 -0.7833 -0.7991  1.8124
  425MPD2    H2 6344   4.024   2.087  17.485  0.5671  0.9287 -1.8123
  425MPD2    H3 6345   3.939   2.275  17.607 -0.7351  0.2079  1.2164
  425MPD2     N 6346   3.545   2.075  17.682 -0.0324 -0.2808 -0.3768
  425MPD2    H5 6347   3.493   1.992  17.657 -1.7300  0.6437  0.1341
  425MPD2    N1 6348   3.891   1.875  17.400 -0.1385 -0.0992 -0.0705
  425MPD2    H7 6349   3.992   1.869  17.398 -0.1357 -0.2351  0.3765
  426TMC3    C1 6350   3.912   1.671  17.301 -0.4706  0.2862 -0.3912
  426TMC3    C2 6351   3.896   1.627  17.173 -0.5865 -0.7325 -0.0805
  426TMC3    C3 6352   3.994   1.545  17.126  0.0335  0.0294  0.0639
  426TMC3    C4 6353   4.023   1.651  17.373 -0.1930 -0.3628 -0.4165
  426TMC3    C5 6354   4.115   1.556  17.330  0.2900 -0.4175  0.1632
  426TMC3    C6 6355   4.105   1.501  17.207 -0.0145 -0.1503 -0.4815
  426TMC3     C 6356   3.818   1.774  17.349 -0.0609 -0.5826 -0.2428
  426TMC3     O 6357   3.694   1.758  17.355  0.2862 -0.3309  0.3944
  426TMC3     H 6358   3.806   1.638  17.113  0.3277  0.1780 -1.2817
  426TMC3    H1 6359   4.049   1.700  17.466  0.5034  0.9360 -1.2973
  426TMC3    H2 6360   4.163   1.417  17.170  0.4804 -0.1395  0.2646
  426TMC3    C7 6361   4.196   1.483  17.431 -0.0617  0.3197  0.0324
  426TMC3    C8 6362   3.970   1.460  17.013 -0.3691 -0.0579 -0.0019
  426TMC3    O1 6363   4.254   1.386  17.391 -0.3438  0.2060  0.0993
  426TMC3    O2 6364   4.056   1.443  16.927  0.0542  0.0546 -0.3040
  427MPD2     C 6365   2.781   4.401  14.691  0.0783  0.4021 -0.0834
  427MPD2    C1 6366   2.725   4.284  14.738 -0.3008  0.1262  0.1146
  427MPD2    C2 6367   2.598   4.247  14.692 -0.8509  0.0682  0.6539
  427MPD2    C3 6368   2.529   4.332  14.604 -0.7879  0.8123  0.1993
  427MPD2    C4 6369   2.586   4.451  14.563  0.1063 -0.1862  0.2049
  427MPD2    C5 6370   2.715   4.486  14.607  0.1902 -0.4514 -0.0919
  427MPD2     H 6371   2.561   4.145  14.697  0.5694 -0.7070 -4.7545
  427MPD2    H1 6372   2.539   4.525  14.500  0.2924 -0.8017 -0.6625
  427MPD2    H2 6373   2.879   4.432  14.725 -1.5341  4.5307  0.7523
  427MPD2    H3 6374   2.775   4.572  14.580  1.8362 -1.5660  0.0147
  427MPD2     N 6375   2.393   4.310  14.558 -0.0534  0.1672 -0.2036
  427MPD2    H5 6376   2.359   4.369  14.483 -0.4491  0.5912  0.3134
  427MPD2    N1 6377   2.802   4.203  14.821 -0.3251  0.2433 -0.4903
  427MPD2    H7 6378   2.897   4.238  14.831  0.3357 -2.1446  1.5060
  428TMC3    C1 6379   2.842   4.032  14.974 -0.8474  0.0140  0.0216
  428TMC3    C2 6380   2.802   3.902  15.004  0.0200 -0.0617  0.0972
  428TMC3    C3 6381   2.875   3.838  15.096  0.0477  0.4472  0.6742
  428TMC3    C4 6382   2.954   4.088  15.027 -0.0169  0.2491  0.0514
  428TMC3    C5 6383   3.024   4.021  15.118 -0.3191 -0.0457 -0.3106
  428TMC3    C6 6384   2.982   3.896  15.157 -0.0926  0.4083  0.5542
  428TMC3     C 6385   2.748   4.100  14.898  0.0480 -0.1958 -0.3697
  428TMC3     O 6386   2.630   4.066  14.920 -0.3632 -0.0290  0.1531
  428TMC3     H 6387   2.720   3.859  14.948  0.5610  1.1118 -1.6114
  428TMC3    H1 6388   2.996   4.183  14.993 -0.5790  0.1915 -0.7937
  428TMC3    H2 6389   3.052   3.833  15.210  1.0518  0.9520 -0.3214
  428TMC3    C7 6390   3.149   4.064  15.181 -0.1782  0.3034  0.0350
  428TMC3    C8 6391   2.844   3.694  15.120  0.3266 -0.1534  0.0240
  428TMC3    O1 6392   3.185   4.005  15.285  0.0969  0.4204 -0.1011
  428TMC3    O2 6393   2.824   3.618  15.024  0.2262  0.6293 -0.8548
  429MPD2     C 6394   3.858   4.157   0.290  0.3663  0.2853  0.2112
  429MPD2    C1 6395   3.967   4.127   0.211  1.1413 -0.0888  0.1264
  429MPD2    C2 6396   4.041   4.236   0.168  0.0523  0.0867  0.0824
  429MPD2    C3 6397   4.018   4.371   0.206 -0.4257 -0.0688 -0.1083
  429MPD2    C4 6398   3.901   4.396   0.278 -0.5319  0.1760 -0.1799
  429MPD2    C5 6399   3.819   4.287   0.313 -0.6609  0.1988  0.7264
  429MPD2     H 6400   4.132   4.210   0.116 -0.5378  1.9580 -1.8985
  429MPD2    H1 6401   3.883   4.498   0.311 -0.6120  0.2126 -0.3352
  429MPD2    H2 6402   3.802   4.076   0.336  1.4832 -1.8651 -2.2450
  429MPD2    H3 6403   3.732   4.304   0.375 -1.5573 -2.6811  0.2891
  429MPD2     N 6404   4.113   4.466   0.170  0.2858  0.0308 -0.8006
  429MPD2    H5 6405   4.196   4.436   0.119  0.3805 -0.3324 -0.4376
  429MPD2    N1 6406   4.019   4.000   0.183 -0.6340  0.6604 -0.7160
  429MPD2    H7 6407   4.117   3.995   0.158 -0.6242  0.9231 -0.7264
  430TMC3    C1 6408   4.221   4.668   0.163 -0.8959 -0.0150 -0.5673
  430TMC3    C2 6409   4.230   0.049   0.081 -0.3078  0.3658  0.0746
  430TMC3    C3 6410   4.350   0.082   0.021  0.5652 -0.6367  0.1970
  430TMC3    C4 6411   4.333   4.592   0.193 -0.0082  0.2174  0.1630
  430TMC3    C5 6412   4.447   4.619   0.127  0.0586 -0.6047 -0.5432
  430TMC3    C6 6413   4.461   0.006   0.042  0.1359 -0.3009  0.4506
  430TMC3     C 6414   4.100   4.605   0.189  0.4385 -0.3132  0.3863
  430TMC3     O 6415   4.001   4.668   0.226 -0.1178  0.1548 -0.1501
  430TMC3     H 6416   4.137   0.102   0.061 -0.7914 -0.2027  0.8458
  430TMC3    H1 6417   4.325   4.505   0.258 -3.1358 -1.5087 -2.5508
  430TMC3    H2 6418   4.555   0.039  17.691 -1.1641  2.3921 -0.3500
  430TMC3    C7 6419   4.476   4.494   0.055  0.1271  0.0626  0.2103
  430TMC3    C8 6420   4.340   0.124  17.572  0.0359  0.2283 -0.2919
  430TMC3    O1 6421   4.423   4.386   0.093  0.3685 -0.5825  0.3157
  430TMC3    O2 6422   4.240   0.074  17.523  0.1401  0.6246 -0.4482
  431MPD2     C 6423   4.473   4.467  12.316 -0.0193 -0.5497  0.4238
  431MPD2    C1 6424   4.535   4.422  12.200 -0.2930  0.1232 -0.3033
  431MPD2    C2 6425   4.471   4.329  12.125 -0.4584  0.1570 -1.0249
  431MPD2    C3 6426   4.356   4.268  12.158 -0.6592 -0.5837  0.4651
  431MPD2    C4 6427   4.294   4.307  12.275 -0.2418 -0.1347  0.3476
  431MPD2    C5 6428   4.350   4.410  12.350 -0.9470 -0.1750 -0.5274
  431MPD2     H 6429   4.524   4.292  12.038 -0.0319 -0.6745 -0.4122
  431MPD2    H1 6430   4.200   4.267  12.312 -0.2426 -0.0681  0.4175
  431MPD2    H2 6431   4.505   4.554  12.373 -0.6791  1.6553 -2.5837
  431MPD2    H3 6432   4.284   4.451  12.426  0.3659  0.2006  0.4133
  431MPD2     N 6433   4.292   4.167  12.088 -0.1277  0.2376 -0.2079
  431MPD2    H5 6434   4.209   4.121  12.125  0.1477 -0.7703 -0.8165
  431MPD2    N1 6435   4.656   4.479  12.153 -0.6538  0.0198 -0.1860
  431MPD2    H7 6436   4.696   4.428  12.075 -0.4512 -0.1760  0.0457
  432TMC3    C1 6437   4.320   4.015  11.917  0.2412 -0.4028  0.5196
  432TMC3    C2 6438   4.384   3.997  11.803 -0.0246  0.4203 -0.3431
  432TMC3    C3 6439   4.464   3.888  11.792 -0.7539  0.2669  0.3067
  432TMC3    C4 6440   4.343   3.925  12.027 -0.1970  0.2938 -0.1475
  432TMC3    C5 6441   4.425   3.816  12.013  0.3526  0.6602  0.6612
  432TMC3    C6 6442   4.477   3.790  11.891  1.3657 -0.3977 -0.5604
  432TMC3     C 6443   4.322   4.155  11.957  0.4060 -0.8332 -0.7792
  432TMC3     O 6444   4.384   4.226  11.878  0.0586 -0.1763  1.1628
  432TMC3     H 6445   4.383   4.072  11.725 -1.0985 -2.0751 -2.7062
  432TMC3    H1 6446   4.286   3.940  12.118 -1.1303 -0.6002 -0.5906
  432TMC3    H2 6447   4.530   3.697  11.875  2.8182  0.8203 -2.9195
  432TMC3    C7 6448   4.536   3.835  12.103  0.1545 -0.2789 -0.2091
  432TMC3    C8 6449   4.575   3.890  11.696 -1.0221 -0.3770  0.1647
  432TMC3    O1 6450   4.637   3.786  12.062  0.4108 -0.5746 -0.1041
  432TMC3    O2 6451   4.569   3.961  11.597 -0.1655  0.5547  0.1019
  433MPD2     C 6452   3.994   3.037  10.688  0.5854 -0.2857 -0.4210
  433MPD2    C1 6453   3.876   3.061  10.758  0.1882 -0.2349 -0.3373
  433MPD2    C2 6454   3.887   3.067  10.897  0.1361 -0.0116 -0.1671
  433MPD2    C3 6455   4.003   3.034  10.961 -0.8457 -0.2011 -0.6114
  433MPD2    C4 6456   4.119   3.019  10.880 -0.8624  0.0150 -0.2890
  433MPD2    C5 6457   4.116   3.020  10.747 -0.0968  0.5177  0.3235
  433MPD2     H 6458   3.796   3.085  10.953  1.2815 -2.4460  2.4611
  433MPD2    H1 6459   4.213   2.988  10.923 -0.9077 -1.1187 -1.0176
  433MPD2    H2 6460   3.988   3.033  10.580 -3.8096  0.1185 -0.2064
  433MPD2    H3 6461   4.210   2.999  10.697 -1.7565  0.8806 -2.9864
  433MPD2     N 6462   4.015   3.037  11.099 -0.5066  0.4543  0.0414
  433MPD2    H5 6463   3.940   3.074  11.156 -0.4785 -0.4550  0.6760
  433MPD2    N1 6464   3.754   3.070  10.682 -0.5346  0.1180 -0.0655
  433MPD2    H7 6465   3.759   3.057  10.581  3.1268  0.1136  0.1376
  434TMC3    C1 6466   3.574   2.940  10.658  0.1567  0.6092  0.3008
  434TMC3    C2 6467   3.539   2.822  10.713  0.6390  0.0833  0.3827
  434TMC3    C3 6468   3.517   2.720  10.618 -0.3458  0.1839  0.8284
  434TMC3    C4 6469   3.577   2.967  10.524  0.2441 -0.4068  0.2136
  434TMC3    C5 6470   3.562   2.871  10.435 -0.1575 -0.1055 -0.6144
  434TMC3    C6 6471   3.528   2.749  10.483 -0.4628 -0.1052  0.4327
  434TMC3     C 6472   3.635   3.038  10.737  0.1492  0.0866 -0.7301
  434TMC3     O 6473   3.590   3.034  10.852  0.1327 -0.3394  0.0977
  434TMC3     H 6474   3.534   2.809  10.821 -1.0425  1.2747  0.4361
  434TMC3    H1 6475   3.599   3.068  10.493 -4.9588  0.0007 -2.1507
  434TMC3    H2 6476   3.513   2.667  10.413  0.0791  0.0778  0.1021
  434TMC3    C7 6477   3.506   2.903  10.304 -0.0808 -0.0395 -0.4210
  434TMC3    C8 6478   3.552   2.594  10.658 -0.5617 -0.1393 -0.4813
  434TMC3    O1 6479   3.489   3.023  10.285  0.1002  0.5002 -0.4864
  434TMC3    O2 6480   3.540   2.577  10.780  0.7678 -0.2051 -0.1327
  435MPD2     C 6481   0.445   2.918  15.442  0.2487  0.2413  0.0895
  435MPD2    C1 6482   0.461   2.910  15.577  0.5609  0.7698  0.0484
  435MPD2    C2 6483   0.587   2.890  15.628 -0.0019  0.7768  0.8170
  435MPD2    C3 6484   0.698   2.846  15.556 -0.0975 -0.6943  0.2343
  435MPD2    C4 6485   0.676   2.845  15.421 -0.2433 -0.2238  0.1752
  435MPD2    C5 6486   0.556   2.888  15.372 -0.8702  0.7947  0.3218
  435MPD2     H 6487   0.587   2.889  15.736  1.4436 -1.7812  0.7847
  435MPD2    H1 6488   0.743   2.810  15.343 -1.6520 -2.5321 -0.0016
  435MPD2    H2 6489   0.353   2.945  15.391  0.6418 -2.1152 -1.8679
  435MPD2    H3 6490   0.552   2.881  15.264  0.9835 -1.6021  0.4139
  435MPD2     N 6491   0.813   2.799  15.622 -0.6028 -0.7410  0.4320
  435MPD2    H5 6492   0.804   2.804  15.723  2.3912  1.1503  0.6081
  435MPD2    N1 6493   0.354   2.921  15.676  0.2052 -0.0841 -0.7288
  435MPD2    H7 6494   0.389   2.910  15.771  0.9313 -3.5206 -1.4213
  436TMC3    C1 6495   0.074   2.942  15.984  0.5403  0.3010  0.5840
  436TMC3    C2 6496   0.169   2.914  15.885 -0.9660  0.2065 -0.4308
  436TMC3    C3 6497   0.144   2.980  15.763 -0.9534  0.0677 -0.3415
  436TMC3    C4 6498   4.693   3.036  15.966  0.6161 -0.1054  0.6489
  436TMC3    C5 6499   4.668   3.081  15.843  0.5801 -0.2895  0.2588
  436TMC3    C6 6500   0.029   3.055  15.739  0.1404 -0.3945 -0.5237
  436TMC3     C 6501   0.124   2.902  16.113  0.5041  0.8437 -0.2740
  436TMC3     O 6502   0.206   2.812  16.112 -0.0958 -0.4307  0.4314
  436TMC3     H 6503   0.246   2.838  15.881 -0.8174  0.3049  0.6000
  436TMC3    H1 6504   4.631   3.058  16.052 -1.4455 -0.1224 -0.8505
  436TMC3    H2 6505   0.022   3.099  15.640  0.3829  1.1473  0.1463
  436TMC3    C7 6506   4.561   3.182  15.828  0.0148 -0.1945  0.4777
  436TMC3    C8 6507   0.217   2.941  15.646 -0.6929  0.1022 -1.1480
  436TMC3    O1 6508   4.466   3.184  15.909 -0.0781 -0.1518  0.2286
  436TMC3    O2 6509   0.171   2.980  15.538 -0.1296 -0.1531  0.2433
  437TMC3    C1 6510   4.055   0.586  12.172 -0.3775 -0.2066  0.8240
  437TMC3    C2 6511   3.957   0.671  12.135 -0.1810  0.1613  0.2070
  437TMC3    C3 6512   3.990   0.780  12.054 -0.0825  0.6770  0.3969
  437TMC3    C4 6513   4.188   0.613  12.151 -0.8422  0.7340  0.7581
  437TMC3    C5 6514   4.212   0.707  12.056 -0.5508  0.9871  0.4598
  437TMC3    C6 6515   4.122   0.802  12.029 -0.4683 -0.2327  0.0766
  437TMC3     C 6516   4.017   0.498  12.282 -0.1586 -0.6149  0.2033
  437TMC3     O 6517   3.896   0.498  12.307 -0.0001  0.2532  0.3221
  437TMC3     H 6518   3.852   0.641  12.136  0.2381 -1.4007 -1.8692
  437TMC3    H1 6519   4.267   0.541  12.170 -1.0277  0.4997  0.6329
  437TMC3    H2 6520   4.148   0.884  11.963  0.4659  0.3960  1.2347
  437TMC3    C7 6521   4.347   0.728  12.003  0.2818 -0.7862 -0.7958
  437TMC3    C8 6522   3.902   0.895  12.048  0.3420  0.6589 -0.4105
  437TMC3    O1 6523   4.342   0.744  11.885 -0.1357  0.2467  0.3360
  437TMC3    O2 6524   3.929   0.969  11.957 -0.5400 -0.7385 -0.1029
  438MPD2     C 6525   1.652   0.326  16.737  0.0079  0.1995  0.0786
  438MPD2    C1 6526   1.771   0.313  16.798 -0.3213 -0.6449 -0.2794
  438MPD2    C2 6527   1.774   0.254  16.920  0.2396 -0.3586  0.2503
  438MPD2    C3 6528   1.659   0.226  16.993  0.0434 -0.0553  0.2017
  438MPD2    C4 6529   1.541   0.235  16.929  0.1954  0.5610 -0.3198
  438MPD2    C5 6530   1.538   0.290  16.802  0.4506  0.2779 -0.1259
  438MPD2     H 6531   1.866   0.241  16.977  0.9061  0.7928 -0.5636
  438MPD2    H1 6532   1.455   0.198  16.984  1.1003  0.8448  1.3043
  438MPD2    H2 6533   1.637   0.349  16.632 -3.2355  1.6419  0.8357
  438MPD2    H3 6534   1.446   0.298  16.745  1.4175 -0.3900 -1.7679
  438MPD2     N 6535   1.653   0.195  17.127  0.5950 -0.4896 -0.5289
  438MPD2    H5 6536   1.567   0.189  17.181  0.8949 -0.5114 -0.0494
  438MPD2    N1 6537   1.889   0.339  16.728 -0.1029 -0.6169  0.1180
  438MPD2    H7 6538   1.976   0.309  16.770 -0.0797 -0.4200  0.2113
  439TMC3    C1 6539   2.040   0.435  16.576  0.1787 -0.3498  0.8662
  439TMC3    C2 6540   2.075   0.408  16.452  0.0424  0.4521 -0.3668
  439TMC3    C3 6541   2.206   0.392  16.426  0.1100 -0.2772 -0.7984
  439TMC3    C4 6542   2.131   0.424  16.683 -0.4163 -0.4188 -0.1560
  439TMC3    C5 6543   2.264   0.412  16.646  0.0192  0.3253 -0.0662
  439TMC3    C6 6544   2.301   0.407  16.524 -0.1308  0.2361 -0.6439
  439TMC3     C 6545   1.902   0.403  16.607  0.3328 -0.0411 -0.2041
  439TMC3     O 6546   1.821   0.451  16.532 -0.5768 -0.1789 -1.0485
  439TMC3     H 6547   2.004   0.408  16.371 -1.0816 -1.9893  0.6275
  439TMC3    H1 6548   2.107   0.461  16.782 -0.9241 -2.7629  0.5757
  439TMC3    H2 6549   2.404   0.399  16.490 -0.4483 -2.3510 -0.9917
  439TMC3    C7 6550   2.360   0.425  16.749 -0.5710 -0.6798  0.0718
  439TMC3    C8 6551   2.259   0.326  16.306  0.2168 -0.1444  0.2311
  439TMC3    O1 6552   2.321   0.381  16.857  0.7976  0.4207  0.2317
  439TMC3    O2 6553   2.379   0.294  16.315  0.0577  0.3314 -0.4417
  440MPD2     C 6554   0.737   1.298  14.546 -0.8826 -0.5631 -0.0562
  440MPD2    C1 6555   0.725   1.302  14.684 -0.0017  0.1564  0.8912
  440MPD2    C2 6556   0.821   1.241  14.760  0.0086 -0.1380  0.3445
  440MPD2    C3 6557   0.931   1.181  14.702  0.0626  0.4213 -0.5817
  440MPD2    C4 6558   0.944   1.185  14.564 -0.2634 -0.5369 -0.5664
  440MPD2    C5 6559   0.849   1.241  14.492  0.5838 -0.2853 -0.2400
  440MPD2     H 6560   0.802   1.243  14.866  1.4415 -1.0998  0.6289
  440MPD2    H1 6561   1.019   1.130  14.508  0.8159 -0.5068  0.8455
  440MPD2    H2 6562   0.655   1.315  14.478  0.9052  1.9498 -1.5958
  440MPD2    H3 6563   0.856   1.228  14.385 -2.5928  0.9367 -0.6117
  440MPD2     N 6564   1.025   1.110  14.772  0.5957 -0.0186 -0.2581
  440MPD2    H5 6565   1.107   1.088  14.717 -0.6091 -1.0744 -1.6318
  440MPD2    N1 6566   0.620   1.361  14.755  0.0105  0.0450  0.1058
  440MPD2    H7 6567   0.625   1.356  14.856  1.1474  0.8508  0.0949
  441TMC3    C1 6568   1.140   1.059  14.975 -0.1012 -0.5122  0.2226
  441TMC3    C2 6569   1.248   1.137  14.943 -0.3425 -0.2015 -0.4403
  441TMC3    C3 6570   1.346   1.155  15.039 -0.1132 -0.2758  0.1508
  441TMC3    C4 6571   1.136   0.998  15.100  0.3574 -0.6847  0.0220
  441TMC3    C5 6572   1.243   1.008  15.187 -0.3214  0.0644  0.1597
  441TMC3    C6 6573   1.354   1.075  15.151 -0.1259 -0.7260 -0.5981
  441TMC3     C 6574   1.020   1.092  14.907  0.0747  0.5346  0.3532
  441TMC3     O 6575   0.914   1.067  14.967 -0.2085 -0.5404  0.4822
  441TMC3     H 6576   1.241   1.201  14.856 -2.2531  0.9784  0.5724
  441TMC3    H1 6577   1.051   0.935  15.123 -0.5657  0.6526  0.2457
  441TMC3    H2 6578   1.429   1.094  15.226  1.1512 -0.5040 -1.9309
  441TMC3    C7 6579   1.257   0.927  15.311 -0.6951  0.4750 -0.8475
  441TMC3    C8 6580   1.374   1.294  15.070 -0.3897 -0.2480 -0.6331
  441TMC3    O1 6581   1.366   0.875  15.327 -0.3730  0.1252 -0.5901
  441TMC3    O2 6582   1.479   1.317  15.128 -0.5718  0.0580  0.0514
  442MPD2     C 6583   3.993   1.509  16.265 -1.0342 -0.2617  0.4046
  442MPD2    C1 6584   3.877   1.461  16.317  0.4679  0.7238 -0.3730
  442MPD2    C2 6585   3.799   1.362  16.252  0.5027  0.0627  0.4241
  442MPD2    C3 6586   3.853   1.306  16.139 -0.1514  0.2184  0.0876
  442MPD2    C4 6587   3.972   1.350  16.092 -1.2314 -0.2193 -0.4014
  442MPD2    C5 6588   4.041   1.446  16.159 -0.0693  0.3461  0.4972
  442MPD2     H 6589   3.695   1.352  16.279 -0.0206  1.5469 -1.0837
  442MPD2    H1 6590   4.026   1.303  16.010  0.9144  1.2092  0.2084
  442MPD2    H2 6591   4.050   1.584  16.319  0.0467  0.9664 -2.4518
  442MPD2    H3 6592   4.139   1.463  16.115 -0.4681  0.2667 -0.4151
  442MPD2     N 6593   3.782   1.204  16.067 -0.3699  0.2229 -0.2427
  442MPD2    H5 6594   3.829   1.175  15.982 -0.4277  0.0307 -0.2080
  442MPD2    N1 6595   3.816   1.510  16.436 -0.2157 -0.5420  0.5669
  442MPD2    H7 6596   3.726   1.472  16.463 -0.7146  0.9904  1.0633
  443TMC3    C1 6597   3.771   1.653  16.619  0.5940 -0.5120 -0.1936
  443TMC3    C2 6598   3.751   1.788  16.640  0.2000  0.8271  0.6930
  443TMC3    C3 6599   3.638   1.829  16.707 -0.3998 -0.1804 -0.1130
  443TMC3    C4 6600   3.684   1.566  16.671  0.7068 -0.2485  0.1232
  443TMC3    C5 6601   3.594   1.607  16.764  0.5941 -0.0609 -0.3329
  443TMC3    C6 6602   3.556   1.741  16.773 -0.5917  0.0549 -0.2397
  443TMC3     C 6603   3.859   1.624  16.508  0.4022  1.2322  0.8396
  443TMC3     O 6604   3.952   1.699  16.487 -0.2172 -0.1434 -0.0458
  443TMC3     H 6605   3.808   1.852  16.573  1.6810 -1.4154 -0.1953
  443TMC3    H1 6606   3.717   1.463  16.669  2.4839  0.2734  2.2444
  443TMC3    H2 6607   3.467   1.769  16.829 -0.3737  0.9514 -0.3438
  443TMC3    C7 6608   3.504   1.508  16.816 -0.1141 -0.0934  0.5556
  443TMC3    C8 6609   3.587   1.959  16.699 -0.6407 -0.2216 -0.0570
  443TMC3    O1 6610   3.482   1.410  16.745  0.5194  0.4945  0.2784
  443TMC3    O2 6611   3.535   1.990  16.804 -0.2507 -0.2004 -0.0141
  444MPD2     C 6612   3.886   1.135  17.238  0.1523  0.4032  0.6465
  444MPD2    C1 6613   3.789   1.042  17.224 -0.3574  0.0563 -0.5517
  444MPD2    C2 6614   3.800   0.952  17.130  0.0445 -0.0683  0.5998
  444MPD2    C3 6615   3.910   0.948  17.044 -0.2838  0.1189 -0.2076
  444MPD2    C4 6616   4.010   1.039  17.058  0.1117  0.0321 -0.1743
  444MPD2    C5 6617   3.999   1.137  17.155  0.1733  0.9633 -0.6411
  444MPD2     H 6618   3.722   0.878  17.117 -1.3987  1.5382  0.1098
  444MPD2    H1 6619   4.084   1.064  16.982  1.1843  0.0529  0.8651
  444MPD2    H2 6620   3.876   1.218  17.308  1.7630  1.6400 -0.5843
  444MPD2    H3 6621   4.064   1.224  17.162 -2.2431  2.5774  2.1754
  444MPD2     N 6622   3.906   0.852  16.942  0.4192  0.3848 -0.2811
  444MPD2    H5 6623   3.833   0.782  16.938 -0.3902  1.0801  2.2763
  444MPD2    N1 6624   3.679   1.034  17.315 -0.8346 -0.1707  0.3621
  444MPD2    H7 6625   3.616   0.956  17.298  1.1532 -1.5134 -0.9144
  445TMC3    C1 6626   3.992   0.714  16.769  0.0464  0.2427  0.0950
  445TMC3    C2 6627   3.878   0.635  16.779  0.2732  0.1148  1.0756
  445TMC3    C3 6628   3.840   0.549  16.681 -0.5892 -0.1928 -0.1616
  445TMC3    C4 6629   4.075   0.695  16.661 -0.0672  0.9323  0.1296
  445TMC3    C5 6630   4.027   0.621  16.560 -0.0920 -0.3012 -0.7836
  445TMC3    C6 6631   3.914   0.549  16.565  0.1115 -0.1980 -0.2041
  445TMC3     C 6632   4.011   0.829  16.857  0.3300 -0.0326 -0.2914
  445TMC3     O 6633   4.118   0.894  16.850 -0.2194 -0.1644  0.3247
  445TMC3     H 6634   3.804   0.654  16.856 -1.8705  2.1252 -1.4823
  445TMC3    H1 6635   4.156   0.767  16.655  2.1296 -1.6692 -1.4825
  445TMC3    H2 6636   3.883   0.481  16.487  1.4826  1.7089 -2.3981
  445TMC3    C7 6637   4.102   0.594  16.441 -0.3600 -0.3940 -0.3010
  445TMC3    C8 6638   3.724   0.466  16.705  1.0165 -0.4196 -1.0845
  445TMC3    O1 6639   4.047   0.548  16.344  0.6546  0.1967 -0.5802
  445TMC3    O2 6640   3.668   0.429  16.605  0.8861 -0.0263  0.0297
  446MPD2     C 6641   3.419   2.383  11.307 -0.3791 -0.5276 -0.2788
  446MPD2    C1 6642   3.420   2.362  11.173  0.2080  0.3412  0.9525
  446MPD2    C2 6643   3.523   2.413  11.091  0.4520 -0.7988 -0.2349
  446MPD2    C3 6644   3.621   2.502  11.143 -0.0294 -0.6618 -0.4213
  446MPD2    C4 6645   3.619   2.513  11.281 -0.2483  0.2442  0.3107
  446MPD2    C5 6646   3.525   2.460  11.361  0.3003 -0.0786  0.3933
  446MPD2     H 6647   3.527   2.377  10.989  2.6584 -2.5670  0.4618
  446MPD2    H1 6648   3.696   2.571  11.331  1.1462  0.6995 -2.3643
  446MPD2    H2 6649   3.340   2.342  11.369 -1.0830 -1.0674 -1.5289
  446MPD2    H3 6650   3.518   2.468  11.469  1.5970 -0.8007  0.5246
  446MPD2     N 6651   3.719   2.558  11.055 -0.1545 -0.1896  0.0936
  446MPD2    H5 6652   3.730   2.530  10.958  1.2478  0.9876 -0.0929
  446MPD2    N1 6653   3.320   2.276  11.102  0.5761 -0.0233  0.1969
  446MPD2    H7 6654   3.333   2.275  11.001  1.8893 -1.2416  0.3812
  447TMC3    C1 6655   3.918   2.655  10.991 -0.7501  0.5925 -0.0900
  447TMC3    C2 6656   3.879   2.668  10.861 -0.1779  0.4774 -0.8640
  447TMC3    C3 6657   3.968   2.642  10.759  0.2208 -0.4482  0.6892
  447TMC3    C4 6658   4.042   2.605  11.026 -0.3498  0.1315 -0.5601
  447TMC3    C5 6659   4.122   2.567  10.918 -0.0470 -0.5500  0.0415
  447TMC3    C6 6660   4.096   2.593  10.788 -0.0296 -0.1470 -0.3236
  447TMC3     C 6661   3.816   2.645  11.095 -0.2471 -0.7368  0.2723
  447TMC3     O 6662   3.847   2.695  11.203 -0.2082  0.3936  0.0598
  447TMC3     H 6663   3.785   2.719  10.843 -0.9832 -0.0191  1.9688
  447TMC3    H1 6664   4.065   2.568  11.125  0.8527  0.8590 -0.5611
  447TMC3    H2 6665   4.175   2.572  10.716  0.2302 -2.8834  0.7381
  447TMC3    C7 6666   4.260   2.527  10.944 -0.1097  0.3080  0.3670
  447TMC3    C8 6667   3.937   2.697  10.629  0.6532  0.1021  0.5304
  447TMC3    O1 6668   4.319   2.451  10.865 -0.3761  0.0978 -0.9282
  447TMC3    O2 6669   3.837   2.765  10.612 -0.4306  0.3180 -0.3375
  448TMC3    C1 6670   2.426   2.019  16.857  0.3288  0.7628  0.0958
  448TMC3    C2 6671   2.321   1.933  16.828  0.6955  0.2447  0.1147
  448TMC3    C3 6672   2.338   1.801  16.821 -0.2997 -0.4644 -0.2203
  448TMC3    C4 6673   2.545   1.973  16.880  0.7155  0.6658 -0.0299
  448TMC3    C5 6674   2.565   1.841  16.887  0.0717 -0.0261 -0.2184
  448TMC3    C6 6675   2.462   1.752  16.853 -0.5133 -0.5342  0.2065
  448TMC3     C 6676   2.395   2.163  16.875 -0.1731  0.3909 -0.5775
  448TMC3     O 6677   2.275   2.188  16.900 -0.4838 -0.0159  0.2432
  448TMC3     H 6678   2.223   1.980  16.821  0.7382  1.0299  4.3019
  448TMC3    H1 6679   2.617   2.032  16.934 -0.9895  2.2382  0.5271
  448TMC3    H2 6680   2.465   1.644  16.845  1.1156 -0.5639  1.3853
  448TMC3    C7 6681   2.687   1.787  16.940  0.0286 -0.8909 -0.3040
  448TMC3    C8 6682   2.227   1.706  16.817  0.5807 -0.3555 -0.3681
  448TMC3    O1 6683   2.785   1.862  16.930  0.1105 -0.3099 -0.4969
  448TMC3    O2 6684   2.241   1.599  16.876 -0.3974 -0.1704 -0.2054
  449MPD2     C 6685   3.494   0.878  13.968 -0.9696  0.8804 -0.2379
  449MPD2    C1 6686   3.414   0.978  13.920  0.1252 -0.3148  0.2395
  449MPD2    C2 6687   3.276   0.969  13.933 -0.4676 -0.5173 -0.3991
  449MPD2    C3 6688   3.216   0.861  13.991  0.2285 -0.3353  0.0385
  449MPD2    C4 6689   3.294   0.757  14.034  0.1626 -0.2624 -0.4700
  449MPD2    C5 6690   3.431   0.763  14.019  0.1317 -0.1273 -0.4867
  449MPD2     H 6691   3.216   1.042  13.880  0.2580  1.1315  1.0416
  449MPD2    H1 6692   3.241   0.672  14.074 -1.9314  0.3389 -1.9476
  449MPD2    H2 6693   3.601   0.872  13.953 -0.5320  1.3554  2.6517
  449MPD2    H3 6694   3.494   0.675  14.033 -0.7397 -0.6628  0.0598
  449MPD2     N 6695   3.075   0.858  13.989  0.5375 -0.0865  0.2013
  449MPD2    H5 6696   3.025   0.934  13.942 -2.9689 -1.4816  1.7290
  449MPD2    N1 6697   3.464   1.100  13.867 -0.3157  0.0746  0.1231
  449MPD2    H7 6698   3.398   1.177  13.863 -1.1009 -0.6396 -0.5229
  450TMC3    C1 6699   3.594   1.271  13.794  0.1092 -0.9168  0.2770
  450TMC3    C2 6700   3.591   1.276  13.655 -0.2378  0.2101 -0.3022
  450TMC3    C3 6701   3.510   1.368  13.590  0.1877  0.9050  0.3408
  450TMC3    C4 6702   3.498   1.333  13.860 -0.1262 -0.4394 -0.2638
  450TMC3    C5 6703   3.417   1.422  13.796 -0.3822  0.4554  0.6456
  450TMC3    C6 6704   3.421   1.445  13.664 -0.2113 -0.3577  0.5324
  450TMC3     C 6705   3.593   1.132  13.831 -0.1178 -0.2255  0.1245
  450TMC3     O 6706   3.675   1.061  13.779 -0.2553 -0.3923  0.0218
  450TMC3     H 6707   3.647   1.209  13.591  0.3917  0.5299 -0.0887
  450TMC3    H1 6708   3.496   1.335  13.969 -1.6882  2.1958 -0.3330
  450TMC3    H2 6709   3.342   1.488  13.603  0.2759  0.0180  0.1624
  450TMC3    C7 6710   3.290   1.412  13.846 -0.4309  0.4638 -0.9946
  450TMC3    C8 6711   3.528   1.396  13.452 -0.1645  0.8885 -0.7206
  450TMC3    O1 6712   3.271   1.307  13.905  0.1931 -0.1817 -0.6029
  450TMC3    O2 6713   3.517   1.515  13.426  0.1867  0.3246 -0.0448
  451MPD2     C 6714   4.398   3.982   1.596  0.1435 -0.2408 -0.2229
  451MPD2    C1 6715   4.484   4.048   1.511 -0.4353  0.0843 -0.2507
  451MPD2    C2 6716   4.589   3.983   1.450 -0.3064  0.7165 -0.2219
  451MPD2    C3 6717   4.609   3.850   1.481  0.5146 -0.4563  0.4318
  451MPD2    C4 6718   4.525   3.788   1.571 -0.3489 -0.4064 -0.3949
  451MPD2    C5 6719   4.420   3.851   1.632 -0.2764 -0.3732 -0.3044
  451MPD2     H 6720   4.648   4.034   1.375  0.2350 -1.0543 -1.0180
  451MPD2    H1 6721   4.542   3.686   1.603  1.9590  0.5509  1.4240
  451MPD2    H2 6722   4.316   4.029   1.648  0.4220 -0.2349  0.2089
  451MPD2    H3 6723   4.350   3.788   1.685 -0.8101 -0.3955 -1.0311
  451MPD2     N 6724   4.717   3.769   1.431  0.8828  0.0849  0.3155
  451MPD2    H5 6725   4.691   3.671   1.435 -0.1121  0.2698 -1.4681
  451MPD2    N1 6726   4.449   4.183   1.497  0.0595 -0.3974  0.4210
  451MPD2    H7 6727   4.377   4.220   1.559  0.0665 -0.6498  0.5767
  452TMC3    C1 6728   0.184   3.695   1.306 -0.5204 -0.2034  0.5175
  452TMC3    C2 6729   0.169   3.575   1.371 -0.5895  0.0986 -0.3540
  452TMC3    C3 6730   0.205   3.461   1.303 -0.2973  0.3880 -0.3230
  452TMC3    C4 6731   0.233   3.702   1.176  0.9482  0.3929 -0.7140
  452TMC3    C5 6732   0.254   3.581   1.113 -0.1075  0.1582 -0.1786
  452TMC3    C6 6733   0.246   3.460   1.173 -0.6023  0.2943  0.4936
  452TMC3     C 6734   0.101   3.809   1.342  0.2307  0.0829  0.2542
  452TMC3     O 6735   0.122   3.919   1.294  0.3761 -0.2268 -0.0744
  452TMC3     H 6736   0.145   3.572   1.477 -1.6991  0.3433 -0.6034
  452TMC3    H1 6737   0.239   3.798   1.127  0.5139  0.1139 -1.3254
  452TMC3    H2 6738   0.272   3.371   1.116 -1.1113 -0.1579  0.9684
  452TMC3    C7 6739   0.279   3.565   0.969  0.8094 -0.5096  1.0836
  452TMC3    C8 6740   0.270   3.353   1.372 -0.0626  0.3268  0.4767
  452TMC3    O1 6741   0.347   3.648   0.913  0.1535 -0.8576  0.6738
  452TMC3    O2 6742   0.214   3.299   1.463 -0.2486 -0.1722 -0.1857
  453TMC3    C1 6743   1.337   1.481  11.408  1.1302 -0.1947  0.1691
  453TMC3    C2 6744   1.239   1.413  11.470 -0.1336 -0.5008 -0.7016
  453TMC3    C3 6745   1.122   1.379  11.398  0.0759  0.2845  0.7831
  453TMC3    C4 6746   1.326   1.516  11.276  0.8845  0.2091  0.1909
  453TMC3    C5 6747   1.209   1.490  11.213 -0.7161  0.0319 -0.6593
  453TMC3    C6 6748   1.114   1.421  11.269  0.2675 -0.1451  0.6200
  453TMC3     C 6749   1.462   1.491  11.487  0.0457  0.0158  0.2214
  453TMC3     O 6750   1.541   1.576  11.449  0.1226 -0.0137  0.0200
  453TMC3     H 6751   1.245   1.395  11.577  2.9977  1.9004 -0.4602
  453TMC3    H1 6752   1.404   1.580  11.237 -1.5077  1.9105 -1.7662
  453TMC3    H2 6753   1.029   1.392  11.208 -0.8421  1.2656  1.5011
  453TMC3    C7 6754   1.206   1.484  11.071 -0.0616 -0.1864  0.1368
  453TMC3    C8 6755   1.022   1.299  11.449  0.1629  0.3576  0.0459
  453TMC3    O1 6756   1.096   1.473  11.016  0.8525  0.1645  0.3934
  453TMC3    O2 6757   0.912   1.311  11.397  0.3277  0.3513 -0.1991
  454MPD2     C 6758   4.622   0.932  15.894 -0.0324  0.2366 -0.0557
  454MPD2    C1 6759   4.521   0.837  15.903 -0.1458 -0.7934 -0.2722
  454MPD2    C2 6760   4.441   0.843  16.012 -0.7756 -0.2060  0.5176
  454MPD2    C3 6761   4.455   0.933  16.116  0.3645  0.6465  0.4416
  454MPD2    C4 6762   4.546   1.034  16.103  0.4733  0.0917  0.0619
  454MPD2    C5 6763   4.637   1.026  15.998 -0.7589  0.2656  0.4662
  454MPD2     H 6764   4.367   0.764  16.020  1.9895 -2.8970 -0.4190
  454MPD2    H1 6765   4.556   1.117  16.172  0.3885 -0.7216  1.0435
  454MPD2    H2 6766   4.695   0.926  15.814 -0.2619  0.7224 -0.3021
  454MPD2    H3 6767   4.720   1.093  15.985 -1.4053  1.6032  3.1285
  454MPD2     N 6768   4.349   0.923  16.207 -0.4827  0.2724 -0.6521
  454MPD2    H5 6769   4.271   0.865  16.177 -0.4977 -0.4828  0.8193
  454MPD2    N1 6770   4.493   0.741  15.804 -0.2073 -0.3543 -0.0193
  454MPD2    H7 6771   4.425   0.670  15.828 -2.0846  1.6960  0.7746
  455TMC3    C1 6772   4.177   1.003  16.352  0.5314 -0.3546  0.1303
  455TMC3    C2 6773   4.126   1.109  16.420  0.4729 -0.1142 -0.0917
  455TMC3    C3 6774   3.990   1.122  16.433  0.0842 -0.7427  0.1289
  455TMC3    C4 6775   4.096   0.916  16.287  0.3900  0.6567 -0.0380
  455TMC3    C5 6776   3.963   0.923  16.304  0.0476  0.4791  0.1659
  455TMC3    C6 6777   3.908   1.029  16.372 -0.2951  0.3600  0.3916
  455TMC3     C 6778   4.320   1.010  16.313  0.3590 -0.1464  0.1098
  455TMC3     O 6779   4.391   1.092  16.366  0.1440 -0.0192  0.0807
  455TMC3     H 6780   4.194   1.166  16.482 -0.3007 -0.6181  1.2268
  455TMC3    H1 6781   4.125   0.827  16.231 -0.0024 -0.1931  1.1071
  455TMC3    H2 6782   3.801   1.041  16.381 -0.5343 -1.4223 -0.0832
  455TMC3    C7 6783   3.891   0.853  16.200 -1.5670  0.2020  0.3771
  455TMC3    C8 6784   3.950   1.186  16.557 -0.1930 -0.2788 -0.2394
  455TMC3    O1 6785   3.922   0.871  16.086 -0.7359 -0.1656  0.3136
  455TMC3    O2 6786   4.037   1.253  16.609  0.6700  0.4672  0.7436
  456MPD2     C 6787   1.918   0.632  16.024 -0.5961 -0.8479 -0.1861
  456MPD2    C1 6788   2.042   0.637  16.079  0.0944  0.5239 -0.0052
  456MPD2    C2 6789   2.056   0.683  16.210 -0.4332  0.2045  0.2190
  456MPD2    C3 6790   1.943   0.736  16.274  0.0105  0.4721 -0.1984
  456MPD2    C4 6791   1.819   0.717  16.221  0.1080 -0.6544 -0.6066
  456MPD2    C5 6792   1.812   0.664  16.096 -0.4347 -0.0178 -0.0474
  456MPD2     H 6793   2.152   0.703  16.257  0.7955  0.3597 -2.3259
  456MPD2    H1 6794   1.729   0.737  16.278  0.1346 -1.1965 -0.3699
  456MPD2    H2 6795   1.905   0.603  15.920  0.9000  3.8916 -1.7114
  456MPD2    H3 6796   1.713   0.652  16.053 -1.0227 -0.2185  1.3761
  456MPD2     N 6797   1.959   0.783  16.403 -0.5422  0.9515 -0.1603
  456MPD2    H5 6798   2.051   0.773  16.445 -0.6573 -1.3848 -0.4855
  456MPD2    N1 6799   2.154   0.609  15.991  0.2683 -0.6561  0.1737
  456MPD2    H7 6800   2.138   0.575  15.897 -3.5583 -3.1504  1.7032
  457TMC3    C1 6801   1.909   0.919  16.585 -0.2539 -0.2142  0.3418
  457TMC3    C2 6802   1.878   1.050  16.614 -0.1244 -1.0798 -0.6915
  457TMC3    C3 6803   1.922   1.096  16.737 -0.4914 -0.3262 -0.3516
  457TMC3    C4 6804   1.981   0.837  16.659 -0.2643  0.1698  0.2049
  457TMC3    C5 6805   2.019   0.886  16.783 -0.1334 -0.2992 -0.6571
  457TMC3    C6 6806   1.987   1.008  16.828 -0.6481 -0.1203  0.5856
  457TMC3     C 6807   1.866   0.864  16.459 -0.3200 -0.3755 -0.0660
  457TMC3     O 6808   1.782   0.934  16.411 -0.1443  0.8779 -0.2565
  457TMC3     H 6809   1.842   1.119  16.539 -1.3876 -0.9671  0.0223
  457TMC3    H1 6810   1.983   0.731  16.640  1.4267 -0.0311  1.4870
  457TMC3    H2 6811   2.032   1.036  16.922 -0.4384  1.8864 -0.1099
  457TMC3    C7 6812   2.027   0.789  16.893 -0.4802 -0.9284 -0.6724
  457TMC3    C8 6813   1.956   1.243  16.761  0.1815  0.9586 -0.1679
  457TMC3    O1 6814   2.138   0.755  16.933 -0.5167  0.6505  0.2115
  457TMC3    O2 6815   2.044   1.265  16.844  0.9608 -0.2015 -0.3845
  458MPD2     C 6816   0.113   0.801  12.004  0.7667  0.0812  0.3425
  458MPD2    C1 6817   0.097   0.699  12.095 -0.1452  0.6270 -0.3068
  458MPD2    C2 6818   4.689   0.657  12.124  0.3165  0.0622  0.6443
  458MPD2    C3 6819   4.583   0.723  12.049  0.0535  0.2282  0.9400
  458MPD2    C4 6820   4.605   0.827  11.970 -0.2916  0.4238 -0.9205
  458MPD2    C5 6821   0.010   0.868  11.946 -0.1468 -0.0767  0.3832
  458MPD2     H 6822   4.667   0.586  12.203  0.0465  0.2500  0.7397
  458MPD2    H1 6823   4.530   0.884  11.916 -3.2878 -0.6223  2.0898
  458MPD2    H2 6824   0.214   0.841  11.999  0.4721  0.7230 -0.4116
  458MPD2    H3 6825   0.029   0.954  11.883 -0.8004  1.4227  2.2468
  458MPD2     N 6826   4.448   0.683  12.079 -0.8351 -0.1511 -0.5125
  458MPD2    H5 6827   4.431   0.616  12.153  1.0085 -1.2908 -1.1145
  458MPD2    N1 6828   0.209   0.654  12.172  0.2096  0.6640 -0.3866
  458MPD2    H7 6829   0.292   0.712  12.167  0.5546  0.1457 -0.5677
  459TMC3    C1 6830   0.349   0.543  12.319  0.3524 -0.1997 -0.3458
  459TMC3    C2 6831   0.453   0.624  12.277 -0.0631  0.2237 -0.1234
  459TMC3    C3 6832   0.551   0.659  12.372  0.6446  0.1879 -0.0112
  459TMC3    C4 6833   0.338   0.479  12.439  1.1936  0.7595  0.4825
  459TMC3    C5 6834   0.428   0.534  12.535 -0.1512 -0.4207  0.6253
  459TMC3    C6 6835   0.534   0.617  12.501  0.0079  0.1284  0.1189
  459TMC3     C 6836   0.218   0.546  12.255 -0.1746  0.3961  0.1853
  459TMC3     O 6837   0.135   0.461  12.284 -0.4672 -0.9893 -0.0765
  459TMC3     H 6838   0.468   0.655  12.174  1.8740  1.9453  0.6598
  459TMC3    H1 6839   0.258   0.419  12.479  0.3255  0.4102 -1.7583
  459TMC3    H2 6840   0.603   0.662  12.572  0.9687 -1.0324 -0.0890
  459TMC3    C7 6841   0.414   0.485  12.668  0.3092 -1.4869  0.2454
  459TMC3    C8 6842   0.685   0.710  12.335  0.0566 -0.7801 -0.0788
  459TMC3    O1 6843   0.344   0.385  12.685 -0.2293 -0.0316 -0.1789
  459TMC3    O2 6844   0.781   0.701  12.415 -0.6257  0.6278 -0.0193
  460MPD2     C 6845   4.180   2.638  10.365  0.0543  0.0108 -0.7335
  460MPD2    C1 6846   4.060   2.682  10.415  0.1847  0.3101  0.2080
  460MPD2    C2 6847   3.968   2.737  10.331  0.1600 -0.4287 -0.2952
  460MPD2    C3 6848   3.989   2.740  10.193 -0.3577 -0.1471  0.0088
  460MPD2    C4 6849   4.113   2.706  10.148 -0.5187 -0.4429 -0.4505
  460MPD2    C5 6850   4.201   2.636  10.229 -0.1877  0.2177  0.2451
  460MPD2     H 6851   3.869   2.763  10.366  0.8850  1.3531  0.4457
  460MPD2    H1 6852   4.142   2.711  10.043 -0.0513  2.2692 -0.1894
  460MPD2    H2 6853   4.248   2.594  10.438  0.5620 -1.1978 -1.9190
  460MPD2    H3 6854   4.292   2.602  10.181 -1.3402 -0.0607 -1.7675
  460MPD2     N 6855   3.886   2.780  10.110  0.1018 -0.1711 -0.0228
  460MPD2    H5 6856   3.804   2.819  10.155 -1.8651 -2.6411 -1.4596
  460MPD2    N1 6857   4.042   2.664  10.553  0.1182 -0.6499  0.4344
  460MPD2    H7 6858   4.115   2.609  10.597  1.9651  0.2162 -1.5294
  461TMC3    C1 6859   3.762   2.816   9.908 -0.7328 -0.5567 -0.7748
  461TMC3    C2 6860   3.739   2.758   9.791 -0.1065  0.1810 -0.2392
  461TMC3    C3 6861   3.659   2.811   9.702  0.3591 -0.1095  0.2203
  461TMC3    C4 6862   3.709   2.937   9.934 -0.2378 -0.2312  0.1956
  461TMC3    C5 6863   3.630   2.994   9.839  0.6372 -0.2891 -0.0302
  461TMC3    C6 6864   3.607   2.934   9.723  0.4166  0.2698 -0.5672
  461TMC3     C 6865   3.888   2.773   9.971  0.2195  1.0941 -0.4299
  461TMC3     O 6866   3.965   2.718   9.896  0.3425  0.3672 -0.1717
  461TMC3     H 6867   3.760   2.651   9.788  2.1389  0.6377 -0.5463
  461TMC3    H1 6868   3.717   2.974  10.035  0.4491  1.4374 -0.4677
  461TMC3    H2 6869   3.538   2.979   9.652  0.4076  1.1973  0.0298
  461TMC3    C7 6870   3.571   3.126   9.854 -0.1848 -0.2704 -0.4241
  461TMC3    C8 6871   3.614   2.730   9.589 -0.1250 -0.1758  0.8621
  461TMC3    O1 6872   3.500   3.165   9.763 -0.2939  0.8614  0.0414
  461TMC3    O2 6873   3.681   2.631   9.560  0.7482  0.0800 -0.0450
  462TMC3    C1 6874   3.956   2.876   0.135  0.2016 -0.3298 -0.0825
  462TMC3    C2 6875   4.038   2.877   0.030  0.7479  1.3280  0.2931
  462TMC3    C3 6876   4.159   2.826   0.059  0.2039 -1.1101  0.5565
  462TMC3    C4 6877   3.981   2.830   0.265  0.2392  0.0057 -0.3160
  462TMC3    C5 6878   4.113   2.796   0.286 -0.4120 -0.0505 -0.4760
  462TMC3    C6 6879   4.205   2.794   0.186  0.4818  0.1275 -0.8316
  462TMC3     C 6880   3.818   2.875   0.113 -0.2676  0.7757  0.8300
  462TMC3     O 6881   3.750   2.807   0.190 -0.0963 -0.0774 -0.2825
  462TMC3     H 6882   3.999   2.871  17.621  4.5397 -1.6986 -1.0194
  462TMC3    H1 6883   3.909   2.844   0.346  0.6242 -0.0643  0.0383
  462TMC3    H2 6884   4.297   2.740   0.205 -0.3189 -1.3276 -1.1021
  462TMC3    C7 6885   4.167   2.787   0.422 -0.3523  0.2763  0.3481
  462TMC3    C8 6886   4.235   2.776  17.636 -0.0624  0.7203  0.3371
  462TMC3    O1 6887   4.288   2.798   0.435  0.0098  0.9305  0.2087
  462TMC3    O2 6888   4.204   2.816  17.521 -0.0836 -0.3920  0.0988
  463MPD2     C 6889   0.666   1.827   1.853  0.6608  0.4315 -0.5085
  463MPD2    C1 6890   0.543   1.878   1.812  0.3651 -0.8219 -0.1227
  463MPD2    C2 6891   0.543   2.004   1.765  0.4022 -0.1178  0.0710
  463MPD2    C3 6892   0.656   2.077   1.743 -0.7227 -0.0891 -0.3819
  463MPD2    C4 6893   0.783   2.034   1.784  1.3060  0.2545  0.8004
  463MPD2    C5 6894   0.775   1.899   1.834  0.0927  0.1070  0.4048
  463MPD2     H 6895   0.445   2.049   1.750  0.4849  0.1878  0.4548
  463MPD2    H1 6896   0.872   2.094   1.791  1.4946 -0.2396  2.7029
  463MPD2    H2 6897   0.680   1.727   1.892 -0.4124  0.1039 -0.9472
  463MPD2    H3 6898   0.869   1.854   1.864  0.7877  1.5743  0.4007
  463MPD2     N 6899   0.656   2.205   1.687 -0.0174  0.4280 -0.5471
  463MPD2    H5 6900   0.744   2.256   1.690  2.9696 -4.6466 -1.7273
  463MPD2    N1 6901   0.417   1.815   1.834 -0.0329  0.0758 -0.1213
  463MPD2    H7 6902   0.335   1.868   1.806 -0.3698 -0.2299  0.2832
  464TMC3    C1 6903   0.258   1.676   1.938  0.7093  0.3275  0.2329
  464TMC3    C2 6904   0.177   1.783   1.943  0.7736  0.1826  0.2380
  464TMC3    C3 6905   0.054   1.764   1.981  0.6745 -0.4214  0.1628
  464TMC3    C4 6906   0.225   1.560   1.996  0.4443  0.0706  0.1100
  464TMC3    C5 6907   0.090   1.537   2.023 -0.6353  0.5317 -0.5475
  464TMC3    C6 6908   0.003   1.641   2.018 -0.0542  0.5226 -0.4424
  464TMC3     C 6909   0.396   1.691   1.904 -0.5432  0.4201  0.3953
  464TMC3     O 6910   0.476   1.605   1.935 -0.5018  0.1465 -0.1664
  464TMC3     H 6911   0.202   1.883   1.909  2.8728 -0.8283 -1.2152
  464TMC3    H1 6912   0.290   1.474   1.998  1.1976  0.5838 -1.8222
  464TMC3    H2 6913   4.625   1.633   2.057  0.3821 -0.4457  0.4690
  464TMC3    C7 6914   0.040   1.409   1.994 -0.4210 -0.5362  0.2008
  464TMC3    C8 6915   4.676   1.841   1.916  0.1252  0.0912  0.0532
  464TMC3    O1 6916   0.101   1.309   2.033 -0.0591 -0.5933 -0.0507
  464TMC3    O2 6917   4.700   1.891   1.809  0.0541 -0.7843 -0.4695
  465MPD2     C 6918   1.431   0.531  17.040  0.4766  0.7653  0.7151
  465MPD2    C1 6919   1.299   0.506  17.069 -0.1469 -0.0816 -0.3817
  465MPD2    C2 6920   1.205   0.564  16.988 -0.2264 -0.3429 -0.7021
  465MPD2    C3 6921   1.236   0.633  16.873  0.3768  0.3121 -0.1491
  465MPD2    C4 6922   1.370   0.652  16.840 -0.5840  0.3626 -0.0452
  465MPD2    C5 6923   1.466   0.601  16.922  0.9108 -0.5180  0.2931
  465MPD2     H 6924   1.104   0.558  17.026  0.1892 -1.4832  0.2651
  465MPD2    H1 6925   1.406   0.697  16.748 -1.3616  0.8686 -0.1019
  465MPD2    H2 6926   1.511   0.478  17.091  0.1821 -0.0585  0.3288
  465MPD2    H3 6927   1.565   0.606  16.880  1.0116 -0.0064  0.5920
  465MPD2     N 6928   1.131   0.696  16.813 -0.4685 -0.0102  0.1118
  465MPD2    H5 6929   1.054   0.714  16.877  1.6228  0.7773  2.3916
  465MPD2    N1 6930   1.261   0.486  17.203  0.1000 -0.0766  0.2809
  465MPD2    H7 6931   1.166   0.511  17.228  0.6429  0.4567  1.7919
  466TMC3    C1 6932   0.817   0.921  16.694  0.3251  0.7143 -0.1600
  466TMC3    C2 6933   0.848   1.034  16.618  0.5927  0.4002  0.1040
  466TMC3    C3 6934   0.968   1.035  16.560 -0.2051 -0.2830 -1.0773
  466TMC3    C4 6935   0.912   0.820  16.718  0.0880 -0.0341 -0.5147
  466TMC3    C5 6936   1.035   0.840  16.657  0.0166  0.3860  0.2401
  466TMC3    C6 6937   1.062   0.939  16.568 -0.0647  0.3343  0.0004
  466TMC3     C 6938   0.690   0.926  16.764  0.3884  0.0174 -0.7716
  466TMC3     O 6939   0.670   0.853  16.859  0.6542 -0.0670 -0.4306
  466TMC3     H 6940   0.780   1.115  16.594  0.4662  0.2467 -0.0573
  466TMC3    H1 6941   0.895   0.744  16.793  0.7480  1.4930  1.1755
  466TMC3    H2 6942   1.153   0.958  16.512  0.1325  2.0143  0.8794
  466TMC3    C7 6943   1.141   0.754  16.685  0.2301  0.2865  0.4896
  466TMC3    C8 6944   0.993   1.148  16.475 -0.0478 -0.3848 -0.4681
  466TMC3    O1 6945   1.232   0.749  16.605 -0.4851  0.5224 -0.4185
  466TMC3    O2 6946   1.072   1.136  16.385  0.2242 -0.3625 -0.4537
  467TMC3    C1 6947   1.830   4.427  13.597 -0.4916 -0.4053 -0.2216
  467TMC3    C2 6948   1.888   4.407  13.481  0.2155 -0.6165  0.8523
  467TMC3    C3 6949   1.855   4.480  13.373  0.0418  0.3645  0.9033
  467TMC3    C4 6950   1.723   4.512  13.604  0.4335 -0.3504  0.8825
  467TMC3    C5 6951   1.676   4.567  13.487  0.1211  0.3019 -0.2288
  467TMC3    C6 6952   1.739   4.554  13.364  0.3019  0.2841 -0.2296
  467TMC3     C 6953   1.935   4.471  13.680  0.1794 -0.3386 -0.6863
  467TMC3     O 6954   1.926   4.584  13.726 -0.0371  0.4684  0.1630
  467TMC3     H 6955   1.954   4.323  13.465 -0.3907 -1.3300  2.0636
  467TMC3    H1 6956   1.687   4.534  13.704  1.7710 -0.0750  1.3057
  467TMC3    H2 6957   1.714   4.611  13.276 -0.1966 -2.3371 -1.7913
  467TMC3    C7 6958   1.551   4.639  13.479  0.1021 -0.0552 -0.4070
  467TMC3    C8 6959   1.970   4.546  13.316 -0.7251  0.5317 -0.1348
  467TMC3    O1 6960   1.532   4.706  13.380 -0.7208 -0.1021  0.8127
  467TMC3    O2 6961   1.948   4.621  13.225 -0.2617 -0.3925  0.1018
  468MPD2     C 6962   0.866   2.378   9.887 -0.6195  0.1508 -0.4508
  468MPD2    C1 6963   0.889   2.380  10.026 -0.3223  0.0402  0.6568
  468MPD2    C2 6964   0.917   2.261  10.095  0.8101 -0.3102  0.2103
  468MPD2    C3 6965   0.939   2.148  10.020 -0.8161  0.2408 -0.3285
  468MPD2    C4 6966   0.914   2.144   9.882  0.4051  0.6897  0.3290
  468MPD2    C5 6967   0.880   2.257   9.822 -0.3991 -0.4246 -0.2147
  468MPD2     H 6968   0.928   2.258  10.203  1.7013 -0.9709  0.1042
  468MPD2    H1 6969   0.939   2.051   9.833  1.9547  0.1129  2.1803
  468MPD2    H2 6970   0.833   2.464   9.830 -0.3479 -1.7177 -3.4561
  468MPD2    H3 6971   0.852   2.249   9.717  2.6753  0.6895 -1.1389
  468MPD2     N 6972   0.977   2.016  10.076 -0.1700 -0.4983  0.2485
  468MPD2    H5 6973   1.002   1.935  10.020  0.8537 -0.3388  0.4803
  468MPD2    N1 6974   0.868   2.493  10.104  0.2558  0.0614 -0.7759
  468MPD2    H7 6975   0.903   2.492  10.200 -0.2834  0.6689 -0.5699
  469TMC3    C1 6976   0.872   2.704  10.166  0.3230  0.6863  0.2188
  469TMC3    C2 6977   0.959   2.674  10.274  0.6674 -0.2964  0.0411
  469TMC3    C3 6978   0.969   2.770  10.369  0.0884 -0.1334  0.1599
  469TMC3    C4 6979   0.811   2.827  10.150  0.4202  0.0357  0.2685
  469TMC3    C5 6980   0.825   2.918  10.247 -0.2453  0.2951 -0.3427
  469TMC3    C6 6981   0.905   2.889  10.354 -0.5558 -0.7622 -0.8951
  469TMC3     C 6982   0.849   2.614  10.057  0.0825 -0.9296 -0.9441
  469TMC3     O 6983   0.784   2.656   9.960  0.3016 -0.5218  0.7320
  469TMC3     H 6984   0.996   2.574  10.293 -1.8917 -1.2252  0.0049
  469TMC3    H1 6985   0.728   2.841  10.082  0.8619 -0.6630 -0.4259
  469TMC3    H2 6986   0.926   2.968  10.426 -0.4551 -1.7692  0.1851
  469TMC3    C7 6987   0.767   3.047  10.233  0.1468  0.2140  0.3173
  469TMC3    C8 6988   1.055   2.732  10.486  0.2288  0.2103 -0.5800
  469TMC3    O1 6989   0.705   3.067  10.127  0.0561  0.1373  0.3337
  469TMC3    O2 6990   1.138   2.644  10.464 -0.3003  0.0170  0.4384
  470TMC3    C1 6991   3.321   3.067   1.364  0.4109 -0.2046  0.1297
  470TMC3    C2 6992   3.424   3.161   1.347 -0.0219  0.4541  0.3692
  470TMC3    C3 6993   3.452   3.241   1.454  0.7074 -0.6515 -0.5672
  470TMC3    C4 6994   3.239   3.063   1.476 -0.3403 -0.4376 -0.6859
  470TMC3    C5 6995   3.274   3.144   1.578  0.0960 -0.3497  0.3013
  470TMC3    C6 6996   3.387   3.220   1.571  0.6500 -0.3383  0.5701
  470TMC3     C 6997   3.257   3.015   1.245  0.5600 -0.2053 -0.2487
  470TMC3     O 6998   3.137   2.989   1.241 -0.6622  0.1573  0.5327
  470TMC3     H 6999   3.469   3.183   1.251 -0.2205 -0.3845  0.0875
  470TMC3    H1 7000   3.157   2.992   1.484 -0.6837 -0.0671 -0.9132
  470TMC3    H2 7001   3.413   3.287   1.652  0.6330 -1.1045  1.2118
  470TMC3    C7 7002   3.190   3.169   1.692  0.1121 -0.3356 -0.3530
  470TMC3    C8 7003   3.563   3.331   1.453  0.0479  0.1524 -0.4387
  470TMC3    O1 7004   3.238   3.232   1.786 -0.0293 -0.0185  0.0077
  470TMC3    O2 7005   3.669   3.299   1.402 -0.1903  0.5752 -0.0133
  471MPD2     C 7006   4.555   0.099  17.114  0.2310  0.8681 -0.0639
  471MPD2    C1 7007   4.451   0.031  17.168  0.0321 -0.1882 -0.2168
  471MPD2    C2 7008   4.422   0.062  17.302 -0.5385  0.5785  0.6005
  471MPD2    C3 7009   4.498   0.144  17.383 -0.5849 -0.4297  0.2148
  471MPD2    C4 7010   4.600   0.211  17.324 -0.0780 -0.1868  0.2578
  471MPD2    C5 7011   4.629   0.190  17.189  0.1322 -0.0396 -0.7407
  471MPD2     H 7012   4.341   0.002  17.342 -0.3169 -0.8573 -1.1530
  471MPD2    H1 7013   4.665   0.271  17.386  0.7715  0.0217 -0.8296
  471MPD2    H2 7014   4.585   0.094  17.010 -0.3320 -0.9566 -0.1374
  471MPD2    H3 7015   4.719   0.240  17.153  0.4576 -1.5202 -1.9880
  471MPD2     N 7016   4.459   0.166  17.517  0.1303 -0.4977  0.3629
  471MPD2    H5 7017   4.524   0.222  17.571  1.9318 -2.2268 -0.0005
  471MPD2    N1 7018   4.368   4.670  17.106  0.1963  0.5936 -0.3499
  471MPD2    H7 7019   4.296   4.627  17.163 -0.5141  2.0392 -0.1595
  472TMC3    C1 7020   4.276   4.544  16.930 -0.0510  0.1729  0.7845
  472TMC3    C2 7021   4.226   4.553  16.806  0.1292 -0.4465 -0.1402
  472TMC3    C3 7022   4.101   4.504  16.787  0.4873  0.5292 -1.0509
  472TMC3    C4 7023   4.213   4.490  17.035 -0.2149  0.3253  0.2373
  472TMC3    C5 7024   4.084   4.450  17.013  0.5594  0.0717  0.2096
  472TMC3    C6 7025   4.021   4.462  16.891 -0.5533 -0.1741 -0.0317
  472TMC3     C 7026   4.373   4.643  16.971  0.6947 -0.0614 -0.3314
  472TMC3     O 7027   4.441   4.700  16.887 -0.3336 -0.1901  0.0957
  472TMC3     H 7028   4.284   4.596  16.726  0.7243 -1.7320 -0.3990
  472TMC3    H1 7029   4.262   4.459  17.126 -0.7429  0.3783  0.5354
  472TMC3    H2 7030   3.916   4.435  16.896 -1.2469  2.3443 -0.7914
  472TMC3    C7 7031   4.015   4.362  17.116 -0.1877  0.2040  0.1820
  472TMC3    C8 7032   4.038   4.515  16.660  0.0573 -0.2155 -0.2652
  472TMC3    O1 7033   4.080   4.270  17.159 -0.0275 -0.0113 -0.1211
  472TMC3    O2 7034   4.069   4.612  16.591 -0.1113  0.2697 -0.3037
  473MPD2     C 7035   3.870   2.120  13.597 -0.0270 -0.4393 -0.0100
  473MPD2    C1 7036   3.908   2.247  13.569 -0.0307 -0.2278  0.2990
  473MPD2    C2 7037   3.939   2.334  13.676 -0.1198  0.2835  0.3911
  473MPD2    C3 7038   3.921   2.306  13.809 -0.3233 -0.0755 -0.0839
  473MPD2    C4 7039   3.862   2.189  13.832 -0.2084 -0.4972  0.1133
  473MPD2    C5 7040   3.849   2.095  13.733  0.2795 -0.2281 -0.0431
  473MPD2     H 7041   3.989   2.426  13.647  2.6921 -1.2634  0.3098
  473MPD2    H1 7042   3.826   2.165  13.932 -0.8389  3.5257  0.8277
  473MPD2    H2 7043   3.850   2.049  13.517  0.4803 -1.0286  0.3882
  473MPD2    H3 7044   3.822   1.994  13.759  0.4913 -0.1488  0.4768
  473MPD2     N 7045   3.964   2.386  13.910  0.4251 -0.1865 -0.0682
  473MPD2    H5 7046   3.924   2.381  14.003 -2.1295  0.2213 -1.1527
  473MPD2    N1 7047   3.922   2.299  13.436  0.4382 -0.0068 -0.3557
  473MPD2    H7 7048   3.941   2.399  13.437  0.2849  0.0471 -2.9251
  474TMC3    C1 7049   4.055   2.571  14.013  0.1504 -0.0654  0.0088
  474TMC3    C2 7050   3.947   2.659  14.008 -0.4352 -0.1952 -0.7509
  474TMC3    C3 7051   3.968   2.788  14.049  0.3710  0.3343  0.5431
  474TMC3    C4 7052   4.173   2.604  14.063  0.4837 -0.3640  0.3728
  474TMC3    C5 7053   4.184   2.726  14.128 -0.2754 -0.7173  0.0975
  474TMC3    C6 7054   4.081   2.824  14.111 -0.1828  0.7720 -0.0061
  474TMC3     C 7055   4.062   2.487  13.896 -0.3464  0.1673 -0.9719
  474TMC3     O 7056   4.137   2.518  13.804 -0.1006 -0.1208  0.0740
  474TMC3     H 7057   3.856   2.634  13.955 -0.5548 -0.0525 -0.6163
  474TMC3    H1 7058   4.254   2.532  14.066  1.1668  0.3628 -0.2784
  474TMC3    H2 7059   4.083   2.927  14.146 -3.2864  0.7107  0.3957
  474TMC3    C7 7060   4.286   2.752  14.222  0.9968  0.5785 -0.9332
  474TMC3    C8 7061   3.880   2.886  13.981 -0.4626  0.4532 -0.5101
  474TMC3    O1 7062   4.379   2.673  14.225  0.0224  0.3658  0.0883
  474TMC3    O2 7063   3.767   2.852  13.941  0.2359  0.4235 -0.0233
  475MPD2     C 7064   1.189   0.337  11.012  0.8403  0.3206 -0.0723
  475MPD2    C1 7065   1.278   0.343  10.908  0.8798 -0.0564 -0.2897
  475MPD2    C2 7066   1.237   0.372  10.778 -0.7823  0.3012  0.8232
  475MPD2    C3 7067   1.101   0.371  10.750  0.1163  0.3470 -0.2047
  475MPD2    C4 7068   1.010   0.383  10.855 -0.1698 -0.7708 -0.2195
  475MPD2    C5 7069   1.060   0.361  10.986 -0.1232  0.4211  0.1095
  475MPD2     H 7070   1.310   0.373  10.698 -1.0415 -1.3639  0.5450
  475MPD2    H1 7071   0.904   0.402  10.839  0.3338  0.1671 -2.5388
  475MPD2    H2 7072   1.226   0.331  11.114 -0.5865  0.2334  0.4314
  475MPD2    H3 7073   0.990   0.368  11.068 -0.8676  3.7160 -0.8031
  475MPD2     N 7074   1.061   0.392  10.612 -0.1766  0.1844  0.7380
  475MPD2    H5 7075   1.140   0.380  10.549 -0.7828  0.2952 -0.0436
  475MPD2    N1 7076   1.415   0.324  10.937  0.0137 -0.1096 -0.4061
  475MPD2    H7 7077   1.450   0.331  11.032 -0.7879  0.8909 -0.1812
  476TMC3    C1 7078   1.628   0.348  10.831  0.5654  0.2415 -0.0058
  476TMC3    C2 7079   1.705   0.318  10.724  0.2319 -0.4295  1.2082
  476TMC3    C3 7080   1.806   0.402  10.687 -0.9120  0.3924  0.3341
  476TMC3    C4 7081   1.664   0.443  10.922  0.7254  0.4453 -0.2265
  476TMC3    C5 7082   1.756   0.538  10.882  0.2764 -0.2779  0.0366
  476TMC3    C6 7083   1.829   0.520  10.763 -0.6167  0.2475  0.3698
  476TMC3     C 7084   1.500   0.282  10.841  0.1508  0.0703  0.1626
  476TMC3     O 7085   1.473   0.206  10.748  0.1464 -0.4485  0.7712
  476TMC3     H 7086   1.686   0.236  10.655  1.0132  0.9908 -0.7141
  476TMC3    H1 7087   1.610   0.465  11.013 -2.4260 -2.9404 -1.3064
  476TMC3    H2 7088   1.912   0.585  10.735 -0.2625  0.1744  1.2655
  476TMC3    C7 7089   1.790   0.647  10.969  0.2123 -0.3923 -0.0690
  476TMC3    C8 7090   1.843   0.389  10.551  0.4389  0.1406 -0.3170
  476TMC3    O1 7091   1.755   0.637  11.086  0.4703  0.5522 -0.6304
  476TMC3    O2 7092   1.858   0.280  10.503  0.1073  0.0210 -0.1647
  477MPD2     C 7093   4.126   1.510  11.057  0.2971 -0.2682 -0.0644
  477MPD2    C1 7094   4.070   1.569  11.172 -0.4012  0.0479 -0.0124
  477MPD2    C2 7095   4.138   1.547  11.293  0.1570  0.0987 -0.6481
  477MPD2    C3 7096   4.254   1.462  11.299 -0.0452  0.8052 -0.0519
  477MPD2    C4 7097   4.294   1.400  11.180 -0.3241 -0.6403  0.0269
  477MPD2    C5 7098   4.231   1.423  11.062  0.1663  0.3193 -0.4908
  477MPD2     H 7099   4.107   1.594  11.386  1.2152 -0.5526  0.0308
  477MPD2    H1 7100   4.379   1.334  11.188 -0.1276 -0.2641  1.0505
  477MPD2    H2 7101   4.090   1.551  10.963 -0.6083 -1.3167 -0.1717
  477MPD2    H3 7102   4.273   1.378  10.973 -0.2846  1.8075 -1.4547
  477MPD2     N 7103   4.317   1.446  11.425  0.0594  0.2953  0.2936
  477MPD2    H5 7104   4.268   1.475  11.509  1.1229 -1.2273  1.4349
  477MPD2    N1 7105   3.967   1.664  11.154 -0.0362 -0.1653  0.1926
  477MPD2    H7 7106   3.934   1.671  11.058  2.9295 -1.0273 -0.8859
  478TMC3    C1 7107   3.821   1.844  11.187  0.5195  0.1167  0.2652
  478TMC3    C2 7108   3.746   1.896  11.287 -0.5542 -0.3607  0.3524
  478TMC3    C3 7109   3.705   2.028  11.278  0.0015  0.4785 -0.2877
  478TMC3    C4 7110   3.885   1.922  11.097 -0.3984 -0.3873 -0.5037
  478TMC3    C5 7111   3.842   2.053  11.092  0.4633  0.7508 -0.4104
  478TMC3    C6 7112   3.753   2.105  11.180  0.3330 -0.9329  0.7440
  478TMC3     C 7113   3.926   1.759  11.248 -0.1665 -0.0704  0.0586
  478TMC3     O 7114   3.945   1.780  11.364 -0.0899 -0.3870 -0.2369
  478TMC3     H 7115   3.708   1.838  11.370 -0.6740 -0.9224 -0.1008
  478TMC3    H1 7116   3.953   1.882  11.023  0.8815  0.4041  0.2620
  478TMC3    H2 7117   3.738   2.211  11.169 -1.4076 -1.4966 -2.3409
  478TMC3    C7 7118   3.888   2.139  10.983 -0.6660  0.2257  0.2290
  478TMC3    C8 7119   3.690   2.092  11.409  0.2376  0.4815 -0.1082
  478TMC3    O1 7120   4.010   2.133  10.963 -0.5478  0.6057 -0.8039
  478TMC3    O2 7121   3.600   2.046  11.476  0.2892 -0.1258 -0.1255
  479MPD2     C 7122   3.386   4.319  15.053 -0.3823  0.3442  0.1823
  479MPD2    C1 7123   3.331   4.232  15.150  0.0283 -0.3780 -0.6305
  479MPD2    C2 7124   3.377   4.220  15.280 -0.1215  0.5634 -0.2616
  479MPD2    C3 7125   3.473   4.316  15.317  0.0964 -0.6017  0.4919
  479MPD2    C4 7126   3.530   4.394  15.223 -0.3026  0.0869 -0.3973
  479MPD2    C5 7127   3.494   4.396  15.095  0.1043 -0.5895 -0.2599
  479MPD2     H 7128   3.336   4.148  15.349  1.1219  0.8365  0.7698
  479MPD2    H1 7129   3.605   4.469  15.244  0.7373 -1.3920  1.2276
  479MPD2    H2 7130   3.354   4.323  14.950  0.2213  0.3176 -0.0059
  479MPD2    H3 7131   3.531   4.470  15.025 -1.5188  1.0141  0.5547
  479MPD2     N 7132   3.523   4.337  15.450  0.0637 -0.2884 -0.7005
  479MPD2    H5 7133   3.605   4.396  15.452 -0.6232  0.7170 -2.2967
  479MPD2    N1 7134   3.215   4.164  15.108 -0.0389 -0.3075 -0.3329
  479MPD2    H7 7135   3.177   4.184  15.017 -3.4133 -1.1373  0.9188
  480TMC3    C1 7136   3.205   4.120  15.708  0.0672  0.2491  0.0863
  480TMC3    C2 7137   3.097   4.163  15.639 -0.6749  1.0122  1.1597
  480TMC3    C3 7138   3.113   4.258  15.540 -0.5112 -0.3955 -0.6767
  480TMC3    C4 7139   3.329   4.157  15.684  0.0485  0.6089 -0.1506
  480TMC3    C5 7140   3.346   4.246  15.585  0.1047  0.2101  0.8390
  480TMC3    C6 7141   3.242   4.308  15.524  0.1071  0.4366  0.1344
  480TMC3     C 7142   3.199   4.008  15.801 -0.5898  0.0986 -0.1960
  480TMC3     O 7143   3.300   3.958  15.850  0.1714 -0.2079 -0.5855
  480TMC3     H 7144   3.001   4.115  15.652 -0.4666  0.8097  1.9476
  480TMC3    H1 7145   3.420   4.113  15.723 -1.8579 -3.1100  0.0730
  480TMC3    H2 7146   3.259   4.393  15.460  0.7713 -0.7490 -1.2542
  480TMC3    C7 7147   3.480   4.290  15.569  0.9095 -0.6911  0.0064
  480TMC3    C8 7148   3.018   4.271  15.434 -0.4119 -0.3130 -0.3238
  480TMC3    O1 7149   3.543   4.295  15.675  0.2437  0.2740 -0.5390
  480TMC3    O2 7150   2.933   4.185  15.427  0.1763  0.0794 -0.4226
  481MPD2     C 7151   0.647   3.840  14.220 -0.0896 -0.3480  0.3787
  481MPD2    C1 7152   0.507   3.832  14.206  0.6923 -0.2639  0.3583
  481MPD2    C2 7153   0.432   3.805  14.317  0.0771 -0.2683 -0.0088
  481MPD2    C3 7154   0.483   3.811  14.444  0.0389  0.3956 -0.3460
  481MPD2    C4 7155   0.620   3.821  14.458  0.1899  0.0076  0.2026
  481MPD2    C5 7156   0.699   3.842  14.344  0.2444  0.1134 -0.0034
  481MPD2     H 7157   0.328   3.785  14.295 -0.4475 -0.0520  2.2492
  481MPD2    H1 7158   0.672   3.820  14.553  0.1926  0.2305  0.2025
  481MPD2    H2 7159   0.717   3.858  14.140  0.5919  0.5855  1.1911
  481MPD2    H3 7160   0.806   3.858  14.350  0.3286 -0.7258  0.8145
  481MPD2     N 7161   0.404   3.789  14.562  0.2169  0.2151 -1.1515
  481MPD2    H5 7162   0.452   3.793  14.652  0.6791 -1.8118 -1.3031
  481MPD2    N1 7163   0.463   3.847  14.075  0.9010  0.0797  0.8289
  481MPD2    H7 7164   0.528   3.887  14.009  0.6122 -0.5396  0.1750
  482TMC3    C1 7165   0.289   3.853  13.907  0.2073 -0.1603  0.0226
  482TMC3    C2 7166   0.168   3.815  13.862  0.2643 -0.5665  0.2078
  482TMC3    C3 7167   0.116   3.872  13.747  0.3649 -0.2876  0.9412
  482TMC3    C4 7168   0.352   3.961  13.839 -0.0406  0.1924 -0.5637
  482TMC3    C5 7169   0.295   4.015  13.726  0.4371 -0.5855  0.3796
  482TMC3    C6 7170   0.173   3.971  13.681 -0.4544 -0.3424  0.9750
  482TMC3     C 7171   0.333   3.803  14.036  0.7467  0.0029 -0.0543
  482TMC3     O 7172   0.263   3.718  14.091 -0.6870  0.5223 -0.2356
  482TMC3     H 7173   0.100   3.748  13.914  0.1279  0.1102  0.9064
  482TMC3    H1 7174   0.448   3.992  13.878 -1.4328  3.6402  0.0625
  482TMC3    H2 7175   0.127   4.010  13.591  0.2314 -0.4156  0.5845
  482TMC3    C7 7176   0.371   4.108  13.645  0.0112  0.1454  0.4798
  482TMC3    C8 7177   4.710   3.826  13.695 -0.6556  0.2170  0.3118
  482TMC3    O1 7178   0.466   4.163  13.702 -0.3586  0.3560  0.2396
  482TMC3    O2 7179   4.644   3.893  13.618  0.1293 -0.4235 -0.7444
  483TMC3    C1 7180   2.565   2.365   1.370  0.0403  0.3000  0.5346
  483TMC3    C2 7181   2.637   2.484   1.383  0.2495  0.3117  0.2760
  483TMC3    C3 7182   2.740   2.489   1.469  0.4758 -0.1808  0.1442
  483TMC3    C4 7183   2.580   2.264   1.451 -1.0546 -0.0939  0.0740
  483TMC3    C5 7184   2.688   2.271   1.541  0.0288 -0.1395 -0.2891
  483TMC3    C6 7185   2.774   2.379   1.543  0.2030  0.0964 -0.0906
  483TMC3     C 7186   2.517   2.338   1.238 -0.4042  0.9613  0.0240
  483TMC3     O 7187   2.492   2.431   1.163 -0.5950  0.2727 -0.5386
  483TMC3     H 7188   2.618   2.565   1.313 -0.0878  0.1263  0.1519
  483TMC3    H1 7189   2.530   2.169   1.433  0.3925 -1.0786  1.1882
  483TMC3    H2 7190   2.850   2.389   1.620 -1.1043 -2.6060  1.5527
  483TMC3    C7 7191   2.745   2.150   1.604 -0.0007  0.3716  0.1306
  483TMC3    C8 7192   2.833   2.596   1.453  0.1367  0.6854  0.0334
  483TMC3    O1 7193   2.870   2.144   1.610 -0.2159  0.4846 -0.4691
  483TMC3    O2 7194   2.857   2.630   1.337 -0.9389  0.1519 -0.5280
  484MPD2     C 7195   0.772   0.947  12.073  0.3917 -0.3570 -0.2814
  484MPD2    C1 7196   0.794   0.850  12.169 -0.5895 -0.2411  0.4432
  484MPD2    C2 7197   0.926   0.820  12.207 -0.4262 -0.1240  0.1524
  484MPD2    C3 7198   1.029   0.893  12.147 -0.6324  0.0460 -0.8492
  484MPD2    C4 7199   1.004   0.990  12.053  0.5876  0.6255 -0.0278
  484MPD2    C5 7200   0.874   1.020  12.023  0.1733  0.0256  0.3047
  484MPD2     H 7201   0.956   0.751  12.284  0.7868  0.2836  0.0472
  484MPD2    H1 7202   1.077   1.053  12.003  0.5002  0.6940 -0.0691
  484MPD2    H2 7203   0.669   0.961  12.043  0.3035  0.4648  0.4052
  484MPD2    H3 7204   0.849   1.098  11.951  1.0645 -1.2375 -1.3544
  484MPD2     N 7205   1.169   0.882  12.179 -0.6513 -0.2208 -0.3918
  484MPD2    H5 7206   1.231   0.946  12.131 -0.5170 -1.2314 -1.5670
  484MPD2    N1 7207   0.679   0.784  12.220  0.3440  0.4328 -0.3868
  484MPD2    H7 7208   0.592   0.801  12.171 -0.2438 -1.7457 -0.0852
  485TMC3    C1 7209   1.365   0.796  12.267  0.3069  0.2365 -0.0787
  485TMC3    C2 7210   1.404   0.778  12.397 -0.2082 -0.3475 -0.4182
  485TMC3    C3 7211   1.507   0.693  12.429 -0.2449 -0.0135 -0.3489
  485TMC3    C4 7212   1.439   0.726  12.172  0.2074 -0.6810  0.3028
  485TMC3    C5 7213   1.552   0.650  12.201  0.4167  0.1616 -0.0596
  485TMC3    C6 7214   1.588   0.641  12.334 -0.3574  0.7327 -0.4076
  485TMC3     C 7215   1.224   0.783  12.260 -0.2797 -0.1343  1.0637
  485TMC3     O 7216   1.173   0.680  12.301 -0.4794 -0.0194 -0.0342
  485TMC3     H 7217   1.334   0.816  12.470 -1.0477 -0.4064 -1.1901
  485TMC3    H1 7218   1.421   0.736  12.065 -1.7558  2.2326  0.9107
  485TMC3    H2 7219   1.671   0.582  12.370 -0.2024  0.6434 -0.9158
  485TMC3    C7 7220   1.559   0.522  12.140 -0.7565 -0.4741  0.3899
  485TMC3    C8 7221   1.466   0.591  12.526 -0.4204 -0.2063  0.0212
  485TMC3    O1 7222   1.600   0.436  12.219 -0.6437  0.6743  0.4555
  485TMC3    O2 7223   1.416   0.622  12.631  0.1097 -0.0441 -0.4629
  486MPD2     C 7224   3.282   4.223  12.523 -0.7702  0.7642  0.6330
  486MPD2    C1 7225   3.162   4.211  12.592 -0.8350 -0.6541 -0.7419
  486MPD2    C2 7226   3.080   4.322  12.586  0.8315 -1.0946 -0.3153
  486MPD2    C3 7227   3.115   4.433  12.513 -0.6552  0.1889  0.5828
  486MPD2    C4 7228   3.239   4.446  12.458  0.7209 -0.1128 -0.4633
  486MPD2    C5 7229   3.320   4.338  12.469 -0.1776  0.2218  0.0020
  486MPD2     H 7230   2.984   4.322  12.635  1.1587  0.8534  0.3339
  486MPD2    H1 7231   3.273   4.543  12.423  1.5624  0.1781  1.2058
  486MPD2    H2 7232   3.357   4.144  12.516 -1.2568  0.4874 -1.5759
  486MPD2    H3 7233   3.423   4.349  12.436 -0.1912 -1.9016 -0.7466
  486MPD2     N 7234   3.013   4.531  12.520  0.3281 -0.4445 -0.0289
  486MPD2    H5 7235   2.939   4.504  12.584 -0.9629 -0.0937 -1.3679
  486MPD2    N1 7236   3.121   4.086  12.642 -0.9924  0.1106 -0.4987
  486MPD2    H7 7237   3.193   4.015  12.651 -1.2262 -0.0082  0.4729
  487TMC3    C1 7238   2.975   3.924  12.740 -0.5998 -0.1255 -0.0018
  487TMC3    C2 7239   2.849   3.873  12.730  0.0130 -0.1127 -0.4074
  487TMC3    C3 7240   2.810   3.770  12.812  0.0592  0.2411  0.1190
  487TMC3    C4 7241   3.054   3.883  12.846 -1.0253  0.1534  0.3980
  487TMC3    C5 7242   3.014   3.779  12.924  0.3140  0.2633  0.2924
  487TMC3    C6 7243   2.897   3.710  12.902 -0.2758 -0.2346  0.3914
  487TMC3     C 7244   2.993   4.051  12.671  0.1547 -0.7054 -0.2412
  487TMC3     O 7245   2.888   4.111  12.650  0.4111  0.4452 -0.4597
  487TMC3     H 7246   2.779   3.919  12.661 -0.5138 -1.3624 -0.7104
  487TMC3    H1 7247   3.144   3.936  12.874 -2.2265  0.3280  3.9306
  487TMC3    H2 7248   2.858   3.638  12.973 -0.1165  1.3252  2.0340
  487TMC3    C7 7249   3.110   3.725  13.022  0.0452 -0.1436  0.1541
  487TMC3    C8 7250   2.683   3.794  12.870  0.5798  0.2719  0.2320
  487TMC3    O1 7251   3.184   3.797  13.092 -0.0527 -0.5429 -0.0186
  487TMC3    O2 7252   2.677   3.767  12.986 -0.4242 -1.1451 -0.1283
  488MPD2     C 7253   3.149   0.985  16.157  1.4934  0.5407  0.3488
  488MPD2    C1 7254   3.199   1.080  16.237  0.5017 -1.0146  0.0106
  488MPD2    C2 7255   3.189   1.051  16.376  0.2297 -0.3716  0.0845
  488MPD2    C3 7256   3.117   0.948  16.429  0.4548 -0.0319 -0.2891
  488MPD2    C4 7257   3.059   0.863  16.340  0.4905 -0.4636  0.1768
  488MPD2    C5 7258   3.075   0.882  16.204  0.5382 -0.0484  0.2227
  488MPD2     H 7259   3.245   1.106  16.451 -0.2066 -0.2676  0.3282
  488MPD2    H1 7260   2.996   0.779  16.366 -2.2879  0.9888 -1.8349
  488MPD2    H2 7261   3.162   0.986  16.049 -3.1237 -0.2548 -0.2010
  488MPD2    H3 7262   3.032   0.810  16.136  0.2481  0.1975  0.1486
  488MPD2     N 7263   3.104   0.927  16.572 -0.1468  0.2213 -0.1414
  488MPD2    H5 7264   3.134   0.998  16.638 -1.1276  1.6226 -1.2025
  488MPD2    N1 7265   3.266   1.196  16.186  0.0189 -0.8035  0.3638
  488MPD2    H7 7266   3.300   1.265  16.253 -1.4386 -0.6541  0.9576
  489TMC3    C1 7267   3.065   0.822  16.780 -0.3631  0.2250  0.1638
  489TMC3    C2 7268   3.164   0.898  16.827  0.1278  0.4327  0.5468
  489TMC3    C3 7269   3.156   0.950  16.951  0.4074 -0.7039  0.0688
  489TMC3    C4 7270   2.959   0.786  16.860  0.5220 -0.1301  0.2903
  489TMC3    C5 7271   2.959   0.835  16.989 -0.5589  0.3441  0.4742
  489TMC3    C6 7272   3.056   0.914  17.039 -0.9946  0.3366  0.0976
  489TMC3     C 7273   3.041   0.830  16.638  0.2330 -0.2648 -0.3302
  489TMC3     O 7274   2.960   0.745  16.590 -0.4436  0.0385  0.5132
  489TMC3     H 7275   3.253   0.919  16.769  0.4282  0.2803  0.9568
  489TMC3    H1 7276   2.881   0.728  16.811  1.0617 -1.9923  1.6370
  489TMC3    H2 7277   3.057   0.962  17.136  2.8783  0.0767  0.2093
  489TMC3    C7 7278   2.864   0.796  17.098 -0.2182 -0.5145 -0.6128
  489TMC3    C8 7279   3.215   1.083  16.944 -0.3671  0.2881  0.5787
  489TMC3    O1 7280   2.905   0.811  17.212 -0.3642  0.3543  0.6127
  489TMC3    O2 7281   3.241   1.126  16.832  0.0166  0.1724  0.2018
  490MPD2     C 7282   3.805   0.492   0.280  0.3556 -0.2571 -0.0200
  490MPD2    C1 7283   3.874   0.494   0.161  0.6362 -0.4348  0.1529
  490MPD2    C2 7284   3.959   0.595   0.123  0.2881  0.1415  0.2471
  490MPD2    C3 7285   3.993   0.693   0.222  0.4603  0.2586 -0.4551
  490MPD2    C4 7286   3.917   0.696   0.337 -0.5354 -0.6451 -0.0412
  490MPD2    C5 7287   3.824   0.597   0.365  0.1300  0.0300 -0.2715
  490MPD2     H 7288   4.019   0.589   0.033  0.2353  1.2597  0.1320
  490MPD2    H1 7289   3.940   0.766   0.417  1.4951 -1.0656 -0.2514
  490MPD2    H2 7290   3.741   0.409   0.310  1.0752 -0.8500 -0.1089
  490MPD2    H3 7291   3.783   0.591   0.465 -1.1329  0.1088 -0.7891
  490MPD2     N 7292   4.103   0.777   0.213 -0.3256 -0.6653 -0.4989
  490MPD2    H5 7293   4.122   0.838   0.292 -2.5783  0.1768 -0.6209
  490MPD2    N1 7294   3.845   0.393   0.073 -0.1436 -0.1630  0.7446
  490MPD2    H7 7295   3.766   0.334   0.094 -0.1663 -0.0705  0.9179
  491TMC3    C1 7296   3.885   0.229  17.605 -0.0883 -0.4141 -0.4468
  491TMC3    C2 7297   3.825   0.137   0.001  0.4320 -0.1560  0.5021
  491TMC3    C3 7298   3.787   0.012  17.643 -0.9466 -0.3551 -0.1721
  491TMC3    C4 7299   3.902   0.201  17.473 -0.4118  0.8430  0.1350
  491TMC3    C5 7300   3.863   0.074  17.431 -0.1572  0.1132 -0.1730
  491TMC3    C6 7301   3.803   4.702  17.511  0.2664 -0.2742  0.1727
  491TMC3     C 7302   3.917   0.364  17.647  0.3985 -0.3789  0.3192
  491TMC3     O 7303   4.015   0.413  17.595  0.0519  0.1014  0.1154
  491TMC3     H 7304   3.808   0.156   0.106 -0.4005  0.7421  0.2111
  491TMC3    H1 7305   3.945   0.279  17.411  1.6104 -1.1983 -1.0599
  491TMC3    H2 7306   3.763   4.607  17.475  0.5354 -0.0586 -0.7136
  491TMC3    C7 7307   3.834   0.054  17.286 -0.1628  0.6583 -0.8137
  491TMC3    C8 7308   3.707   4.645   0.036  0.6539 -0.1314 -0.1107
  491TMC3    O1 7309   3.760   4.685  17.261 -0.1007 -0.0864  0.3023
  491TMC3    O2 7310   3.644   4.698   0.127  0.0243  0.0455 -0.0406
  492MPD2     C 7311   3.903   1.217  11.165  0.5517  0.4609  0.4312
  492MPD2    C1 7312   3.849   1.116  11.088  0.1245 -0.2756  0.1903
  492MPD2    C2 7313   3.803   1.001  11.152 -0.5124 -0.1333 -0.2520
  492MPD2    C3 7314   3.804   0.993  11.291  0.2108 -0.3449 -0.0565
  492MPD2    C4 7315   3.852   1.096  11.371  0.4481  0.5492 -0.0905
  492MPD2    C5 7316   3.895   1.205  11.304 -0.9410 -0.2454 -0.2083
  492MPD2     H 7317   3.761   0.919  11.095 -1.0738 -0.7695  1.0707
  492MPD2    H1 7318   3.853   1.086  11.479  0.4970  0.5032 -0.0951
  492MPD2    H2 7319   3.933   1.314  11.127 -0.1169  0.4055 -0.2254
  492MPD2    H3 7320   3.935   1.285  11.364 -2.0452 -0.6779  1.1203
  492MPD2     N 7321   3.745   0.884  11.361  0.7329  0.4846 -0.0268
  492MPD2    H5 7322   3.778   0.866  11.456 -1.0549 -1.4382  0.2388
  492MPD2    N1 7323   3.849   1.132  10.948  0.7403  0.0498  0.0900
  492MPD2    H7 7324   3.883   1.223  10.917  2.2035 -0.7114 -0.5441
  493TMC3    C1 7325   3.795   1.085  10.725  0.4749 -0.2991  0.1986
  493TMC3    C2 7326   3.920   1.129  10.689  0.0862  0.1779 -0.0754
  493TMC3    C3 7327   3.964   1.099  10.562  0.0649 -0.5570 -0.1893
  493TMC3    C4 7328   3.722   1.012  10.636 -0.2727 -0.0389  0.2638
  493TMC3    C5 7329   3.760   0.994  10.507 -0.8067  0.0362  0.1503
  493TMC3    C6 7330   3.887   1.023  10.469 -0.5394 -0.1973  0.3162
  493TMC3     C 7331   3.771   1.052  10.858  0.0538 -0.1139  0.3587
  493TMC3     O 7332   3.677   0.977  10.876 -0.1774  0.5569 -0.0151
  493TMC3     H 7333   3.979   1.184  10.761  0.2734 -0.5830  0.3486
  493TMC3    H1 7334   3.624   0.975  10.666 -1.0033  1.6196 -0.0558
  493TMC3    H2 7335   3.904   1.021  10.362 -0.4730 -1.3778  0.3454
  493TMC3    C7 7336   3.684   0.897  10.432 -0.0735  0.2941 -0.4308
  493TMC3    C8 7337   4.103   1.119  10.536 -0.1600  0.1358 -0.2074
  493TMC3    O1 7338   3.653   0.941  10.322 -0.0267 -0.2741  0.1091
  493TMC3    O2 7339   4.170   1.125  10.639 -0.0081  0.1312 -0.2021
  494TMC3    C1 7340   4.530   2.213   0.643  0.0149 -0.1956 -0.3282
  494TMC3    C2 7341   4.631   2.119   0.642 -0.1015  0.2879 -0.2953
  494TMC3    C3 7342   0.014   2.156   0.562 -0.3505  0.3106 -0.5926
  494TMC3    C4 7343   4.534   2.328   0.576 -0.1738 -0.3120  1.3835
  494TMC3    C5 7344   4.636   2.352   0.497 -0.5273  0.1306  0.1787
  494TMC3    C6 7345   0.023   2.269   0.488 -0.1015  0.2117  0.1492
  494TMC3     C 7346   4.421   2.182   0.724  0.2363  0.8415  0.1651
  494TMC3     O 7347   4.435   2.087   0.801 -0.0293 -0.6051 -0.5741
  494TMC3     H 7348   4.631   2.021   0.687  0.3871  1.4571  2.2479
  494TMC3    H1 7349   4.460   2.406   0.590 -0.5720 -0.7427  1.6667
  494TMC3    H2 7350   0.101   2.283   0.415  0.3003  1.9677  0.9278
  494TMC3    C7 7351   4.628   2.484   0.434 -0.5236 -0.0233  0.0642
  494TMC3    C8 7352   0.126   2.064   0.569  0.1821  0.2242  0.0105
  494TMC3    O1 7353   4.560   2.564   0.487  0.1707 -0.0906 -0.9288
  494TMC3    O2 7354   0.121   1.951   0.617 -0.0881  0.0285  0.1791
  495TMC3    C1 7355   3.383   0.089  14.724  0.6546 -0.0316  0.3275
  495TMC3    C2 7356   3.308   0.100  14.608  0.1607 -0.0252  0.0796
  495TMC3    C3 7357   3.173   0.082  14.619  0.1180 -0.0348 -0.8573
  495TMC3    C4 7358   3.331   0.066  14.845  0.3551 -0.0455  0.2011
  495TMC3    C5 7359   3.194   0.066  14.860  0.4701  0.1977  0.1302
  495TMC3    C6 7360   3.116   0.061  14.743 -0.0605  0.1270  0.1485
  495TMC3     C 7361   3.505   0.003  14.694  0.5885  0.0844 -0.0421
  495TMC3     O 7362   3.506   4.614  14.743  0.4762 -0.0794  0.0385
  495TMC3     H 7363   3.351   0.091  14.509 -2.1530 -2.8397 -0.6918
  495TMC3    H1 7364   3.393   0.050  14.932 -0.9359 -1.3916  0.8626
  495TMC3    H2 7365   3.010   0.036  14.746 -0.1344  0.3390 -0.6690
  495TMC3    C7 7366   3.147   4.714  14.978  0.4106 -0.2310  0.2943
  495TMC3    C8 7367   3.101   0.012  14.509 -0.2599 -0.3277 -0.0398
  495TMC3    O1 7368   3.232   4.696  15.063 -0.6679 -0.0355 -0.2089
  495TMC3    O2 7369   3.030   4.637  14.540 -0.1597  0.2996  0.2506
  496MPD2     C 7370   0.642   4.348  15.480  0.3484 -0.6895 -0.1097
  496MPD2    C1 7371   0.567   4.246  15.431  0.4463 -0.5964  0.3013
  496MPD2    C2 7372   0.447   4.212  15.502  0.5855 -0.1510  0.1562
  496MPD2    C3 7373   0.399   4.290  15.612 -0.4644  0.4328  0.0412
  496MPD2    C4 7374   0.479   4.395  15.647  0.0176 -0.2785  0.2635
  496MPD2    C5 7375   0.594   4.427  15.579  0.8229 -0.3839 -0.3614
  496MPD2     H 7376   0.395   4.121  15.474  0.7297  0.4412 -1.9929
  496MPD2    H1 7377   0.444   4.461  15.725 -0.3610  0.0702 -0.2059
  496MPD2    H2 7378   0.736   4.359  15.427 -0.2144  0.7172 -0.8289
  496MPD2    H3 7379   0.646   4.517  15.609  0.3405 -0.9426  2.1115
  496MPD2     N 7380   0.278   4.270  15.691 -0.0495  0.5850 -0.0949
  496MPD2    H5 7381   0.243   4.336  15.760  2.0572 -0.6858  2.1798
  496MPD2    N1 7382   0.619   4.168  15.321  0.3532  0.0820 -0.3196
  496MPD2    H7 7383   0.707   4.201  15.283  1.0316 -2.1322 -0.6879
  497TMC3    C1 7384   0.110   4.141  15.801  0.3341  0.0304  0.5370
  497TMC3    C2 7385   0.042   4.020  15.806 -0.3008  0.1503 -0.1815
  497TMC3    C3 7386   4.697   3.987  15.923  0.6503 -0.9147  0.1416
  497TMC3    C4 7387   0.126   4.227  15.907  0.2432  0.5536  0.7123
  497TMC3    C5 7388   0.046   4.192  16.011 -0.3642  0.2929 -0.5219
  497TMC3    C6 7389   4.688   4.078  16.028 -0.0371 -0.3904  0.1170
  497TMC3     C 7390   0.204   4.154  15.694 -0.2386 -0.5003  0.1497
  497TMC3     O 7391   0.235   4.053  15.634  0.0706 -0.3137 -0.1553
  497TMC3     H 7392   0.062   3.945  15.730  0.1794 -1.1781  1.2731
  497TMC3    H1 7393   0.179   4.322  15.906  0.5295  0.3907  0.4453
  497TMC3    H2 7394   4.629   4.059  16.117  2.9631 -0.8991  2.0121
  497TMC3    C7 7395   0.052   4.275  16.120 -0.2997 -0.0233 -0.5336
  497TMC3    C8 7396   4.720   3.858  15.972 -0.1173  1.1269  0.0681
  497TMC3    O1 7397   4.675   4.296  16.178 -0.2459  0.9348  0.1030
  497TMC3    O2 7398   0.018   3.848  16.095  0.8172 -0.2519 -0.0972
  498MPD2     C 7399   1.430   0.721   9.352 -0.1448  0.5172  0.6661
  498MPD2    C1 7400   1.451   0.596   9.403  0.0176  0.2052  0.8579
  498MPD2    C2 7401   1.367   0.539   9.484 -1.0223 -0.2274 -0.1749
  498MPD2    C3 7402   1.248   0.606   9.513  0.5268 -0.6178 -0.0312
  498MPD2    C4 7403   1.224   0.736   9.466 -0.2659  0.1360  0.7327
  498MPD2    C5 7404   1.317   0.797   9.380 -0.0158 -0.4590 -0.3831
  498MPD2     H 7405   1.382   0.442   9.532 -0.7270 -0.1007 -0.0089
  498MPD2    H1 7406   1.135   0.794   9.489 -2.3735 -3.3330  1.2367
  498MPD2    H2 7407   1.500   0.772   9.286 -2.2263  0.3479 -1.6902
  498MPD2    H3 7408   1.303   0.899   9.347 -0.0279  0.5742  2.7358
  498MPD2     N 7409   1.160   0.545   9.598  0.1271  0.2487 -0.2766
  498MPD2    H5 7410   1.192   0.458   9.641 -0.9878 -0.4210 -0.8065
  498MPD2    N1 7411   1.557   0.520   9.351 -0.0288 -0.5078  0.5590
  498MPD2    H7 7412   1.556   0.426   9.389  4.5852  0.0621  2.0728
  499TMC3    C1 7413   1.749   0.448   9.244 -0.5501 -0.1387  0.6654
  499TMC3    C2 7414   1.698   0.323   9.244 -0.1847  0.2076 -0.0425
  499TMC3    C3 7415   1.792   0.224   9.247  0.1134 -0.2808 -0.5317
  499TMC3    C4 7416   1.879   0.476   9.259 -0.3197 -1.0656 -0.5187
  499TMC3    C5 7417   1.966   0.378   9.258 -0.1399  0.4051  0.3195
  499TMC3    C6 7418   1.926   0.251   9.249 -0.3517 -0.7611  0.1502
  499TMC3     C 7419   1.660   0.557   9.269 -0.1040  0.3886 -0.4563
  499TMC3     O 7420   1.695   0.672   9.242  0.2225  0.3127 -0.2154
  499TMC3     H 7421   1.597   0.296   9.217  0.1392 -2.2677  1.2193
  499TMC3    H1 7422   1.909   0.580   9.267 -0.4732 -1.0322 -0.3843
  499TMC3    H2 7423   1.997   0.170   9.252  1.9367  1.2399 -0.1592
  499TMC3    C7 7424   2.105   0.404   9.294  0.8351 -0.2494  0.5933
  499TMC3    C8 7425   1.757   0.080   9.236 -0.4157 -0.4621  0.1376
  499TMC3    O1 7426   2.185   0.311   9.277 -0.5232  0.0910  0.2000
  499TMC3    O2 7427   1.848   0.001   9.220  0.5555  0.4058  0.5682
  500MPD2     C 7428   2.969   2.129   9.955 -0.4231  0.1100  0.3317
  500MPD2    C1 7429   3.053   2.065   9.865  0.0228 -0.1839 -0.0540
  500MPD2    C2 7430   3.014   1.936   9.826  0.7453 -0.4681 -0.0862
  500MPD2    C3 7431   2.891   1.886   9.874  0.4985  0.4601 -0.1161
  500MPD2    C4 7432   2.816   1.951   9.965  0.3879  1.0177  0.2284
  500MPD2    C5 7433   2.857   2.070  10.012  0.0713  0.7115  0.1146
  500MPD2     H 7434   3.063   1.879   9.747  1.4116 -0.9538  0.6759
  500MPD2    H1 7435   2.719   1.917   9.999  0.2516  0.4729 -0.7004
  500MPD2    H2 7436   2.995   2.229   9.987 -1.1259  0.2709  0.3998
  500MPD2    H3 7437   2.792   2.127  10.078  2.1982  0.3602  2.4848
  500MPD2     N 7438   2.833   1.765   9.820 -0.0909 -0.0870  0.3986
  500MPD2    H5 7439   2.745   1.739   9.864  0.8984 -1.5338  1.5362
  500MPD2    N1 7440   3.175   2.129   9.829  0.0274 -0.1918  0.5151
  500MPD2    H7 7441   3.193   2.221   9.867  0.6408  0.5165 -1.5506
  501TMC3    C1 7442   3.381   2.171   9.714  0.2641  0.6910  0.2820
  501TMC3    C2 7443   3.366   2.307   9.734 -0.3989 -0.1876 -0.3890
  501TMC3    C3 7444   3.480   2.379   9.729  0.8631 -0.3068  0.7152
  501TMC3    C4 7445   3.496   2.104   9.718 -0.1161  1.0286 -0.2095
  501TMC3    C5 7446   3.614   2.181   9.729  0.5534 -0.1930  0.1054
  501TMC3    C6 7447   3.600   2.318   9.719  0.3059 -0.0116 -0.2198
  501TMC3     C 7448   3.260   2.083   9.729 -0.1729 -0.2609 -0.2945
  501TMC3     O 7449   3.277   1.967   9.684 -0.2815 -0.5329 -0.8157
  501TMC3     H 7450   3.267   2.349   9.746  0.3536  1.5645 -0.3158
  501TMC3    H1 7451   3.486   1.997   9.721  1.9604  0.7989 -1.7938
  501TMC3    H2 7452   3.686   2.383   9.717 -0.7107  1.2923 -1.4521
  501TMC3    C7 7453   3.685   2.130   9.841 -0.2576 -0.3028  0.4496
  501TMC3    C8 7454   3.483   2.484   9.823  0.4217 -0.1305 -0.4399
  501TMC3    O1 7455   3.699   2.012   9.856  0.4193  0.4690 -0.0830
  501TMC3    O2 7456   3.584   2.497   9.888  0.1625 -0.7483  0.6768
  502TMC3    C1 7457   2.757   0.697  15.035  0.8012 -0.5560 -0.1033
  502TMC3    C2 7458   2.717   0.819  14.992  0.0634 -0.0156 -0.1167
  502TMC3    C3 7459   2.586   0.846  14.950 -0.2746  0.6401 -0.2486
  502TMC3    C4 7460   2.673   0.591  15.027  0.4678  0.3977 -0.3971
  502TMC3    C5 7461   2.542   0.621  14.996 -0.6515 -0.2270  0.6825
  502TMC3    C6 7462   2.498   0.747  14.950 -0.8055  0.1903 -0.0983
  502TMC3     C 7463   2.887   0.687  15.114 -0.2879 -1.0707 -0.1077
  502TMC3     O 7464   2.980   0.761  15.099  0.3295 -0.3415  0.0167
  502TMC3     H 7465   2.788   0.901  15.002  0.7564 -0.5410 -0.7707
  502TMC3    H1 7466   2.707   0.493  15.059 -0.4020 -0.2703 -1.4668
  502TMC3    H2 7467   2.400   0.751  14.903 -1.9078 -2.6453  1.9305
  502TMC3    C7 7468   2.451   0.513  15.017 -1.0113 -0.1605 -0.4412
  502TMC3    C8 7469   2.545   0.989  14.938 -0.0499  0.2561 -0.4188
  502TMC3    O1 7470   2.500   0.405  15.005  0.6641 -0.4644 -0.2239
  502TMC3    O2 7471   2.636   1.070  14.917 -0.2164  0.3678  0.0899
  503MPD2     C 7472   4.660   1.223  17.024 -0.2046  0.4410  0.0346
  503MPD2    C1 7473   4.690   1.226  17.154 -0.8477  0.0180  0.2176
  503MPD2    C2 7474   0.043   1.122  17.212  0.4330  0.5295 -0.4673
  503MPD2    C3 7475   0.086   1.020  17.136  0.4758 -0.4046 -0.3405
  503MPD2    C4 7476   0.052   1.022  17.007  0.1795  0.5060 -0.1411
  503MPD2    C5 7477   4.701   1.123  16.955 -0.1635 -0.5864 -0.0241
  503MPD2     H 7478   0.055   1.114  17.320 -1.2471  0.9661 -0.2552
  503MPD2    H1 7479   0.074   0.935  16.946 -1.6081 -0.9455  1.2640
  503MPD2    H2 7480   4.597   1.302  16.985  0.4952  0.2976 -1.3786
  503MPD2    H3 7481   4.675   1.121  16.849  0.2218 -1.6752 -0.1002
  503MPD2     N 7482   0.162   0.919  17.203  0.3636  0.0835 -0.0841
  503MPD2    H5 7483   0.197   0.947  17.294 -0.4651  0.5606  0.0894
  503MPD2    N1 7484   4.639   1.326  17.235  0.1297  0.2333  0.9113
  503MPD2    H7 7485   4.688   1.345  17.321  1.4090 -0.1104  0.2552
  504TMC3    C1 7486   0.314   0.749  17.231  0.6754  0.6347  1.0056
  504TMC3    C2 7487   0.332   0.798  17.358 -0.0779 -0.3973 -0.3251
  504TMC3    C3 7488   0.435   0.744  17.423 -0.0835  0.5650  0.2382
  504TMC3    C4 7489   0.377   0.635  17.182 -0.2857  0.0895  0.3693
  504TMC3    C5 7490   0.477   0.580  17.265  0.0105  0.0977  0.0255
  504TMC3    C6 7491   0.511   0.636  17.379  0.4470  0.1273  0.3010
  504TMC3     C 7492   0.214   0.805  17.142 -0.4752  0.1209  0.6532
  504TMC3     O 7493   0.201   0.760  17.032  0.4418 -0.2761 -0.5197
  504TMC3     H 7494   0.266   0.872  17.402  1.6749  0.2703  1.1836
  504TMC3    H1 7495   0.368   0.612  17.076  0.1348  3.0617 -0.3132
  504TMC3    H2 7496   0.597   0.602  17.435  0.7590 -0.6646 -0.6729
  504TMC3    C7 7497   0.574   0.481  17.202 -1.2862 -0.0590  0.1084
  504TMC3    C8 7498   0.471   0.810  17.546  0.6798  0.3964 -0.1205
  504TMC3    O1 7499   0.563   0.457  17.083  0.0881 -0.2636 -0.0927
  504TMC3    O2 7500   0.440   0.927  17.562  0.5190 -0.8435 -0.2307
  505MPD2     C 7501   0.664   4.452  10.377 -0.2563 -0.1180 -0.8205
  505MPD2    C1 7502   0.679   4.333  10.311  0.2660 -0.3066 -0.3339
  505MPD2    C2 7503   0.809   4.278  10.312  0.3767  0.4943  0.0358
  505MPD2    C3 7504   0.911   4.326  10.392  0.4179  0.3265 -0.7504
  505MPD2    C4 7505   0.886   4.436  10.470  0.2106  0.3101 -0.2527
  505MPD2    C5 7506   0.764   4.500  10.458  0.2306 -0.0895 -0.7659
  505MPD2     H 7507   0.814   4.189  10.250 -2.7886  1.3812 -1.5603
  505MPD2    H1 7508   0.954   4.472  10.546  1.5168 -2.5488 -0.1024
  505MPD2    H2 7509   0.572   4.507  10.360 -0.9030 -1.2074 -0.9070
  505MPD2    H3 7510   0.739   4.589  10.514 -0.5339 -0.4318 -0.5630
  505MPD2     N 7511   1.041   4.275  10.406 -0.2076  0.5090 -0.9587
  505MPD2    H5 7512   1.108   4.320  10.469  1.8546 -1.4966 -1.7134
  505MPD2    N1 7513   0.567   4.277  10.234 -0.7771  0.0973 -0.0157
  505MPD2    H7 7514   0.485   4.337  10.236 -1.2457 -0.5203 -0.7161
  506TMC3    C1 7515   0.473   4.159  10.053 -0.5136 -0.3878 -0.5665
  506TMC3    C2 7516   0.440   4.264   9.973  0.2562  0.6733 -0.8613
  506TMC3    C3 7517   0.418   4.236   9.839  0.0896  0.4883  0.0514
  506TMC3    C4 7518   0.480   4.032  10.001 -0.1939  0.6214  0.8711
  506TMC3    C5 7519   0.459   4.003   9.868  0.4827  0.3199  0.0236
  506TMC3    C6 7520   0.439   4.107   9.779 -0.2037  0.3055  0.4956
  506TMC3     C 7521   0.573   4.174  10.148  0.1876 -0.0990 -0.6484
  506TMC3     O 7522   0.660   4.094  10.126  0.2555 -0.6143 -0.3272
  506TMC3     H 7523   0.432   4.367  10.006  1.1759  0.3625  0.3293
  506TMC3    H1 7524   0.492   3.946  10.066 -1.8318 -0.2501  0.0186
  506TMC3    H2 7525   0.425   4.103   9.672 -0.4396  1.9052  0.4704
  506TMC3    C7 7526   0.573   3.921   9.827  0.6258 -0.4148 -0.3926
  506TMC3    C8 7527   0.387   4.341   9.748  0.1138  0.5163 -0.0892
  506TMC3    O1 7528   0.557   3.874   9.714 -0.5894  0.5398  0.1159
  506TMC3    O2 7529   0.327   4.320   9.643 -0.3436  0.0946  0.3471
  507TMC3    C1 7530   0.981   0.695  14.817  0.3032  0.4948  0.8162
  507TMC3    C2 7531   0.884   0.682  14.726  0.8634 -0.3360 -0.1060
  507TMC3    C3 7532   0.921   0.662  14.593 -0.4661  0.7105  0.1159
  507TMC3    C4 7533   1.111   0.719  14.783  0.3025 -0.0718 -0.3304
  507TMC3    C5 7534   1.137   0.710  14.651  0.0423 -0.0613 -0.1842
  507TMC3    C6 7535   1.054   0.664  14.561  0.4830 -0.2421 -0.1926
  507TMC3     C 7536   0.956   0.699  14.963 -0.1372 -0.1708  0.2319
  507TMC3     O 7537   1.046   0.684  15.039  0.3839 -0.2691 -0.2344
  507TMC3     H 7538   0.778   0.666  14.746  1.3010 -2.6815  0.2928
  507TMC3    H1 7539   1.192   0.739  14.852  0.2834 -2.5475  0.3746
  507TMC3    H2 7540   1.082   0.645  14.458  3.8400  1.2550  0.4382
  507TMC3    C7 7541   1.223   0.820  14.602  0.2918 -0.2494 -0.4944
  507TMC3    C8 7542   0.857   0.753  14.492 -0.0086 -0.5903 -0.1852
  507TMC3    O1 7543   1.283   0.886  14.690 -0.3831 -0.1098 -0.8048
  507TMC3    O2 7544   0.922   0.781  14.395  0.0833  0.8347 -0.1460
  508MPD2     C 7545   1.750   3.224  16.012  0.2215  0.1937  0.2403
  508MPD2    C1 7546   1.869   3.269  15.966 -0.4385  0.4673 -0.1332
  508MPD2    C2 7547   1.879   3.295  15.828  0.3664  0.5780 -0.3681
  508MPD2    C3 7548   1.772   3.277  15.744 -0.0358  0.3815 -0.4148
  508MPD2    C4 7549   1.649   3.235  15.791 -0.0442 -0.0120 -0.5714
  508MPD2    C5 7550   1.641   3.211  15.927  0.2127  0.0906 -0.1344
  508MPD2     H 7551   1.966   3.351  15.794 -0.1036  1.8487  0.5233
  508MPD2    H1 7552   1.559   3.219  15.732 -1.3724  0.8247  1.2189
  508MPD2    H2 7553   1.730   3.207  16.118 -0.7966 -0.4408 -0.0567
  508MPD2    H3 7554   1.549   3.181  15.975  0.2913  1.6205  0.9743
  508MPD2     N 7555   1.801   3.301  15.603  0.0080  0.5266  0.3902
  508MPD2    H5 7556   1.901   3.307  15.592  0.0798  1.0187  1.3115
  508MPD2    N1 7557   1.970   3.294  16.049 -1.0705 -0.0514  0.3054
  508MPD2    H7 7558   1.945   3.293  16.147  1.9610  1.3396  1.0807
  509TMC3    C1 7559   1.720   3.476  15.170 -0.0558  0.2268  0.3471
  509TMC3    C2 7560   1.846   3.443  15.131  0.3967 -0.1674 -0.1734
  509TMC3    C3 7561   1.911   3.346  15.208 -0.1315  0.1750 -0.7914
  509TMC3    C4 7562   1.664   3.431  15.287 -0.4727 -0.5931 -0.5433
  509TMC3    C5 7563   1.738   3.349  15.372  0.1705 -0.0158  0.1576
  509TMC3    C6 7564   1.860   3.306  15.336  0.5231  0.4117 -1.0560
  509TMC3     C 7565   1.646   3.578  15.096  0.8310 -0.2854  0.5102
  509TMC3     O 7566   1.530   3.594  15.130  0.2292  0.0615  0.2162
  509TMC3     H 7567   1.883   3.470  15.033  0.6074 -0.2456 -0.1165
  509TMC3    H1 7568   1.562   3.460  15.309 -0.6585 -2.8353  1.5997
  509TMC3    H2 7569   1.914   3.240  15.402  0.5666  0.9243 -0.5796
  509TMC3    C7 7570   1.694   3.324  15.507 -0.7806 -0.6497  0.2159
  509TMC3    C8 7571   2.061   3.338  15.190  0.1332 -0.0187  0.0557
  509TMC3    O1 7572   1.571   3.334  15.521  0.7056 -0.0628  0.3523
  509TMC3    O2 7573   2.112   3.232  15.230  0.4559 -0.2442  0.1783
  510MPD2     C 7574   4.510   0.169  14.135  0.1372 -0.1682 -0.0407
  510MPD2    C1 7575   4.581   0.143  14.252  0.3486  0.9823  0.2626
  510MPD2    C2 7576   4.715   0.149  14.247 -0.2146 -0.3370 -0.0549
  510MPD2    C3 7577   0.066   0.201  14.139  0.5425 -0.8844  1.0348
  510MPD2    C4 7578   4.717   0.239  14.029 -0.3556 -0.2214 -0.9843
  510MPD2    C5 7579   4.582   0.217  14.032 -0.1104 -0.2849 -0.9098
  510MPD2     H 7580   0.042   0.096  14.326 -0.5449 -1.7929 -0.8279
  510MPD2    H1 7581   0.036   0.280  13.938  0.6453  1.5400  0.2600
  510MPD2    H2 7582   4.404   0.188  14.130  0.9710  3.9274 -1.8731
  510MPD2    H3 7583   4.536   0.243  13.937  1.9409  1.3065 -1.4523
  510MPD2     N 7584   0.205   0.193  14.144 -0.3594 -0.3365  0.8035
  510MPD2    H5 7585   0.245   0.149  14.227  0.1964 -2.3098 -0.5179
  510MPD2    N1 7586   4.514   0.092  14.366  0.2773 -0.0532 -0.2825
  510MPD2    H7 7587   4.418   0.061  14.355  1.2958 -2.5430 -2.2808
  511TMC3    C1 7588   4.489   0.015  14.585 -0.1505  0.8418  0.0607
  511TMC3    C2 7589   4.451   0.060  14.704 -0.1788 -0.1087 -0.2497
  511TMC3    C3 7590   4.409   4.690  14.794  1.0849  0.6875  0.0638
  511TMC3    C4 7591   4.468   4.606  14.560  0.2094 -0.6633 -0.1978
  511TMC3    C5 7592   4.426   4.512  14.650  0.3842  0.3622  0.5849
  511TMC3    C6 7593   4.393   4.551  14.775  0.0357  0.8074 -0.5404
  511TMC3     C 7594   4.553   0.113  14.490  0.5177  0.4794 -0.4168
  511TMC3     O 7595   4.613   0.209  14.540 -0.8080  1.1717  0.1850
  511TMC3     H 7596   4.475   0.162  14.732  0.2113  0.1715 -1.6495
  511TMC3    H1 7597   4.494   4.575  14.460 -0.1953  0.1619 -0.5619
  511TMC3    H2 7598   4.367   4.485  14.856  0.9179  1.7368  0.5005
  511TMC3    C7 7599   4.416   4.375  14.609 -0.5980  0.3884  0.0924
  511TMC3    C8 7600   4.370   0.027  14.924 -0.1310 -0.0200 -0.0430
  511TMC3    O1 7601   4.477   4.340  14.510 -0.1674 -0.8751  0.3349
  511TMC3    O2 7602   4.347   0.149  14.942 -0.0932  0.3689 -0.0420
  512TMC3    C1 7603   3.349   4.236  12.954  0.4500  0.3961  0.2380
  512TMC3    C2 7604   3.318   4.166  13.069  0.8717 -0.1256 -0.0159
  512TMC3    C3 7605   3.405   4.085  13.127  0.1475 -0.1416 -0.1543
  512TMC3    C4 7606   3.467   4.209  12.889  0.2953 -0.3282 -0.4672
  512TMC3    C5 7607   3.552   4.118  12.946  0.0762  0.6643  0.3733
  512TMC3    C6 7608   3.524   4.060  13.064  0.8610 -0.1304 -0.3058
  512TMC3     C 7609   3.258   4.339  12.913  0.4092 -0.6987 -0.3604
  512TMC3     O 7610   3.148   4.323  12.962  0.5060  0.2004  0.2457
  512TMC3     H 7611   3.236   4.193  13.135  0.2971  1.3300 -1.3296
  512TMC3    H1 7612   3.499   4.264  12.802 -0.6185 -0.5473 -0.9410
  512TMC3    H2 7613   3.592   3.988  13.107  0.9928  0.1681 -0.0124
  512TMC3    C7 7614   3.671   4.082  12.873 -0.2998 -0.0414 -0.3977
  512TMC3    C8 7615   3.409   4.084  13.274 -0.2172  0.3923 -0.3756
  512TMC3    O1 7616   3.704   4.165  12.789 -0.6051 -0.8173 -0.0689
  512TMC3    O2 7617   3.445   3.984  13.336  0.7979 -0.1037 -0.2520
  513MPD2     C 7618   0.658   3.830  13.593 -0.2403 -0.2094  0.2829
  513MPD2    C1 7619   0.691   3.927  13.497 -0.3102 -0.2648 -0.2705
  513MPD2    C2 7620   0.778   4.028  13.525  0.0404  0.5055  0.3130
  513MPD2    C3 7621   0.843   4.036  13.644  0.0889 -0.3357  0.4732
  513MPD2    C4 7622   0.816   3.944  13.739 -0.2073 -0.4539 -0.5231
  513MPD2    C5 7623   0.722   3.844  13.719 -0.4309  0.2836 -0.2310
  513MPD2     H 7624   0.799   4.101  13.448  0.1144  1.6373  1.4075
  513MPD2    H1 7625   0.871   3.949  13.832  2.9917  0.9128 -2.4913
  513MPD2    H2 7626   0.589   3.748  13.581 -1.4950  0.9206 -0.3038
  513MPD2    H3 7627   0.703   3.768  13.794  0.6916  1.2323  0.9977
  513MPD2     N 7628   0.937   4.142  13.666 -0.6379 -0.0525 -0.4615
  513MPD2    H5 7629   0.955   4.202  13.585 -1.2617  2.1015  1.0014
  513MPD2    N1 7630   0.624   3.933  13.373 -0.4247  0.3425 -0.1006
  513MPD2    H7 7631   0.655   4.011  13.315  1.9086 -2.0077 -1.9948
  514TMC3    C1 7632   0.526   3.876  13.171  0.5074  0.1618 -0.3700
  514TMC3    C2 7633   0.545   3.784  13.069 -0.4163  0.4887 -0.6986
  514TMC3    C3 7634   0.611   3.829  12.955 -0.0075  0.1353  0.3574
  514TMC3    C4 7635   0.532   4.013  13.152 -0.9482 -0.1441 -0.2629
  514TMC3    C5 7636   0.606   4.059  13.041 -0.0438 -0.2442 -0.7888
  514TMC3    C6 7637   0.634   3.967  12.941 -0.0563 -0.2175 -0.6230
  514TMC3     C 7638   0.551   3.836  13.310 -0.1335  0.2280  0.2204
  514TMC3     O 7639   0.527   3.720  13.340 -0.2871  0.4090  0.4765
  514TMC3     H 7640   0.545   3.680  13.098  1.6513  0.8103  0.5092
  514TMC3    H1 7641   0.514   4.076  13.238  0.6955  0.0156 -0.0515
  514TMC3    H2 7642   0.678   4.000  12.847  2.0447 -1.5799 -0.1150
  514TMC3    C7 7643   0.719   4.133  13.096 -0.4441  0.0250  0.2688
  514TMC3    C8 7644   0.667   3.733  12.861 -0.2882  0.5471  0.3677
  514TMC3    O1 7645   0.733   4.132  13.217 -0.1033 -0.6145 -0.3091
  514TMC3    O2 7646   0.663   3.617  12.896 -0.0916 -0.3101 -0.8822
  515MPD2     C 7647   3.743   1.079  14.258 -0.3202 -0.0289 -0.9091
  515MPD2    C1 7648   3.668   1.094  14.371 -0.2727 -0.4930 -0.3920
  515MPD2    C2 7649   3.734   1.076  14.491  0.1522 -0.2457  0.1562
  515MPD2    C3 7650   3.863   1.041  14.507  0.3214  0.4069  0.2429
  515MPD2    C4 7651   3.932   1.021  14.393  0.4626 -0.6835 -0.1633
  515MPD2    C5 7652   3.871   1.029  14.268 -0.5372  0.4170 -0.1734
  515MPD2     H 7653   3.668   1.084  14.577 -0.7249  2.4932 -0.7745
  515MPD2    H1 7654   4.037   0.994  14.392  1.0883  1.7915 -1.1079
  515MPD2    H2 7655   3.713   1.084  14.154  0.7153  0.0460 -1.2047
  515MPD2    H3 7656   3.929   1.016  14.177 -3.2467 -0.0358 -1.8124
  515MPD2     N 7657   3.911   1.039  14.642  0.1228  0.2760  0.5134
  515MPD2    H5 7658   3.852   1.079  14.713 -1.0688  0.6492 -0.6788
  515MPD2    N1 7659   3.524   1.110  14.370  0.1310  0.0963  0.1193
  515MPD2    H7 7660   3.485   1.109  14.463  1.6583 -0.1990  0.7606
  516TMC3    C1 7661   3.307   1.099  14.283 -0.3865 -0.4903 -0.5230
  516TMC3    C2 7662   3.212   1.147  14.202 -0.3244  0.3255  0.1409
  516TMC3    C3 7663   3.086   1.111  14.231  0.7527  0.0039 -0.4284
  516TMC3    C4 7664   3.268   1.001  14.376  0.1079  0.3268 -1.0719
  516TMC3    C5 7665   3.136   0.958  14.396  0.7560 -0.0789 -0.6195
  516TMC3    C6 7666   3.038   1.017  14.320  0.9326  0.6879  0.4541
  516TMC3     C 7667   3.447   1.129  14.260 -0.5720 -0.6999 -0.1251
  516TMC3     O 7668   3.486   1.161  14.147  0.1753 -0.2339  0.3326
  516TMC3     H 7669   3.240   1.201  14.113 -0.4912 -0.2678 -0.2743
  516TMC3    H1 7670   3.342   0.936  14.420  0.0897  1.3658  0.4723
  516TMC3    H2 7671   2.932   0.996  14.332  1.0839 -1.2102 -1.5021
  516TMC3    C7 7672   3.108   0.836  14.471 -1.1027 -0.1749  0.0278
  516TMC3    C8 7673   2.992   1.224  14.215  0.6707 -0.7317 -0.1618
  516TMC3    O1 7674   3.201   0.781  14.530  0.0090  0.4250  0.0532
  516TMC3    O2 7675   2.873   1.197  14.219  0.2116 -0.3813  0.1880
  517MPD2     C 7676   3.034   2.453   0.584  0.3305  0.3856  0.6520
  517MPD2    C1 7677   3.155   2.397   0.570  0.7111 -0.0554  0.0314
  517MPD2    C2 7678   3.245   2.406   0.678 -0.7442 -0.9272  0.1113
  517MPD2    C3 7679   3.220   2.475   0.790 -0.3179 -0.4492  0.3216
  517MPD2    C4 7680   3.097   2.541   0.800 -0.0112  0.2276  0.1738
  517MPD2    C5 7681   3.000   2.517   0.700 -0.4905  0.6158 -0.0518
  517MPD2     H 7682   3.339   2.353   0.666 -1.0337 -1.2106 -0.9486
  517MPD2    H1 7683   3.077   2.601   0.888  1.2254  1.1588 -0.1840
  517MPD2    H2 7684   2.953   2.453   0.512  0.1620 -0.2407  0.8402
  517MPD2    H3 7685   2.899   2.551   0.715  0.5347  2.8020  1.8289
  517MPD2     N 7686   3.308   2.504   0.895  0.0157 -0.1763 -0.2622
  517MPD2    H5 7687   3.273   2.562   0.971  1.6347 -1.8873  1.7975
  517MPD2    N1 7688   3.191   2.326   0.452  0.1943 -0.0205  0.1119
  517MPD2    H7 7689   3.285   2.289   0.440 -0.8586 -2.2409 -1.2653
  518TMC3    C1 7690   3.170   2.178   0.272  0.3243  0.0030 -0.0852
  518TMC3    C2 7691   3.093   2.094   0.196 -0.2336  0.6886  0.4507
  518TMC3    C3 7692   3.140   2.035   0.081 -0.3047  0.5071 -0.3550
  518TMC3    C4 7693   3.293   2.204   0.229 -0.0813  0.2493 -0.5508
  518TMC3    C5 7694   3.348   2.144   0.117  0.3586  0.4760 -0.1199
  518TMC3    C6 7695   3.269   2.063   0.041 -0.1899  0.4467  0.1682
  518TMC3     C 7696   3.109   2.269   0.358 -0.7231 -0.1752 -0.2793
  518TMC3     O 7697   2.990   2.280   0.346 -0.2241 -0.0231  0.1748
  518TMC3     H 7698   2.993   2.070   0.230 -0.7134 -0.3627 -1.7306
  518TMC3    H1 7699   3.355   2.273   0.285  0.3894 -0.0903 -0.6580
  518TMC3    H2 7700   3.314   2.036  17.638  1.1465  0.5337  0.7738
  518TMC3    C7 7701   3.487   2.169   0.070 -0.2845  0.3030 -1.2715
  518TMC3    C8 7702   3.074   1.917   0.034  0.3915 -0.4336 -0.6271
  518TMC3    O1 7703   3.536   2.263   0.130  0.5982 -0.1030  0.0097
  518TMC3    O2 7704   2.953   1.924   0.038  0.4989 -0.2998  0.2350
  519MPD2     C 7705   0.092   1.096  14.284  0.1427 -0.4449  0.2721
  519MPD2    C1 7706   0.106   1.131  14.154 -0.2320 -0.4866  1.2804
  519MPD2    C2 7707   0.154   1.041  14.060 -0.0131  0.2153  0.3848
  519MPD2    C3 7708   0.214   0.929  14.100 -0.7517  0.8123  0.1851
  519MPD2    C4 7709   0.206   0.893  14.232  0.0485  0.2006  0.1198
  519MPD2    C5 7710   0.147   0.973  14.321 -0.0088 -0.0514  0.5806
  519MPD2     H 7711   0.157   1.066  13.955 -0.2402  0.2760  0.3918
  519MPD2    H1 7712   0.241   0.795  14.260  0.3681 -0.6754 -3.3785
  519MPD2    H2 7713   0.046   1.148  14.368  0.1836 -0.2889  0.1971
  519MPD2    H3 7714   0.128   0.932  14.420  0.3435  1.2724  1.1960
  519MPD2     N 7715   0.276   0.828  14.016 -0.1129 -0.2869  0.1928
  519MPD2    H5 7716   0.321   0.746  14.057  2.4319  1.2963  0.5579
  519MPD2    N1 7717   0.023   1.237  14.108  0.1376 -0.6492  0.5066
  519MPD2    H7 7718   4.682   1.274  14.177  0.0739  1.9138 -0.9361
  520TMC3    C1 7719   0.274   0.678  13.835  0.2041 -0.1615 -1.1693
  520TMC3    C2 7720   0.201   0.659  13.724  0.1189  0.0723  0.7637
  520TMC3    C3 7721   0.252   0.587  13.620 -0.1482 -0.2639  0.0942
  520TMC3    C4 7722   0.399   0.628  13.853  0.1057  0.2417  0.1802
  520TMC3    C5 7723   0.447   0.551  13.753 -0.0556  0.1760 -0.3000
  520TMC3    C6 7724   0.380   0.533  13.633  0.2699 -1.2507  0.0092
  520TMC3     C 7725   0.242   0.809  13.886 -0.2932 -0.0357  0.0361
  520TMC3     O 7726   0.164   0.883  13.827 -0.6956  0.4564 -1.1129
  520TMC3     H 7727   0.105   0.707  13.708 -0.4344 -0.6891  1.7531
  520TMC3    H1 7728   0.465   0.651  13.936 -0.3728  1.1183  0.3114
  520TMC3    H2 7729   0.420   0.472  13.553  0.1647 -1.4678  0.1232
  520TMC3    C7 7730   0.582   0.489  13.779  0.8700 -0.0929  0.1342
  520TMC3    C8 7731   0.190   0.570  13.483  0.0856  0.0411  0.1822
  520TMC3    O1 7732   0.628   0.466  13.888 -0.4837  0.6512 -0.1977
  520TMC3    O2 7733   0.256   0.521  13.391 -0.3343 -0.0749 -0.2625
  521MPD2     C 7734   1.170   3.887  17.211 -0.1056 -0.3086 -0.6900
  521MPD2    C1 7735   1.204   3.748  17.213 -0.1345 -0.4454  0.3133
  521MPD2    C2 7736   1.338   3.714  17.220  0.1477 -0.1470  0.2926
  521MPD2    C3 7737   1.437   3.802  17.207 -0.1469 -0.3445  0.7021
  521MPD2    C4 7738   1.402   3.937  17.188  0.3538  0.0325 -0.5478
  521MPD2    C5 7739   1.270   3.979  17.203  0.0799 -0.8652  0.2084
  521MPD2     H 7740   1.363   3.608  17.229  1.1450 -0.1582 -2.6207
  521MPD2    H1 7741   1.481   4.010  17.176 -0.6113  1.1406 -0.1442
  521MPD2    H2 7742   1.069   3.926  17.217 -0.2257 -0.6663 -0.3270
  521MPD2    H3 7743   1.248   4.084  17.189 -0.3639 -1.0605 -0.5599
  521MPD2     N 7744   1.570   3.756  17.203  1.0461 -0.4357  0.0619
  521MPD2    H5 7745   1.581   3.655  17.209  0.8124 -0.5184 -0.9178
  521MPD2    N1 7746   1.097   3.654  17.226 -0.4009  0.4784  0.0172
  521MPD2    H7 7747   1.004   3.693  17.238 -0.8294 -0.7052  0.5504
  522TMC3    C1 7748   1.799   3.748  17.152 -0.1189 -0.0076 -0.9196
  522TMC3    C2 7749   1.910   3.821  17.120  0.5336 -0.3064  0.1909
  522TMC3    C3 7750   2.016   3.753  17.070  0.1472  0.0468 -0.0179
  522TMC3    C4 7751   1.785   3.621  17.114  0.6623 -0.3005 -1.0633
  522TMC3    C5 7752   1.884   3.565  17.035 -0.2253 -0.1824 -0.3292
  522TMC3    C6 7753   2.007   3.624  17.026  0.2487  0.0535 -0.3079
  522TMC3     C 7754   1.682   3.826  17.179 -0.1065  0.4172 -0.9611
  522TMC3     O 7755   1.694   3.945  17.171  0.1398  0.0129 -0.3627
  522TMC3     H 7756   1.910   3.925  17.150  2.1161 -0.9070  2.2413
  522TMC3    H1 7757   1.690   3.572  17.127  1.2945 -1.4639 -0.8721
  522TMC3    H2 7758   2.086   3.568  16.976  1.0142  0.1411  0.7999
  522TMC3    C7 7759   1.849   3.511  16.902  0.0546  0.2935  0.0902
  522TMC3    C8 7760   2.105   3.837  16.986 -0.3153 -0.1530 -0.2155
  522TMC3    O1 7761   1.932   3.531  16.814 -0.6939 -0.0936 -0.4689
  522TMC3    O2 7762   2.156   3.944  17.028 -0.2995 -0.7236 -0.3134
  523MPD2     C 7763   3.580   3.377  10.130 -0.0564  0.5137  0.2405
  523MPD2    C1 7764   3.534   3.306  10.020 -0.4705 -0.3101 -0.7334
  523MPD2    C2 7765   3.414   3.350   9.965 -0.5513  0.2050 -0.0675
  523MPD2    C3 7766   3.363   3.480   9.997  0.4725  0.2172 -1.1496
  523MPD2    C4 7767   3.422   3.553  10.099  0.9063 -0.1643 -0.0965
  523MPD2    C5 7768   3.524   3.496  10.167 -0.2634  0.0460  0.5741
  523MPD2     H 7769   3.355   3.283   9.903 -0.1683  0.2600 -0.4927
  523MPD2    H1 7770   3.397   3.649  10.142  2.7800  0.6827 -0.8899
  523MPD2    H2 7771   3.664   3.333  10.183 -0.5690  1.0268  1.4824
  523MPD2    H3 7772   3.564   3.549  10.253 -2.4354  0.8846  1.0643
  523MPD2     N 7773   3.234   3.527   9.951  0.6941  0.4295 -0.1572
  523MPD2    H5 7774   3.212   3.617   9.993  0.1210  2.4824 -4.8937
  523MPD2    N1 7775   3.593   3.190   9.977  0.3939  0.3589  0.5127
  523MPD2    H7 7776   3.667   3.154  10.037  1.7032  0.7921 -0.8588
  524TMC3    C1 7777   3.033   3.533   9.831 -0.9930  0.5987  0.2233
  524TMC3    C2 7778   2.964   3.502   9.716  0.1317  0.8804  0.2280
  524TMC3    C3 7779   2.850   3.581   9.687 -0.2045 -0.5784 -0.1679
  524TMC3    C4 7780   2.989   3.624   9.920  0.9811 -0.0918  0.0999
  524TMC3    C5 7781   2.878   3.696   9.893 -0.3328  0.6714  0.4075
  524TMC3    C6 7782   2.804   3.673   9.776  0.4237 -1.2027 -0.0261
  524TMC3     C 7783   3.154   3.463   9.862 -0.6647  0.6987  0.1605
  524TMC3     O 7784   3.169   3.354   9.814  0.1302  0.2350  0.3306
  524TMC3     H 7785   3.003   3.421   9.655 -2.5285 -0.7781  0.7330
  524TMC3    H1 7786   3.038   3.637  10.016 -0.9138  0.2318  1.0182
  524TMC3    H2 7787   2.712   3.724   9.750 -0.0693 -1.2510  1.6321
  524TMC3    C7 7788   2.850   3.807   9.982  0.1974 -0.2315  0.7231
  524TMC3    C8 7789   2.758   3.538   9.585 -0.2547  0.3903  0.4764
  524TMC3    O1 7790   2.937   3.834  10.064  0.4491 -0.6182 -0.1046
  524TMC3    O2 7791   2.639   3.563   9.593 -0.2583  0.0451 -0.0743
  525MPD2     C 7792   1.614   0.509  14.053  0.1318 -0.3593  0.2612
  525MPD2    C1 7793   1.712   0.522  14.154 -0.8393 -0.3599 -0.1171
  525MPD2    C2 7794   1.796   0.630  14.143 -0.3180 -0.4122 -0.5437
  525MPD2    C3 7795   1.765   0.734  14.056  0.0743 -0.0530  0.2345
  525MPD2    C4 7796   1.671   0.722  13.953  0.0746  0.4098 -0.2654
  525MPD2    C5 7797   1.600   0.604  13.959  0.2315  0.4305  0.5509
  525MPD2     H 7798   1.878   0.633  14.215 -1.5237  0.5590  0.7870
  525MPD2    H1 7799   1.659   0.786  13.866  0.7775  1.2472  0.2647
  525MPD2    H2 7800   1.551   0.420  14.049  2.5173 -2.0607  0.4753
  525MPD2    H3 7801   1.516   0.596  13.890  2.1359  0.4930 -1.7972
  525MPD2     N 7802   1.824   0.860  14.083  0.3163  0.1812 -0.1013
  525MPD2    H5 7803   1.862   0.874  14.176 -0.6969 -2.0061  0.6484
  525MPD2    N1 7804   1.740   0.417  14.246 -0.0506  0.0202  0.1976
  525MPD2    H7 7805   1.826   0.425  14.298 -0.3369  0.7825  0.5531
  526TMC3    C1 7806   1.720   0.226  14.377  0.0971  0.0479 -0.0865
  526TMC3    C2 7807   1.647   0.159  14.470 -0.3336 -0.5731 -0.1392
  526TMC3    C3 7808   1.712   0.075  14.557  0.0985  0.4016  0.2633
  526TMC3    C4 7809   1.856   0.202  14.367 -0.0350 -0.6941 -0.1617
  526TMC3    C5 7810   1.919   0.124  14.462  0.4923 -0.1301  0.6551
  526TMC3    C6 7811   1.847   0.055  14.548 -0.4907 -0.0474  0.3324
  526TMC3     C 7812   1.654   0.318  14.287  0.2112 -0.3357 -0.1768
  526TMC3     O 7813   1.533   0.322  14.282  0.1410  0.2850 -0.0113
  526TMC3     H 7814   1.539   0.152  14.467 -0.2524 -1.8429 -0.0680
  526TMC3    H1 7815   1.908   0.232  14.277  1.2552 -1.5004  0.3180
  526TMC3    H2 7816   1.885   4.697  14.609 -0.0112 -0.0847 -0.0171
  526TMC3    C7 7817   2.044   0.061  14.437 -0.5097 -0.2216  0.9478
  526TMC3    C8 7818   1.649   0.027  14.675  0.0864  0.0928 -0.0640
  526TMC3    O1 7819   2.080   4.687  14.501  0.2846 -0.1522 -0.3134
  526TMC3    O2 7820   1.716   4.687  14.759 -0.2155 -0.0120  0.5712
  527MPD2     C 7821   4.333   2.456   1.015 -0.1146 -0.1878  0.5526
  527MPD2    C1 7822   4.408   2.441   1.132 -0.2962 -0.6768  0.0943
  527MPD2    C2 7823   4.543   2.455   1.120 -0.6106  0.0064  0.2179
  527MPD2    C3 7824   4.601   2.498   1.003  1.1506 -0.0056 -0.1016
  527MPD2    C4 7825   4.519   2.508   0.889 -0.6640 -0.2033 -0.6961
  527MPD2    C5 7826   4.383   2.487   0.896  0.1252  0.4156 -0.4936
  527MPD2     H 7827   4.598   2.445   1.213 -1.9451 -0.5606  0.9406
  527MPD2    H1 7828   4.559   2.554   0.799  0.4296  0.2080 -0.0021
  527MPD2    H2 7829   4.225   2.447   1.020  0.1199 -3.4907 -0.5194
  527MPD2    H3 7830   4.320   2.516   0.813  0.1306 -0.7044 -0.8983
  527MPD2     N 7831   0.015   2.533   1.003  0.0448 -0.3266 -0.1492
  527MPD2    H5 7832   0.053   2.537   1.097  1.0173  1.1687 -0.6028
  527MPD2    N1 7833   4.357   2.409   1.262 -0.2710 -0.0561 -0.1927
  527MPD2    H7 7834   4.428   2.382   1.330 -2.2133 -4.2996  0.0996
  528TMC3    C1 7835   4.219   2.421   1.441  0.0376  0.0103  0.7378
  528TMC3    C2 7836   4.319   2.464   1.528 -0.1155  0.1034  0.1424
  528TMC3    C3 7837   4.311   2.437   1.657  0.2151  0.5952  0.5226
  528TMC3    C4 7838   4.101   2.380   1.498 -0.2284 -0.0427 -0.0867
  528TMC3    C5 7839   4.081   2.383   1.635 -0.5504 -0.4311  0.0462
  528TMC3    C6 7840   4.191   2.399   1.717  0.9461  0.1676 -0.6034
  528TMC3     C 7841   4.225   2.415   1.295 -0.0994 -0.8238 -0.5466
  528TMC3     O 7842   4.129   2.402   1.222  0.1861 -0.0777 -0.0980
  528TMC3     H 7843   4.416   2.494   1.489  0.1530 -0.7574  0.1386
  528TMC3    H1 7844   4.028   2.358   1.421  0.8644 -0.3300 -1.0477
  528TMC3    H2 7845   4.190   2.369   1.821  0.8650  0.1132 -0.6209
  528TMC3    C7 7846   3.980   2.301   1.692  0.4054 -0.2201  0.2114
  528TMC3    C8 7847   4.422   2.470   1.738 -0.3374 -0.2253  0.0103
  528TMC3    O1 7848   4.000   2.227   1.794 -0.4320 -0.1944 -0.3133
  528TMC3    O2 7849   4.524   2.507   1.682  0.3427 -0.8573 -0.1366
  529MPD2     C 7850   2.921   1.206   0.439  0.3897  0.0086 -0.0910
  529MPD2    C1 7851   2.830   1.103   0.411 -0.1183 -0.0805 -0.1754
  529MPD2    C2 7852   2.820   1.051   0.279 -0.4152 -0.7703 -0.5523
  529MPD2    C3 7853   2.906   1.094   0.181  0.0580  0.1253 -0.1842
  529MPD2    C4 7854   2.993   1.195   0.209  0.9930  0.0167 -0.7572
  529MPD2    C5 7855   3.002   1.251   0.336  0.8637 -1.1470  0.2853
  529MPD2     H 7856   2.747   0.972   0.262  1.5407 -2.2740 -2.0043
  529MPD2    H1 7857   3.030   1.249   0.123 -2.1985  1.4664 -1.2368
  529MPD2    H2 7858   2.915   1.266   0.529 -0.6744  0.5644 -0.5447
  529MPD2    H3 7859   3.057   1.343   0.348  0.0707 -0.6421  0.0161
  529MPD2     N 7860   2.893   1.046   0.046 -0.4861  0.0447 -0.2683
  529MPD2    H5 7861   2.953   1.090  17.669  1.2715 -3.2118 -0.7869
  529MPD2    N1 7862   2.732   1.066   0.503  0.6355  0.4780  0.5734
  529MPD2    H7 7863   2.659   1.013   0.456  1.0759  0.8854 -0.5660
  530TMC3    C1 7864   2.598   1.042   0.692 -0.2237  0.4686  0.0593
  530TMC3    C2 7865   2.563   1.088   0.814 -0.6071 -0.0548 -0.0195
  530TMC3    C3 7866   2.481   1.018   0.894 -0.6424 -0.1712  0.0707
  530TMC3    C4 7867   2.535   0.929   0.642  0.3975 -0.0890  0.2718
  530TMC3    C5 7868   2.444   0.861   0.723  0.4371 -0.0722  0.3307
  530TMC3    C6 7869   2.420   0.903   0.852  0.2228 -0.6588  0.5504
  530TMC3     C 7870   2.715   1.105   0.636  0.1065  0.3845  0.0425
  530TMC3     O 7871   2.802   1.153   0.705 -0.3687 -0.2695 -0.0417
  530TMC3     H 7872   2.626   1.165   0.857  2.4150 -0.4192 -3.7212
  530TMC3    H1 7873   2.539   0.908   0.536 -1.6919  0.0433  0.1616
  530TMC3    H2 7874   2.340   0.866   0.915 -0.6638  1.0329  0.3831
  530TMC3    C7 7875   2.394   0.733   0.677 -0.0163 -0.3154 -0.8153
  530TMC3    C8 7876   2.470   1.064   1.031 -0.8317  0.3313  0.3434
  530TMC3    O1 7877   2.444   0.695   0.573  0.0750  1.0963 -0.5553
  530TMC3    O2 7878   2.501   1.179   1.056  0.2391 -0.2277  0.1675
  531MPD2     C 7879   1.185   4.347  13.044  0.6237 -0.2649  0.2503
  531MPD2    C1 7880   1.113   4.323  13.162  0.0184  0.4032  0.5405
  531MPD2    C2 7881   0.983   4.276  13.142 -0.5193  0.3815 -0.2489
  531MPD2    C3 7882   0.933   4.241  13.016 -0.4355  0.4631  0.5962
  531MPD2    C4 7883   1.008   4.277  12.908 -0.3280  0.4920  0.3173
  531MPD2    C5 7884   1.132   4.328  12.919  1.1518 -0.0964 -0.2651
  531MPD2     H 7885   0.916   4.240  13.219 -1.1570 -2.0419 -1.9444
  531MPD2    H1 7886   0.969   4.253  12.810 -0.4874 -1.3521  0.8248
  531MPD2    H2 7887   1.291   4.370  13.049  0.7485 -1.0865  1.3402
  531MPD2    H3 7888   1.199   4.342  12.835  1.3548 -0.4715 -0.1666
  531MPD2     N 7889   0.803   4.182  12.994  0.3898 -0.1009  0.0322
  531MPD2    H5 7890   0.780   4.163  12.897 -1.1191 -0.9422  0.5617
  531MPD2    N1 7891   1.167   4.343  13.292 -0.6686 -0.1665  0.6947
  531MPD2    H7 7892   1.257   4.390  13.291  0.8052 -3.0998 -1.4712
  532TMC3    C1 7893   1.178   4.361  13.525 -0.5931  0.0785  0.1595
  532TMC3    C2 7894   1.092   4.332  13.633 -0.2833 -0.3457  0.2604
  532TMC3    C3 7895   1.132   4.245  13.734 -0.1130 -0.1100 -0.1815
  532TMC3    C4 7896   1.297   4.300  13.520 -0.2175 -0.4938 -0.0874
  532TMC3    C5 7897   1.329   4.211  13.622  0.1271 -0.0799  0.1035
  532TMC3    C6 7898   1.250   4.183  13.731  0.3938 -0.3460 -0.4757
  532TMC3     C 7899   1.098   4.344  13.409  0.5871  0.2789  1.1793
  532TMC3     O 7900   0.985   4.302  13.441  0.2659 -0.3402 -0.2895
  532TMC3     H 7901   1.007   4.398  13.640  1.6815  1.8159  3.7100
  532TMC3    H1 7902   1.385   4.320  13.460 -2.6504 -0.1480 -3.5428
  532TMC3    H2 7903   1.282   4.110  13.804  0.2987 -1.2486 -1.3301
  532TMC3    C7 7904   1.471   4.177  13.643 -0.1739  0.0531 -0.4375
  532TMC3    C8 7905   1.025   4.158  13.774 -0.6303  0.3801  1.0394
  532TMC3    O1 7906   1.546   4.271  13.626 -0.5542 -0.5149  0.2816
  532TMC3    O2 7907   1.049   4.072  13.856 -0.0706  0.0720 -0.2028
  533TMC3    C1 7908   1.800   1.097  14.090 -0.1328 -0.1047  0.2827
  533TMC3    C2 7909   1.898   1.196  14.077  0.1518 -0.0725 -0.2340
  533TMC3    C3 7910   1.886   1.300  14.171 -0.5549 -0.2354  0.3058
  533TMC3    C4 7911   1.713   1.089  14.194  0.2692 -0.4300  0.1267
  533TMC3    C5 7912   1.712   1.196  14.283 -0.0543 -0.2929  0.1861
  533TMC3    C6 7913   1.799   1.298  14.280 -0.5049  0.2122 -0.1879
  533TMC3     C 7914   1.808   0.975  14.012  0.4373  0.3338  0.4700
  533TMC3     O 7915   1.792   0.980  13.889 -0.2319 -0.4029  0.3258
  533TMC3     H 7916   1.966   1.202  13.993 -1.6651  2.0749 -1.5456
  533TMC3    H1 7917   1.643   1.007  14.198 -2.0549  1.4381 -2.3200
  533TMC3    H2 7918   1.787   1.379  14.351 -2.3496  1.4478 -1.9086
  533TMC3    C7 7919   1.673   1.141  14.416 -0.7239 -0.6422  0.1042
  533TMC3    C8 7920   1.997   1.388  14.196  0.0604 -0.1655 -0.0662
  533TMC3    O1 7921   1.634   1.021  14.412 -0.8478 -0.4218 -0.1416
  533TMC3    O2 7922   1.962   1.491  14.255  0.3670 -0.8457 -0.5027
  534MPD2     C 7923   4.572   1.175   1.928  0.1577  0.1006 -0.5690
  534MPD2    C1 7924   4.555   1.308   1.896 -0.2945  0.2226 -0.6048
  534MPD2    C2 7925   4.441   1.345   1.826  1.1632  0.6387 -0.0170
  534MPD2    C3 7926   4.341   1.256   1.791  0.5413 -0.2152  0.8942
  534MPD2    C4 7927   4.359   1.128   1.834 -1.0859  0.3395 -0.6092
  534MPD2    C5 7928   4.472   1.089   1.898 -0.7313 -0.2280 -0.6334
  534MPD2     H 7929   4.430   1.448   1.791 -1.5017 -0.0289 -1.1478
  534MPD2    H1 7930   4.294   1.045   1.809  0.4343 -0.2973 -2.4438
  534MPD2    H2 7931   4.665   1.139   1.971 -0.7348  0.8289  1.9557
  534MPD2    H3 7932   4.486   0.986   1.930  1.2613  0.6116  1.1448
  534MPD2     N 7933   4.224   1.277   1.715  0.0491 -0.2553  0.6331
  534MPD2    H5 7934   4.171   1.194   1.690 -0.6716  0.1777  0.7209
  534MPD2    N1 7935   4.644   1.412   1.926 -0.0678  0.3115 -0.1387
  534MPD2    H7 7936   4.612   1.503   1.893 -0.3197 -0.0716 -0.9603
  535TMC3    C1 7937   4.075   1.395   1.588  0.1230 -0.3859 -0.5777
  535TMC3    C2 7938   3.959   1.389   1.658 -0.3333 -0.4762  0.0241
  535TMC3    C3 7939   3.856   1.460   1.609  0.1193 -0.0132 -0.1376
  535TMC3    C4 7940   4.087   1.463   1.472 -0.0234 -0.2806 -0.0598
  535TMC3    C5 7941   3.979   1.523   1.422 -0.3827  0.0122  1.1190
  535TMC3    C6 7942   3.861   1.521   1.490  0.0174 -0.8043 -0.5523
  535TMC3     C 7943   4.189   1.402   1.665 -0.0783  0.1497 -0.5026
  535TMC3     O 7944   4.254   1.507   1.665  1.1906  0.2573  0.3528
  535TMC3     H 7945   3.962   1.344   1.757  1.0324 -1.7987 -0.6135
  535TMC3    H1 7946   4.185   1.470   1.426 -0.3731  0.6489 -0.6902
  535TMC3    H2 7947   3.777   1.574   1.449  0.2055  0.2074  0.3616
  535TMC3    C7 7948   3.996   1.596   1.296  0.1769 -0.0124  0.0900
  535TMC3    C8 7949   3.744   1.478   1.702  0.0301  0.1938 -0.0055
  535TMC3    O1 7950   4.109   1.611   1.260  0.0087 -0.0709  0.1373
  535TMC3    O2 7951   3.744   1.412   1.804 -0.5877  0.0246  0.2341
  536MPD2     C 7952   3.509   0.092  16.234 -0.1878  0.0579 -0.2660
  536MPD2    C1 7953   3.396   0.062  16.306  0.3071 -0.4501  0.8193
  536MPD2    C2 7954   3.273   0.088  16.245  0.3535 -0.4130 -0.1237
  536MPD2    C3 7955   3.269   0.134  16.114  0.1032 -0.7152 -0.0483
  536MPD2    C4 7956   3.385   0.168  16.050 -0.2372  0.5932  0.9222
  536MPD2    C5 7957   3.506   0.144  16.115 -0.2584 -0.1845 -0.8135
  536MPD2     H 7958   3.180   0.068  16.297  1.0831 -0.5752  1.1159
  536MPD2    H1 7959   3.386   0.196  15.945 -4.7031  2.2097  1.3064
  536MPD2    H2 7960   3.608   0.097  16.277 -0.7515  0.2293  1.0253
  536MPD2    H3 7961   3.601   0.170  16.070  0.0206  1.3631  0.6905
  536MPD2     N 7962   3.148   0.146  16.042  0.4005  0.0416  0.1154
  536MPD2    H5 7963   3.162   0.187  15.950  1.0805 -1.3750 -0.4025
  536MPD2    N1 7964   3.408   4.720  16.431  0.4623  0.2280  0.3511
  536MPD2    H7 7965   3.502   0.003  16.468  0.9568  0.6305 -0.9642
  537TMC3    C1 7966   3.360   4.619  16.641 -0.9368  0.2621  0.0574
  537TMC3    C2 7967   3.498   4.602  16.662 -0.2129  0.5325  0.3699
  537TMC3    C3 7968   3.542   4.519  16.760 -0.2281 -0.6197 -0.2988
  537TMC3    C4 7969   3.269   4.551  16.716 -0.2490  0.2331  0.0967
  537TMC3    C5 7970   3.319   4.466  16.809  0.6829 -0.2304  0.8493
  537TMC3    C6 7971   3.453   4.441  16.827 -0.1919  1.0007 -0.5143
  537TMC3     C 7972   3.316   4.659  16.507 -0.0411 -0.0967 -0.1104
  537TMC3     O 7973   3.197   4.647  16.485  0.4428  0.6261  0.3625
  537TMC3     H 7974   3.569   4.633  16.586  0.6429 -1.8280  0.2171
  537TMC3    H1 7975   3.162   4.569  16.706 -0.4712 -1.0954  0.1251
  537TMC3    H2 7976   3.486   4.406  16.924  0.1592 -0.3236 -1.1147
  537TMC3    C7 7977   3.254   4.479  16.935  0.0230  0.3008  0.2150
  537TMC3    C8 7978   3.661   4.561  16.834 -0.5608 -0.2230  0.2257
  537TMC3    O1 7979   3.207   4.590  16.959  0.6315  0.2061 -0.5239
  537TMC3    O2 7980   3.699   4.493  16.933 -0.3423  1.0215 -0.2907
  538TMC3    C1 7981   4.434   2.949  10.355 -0.2005  0.4140 -0.5834
  538TMC3    C2 7982   4.530   3.011  10.283 -0.0015  0.3667 -0.3818
  538TMC3    C3 7983   4.500   3.119  10.208  0.3982  0.2802  0.7145
  538TMC3    C4 7984   4.308   2.996  10.358  0.5183 -0.0966 -0.1055
  538TMC3    C5 7985   4.284   3.107  10.285  0.0275 -0.5710 -0.6977
  538TMC3    C6 7986   4.374   3.176  10.207  0.7355  0.2182 -0.4282
  538TMC3     C 7987   4.468   2.858  10.460  0.6422 -0.0278  0.2128
  538TMC3     O 7988   4.487   2.739  10.434  0.3513 -0.0847 -0.6669
  538TMC3     H 7989   4.634   2.980  10.283 -0.6011 -1.6717  1.2172
  538TMC3    H1 7990   4.233   2.951  10.422  0.6523 -0.3990 -0.1587
  538TMC3    H2 7991   4.350   3.257  10.139  1.8041  0.5220 -0.4359
  538TMC3    C7 7992   4.166   3.182  10.323  0.0972 -0.0289 -0.3950
  538TMC3    C8 7993   4.605   3.156  10.117 -0.0817  0.2845 -0.2276
  538TMC3    O1 7994   4.072   3.115  10.355  0.2483  0.3115 -0.5179
  538TMC3    O2 7995   4.700   3.083  10.110 -0.3091 -0.0210  0.0816
  539MPD2     C 7996   3.694   2.275  11.631 -0.9405  0.1755  0.6374
  539MPD2    C1 7997   3.774   2.290  11.526  0.0526 -0.5915  0.1714
  539MPD2    C2 7998   3.860   2.397  11.514  0.1600  0.0389 -0.5936
  539MPD2    C3 7999   3.860   2.501  11.611 -0.0530 -0.6505  0.1363
  539MPD2    C4 8000   3.784   2.481  11.719 -0.5505  0.5304  0.0873
  539MPD2    C5 8001   3.703   2.369  11.731  0.0116  0.6716 -0.6233
  539MPD2     H 8002   3.932   2.397  11.433  1.6480 -3.8033  0.7533
  539MPD2    H1 8003   3.773   2.551  11.801 -1.4566 -0.8323  1.1298
  539MPD2    H2 8004   3.624   2.194  11.643  0.4416 -1.2665 -1.1706
  539MPD2    H3 8005   3.637   2.368  11.817 -0.4102 -0.3736 -0.9544
  539MPD2     N 8006   3.931   2.617  11.592 -0.2600  0.5961 -0.2061
  539MPD2    H5 8007   3.912   2.686  11.664  0.8563  0.2010  0.4670
  539MPD2    N1 8008   3.758   2.209  11.409 -0.2186  0.4848  0.4626
  539MPD2    H7 8009   3.807   2.237  11.325 -0.1723  1.3023  0.7624
  540TMC3    C1 8010   4.058   2.781  11.473 -0.0626 -0.6143  0.7403
  540TMC3    C2 8011   4.106   2.811  11.346 -0.2211 -0.7047  0.0545
  540TMC3    C3 8012   4.100   2.942  11.306  0.0264 -0.0821  0.2968
  540TMC3    C4 8013   4.000   2.877  11.551  0.2092  0.2224  0.6117
  540TMC3    C5 8014   3.980   2.999  11.497  0.1083 -0.5425  0.0075
  540TMC3    C6 8015   4.033   3.039  11.378 -0.2472  0.3276 -0.0560
  540TMC3     C 8016   4.025   2.641  11.495  0.4621 -0.8243 -0.2364
  540TMC3     O 8017   4.073   2.559  11.418  0.1686 -0.1939  0.0861
  540TMC3     H 8018   4.153   2.727  11.297 -1.5168 -1.5820  0.3148
  540TMC3    H1 8019   3.975   2.857  11.654  1.8879 -0.0277  0.9805
  540TMC3    H2 8020   4.022   3.141  11.343 -0.0102  0.7136  0.9958
  540TMC3    C7 8021   3.912   3.096  11.579 -0.0445 -0.7667 -1.3325
  540TMC3    C8 8022   4.117   2.964  11.161  0.5760  0.5248 -0.2580
  540TMC3    O1 8023   3.821   3.048  11.650  0.3075 -0.5049 -0.1930
  540TMC3    O2 8024   4.190   2.875  11.118 -0.8720  0.3460  0.4891
  541MPD2     C 8025   2.629   4.240  13.109  0.1028 -0.1117 -0.2667
  541MPD2    C1 8026   2.501   4.266  13.082 -0.0263 -0.5421  0.0669
  541MPD2    C2 8027   2.454   4.283  12.957 -0.4052  0.1318 -0.1194
  541MPD2    C3 8028   2.529   4.271  12.844  1.0263  0.4740  0.6412
  541MPD2    C4 8029   2.661   4.238  12.871 -0.1253  0.1987 -0.0772
  541MPD2    C5 8030   2.712   4.226  13.001 -0.1698  0.2115 -0.0125
  541MPD2     H 8031   2.354   4.323  12.946 -0.4530  0.0326 -0.0489
  541MPD2    H1 8032   2.738   4.231  12.795 -0.2990 -0.5035 -0.1881
  541MPD2    H2 8033   2.669   4.227  13.209  0.2059  1.1190 -0.1460
  541MPD2    H3 8034   2.815   4.198  13.017  0.0581  1.5234  0.8977
  541MPD2     N 8035   2.478   4.280  12.711 -1.0321 -0.5628  0.3386
  541MPD2    H5 8036   2.539   4.250  12.635 -2.2390 -3.2025  0.4013
  541MPD2    N1 8037   2.405   4.271  13.182  0.0508  0.7327 -0.7426
  541MPD2    H7 8038   2.311   4.250  13.153 -0.3976  0.4481  0.8932
  542TMC3    C1 8039   2.320   4.317  12.533 -0.7570  0.2112  0.2516
  542TMC3    C2 8040   2.387   4.231  12.447 -0.5533 -0.6819 -0.2872
  542TMC3    C3 8041   2.346   4.224  12.316 -0.1537 -0.5953 -0.8081
  542TMC3    C4 8042   2.216   4.396  12.490  0.0288 -0.0053  0.4762
  542TMC3    C5 8043   2.186   4.394  12.357  0.4265  0.3402  0.0311
  542TMC3    C6 8044   2.248   4.310  12.266 -0.5118 -0.2943  0.4392
  542TMC3     C 8045   2.355   4.333  12.673  0.0770  0.0472 -0.4211
  542TMC3     O 8046   2.275   4.383  12.749 -0.6368 -0.0180 -0.3886
  542TMC3     H 8047   2.458   4.159  12.486 -0.8437 -0.1817  1.1467
  542TMC3    H1 8048   2.158   4.455  12.560  2.2359  2.8248 -0.0788
  542TMC3    H2 8049   2.218   4.306  12.162 -0.0391  2.8093  0.1743
  542TMC3    C7 8050   2.117   4.513  12.300 -0.7324  0.5510 -0.4747
  542TMC3    C8 8051   2.435   4.162  12.218 -0.0768 -0.5644 -1.4127
  542TMC3    O1 8052   2.114   4.612  12.368 -0.5184  0.4195  0.7398
  542TMC3    O2 8053   2.375   4.103  12.132 -0.3353  0.1497  0.3619
  543TMC3    C1 8054   1.720   0.103  17.327  0.1956  0.2212  0.2458
  543TMC3    C2 8055   1.747   4.695  17.365  0.0147  0.5896  0.2718
  543TMC3    C3 8056   1.708   4.668  17.491  0.3085 -0.7814  0.0407
  543TMC3    C4 8057   1.686   0.199  17.412 -0.0480  0.1614 -0.1907
  543TMC3    C5 8058   1.669   0.166  17.548 -0.5752 -0.1082  0.7508
  543TMC3    C6 8059   1.674   0.038  17.586 -0.4319 -0.0862  0.0929
  543TMC3     C 8060   1.763   0.147  17.197  0.6188 -0.3649  0.3890
  543TMC3     O 8061   1.864   0.093  17.155 -0.4710 -0.4550  0.9233
  543TMC3     H 8062   1.760   4.613  17.295 -0.5642 -0.0771  0.9417
  543TMC3    H1 8063   1.665   0.303  17.390 -0.2435  0.0978 -0.3003
  543TMC3    H2 8064   1.636   0.016  17.685 -1.9349  0.0506 -0.4477
  543TMC3    C7 8065   1.621   0.275  17.636  0.1695 -0.7524 -0.0344
  543TMC3    C8 8066   1.699   4.524  17.516  1.0189 -0.0909 -1.1984
  543TMC3    O1 8067   1.537   0.251   0.030  0.1240 -0.0313  0.2833
  543TMC3    O2 8068   1.774   4.447  17.460  0.2976  0.6783 -0.5659
  544MPD2     C 8069   1.566   4.173   0.163  0.6825 -0.2226  0.2182
  544MPD2    C1 8070   1.668   4.177   0.076 -0.0513  0.1593 -0.2604
  544MPD2    C2 8071   1.681   4.284  17.677 -0.0117  0.1068  0.3128
  544MPD2    C3 8072   1.587   4.385  17.680 -0.0594  0.2053  0.7061
  544MPD2    C4 8073   1.493   4.383   0.090 -0.4453 -0.5758 -0.1708
  544MPD2    C5 8074   1.474   4.275   0.169 -0.5529 -0.1878 -0.7795
  544MPD2     H 8075   1.763   4.285  17.606 -0.0314  0.0728  0.2891
  544MPD2    H1 8076   1.432   4.471   0.104  1.7400  1.2138 -1.8034
  544MPD2    H2 8077   1.562   4.093   0.237 -0.6706 -0.6101 -0.2731
  544MPD2    H3 8078   1.389   4.270   0.236  1.1925 -0.1680  1.4201
  544MPD2     N 8079   1.601   4.501  17.608  0.5156  0.1900 -0.2302
  544MPD2    H5 8080   1.534   4.574  17.629  0.7811  0.6603 -0.9967
  544MPD2    N1 8081   1.758   4.070   0.083 -0.3935  0.2895 -0.0257
  544MPD2    H7 8082   1.744   3.997   0.152 -0.8526  2.0400  1.7286
  545TMC3    C1 8083   1.922   3.923   0.005  0.0787  0.2927  0.3005
  545TMC3    C2 8084   1.925   3.840  17.591  0.4573 -0.2208 -0.1889
  545TMC3    C3 8085   1.972   3.711  17.612 -0.0324 -0.2438 -0.6263
  545TMC3    C4 8086   1.951   3.874   0.132 -0.9274 -0.8572  0.1519
  545TMC3    C5 8087   1.993   3.741   0.146 -1.2457 -0.2856  0.8027
  545TMC3    C6 8088   2.014   3.660   0.040 -0.5482 -0.3271  0.4092
  545TMC3     C 8089   1.834   4.036  17.667  0.6515  0.0695 -0.3938
  545TMC3     O 8090   1.836   4.074  17.549 -0.0977  0.1052  0.1366
  545TMC3     H 8091   1.922   3.879  17.489  1.1806  3.9152  1.3640
  545TMC3    H1 8092   1.943   3.937   0.220  0.0558 -0.8260  0.2290
  545TMC3    H2 8093   2.053   3.560   0.054 -0.3718 -0.6778 -2.6843
  545TMC3    C7 8094   2.010   3.690   0.281 -0.4923 -0.5740 -0.5886
  545TMC3    C8 8095   1.988   3.619  17.503  0.6357  1.3755  0.1433
  545TMC3    O1 8096   1.986   3.572   0.295  0.1416  0.3048  0.5335
  545TMC3    O2 8097   2.010   3.670  17.393 -0.3739  0.2773 -0.1910
  546MPD2     C 8098   3.390   0.258  17.493 -0.4166  0.6507  0.0017
  546MPD2    C1 8099   3.288   0.349  17.516  0.3637 -0.0813 -0.0498
  546MPD2    C2 8100   3.317   0.476  17.541  0.8300  0.9124  0.2064
  546MPD2    C3 8101   3.448   0.523  17.550  0.0373 -0.2725  0.1041
  546MPD2    C4 8102   3.552   0.434  17.533  0.2376 -0.3250 -0.2992
  546MPD2    C5 8103   3.520   0.308  17.501  0.2350  0.0776 -0.5051
  546MPD2     H 8104   3.236   0.541  17.570 -0.1843 -0.7596  1.1449
  546MPD2    H1 8105   3.656   0.462  17.538  0.8781 -2.5247 -1.3916
  546MPD2    H2 8106   3.377   0.153  17.467  0.0164  0.7900 -0.7630
  546MPD2    H3 8107   3.597   0.234  17.485  0.2922  0.1155 -0.4041
  546MPD2     N 8108   3.479   0.663  17.580 -0.3897 -0.2212  0.8014
  546MPD2    H5 8109   3.576   0.692  17.585 -0.6744  0.8052  0.2514
  546MPD2    N1 8110   3.157   0.296  17.501 -0.0413  0.8849  0.0500
  546MPD2    H7 8111   3.154   0.197  17.480  2.8352  0.1137  3.2103
  547TMC3    C1 8112   2.927   0.293  17.444  0.7912 -0.3515  0.4579
  547TMC3    C2 8113   2.843   0.366  17.361 -0.6072 -0.1534  0.5870
  547TMC3    C3 8114   2.715   0.322  17.346  0.0795 -0.6723 -0.1336
  547TMC3    C4 8115   2.890   0.190  17.520 -0.5448  0.8430  0.2327
  547TMC3    C5 8116   2.763   0.142  17.493 -0.8430 -0.8825 -0.0494
  547TMC3    C6 8117   2.672   0.212  17.406 -0.6399 -0.5167 -0.0391
  547TMC3     C 8118   3.044   0.371  17.487  0.0055  0.2668  0.7291
  547TMC3     O 8119   3.030   0.495  17.480  0.1676 -0.0661  0.2986
  547TMC3     H 8120   2.885   0.452  17.309 -0.1030 -1.4322 -1.0940
  547TMC3    H1 8121   2.955   0.134  17.587  0.0381  0.9190 -0.2669
  547TMC3    H2 8122   2.572   0.174  17.390 -0.9994  0.2213  0.4509
  547TMC3    C7 8123   2.725   0.016  17.549  0.4241 -0.1977  1.0475
  547TMC3    C8 8124   2.645   0.359  17.217  0.5309 -0.0231 -0.5820
  547TMC3    O1 8125   2.806   4.683  17.622  0.1867  0.7188  0.4149
  547TMC3    O2 8126   2.534   0.307  17.205  0.4721 -0.7680 -0.3524
  548MPD2     C 8127   2.682   0.942  11.797 -0.1506 -0.5507  0.3179
  548MPD2    C1 8128   2.750   1.021  11.893  0.3268 -0.0813  0.2333
  548MPD2    C2 8129   2.857   1.102  11.849 -0.0278  0.5189  0.1778
  548MPD2    C3 8130   2.887   1.116  11.712 -0.9280 -0.1760  0.2470
  548MPD2    C4 8131   2.819   1.038  11.616 -0.1074 -0.3930 -0.3572
  548MPD2    C5 8132   2.724   0.954  11.663  0.3312 -0.1564 -0.1549
  548MPD2     H 8133   2.922   1.156  11.917  0.6593  1.6664 -1.3905
  548MPD2    H1 8134   2.845   1.036  11.511  0.8794  0.3546 -0.1281
  548MPD2    H2 8135   2.607   0.868  11.817  0.0820 -0.8520  0.0723
  548MPD2    H3 8136   2.669   0.897  11.588 -0.6188 -0.2680  0.6315
  548MPD2     N 8137   2.979   1.222  11.679  0.8007 -0.1032 -0.1215
  548MPD2    H5 8138   3.021   1.264  11.761  0.5286  2.4343 -1.2932
  548MPD2    N1 8139   2.703   1.018  12.027 -0.4359  0.6781 -0.2242
  548MPD2    H7 8140   2.632   0.945  12.034 -0.0208  0.4765  1.9054
  549TMC3    C1 8141   2.663   1.120  12.240  0.1724  0.2069 -0.4615
  549TMC3    C2 8142   2.656   1.236  12.323  0.3835 -0.0461  0.3101
  549TMC3    C3 8143   2.587   1.236  12.437  0.2153 -0.7018  0.6103
  549TMC3    C4 8144   2.609   1.006  12.290  0.6370 -0.6089  0.0014
  549TMC3    C5 8145   2.527   1.011  12.402 -0.3652  0.3733  0.0776
  549TMC3    C6 8146   2.515   1.125  12.476 -0.8065 -0.3657  0.3600
  549TMC3     C 8147   2.727   1.126  12.113  0.1308 -0.8644 -0.2843
  549TMC3     O 8148   2.783   1.234  12.098 -0.4592  0.0998 -0.9382
  549TMC3     H 8149   2.678   1.332  12.277  0.1723  0.2947  0.9177
  549TMC3    H1 8150   2.590   0.924  12.222  0.6028 -0.3510 -0.2966
  549TMC3    H2 8151   2.456   1.129  12.567 -1.3035 -0.5882  0.0498
  549TMC3    C7 8152   2.437   0.903  12.427 -0.1316 -0.1275 -0.6490
  549TMC3    C8 8153   2.526   1.363  12.463 -0.0993  0.2587  0.6382
  549TMC3    O1 8154   2.329   0.928  12.475  0.5526 -0.1675 -0.0576
  549TMC3    O2 8155   2.408   1.363  12.494  0.0961 -0.1512 -0.0770
  550TMC3    C1 8156   1.698   3.756  12.296 -0.1897 -0.1339 -0.2991
  550TMC3    C2 8157   1.634   3.839  12.389 -0.4725 -0.2805 -0.5036
  550TMC3    C3 8158   1.616   3.968  12.351  0.3810 -0.1083 -0.5400
  550TMC3    C4 8159   1.724   3.803  12.173 -0.2215 -0.0613 -0.2033
  550TMC3    C5 8160   1.695   3.932  12.139 -0.4623  1.0412 -0.2570
  550TMC3    C6 8161   1.654   4.024  12.233  0.7656  0.1743 -0.5207
  550TMC3     C 8162   1.646   3.620  12.303  0.1005  0.3456 -0.1558
  550TMC3     O 8163   1.661   3.549  12.401 -0.1272  0.6522 -0.4422
  550TMC3     H 8164   1.602   3.809  12.488 -0.7721 -0.4336 -0.6459
  550TMC3    H1 8165   1.759   3.739  12.093 -1.1697 -0.1469 -0.5397
  550TMC3    H2 8166   1.627   4.127  12.212  0.8681  0.1021 -1.0097
  550TMC3    C7 8167   1.599   3.919  12.030 -0.0410 -0.3661  0.1027
  550TMC3    C8 8168   1.499   4.038  12.408 -0.1830  0.2952  0.1128
  550TMC3    O1 8169   1.543   3.811  12.010  0.1917  0.1786 -0.3066
  550TMC3    O2 8170   1.505   4.160  12.408  0.0487  0.3406  0.6249
  551TMC3    C1 8171   3.961   1.730  13.103  0.3264  0.1030 -0.4894
  551TMC3    C2 8172   4.071   1.668  13.045 -0.7594  0.4530  0.0357
  551TMC3    C3 8173   4.194   1.682  13.108  0.3843 -0.3681  0.0300
  551TMC3    C4 8174   3.972   1.787  13.227  0.3173 -0.0046 -0.7215
  551TMC3    C5 8175   4.093   1.774  13.295  0.1924  0.2316  0.1086
  551TMC3    C6 8176   4.207   1.741  13.232  0.5119  0.1297  0.2240
  551TMC3     C 8177   3.868   1.785  13.005 -0.1077  0.1379 -0.5749
  551TMC3     O 8178   3.748   1.787  13.036  0.3568  0.2870  0.2272
  551TMC3     H 8179   4.060   1.616  12.951  2.2659  1.5200 -0.9221
  551TMC3    H1 8180   3.893   1.834  13.285  0.3973 -0.7440 -0.0110
  551TMC3    H2 8181   4.303   1.740  13.282 -1.3986 -2.4743  3.8849
  551TMC3    C7 8182   4.091   1.830  13.432  0.6487 -0.1455 -0.0921
  551TMC3    C8 8183   4.312   1.670  13.032  0.8226  0.4714 -0.7175
  551TMC3    O1 8184   4.004   1.786  13.506 -0.7592 -0.6175 -0.2207
  551TMC3    O2 8185   4.308   1.595  12.934  0.0561  0.1928  0.9120
  552MPD2     C 8186   1.166   3.847  14.175 -0.5598 -0.2692  0.5942
  552MPD2    C1 8187   1.184   3.719  14.225 -0.0132  0.2379 -0.5184
  552MPD2    C2 8188   1.300   3.681  14.294  0.7380  0.1342  0.6325
  552MPD2    C3 8189   1.400   3.770  14.324 -0.2353 -0.6878  0.1869
  552MPD2    C4 8190   1.385   3.899  14.275  0.2590  0.0309  0.0423
  552MPD2    C5 8191   1.273   3.935  14.203  0.3434  0.2104  0.3290
  552MPD2     H 8192   1.317   3.580  14.330  0.2014 -0.7447 -1.6219
  552MPD2    H1 8193   1.461   3.972  14.297 -1.0130  1.4778 -0.3999
  552MPD2    H2 8194   1.077   3.887  14.128 -0.6272 -1.1774 -0.0547
  552MPD2    H3 8195   1.261   4.034  14.161  3.6368  0.9569  1.1236
  552MPD2     N 8196   1.519   3.741  14.391 -0.0543 -0.3578 -0.1615
  552MPD2    H5 8197   1.594   3.810  14.393 -0.7748  0.4260 -0.3518
  552MPD2    N1 8198   1.089   3.619  14.202 -0.0947 -1.0589  0.1755
  552MPD2    H7 8199   1.104   3.530  14.248 -0.6595  0.3049  3.0138
  553TMC3    C1 8200   0.937   3.494  14.078 -0.1229 -0.2761 -0.4691
  553TMC3    C2 8201   0.894   3.468  13.946  0.4239 -0.3151 -0.2256
  553TMC3    C3 8202   0.936   3.351  13.889 -0.5639  0.4468 -0.3059
  553TMC3    C4 8203   0.994   3.393  14.152  0.4072 -0.4624  0.9015
  553TMC3    C5 8204   1.037   3.284  14.091 -0.4644 -0.0231 -0.1436
  553TMC3    C6 8205   1.008   3.260  13.957  0.9032  0.7501  0.4308
  553TMC3     C 8206   0.995   3.628  14.101 -0.5508  0.7214  0.4292
  553TMC3     O 8207   0.973   3.705  14.013 -0.0182 -0.3003  0.5071
  553TMC3     H 8208   0.851   3.554  13.896  1.7908  0.0740 -0.7335
  553TMC3    H1 8209   1.014   3.408  14.257  1.5055 -0.8292  0.7442
  553TMC3    H2 8210   1.067   3.185  13.904  0.6440  1.4951 -0.9225
  553TMC3    C7 8211   1.181   3.282  14.102  0.2827  0.1980 -0.0425
  553TMC3    C8 8212   0.970   3.363  13.749  0.5555  0.4408 -0.0942
  553TMC3    O1 8213   1.234   3.272  14.213 -0.2163 -0.3096  0.3312
  553TMC3    O2 8214   1.031   3.461  13.704 -0.3684  0.3354 -0.2929
  554TMC3    C1 8215   3.048   2.686  11.454  0.0862 -0.2747  0.4704
  554TMC3    C2 8216   3.014   2.579  11.371  0.3605  0.5502  0.0573
  554TMC3    C3 8217   3.100   2.552  11.268  0.8098  0.3517 -0.1471
  554TMC3    C4 8218   3.158   2.763  11.434  0.2948  0.3518  0.6893
  554TMC3    C5 8219   3.245   2.725  11.336  0.0786 -0.3250 -0.1206
  554TMC3    C6 8220   3.216   2.621  11.257  0.1284 -0.8835  0.1716
  554TMC3     C 8221   2.976   2.701  11.580 -1.0994 -0.4181  0.4532
  554TMC3     O 8222   2.852   2.687  11.580 -0.2117  0.4350  0.4428
  554TMC3     H 8223   2.923   2.523  11.392  0.6264  0.1916  0.2551
  554TMC3    H1 8224   3.178   2.846  11.501 -0.0690  1.6790 -0.8606
  554TMC3    H2 8225   3.288   2.593  11.180  0.5234 -0.5288  0.4093
  554TMC3    C7 8226   3.323   2.824  11.276  1.3446  0.1335 -0.0736
  554TMC3    C8 8227   3.044   2.515  11.138  0.2333 -0.1013 -0.4289
  554TMC3    O1 8228   3.363   2.806  11.163 -0.0877  0.3289  1.0212
  554TMC3    O2 8229   3.118   2.552  11.052 -0.4867 -0.0718  0.9386
  555TMC3    C1 8230   2.043   2.343  15.107  0.1102 -0.2566 -0.4823
  555TMC3    C2 8231   2.011   2.362  15.240 -0.0548 -0.5168 -0.4175
  555TMC3    C3 8232   2.047   2.271  15.331  0.2524 -0.3771  1.0534
  555TMC3    C4 8233   2.075   2.218  15.059 -0.1958 -0.5538 -0.6631
  555TMC3    C5 8234   2.118   2.132  15.159  0.7576 -0.7946  0.5168
  555TMC3    C6 8235   2.095   2.152  15.291  0.2714  0.4657  0.0945
  555TMC3     C 8236   2.056   2.464  15.022 -0.0441  0.0473 -0.0278
  555TMC3     O 8237   2.060   2.570  15.087 -0.2505 -0.5724 -0.1183
  555TMC3     H 8238   1.971   2.453  15.283  1.4368 -0.2053  0.3397
  555TMC3    H1 8239   2.103   2.213  14.955  0.9268  0.4773 -0.4058
  555TMC3    H2 8240   2.124   2.073  15.359  1.3146  0.4995 -0.3048
  555TMC3    C7 8241   2.119   1.994  15.121 -0.0480  0.0473  0.0252
  555TMC3    C8 8242   2.076   2.319  15.463  0.5486  0.5139  0.2341
  555TMC3    O1 8243   2.009   1.949  15.093  0.2674  0.0229 -0.0044
  555TMC3    O2 8244   2.032   2.427  15.492 -0.9795  0.3220  0.2560
  556MPD2     C 8245   0.062   4.607  10.029 -0.0809  0.7437  0.0575
  556MPD2    C1 8246   0.030   4.497  10.112 -0.1961 -0.1215  0.2728
  556MPD2    C2 8247   4.708   4.380  10.052  0.2221 -0.4326 -0.3641
  556MPD2    C3 8248   4.704   4.366   9.913 -0.0876 -0.7800 -0.5833
  556MPD2    C4 8249   0.021   4.472   9.835 -0.2375 -0.1782  0.0827
  556MPD2    C5 8250   0.065   4.584   9.894 -0.3124  0.3728  0.0930
  556MPD2     H 8251   4.677   4.291  10.106 -0.8379  1.1610  1.6220
  556MPD2    H1 8252   0.043   4.464   9.729  0.3360  0.8328  0.1266
  556MPD2    H2 8253   0.099   4.700  10.071 -2.1457  0.3853  2.7064
  556MPD2    H3 8254   0.112   4.652   9.824  1.8953 -0.7372  0.5076
  556MPD2     N 8255   4.657   4.244   9.867 -0.2430  0.3006  0.1350
  556MPD2    H5 8256   4.669   4.167   9.932 -2.4690  2.2984  2.9081
  556MPD2    N1 8257   0.045   4.499  10.257 -0.6889 -0.0053  0.2633
  556MPD2    H7 8258   0.044   4.411  10.307  0.8412 -0.7666 -1.0566
  557TMC3    C1 8259   4.566   4.089   9.699 -0.3750  0.0033 -0.0065
  557TMC3    C2 8260   4.508   4.067   9.576 -0.1648 -0.0602  0.2040
  557TMC3    C3 8261   4.478   3.940   9.535  0.2066  1.0341 -0.3872
  557TMC3    C4 8262   4.578   3.986   9.795 -0.0115  0.1660 -0.5140
  557TMC3    C5 8263   4.538   3.861   9.747 -0.0957 -0.4085 -0.1241
  557TMC3    C6 8264   4.503   3.836   9.617 -0.0347  0.4635  0.6215
  557TMC3     C 8265   4.610   4.227   9.734 -0.1299 -0.2357 -0.0802
  557TMC3     O 8266   4.595   4.319   9.652 -0.1804  0.5909  0.2809
  557TMC3     H 8267   4.475   4.153   9.519  0.4863 -1.2410 -1.9476
  557TMC3    H1 8268   4.626   3.999   9.891  0.7908  1.6416 -1.1090
  557TMC3    H2 8269   4.493   3.733   9.583  1.2906  0.9621 -1.3156
  557TMC3    C7 8270   4.554   3.739   9.828 -0.1470 -0.4628 -0.0126
  557TMC3    C8 8271   4.480   3.922   9.392 -0.9294 -0.3806 -0.2516
  557TMC3    O1 8272   4.513   3.735   9.943  0.3203 -0.1454  0.6116
  557TMC3    O2 8273   4.531   4.017   9.328 -0.2529  0.5174  0.0366
  558TMC3    C1 8274   2.780   1.588   9.684 -0.9633  0.0409 -0.1422
  558TMC3    C2 8275   2.677   1.559   9.766  0.6778  0.3510  0.0826
  558TMC3    C3 8276   2.620   1.439   9.747  0.7264  0.9019  0.3005
  558TMC3    C4 8277   2.830   1.485   9.600 -0.1382  0.8003  0.2296
  558TMC3    C5 8278   2.773   1.363   9.587 -0.5303 -0.0013  0.5167
  558TMC3    C6 8279   2.664   1.341   9.663 -0.1442  0.0343 -0.0292
  558TMC3     C 8280   2.872   1.701   9.710 -0.9673 -0.1255 -1.0784
  558TMC3     O 8281   2.973   1.710   9.640 -0.4944  0.4258  0.5157
  558TMC3     H 8282   2.617   1.634   9.815  0.1515  0.3926 -0.6321
  558TMC3    H1 8283   2.908   1.517   9.532 -0.1598 -1.3841 -0.8160
  558TMC3    H2 8284   2.608   1.249   9.676  1.1961 -0.4597  2.3118
  558TMC3    C7 8285   2.849   1.250   9.550  0.0931 -0.4412 -0.4221
  558TMC3    C8 8286   2.487   1.419   9.795  0.8981 -0.0578 -0.0630
  558TMC3    O1 8287   2.790   1.146   9.571  0.1833 -0.5299 -0.2788
  558TMC3    O2 8288   2.400   1.357   9.731 -1.0824 -0.1351  0.0707
  559MPD2     C 8289   2.785   1.954  10.338 -0.6889 -0.4706 -0.0827
  559MPD2    C1 8290   2.740   1.885  10.451 -0.2097 -0.0289 -0.3243
  559MPD2    C2 8291   2.818   1.886  10.563  0.5058 -0.7053  0.8255
  559MPD2    C3 8292   2.945   1.953  10.565  0.5294  0.3289  0.3266
  559MPD2    C4 8293   2.992   2.004  10.444  0.1616  0.3030  0.9165
  559MPD2    C5 8294   2.913   2.001  10.338 -0.0862 -0.2300 -0.2499
  559MPD2     H 8295   2.791   1.820  10.645  0.3172 -0.5534  0.8861
  559MPD2    H1 8296   3.093   2.045  10.437  0.6678 -0.7495  2.0595
  559MPD2    H2 8297   2.720   1.972  10.253 -1.2657  0.8191  0.6208
  559MPD2    H3 8298   2.956   2.041  10.247 -0.2039 -2.6830 -1.3726
  559MPD2     N 8299   3.022   1.954  10.684  0.7062 -0.2770 -0.7435
  559MPD2    H5 8300   2.983   1.911  10.768  0.7717 -0.0892 -0.6168
  559MPD2    N1 8301   2.618   1.817  10.461 -0.3556 -0.1870 -0.0106
  559MPD2    H7 8302   2.592   1.795  10.557 -1.8108 -0.8482 -0.5607
  560TMC3    C1 8303   3.170   2.005  10.856  0.3217 -0.0310 -0.2824
  560TMC3    C2 8304   3.094   1.902  10.913  0.2959 -0.1984 -0.5826
  560TMC3    C3 8305   3.034   1.919  11.033  0.2392  0.0519 -0.2673
  560TMC3    C4 8306   3.190   2.122  10.923 -0.2072  0.1175  0.7167
  560TMC3    C5 8307   3.136   2.135  11.052  0.1372 -0.3298  0.2957
  560TMC3    C6 8308   3.058   2.037  11.106  0.0928  0.1574 -0.3027
  560TMC3     C 8309   3.139   2.026  10.713  0.2641 -0.2363  0.5455
  560TMC3     O 8310   3.204   2.109  10.651  0.1039  0.2793  0.2831
  560TMC3     H 8311   3.091   1.804  10.867  1.1446 -1.3374  1.7963
  560TMC3    H1 8312   3.241   2.205  10.874 -0.6963  0.2749  0.4723
  560TMC3    H2 8313   3.017   2.054  11.205  2.5687 -1.5035  1.0282
  560TMC3    C7 8314   3.211   2.205  11.154  0.2320 -0.6229 -0.6201
  560TMC3    C8 8315   2.905   1.856  11.039  0.0349 -0.1188 -0.3836
  560TMC3    O1 8316   3.169   2.207  11.269 -0.1360  0.6903  0.4286
  560TMC3    O2 8317   2.893   1.766  10.957 -0.0953 -0.2181 -0.5241
  561TMC3    C1 8318   0.749   1.086  11.021 -0.3346 -1.1053 -0.3949
  561TMC3    C2 8319   0.717   1.034  11.141 -0.0823 -1.0862  0.0038
  561TMC3    C3 8320   0.679   1.116  11.244 -0.1377 -0.6601  0.7157
  561TMC3    C4 8321   0.738   1.219  10.997 -0.0163 -0.1895  0.7593
  561TMC3    C5 8322   0.694   1.301  11.102 -0.2070  0.0151 -0.1752
  561TMC3    C6 8323   0.671   1.253  11.232 -0.4037  0.2834 -0.7530
  561TMC3     C 8324   0.746   0.990  10.909 -0.0029 -0.0121  0.7920
  561TMC3     O 8325   0.693   0.884  10.943 -0.6167 -0.4624 -0.5070
  561TMC3     H 8326   0.729   0.929  11.165 -0.3621 -0.6274  2.1125
  561TMC3    H1 8327   0.757   1.257  10.898  0.3762 -0.3179  0.7857
  561TMC3    H2 8328   0.668   1.318  11.318  1.8124  1.1156 -1.3095
  561TMC3    C7 8329   0.684   1.443  11.079 -0.2325  0.2352  0.5506
  561TMC3    C8 8330   0.617   1.057  11.357  0.1241  0.9058  0.0683
  561TMC3    O1 8331   0.596   1.506  11.140  0.3677 -0.4009 -0.2340
  561TMC3    O2 8332   0.623   0.937  11.380 -0.3593  0.0946  0.0531
  562TMC3    C1 8333   2.206   2.233  16.136  1.1945 -0.2586 -0.4969
  562TMC3    C2 8334   2.131   2.349  16.150  0.2277 -0.1444 -0.2456
  562TMC3    C3 8335   2.013   2.355  16.078 -0.1933 -0.0841  0.4763
  562TMC3    C4 8336   2.164   2.136  16.052 -0.0899 -0.1506  0.6011
  562TMC3    C5 8337   2.051   2.152  15.973 -0.4299 -0.6748  0.5567
  562TMC3    C6 8338   1.967   2.260  15.994  0.1839 -0.6224  0.0042
  562TMC3     C 8339   2.298   2.203  16.242  0.0139  0.6098  0.6071
  562TMC3     O 8340   2.361   2.291  16.300 -0.5892 -0.4517 -0.0181
  562TMC3     H 8341   2.160   2.421  16.225  0.0010  1.7212 -1.9448
  562TMC3    H1 8342   2.239   2.059  16.039 -0.8683 -0.9696  0.9244
  562TMC3    H2 8343   1.877   2.262  15.934  0.0220 -1.9045  0.2120
  562TMC3    C7 8344   2.043   2.072  15.849  0.3889  0.0879  0.8303
  562TMC3    C8 8345   1.924   2.456  16.118 -1.1406 -0.0023  0.2717
  562TMC3    O1 8346   1.954   2.111  15.771  0.0385  0.1867  0.2730
  562TMC3    O2 8347   1.924   2.511  16.225  0.0003 -0.0088 -0.2757
  563MPD2     C 8348   4.085   4.037  16.063  0.2022 -0.5123  0.3272
  563MPD2    C1 8349   4.136   4.100  16.180 -0.4421  0.3772 -0.5594
  563MPD2    C2 8350   4.262   4.067  16.226  0.3904 -0.4381 -0.3462
  563MPD2    C3 8351   4.330   3.963  16.179 -0.0613 -0.5711  0.2225
  563MPD2    C4 8352   4.283   3.899  16.063  0.1621  0.0884 -0.1037
  563MPD2    C5 8353   4.167   3.942  15.999  0.2408  0.5793  0.3273
  563MPD2     H 8354   4.298   4.115  16.316  1.4564 -2.2273  0.1839
  563MPD2    H1 8355   4.338   3.812  16.029 -0.6317 -0.0793 -0.9796
  563MPD2    H2 8356   3.984   4.051  16.025 -0.2832  0.4960  2.0106
  563MPD2    H3 8357   4.131   3.889  15.912 -0.0438 -1.7066  1.8124
  563MPD2     N 8358   4.446   3.916  16.255 -0.5152 -0.3066  0.0593
  563MPD2    H5 8359   4.487   3.968  16.331 -0.0712 -1.0844  0.3488
  563MPD2    N1 8360   4.058   4.185  16.255 -0.4618 -0.0183 -0.6942
  563MPD2    H7 8361   4.090   4.200  16.351  1.0213 -0.2578 -1.1521
  564TMC3    C1 8362   3.853   4.157  16.344 -0.2501 -0.9290 -0.5531
  564TMC3    C2 8363   3.758   4.069  16.299 -1.0661 -0.7394 -0.2486
  564TMC3    C3 8364   3.724   3.964  16.382  0.1856 -0.5856  0.4726
  564TMC3    C4 8365   3.929   4.134  16.459  0.0812  0.3728 -0.4520
  564TMC3    C5 8366   3.891   4.024  16.528  0.9361 -0.4998  0.0326
  564TMC3    C6 8367   3.786   3.939  16.496  0.0889  0.2400  0.1566
  564TMC3     C 8368   3.925   4.211  16.234  0.3041 -0.6265 -0.7858
  564TMC3     O 8369   3.873   4.231  16.130  0.3132  0.1247 -0.0057
  564TMC3     H 8370   3.706   4.092  16.207 -1.1173  0.2540  0.0235
  564TMC3    H1 8371   4.000   4.207  16.496 -0.6010  0.7929  0.0369
  564TMC3    H2 8372   3.764   3.850  16.554  1.3740  0.3159  0.7713
  564TMC3    C7 8373   3.997   3.963  16.610 -0.1206  0.3234  0.1484
  564TMC3    C8 8374   3.614   3.883  16.334  0.0294  0.3588 -0.4164
  564TMC3    O1 8375   3.993   3.838  16.609  0.3807  0.1954  0.5706
  564TMC3    O2 8376   3.548   3.925  16.243  0.0983 -0.7078 -0.1317
  565TMC3    C1 8377   4.073   1.128   8.879 -0.3847 -0.2957  0.4626
  565TMC3    C2 8378   4.144   1.037   8.953 -0.1106  0.2494 -0.0252
  565TMC3    C3 8379   4.071   0.941   9.023  0.7643 -0.0096  0.7201
  565TMC3    C4 8380   3.939   1.134   8.889  0.0517 -0.0163  0.0726
  565TMC3    C5 8381   3.870   1.038   8.955  0.3196 -0.0034  0.3477
  565TMC3    C6 8382   3.932   0.938   9.016  0.8341  0.3699 -0.5492
  565TMC3     C 8383   4.145   1.231   8.806  0.6558 -0.1923  0.4872
  565TMC3     O 8384   4.261   1.242   8.850 -0.8787 -0.0989  0.0509
  565TMC3     H 8385   4.252   1.040   8.950 -0.1048 -1.4014 -1.0664
  565TMC3    H1 8386   3.884   1.209   8.834  2.2762  0.3046 -1.7286
  565TMC3    H2 8387   3.876   0.869   9.077  1.7141 -0.0089 -0.1634
  565TMC3    C7 8388   3.723   1.027   8.941  0.6079 -0.0598  0.0970
  565TMC3    C8 8389   4.140   0.852   9.118  0.7527 -0.3801 -0.6015
  565TMC3    O1 8390   3.678   0.916   8.949  0.3347 -0.3213 -0.1461
  565TMC3    O2 8391   4.218   0.905   9.189  0.2978  0.8552 -0.1928
  566MPD2     C 8392   1.571   2.111  13.871 -0.2987 -0.4798  0.2428
  566MPD2    C1 8393   1.640   2.224  13.831  0.0318  0.0559  0.0702
  566MPD2    C2 8394   1.620   2.276  13.703  0.6450  0.1997 -0.7487
  566MPD2    C3 8395   1.532   2.228  13.611  0.1326 -0.6395 -0.1941
  566MPD2    C4 8396   1.463   2.120  13.656 -0.4873  0.3904  0.6868
  566MPD2    C5 8397   1.483   2.063  13.781  0.5777 -0.2265 -0.8321
  566MPD2     H 8398   1.679   2.363  13.677  1.6951 -0.3394 -0.1680
  566MPD2    H1 8399   1.397   2.067  13.588 -1.3441  1.5626  0.5992
  566MPD2    H2 8400   1.592   2.054  13.961  1.3817  1.6713  1.1954
  566MPD2    H3 8401   1.440   1.965  13.794  0.3456  0.1928  1.5341
  566MPD2     N 8402   1.510   2.272  13.483 -0.5230 -0.1221  0.3247
  566MPD2    H5 8403   1.457   2.213  13.421 -0.9569 -0.5769  1.1341
  566MPD2    N1 8404   1.737   2.275  13.922 -0.5677  0.8757 -0.2689
  566MPD2    H7 8405   1.730   2.249  14.020 -0.2079  3.2081  0.3749
  567TMC3    C1 8406   1.932   2.396  13.977  0.0884 -0.4165  0.1846
  567TMC3    C2 8407   2.024   2.492  13.940 -0.9144 -0.1744 -1.4176
  567TMC3    C3 8408   2.133   2.516  14.014 -0.1933  0.1428  0.4025
  567TMC3    C4 8409   1.968   2.317  14.082 -0.1187 -0.2468  0.1034
  567TMC3    C5 8410   2.075   2.349  14.161 -0.4828 -0.1853  0.5771
  567TMC3    C6 8411   2.166   2.448  14.131 -0.4760 -0.0925  0.0011
  567TMC3     C 8412   1.849   2.343  13.876 -0.9626  0.1501 -0.4913
  567TMC3     O 8413   1.880   2.378  13.763 -0.1807  0.2247  0.5787
  567TMC3     H 8414   2.013   2.553  13.851 -2.9055  2.4080  0.5707
  567TMC3    H1 8415   1.906   2.229  14.091 -0.4000  0.1407  2.0687
  567TMC3    H2 8416   2.249   2.473  14.196 -1.6917 -1.7285  2.1924
  567TMC3    C7 8417   2.101   2.283  14.290 -0.5534 -0.1875 -0.1199
  567TMC3    C8 8418   2.236   2.598  13.941 -0.3228  0.0721  0.0908
  567TMC3    O1 8419   2.215   2.287  14.334 -0.3680  0.1206 -0.0782
  567TMC3    O2 8420   2.238   2.596  13.821 -0.1632 -0.3378  0.0764
  568MPD2     C 8421   3.952   2.621  16.880  0.4438 -0.3051  0.1264
  568MPD2    C1 8422   3.879   2.649  16.993 -0.0779 -0.1187  0.0164
  568MPD2    C2 8423   3.809   2.770  16.999  0.9327 -0.5113 -0.2263
  568MPD2    C3 8424   3.811   2.860  16.894  0.5611 -0.0464 -0.0152
  568MPD2    C4 8425   3.876   2.829  16.779 -0.5219  0.1903 -0.3991
  568MPD2    C5 8426   3.951   2.713  16.773 -0.3593 -0.9442  0.4460
  568MPD2     H 8427   3.740   2.790  17.081 -0.3875  1.7922 -1.8983
  568MPD2    H1 8428   3.879   2.898  16.695 -2.0737  0.0296 -0.5838
  568MPD2    H2 8429   4.006   2.529  16.860 -0.5770 -1.1711  1.3862
  568MPD2    H3 8430   4.000   2.691  16.679  0.9407 -1.7518  1.3037
  568MPD2     N 8431   3.746   2.981  16.884 -0.6815  0.3279 -0.5424
  568MPD2    H5 8432   3.757   3.026  16.794 -2.2097  0.0665 -0.8630
  568MPD2    N1 8433   3.868   2.544  17.085 -0.0914  0.0579 -0.2026
  568MPD2    H7 8434   3.919   2.458  17.070 -0.5370 -0.1938 -0.2707
  569TMC3    C1 8435   3.595   3.158  16.954 -0.6572 -0.2945  0.0494
  569TMC3    C2 8436   3.512   3.212  17.044  0.8733  0.2370 -0.4047
  569TMC3    C3 8437   3.408   3.298  17.004  0.4824  0.7617 -0.1001
  569TMC3    C4 8438   3.567   3.184  16.823  0.0929  1.0117  0.3322
  569TMC3    C5 8439   3.459   3.265  16.781 -0.5380  0.1704 -0.3488
  569TMC3    C6 8440   3.362   3.321  16.871  0.4562  0.8956 -0.0515
  569TMC3     C 8441   3.677   3.047  16.993 -0.5737 -1.2042 -0.3616
  569TMC3     O 8442   3.694   3.018  17.109 -0.3741  0.0647  0.0817
  569TMC3     H 8443   3.522   3.181  17.147 -4.2275  0.7435  0.2104
  569TMC3    H1 8444   3.637   3.150  16.748  2.8776  4.4646  1.4073
  569TMC3    H2 8445   3.305   3.410  16.845 -0.5001  0.6200  1.1104
  569TMC3    C7 8446   3.490   3.333  16.661 -0.1824  0.5670 -0.7706
  569TMC3    C8 8447   3.414   3.414  17.083 -0.2797  0.4789  0.2172
  569TMC3    O1 8448   3.606   3.334  16.622 -0.0008  0.3056  0.0419
  569TMC3    O2 8449   3.319   3.491  17.083  0.4500 -0.2024  0.1330
  570TMC3    C1 8450   3.370   1.346  16.042 -0.0178 -0.2874 -0.5988
  570TMC3    C2 8451   3.388   1.386  15.916  0.0878  0.2631  1.0045
  570TMC3    C3 8452   3.460   1.500  15.899 -0.3485  0.1287  0.3798
  570TMC3    C4 8453   3.413   1.420  16.155 -0.7811 -1.4908 -0.0896
  570TMC3    C5 8454   3.485   1.532  16.131 -0.1751 -0.4855  0.5522
  570TMC3    C6 8455   3.518   1.571  16.003 -0.5687 -0.4922  0.3735
  570TMC3     C 8456   3.286   1.225  16.053 -0.4125 -0.1959 -0.4714
  570TMC3     O 8457   3.255   1.164  15.953 -0.1165 -0.0431 -0.5262
  570TMC3     H 8458   3.362   1.319  15.834  0.1126  0.0367  1.1800
  570TMC3    H1 8459   3.381   1.398  16.256 -1.0398 -1.7173 -0.2182
  570TMC3    H2 8460   3.566   1.666  15.986 -2.4420  0.1920 -1.0342
  570TMC3    C7 8461   3.521   1.613  16.241  0.0705  0.5544 -0.4669
  570TMC3    C8 8462   3.506   1.533  15.772 -0.1884 -0.1851 -0.4237
  570TMC3    O1 8463   3.462   1.611  16.350  0.3367 -0.1890 -0.3329
  570TMC3    O2 8464   3.595   1.619  15.764  0.2102 -0.6415 -0.6632
  571MPD2     C 8465   1.386   2.683  16.931  0.2173 -0.3705 -0.1066
  571MPD2    C1 8466   1.308   2.612  17.016  0.3207 -0.0165  0.6462
  571MPD2    C2 8467   1.221   2.675  17.105 -0.5388  0.1190 -0.4293
  571MPD2    C3 8468   1.200   2.812  17.103 -1.2225 -0.0128 -0.6038
  571MPD2    C4 8469   1.278   2.878  17.014 -0.5322 -0.0492  0.1844
  571MPD2    C5 8470   1.365   2.818  16.924  0.5680 -0.6019 -0.4448
  571MPD2     H 8471   1.158   2.618  17.172 -0.0357  1.7662  1.4405
  571MPD2    H1 8472   1.281   2.986  17.015 -1.1155 -0.0178 -0.7878
  571MPD2    H2 8473   1.468   2.642  16.872  1.0966  1.9272 -0.4825
  571MPD2    H3 8474   1.422   2.881  16.856  0.4635 -0.6368 -0.5664
  571MPD2     N 8475   1.120   2.886  17.190  0.4963  0.2035  0.4505
  571MPD2    H5 8476   1.132   2.987  17.191  0.3567  0.2514 -1.7708
  571MPD2    N1 8477   1.336   2.471  17.019 -0.5949 -0.2747 -0.1216
  571MPD2    H7 8478   1.404   2.435  16.953  0.2558  0.2122  0.4957
  572TMC3    C1 8479   1.006   2.942  17.372 -0.5978  0.3995 -0.1423
  572TMC3    C2 8480   0.880   2.954  17.421  0.2889 -0.1451  0.5677
  572TMC3    C3 8481   0.856   3.050  17.520  0.2264  0.1961  0.0395
  572TMC3    C4 8482   1.106   3.024  17.420  0.6343 -0.4342 -0.1225
  572TMC3    C5 8483   1.075   3.116  17.515 -0.0742 -0.3588 -0.4265
  572TMC3    C6 8484   0.956   3.129  17.575  0.8948  0.6479 -0.9189
  572TMC3     C 8485   1.040   2.836  17.289 -0.1070 -0.2652 -0.7028
  572TMC3     O 8486   1.003   2.720  17.305  0.1980 -0.1604 -0.0090
  572TMC3     H 8487   0.797   2.902  17.374  0.9145 -1.1368  0.5489
  572TMC3    H1 8488   1.208   3.012  17.386  0.3984 -1.5789 -0.4452
  572TMC3    H2 8489   0.922   3.205  17.643  0.5401 -0.8354  0.5616
  572TMC3    C7 8490   1.163   3.232  17.544 -0.6860  0.1893 -0.6512
  572TMC3    C8 8491   0.721   3.060  17.555  0.5232  0.6218  0.8766
  572TMC3    O1 8492   1.107   3.319  17.611 -0.1130  0.1206 -0.1662
  572TMC3    O2 8493   0.640   3.055  17.463 -0.1414 -0.2708  0.3914
  573MPD2     C 8494   2.432   3.617   1.664 -0.9747  0.1554 -0.5617
  573MPD2    C1 8495   2.549   3.661   1.594  0.4266  0.5360 -0.8214
  573MPD2    C2 8496   2.544   3.751   1.493  0.1937 -0.3216 -0.0716
  573MPD2    C3 8497   2.423   3.805   1.456  0.0274  0.2329  0.1487
  573MPD2    C4 8498   2.305   3.752   1.516  0.3621 -0.4662 -0.2486
  573MPD2    C5 8499   2.312   3.665   1.624 -0.8534  0.5093  0.4225
  573MPD2     H 8500   2.632   3.771   1.433  0.6224 -1.2422  0.2512
  573MPD2    H1 8501   2.206   3.790   1.491  0.5477  0.6262  0.6809
  573MPD2    H2 8502   2.441   3.545   1.744 -0.3687  0.1631 -0.6221
  573MPD2    H3 8503   2.219   3.626   1.665 -0.2363 -0.0485  1.2625
  573MPD2     N 8504   2.409   3.889   1.344 -0.1732  0.5539 -0.2505
  573MPD2    H5 8505   2.313   3.916   1.323  0.0622  1.4835 -0.1429
  573MPD2    N1 8506   2.676   3.599   1.625  0.5019  0.5512  0.1417
  573MPD2    H7 8507   2.756   3.652   1.592  0.9993  0.0557  0.5478
  574TMC3    C1 8508   2.434   3.965   1.126 -0.6331 -0.4057  0.0630
  574TMC3    C2 8509   2.298   3.964   1.114  0.4385  0.2215  0.3928
  574TMC3    C3 8510   2.235   4.030   1.011  0.2047 -0.1710  0.2191
  574TMC3    C4 8511   2.520   4.030   1.032 -0.0899 -0.4267  0.3458
  574TMC3    C5 8512   2.448   4.094   0.931 -0.5969  0.3812 -0.2732
  574TMC3    C6 8513   2.310   4.089   0.922 -0.6865  0.2150  0.5269
  574TMC3     C 8514   2.499   3.913   1.241  0.1373  0.4969  0.3079
  574TMC3     O 8515   2.619   3.882   1.232 -0.0658  0.4920  0.2777
  574TMC3     H 8516   2.241   3.878   1.149  1.1618  0.3092  1.8031
  574TMC3    H1 8517   2.627   4.014   1.027 -0.0306 -0.2085  0.9481
  574TMC3    H2 8518   2.269   4.157   0.848  2.3683  1.5652  0.0648
  574TMC3    C7 8519   2.511   4.099   0.797 -0.0119 -0.2906  0.1661
  574TMC3    C8 8520   2.125   3.951   0.957 -0.6127  0.1678 -0.6304
  574TMC3    O1 8521   2.429   4.099   0.707 -0.5701 -0.4255  0.0299
  574TMC3    O2 8522   2.041   3.898   1.024 -0.4272  0.2804 -0.0234
  575TMC3    C1 8523   4.438   0.751   9.917 -0.2752 -0.0211 -0.2363
  575TMC3    C2 8524   4.413   0.643   9.996 -0.0860  0.1333  0.6192
  575TMC3    C3 8525   4.315   0.553   9.952 -0.2579  0.0600  0.1916
  575TMC3    C4 8526   4.363   0.773   9.807 -0.1969 -0.1234  1.0459
  575TMC3    C5 8527   4.267   0.687   9.770  0.1786 -0.7583  1.0454
  575TMC3    C6 8528   4.239   0.575   9.840  0.3319  0.3829  0.0874
  575TMC3     C 8529   4.542   0.835   9.934 -0.5353  0.3088 -0.1670
  575TMC3     O 8530   4.562   0.921   9.851  0.0328  0.2418  0.7155
  575TMC3     H 8531   4.495   0.610  10.059  0.4510 -2.9491 -1.6649
  575TMC3    H1 8532   4.378   0.859   9.743 -2.3425  1.0079  2.0619
  575TMC3    H2 8533   4.160   0.506   9.813 -1.3119  2.7278 -1.0846
  575TMC3    C7 8534   4.224   0.699   9.627 -0.9972  0.6428 -0.2019
  575TMC3    C8 8535   4.263   0.453  10.050  0.3681  0.2643  0.2853
  575TMC3    O1 8536   4.229   0.810   9.579  0.1574  0.4477  0.2181
  575TMC3    O2 8537   4.165   0.381  10.012 -0.1476 -0.0514  0.1394
  576MPD2     C 8538   4.238   1.603  12.159 -0.5310  0.1301  0.0436
  576MPD2    C1 8539   4.365   1.650  12.128 -0.7166  0.3371 -0.4687
  576MPD2    C2 8540   4.418   1.751  12.204 -0.1822 -0.1140 -0.6438
  576MPD2    C3 8541   4.359   1.789  12.323  0.3876 -0.9495  0.1685
  576MPD2    C4 8542   4.231   1.744  12.345  0.1219 -0.6674 -0.4739
  576MPD2    C5 8543   4.168   1.653  12.263 -0.0180 -0.6620 -0.0904
  576MPD2     H 8544   4.517   1.791  12.185  0.3578 -0.8951  0.5201
  576MPD2    H1 8545   4.171   1.778  12.428 -0.5857 -0.7719 -0.9414
  576MPD2    H2 8546   4.193   1.537  12.086 -1.3777  1.2648 -0.4580
  576MPD2    H3 8547   4.064   1.625  12.274  0.5678 -2.0025  2.0059
  576MPD2     N 8548   4.419   1.893  12.404  0.5643 -0.4269  0.6656
  576MPD2    H5 8549   4.506   1.935  12.372 -0.8700  3.6223  2.0816
  576MPD2    N1 8550   4.439   1.607  12.013 -0.1271 -0.4148 -0.0152
  576MPD2    H7 8551   4.534   1.642  12.000  0.5489 -2.6716 -1.0828
  577TMC3    C1 8552   4.470   1.500  11.794  0.7681 -0.7465  0.1155
  577TMC3    C2 8553   4.598   1.453  11.825  0.6225  0.6547  0.0130
  577TMC3    C3 8554   4.673   1.397  11.724 -0.4433  0.5027  0.1445
  577TMC3    C4 8555   4.410   1.468  11.672  0.0590  0.1434  0.8816
  577TMC3    C5 8556   4.484   1.395  11.579  0.1894 -0.0243 -0.1286
  577TMC3    C6 8557   4.615   1.368  11.599  0.5468  0.8714 -0.0528
  577TMC3     C 8558   4.381   1.548  11.901 -0.6994 -0.2183 -0.3230
  577TMC3     O 8559   4.265   1.527  11.881 -0.2774 -0.4230 -0.0029
  577TMC3     H 8560   4.640   1.464  11.924  1.8635 -2.8037 -0.1434
  577TMC3    H1 8561   4.315   1.514  11.648  0.7398  1.2749  0.3506
  577TMC3    H2 8562   4.661   1.307  11.522  1.0765  1.2209 -0.0108
  577TMC3    C7 8563   4.440   1.389  11.443  0.7718 -0.0999  0.2657
  577TMC3    C8 8564   0.061   1.307  11.752 -0.0547 -0.0133 -0.4367
  577TMC3    O1 8565   4.525   1.362  11.358 -0.3456 -0.0810 -0.2124
  577TMC3    O2 8566   0.067   1.252  11.863 -0.3784  0.3581 -0.1579
  578MPD2     C 8567   2.424   1.443   1.442 -0.0431  0.6302  0.3890
  578MPD2    C1 8568   2.539   1.406   1.376 -0.4167 -0.3133  0.2154
  578MPD2    C2 8569   2.633   1.343   1.457  0.7964 -0.1122  0.7598
  578MPD2    C3 8570   2.613   1.332   1.594 -0.4730 -0.2138 -0.0429
  578MPD2    C4 8571   2.498   1.372   1.653 -0.8339 -1.0981  0.1882
  578MPD2    C5 8572   2.395   1.423   1.576  1.3176 -0.1782 -0.7631
  578MPD2     H 8573   2.730   1.318   1.415  0.5665  0.8604 -0.3578
  578MPD2    H1 8574   2.467   1.348   1.754 -1.5670 -0.4213  0.1155
  578MPD2    H2 8575   2.339   1.481   1.387  0.5255  3.2713  1.3160
  578MPD2    H3 8576   2.301   1.457   1.617  1.1585 -0.3820 -0.9598
  578MPD2     N 8577   2.717   1.277   1.670  0.5347  0.2988  0.4791
  578MPD2    H5 8578   2.792   1.227   1.624  0.2023 -1.0841  1.4402
  578MPD2    N1 8579   2.562   1.434   1.240 -0.8006 -0.2474  0.2246
  578MPD2    H7 8580   2.480   1.464   1.187 -0.0157 -1.1033 -1.4890
  579TMC3    C1 8581   2.849   1.233   1.863  0.2553  0.0420  0.0905
  579TMC3    C2 8582   2.906   1.334   1.926 -0.3267  0.1411  0.0084
  579TMC3    C3 8583   3.039   1.334   1.944  0.5193  0.8054 -0.6615
  579TMC3    C4 8584   2.908   1.118   1.835 -0.0103  0.3726  0.1235
  579TMC3    C5 8585   3.045   1.114   1.864 -0.1468 -0.1826 -0.5822
  579TMC3    C6 8586   3.110   1.218   1.925  0.3723  0.1272  0.4402
  579TMC3     C 8587   2.715   1.269   1.808  0.2804  0.6165 -0.5814
  579TMC3     O 8588   2.642   1.326   1.887  0.0340  0.8591  0.2378
  579TMC3     H 8589   2.856   1.427   1.950  0.1170 -0.0135  1.5264
  579TMC3    H1 8590   2.859   1.035   1.784 -1.2680  1.4039 -0.3624
  579TMC3    H2 8591   3.214   1.204   1.952  1.1357 -0.4008 -2.7731
  579TMC3    C7 8592   3.107   0.989   1.870 -0.0609 -0.1003  0.2480
  579TMC3    C8 8593   3.102   1.455   1.887 -0.1036 -0.0116  0.3797
  579TMC3    O1 8594   3.197   0.985   1.954  0.3780  0.4260  0.2742
  579TMC3    O2 8595   3.025   1.522   1.823  0.1509  0.1669  0.0163
  580TMC3    C1 8596   2.138   0.462  11.665 -0.2120  0.2425 -0.0906
  580TMC3    C2 8597   2.143   0.424  11.535 -0.0780 -0.3964  0.3375
  580TMC3    C3 8598   2.174   0.294  11.505 -0.8112  0.1900  0.0182
  580TMC3    C4 8599   2.130   0.365  11.761  0.1820 -0.1241  0.1173
  580TMC3    C5 8600   2.164   0.236  11.728  1.0204  0.9271  0.7005
  580TMC3    C6 8601   2.190   0.198  11.601 -0.5602 -0.1377 -0.0781
  580TMC3     C 8602   2.146   0.601  11.703  0.0050 -0.1562 -0.0016
  580TMC3     O 8603   2.201   0.672  11.620 -0.2015  0.1133 -0.0498
  580TMC3     H 8604   2.110   0.499  11.464 -1.7923 -0.3999  1.1278
  580TMC3    H1 8605   2.118   0.386  11.866  3.2446 -0.6986  0.5708
  580TMC3    H2 8606   2.222   0.096  11.581  1.6858  0.9609 -2.0847
  580TMC3    C7 8607   2.204   0.149  11.837  0.2452  1.2303  0.1995
  580TMC3    C8 8608   2.231   0.283  11.374 -0.2785 -0.5749  0.1586
  580TMC3    O1 8609   2.238   0.216  11.933 -0.1291 -0.0400  0.0132
  580TMC3    O2 8610   2.241   0.173  11.324 -0.2149  0.4969 -0.3392
  581MPD2     C 8611   0.685   0.396  14.689 -0.4178  0.0306  0.1222
  581MPD2    C1 8612   0.570   0.396  14.762 -0.4359  0.1443 -0.1913
  581MPD2    C2 8613   0.453   0.421  14.703 -0.5731  0.7993  0.1683
  581MPD2    C3 8614   0.440   0.451  14.573  0.1738 -0.0455  0.3744
  581MPD2    C4 8615   0.557   0.460  14.493 -0.2070  0.1697  1.0073
  581MPD2    C5 8616   0.678   0.432  14.557  0.4397 -0.1758 -0.6844
  581MPD2     H 8617   0.359   0.408  14.756 -2.4177  1.6768 -2.8471
  581MPD2    H1 8618   0.551   0.482  14.387  1.5345 -1.2766  0.6064
  581MPD2    H2 8619   0.780   0.366  14.731  0.1349  0.4290 -0.8369
  581MPD2    H3 8620   0.775   0.432  14.509  0.5524  0.3376 -0.4511
  581MPD2     N 8621   0.308   0.467  14.522  0.2166  0.6710  0.6157
  581MPD2    H5 8622   0.233   0.432  14.580 -0.8689  1.3304 -0.3783
  581MPD2    N1 8623   0.590   0.371  14.897 -0.0133 -0.4683  0.7566
  581MPD2    H7 8624   0.682   0.337  14.926 -1.1707 -2.6721  1.9034
  582TMC3    C1 8625   0.562   0.382  15.135  0.1473  0.6490 -0.2536
  582TMC3    C2 8626   0.565   0.478  15.231 -0.4097 -0.5223 -0.4930
  582TMC3    C3 8627   0.638   0.454  15.350 -0.1566  0.0176 -0.2509
  582TMC3    C4 8628   0.639   0.270  15.143  0.3052 -0.3383 -0.1655
  582TMC3    C5 8629   0.689   0.242  15.271  0.4656 -0.6710 -0.2732
  582TMC3    C6 8630   0.703   0.332  15.368  0.0052  0.0800 -0.7863
  582TMC3     C 8631   0.506   0.420  15.002  0.5740  0.2300  0.1870
  582TMC3     O 8632   0.423   0.511  14.997 -0.3908 -0.1843  0.1170
  582TMC3     H 8633   0.516   0.573  15.214 -0.4450 -0.3932  0.3268
  582TMC3    H1 8634   0.633   0.191  15.069 -0.6976  1.4847 -2.0113
  582TMC3    H2 8635   0.747   0.306  15.464 -0.6243 -0.7227 -0.7076
  582TMC3    C7 8636   0.746   0.107  15.287  0.1164 -0.2837  0.7507
  582TMC3    C8 8637   0.610   0.535  15.464  0.5612 -0.7126 -0.1793
  582TMC3    O1 8638   0.810   0.069  15.191  0.0784 -0.4758  0.7927
  582TMC3    O2 8639   0.506   0.598  15.459 -0.4409 -0.2235  0.5912
  583MPD2     C 8640   0.318   1.938  16.807 -0.1627  0.0337 -0.8209
  583MPD2    C1 8641   0.343   2.059  16.742  0.3573 -0.1393  0.1174
  583MPD2    C2 8642   0.328   2.179  16.816 -0.3369 -0.2488 -0.2253
  583MPD2    C3 8643   0.283   2.179  16.945 -0.2380 -0.4430 -0.3984
  583MPD2    C4 8644   0.252   2.049  17.003 -0.2523  0.0786  0.7766
  583MPD2    C5 8645   0.266   1.936  16.928  0.1851 -0.0627  0.7263
  583MPD2     H 8646   0.365   2.275  16.781 -2.7034  0.1173 -1.7629
  583MPD2    H1 8647   0.230   2.032  17.108 -0.6021 -2.0850  0.3591
  583MPD2    H2 8648   0.339   1.841  16.764 -0.3222 -0.0899 -0.6170
  583MPD2    H3 8649   0.260   1.839  16.975  1.1779  1.0380  3.1581
  583MPD2     N 8650   0.268   2.301  17.017  0.2632 -0.3569  0.1163
  583MPD2    H5 8651   0.291   2.381  16.959  1.1246 -0.5958  0.1322
  583MPD2    N1 8652   0.386   2.067  16.605 -0.3279  0.2582  0.6447
  583MPD2    H7 8653   0.366   2.155  16.560 -1.0091 -0.6054 -0.7221
  584TMC3    C1 8654   0.218   2.436  17.208 -0.1408  0.1782 -0.1066
  584TMC3    C2 8655   0.218   2.544  17.127  1.0296 -0.6810 -0.4472
  584TMC3    C3 8656   0.187   2.663  17.186  0.3291  0.5267 -0.4872
  584TMC3    C4 8657   0.184   2.448  17.339  0.1962  0.3298 -0.3055
  584TMC3    C5 8658   0.161   2.572  17.388 -0.1170 -0.4879  0.0983
  584TMC3    C6 8659   0.160   2.686  17.316  0.1913 -0.1481 -0.3756
  584TMC3     C 8660   0.243   2.302  17.158 -0.0044  0.3268 -0.8125
  584TMC3     O 8661   0.205   2.218  17.234 -0.0445 -0.1336 -0.4289
  584TMC3     H 8662   0.229   2.544  17.019  0.9035 -2.3148 -0.4504
  584TMC3    H1 8663   0.182   2.363  17.406 -2.3110 -0.1579 -1.0040
  584TMC3    H2 8664   0.136   2.783  17.358  1.4798  0.1995 -0.4443
  584TMC3    C7 8665   0.145   2.574  17.534 -0.0521  0.4002 -0.2796
  584TMC3    C8 8666   0.207   2.777  17.100  0.5391  0.6858  0.4621
  584TMC3    O1 8667   0.195   2.489  17.605 -0.0279  0.5302 -0.4881
  584TMC3    O2 8668   0.206   2.751  16.982 -0.5242 -0.0371  0.1303
  585MPD2     C 8669   4.351   1.309   0.779  0.1172  0.0135 -0.3008
  585MPD2    C1 8670   4.381   1.359   0.654  0.4547  0.3261 -0.2180
  585MPD2    C2 8671   4.399   1.271   0.555 -0.1264  0.0109  0.2106
  585MPD2    C3 8672   4.411   1.138   0.578 -0.6503  0.1623 -0.3609
  585MPD2    C4 8673   4.380   1.085   0.708 -1.0470 -0.1389  0.2086
  585MPD2    C5 8674   4.354   1.176   0.808 -0.5110  0.0255 -0.1539
  585MPD2     H 8675   4.412   1.300   0.451  0.6068 -0.0928  0.2737
  585MPD2    H1 8676   4.377   0.978   0.725  0.3364 -0.2527 -0.1882
  585MPD2    H2 8677   4.329   1.374   0.863 -1.0705  0.5733 -1.0539
  585MPD2    H3 8678   4.329   1.144   0.908  2.3918 -0.7985  0.3039
  585MPD2     N 8679   4.426   1.047   0.478 -0.1495 -1.1243  0.0329
  585MPD2    H5 8680   4.388   0.954   0.494 -1.2951 -0.9937 -1.9472
  585MPD2    N1 8681   4.348   1.499   0.636  0.0250  0.8561  0.0365
  585MPD2    H7 8682   4.320   1.551   0.719 -2.0341 -0.5104  0.1916
  586TMC3    C1 8683   4.474   0.965   0.262  0.4265  0.1705  0.5290
  586TMC3    C2 8684   4.561   0.966   0.156  0.0430  0.1108 -0.7134
  586TMC3    C3 8685   4.525   0.909   0.037  0.3600  0.4205 -0.2148
  586TMC3    C4 8686   4.347   0.909   0.248 -0.0607  0.3185  0.2938
  586TMC3    C5 8687   4.318   0.848   0.127  0.1594 -0.1466  0.3615
  586TMC3    C6 8688   4.399   0.852   0.023  0.0338 -0.0375 -0.1997
  586TMC3     C 8689   4.486   1.071   0.357  0.3685  0.3352 -1.1122
  586TMC3     O 8690   4.564   1.160   0.327 -0.3746  0.3459 -0.1397
  586TMC3     H 8691   4.658   1.014   0.163  0.9059 -2.1296  2.7916
  586TMC3    H1 8692   4.273   0.890   0.325  0.2889 -0.1314  0.5185
  586TMC3    H2 8693   4.375   0.790  17.630 -2.5617 -0.7478  1.0733
  586TMC3    C7 8694   4.196   0.771   0.108 -0.1748 -0.6472  0.4025
  586TMC3    C8 8695   4.632   0.884  17.630 -0.1657  0.4298 -0.0477
  586TMC3    O1 8696   4.186   0.712   0.002  0.3333  0.5702 -0.1680
  586TMC3    O2 8697   0.025   0.870  17.677  0.4892 -0.0293 -0.4619
  587TMC3    C1 8698   1.820   4.291  16.228  0.1099  0.3041 -0.2789
  587TMC3    C2 8699   1.801   4.427  16.243 -0.0794  0.3489 -1.2473
  587TMC3    C3 8700   1.910   4.499  16.254  0.2772  0.2622  0.0487
  587TMC3    C4 8701   1.948   4.233  16.233 -0.4417  0.1908 -0.1588
  587TMC3    C5 8702   2.054   4.312  16.254  0.2966  0.1342  0.1059
  587TMC3    C6 8703   2.040   4.447  16.277 -0.8272 -0.2198 -0.6979
  587TMC3     C 8704   1.719   4.189  16.208 -0.0091 -0.0629 -0.3546
  587TMC3     O 8705   1.743   4.089  16.144  0.3793 -0.0414  0.2617
  587TMC3     H 8706   1.698   4.454  16.221  0.8106  3.5030 -1.4244
  587TMC3    H1 8707   1.964   4.126  16.235 -0.7758  0.1437 -0.0313
  587TMC3    H2 8708   2.123   4.517  16.274 -2.9492  2.2850 -0.6564
  587TMC3    C7 8709   2.182   4.242  16.287 -0.5323 -0.4075 -0.1044
  587TMC3    C8 8710   1.901   4.639  16.260  0.2013 -0.8320 -0.1959
  587TMC3    O1 8711   2.186   4.122  16.308 -0.2160 -0.4730  0.3184
  587TMC3    O2 8712   1.999   4.704  16.222 -0.2971  0.0725 -0.2910
  588TMC3    C1 8713   4.103   2.328   9.256  0.1424 -0.1489 -0.6374
  588TMC3    C2 8714   4.049   2.201   9.246 -0.5245 -0.2181 -0.2086
  588TMC3    C3 8715   4.100   2.090   9.313 -0.7359  0.0184 -0.1607
  588TMC3    C4 8716   4.209   2.348   9.337  0.2400 -0.8614  0.4238
  588TMC3    C5 8717   4.251   2.240   9.417  0.9493 -0.5855  0.1371
  588TMC3    C6 8718   4.198   2.115   9.407  0.1937 -0.6706 -0.2357
  588TMC3     C 8719   4.010   2.437   9.230 -0.7317  0.5565  0.4511
  588TMC3     O 8720   3.894   2.405   9.211 -0.1059 -1.4091  0.4376
  588TMC3     H 8721   3.953   2.191   9.198 -1.4657  1.0205  1.4145
  588TMC3    H1 8722   4.277   2.428   9.312 -1.1673  0.4803  0.8632
  588TMC3    H2 8723   4.241   2.040   9.472  1.5774 -0.6753 -1.1595
  588TMC3    C7 8724   4.333   2.277   9.536 -0.2553  0.0576 -0.0067
  588TMC3    C8 8725   4.036   1.959   9.296 -0.1357 -0.0623  0.3781
  588TMC3    O1 8726   4.360   2.183   9.608  0.1322 -0.0077 -0.5372
  588TMC3    O2 8727   3.932   1.966   9.235 -0.5075 -0.3135  0.2538
  589TMC3    C1 8728   3.233   4.254   1.587 -0.6197 -0.2716  0.0196
  589TMC3    C2 8729   3.319   4.351   1.637 -0.0887 -0.0521 -0.0178
  589TMC3    C3 8730   3.448   4.312   1.661  0.7283  0.2519  0.6561
  589TMC3    C4 8731   3.280   4.134   1.537  0.5093  0.9607  0.2425
  589TMC3    C5 8732   3.415   4.108   1.549 -0.1275 -0.4415 -0.4964
  589TMC3    C6 8733   3.502   4.191   1.618 -0.1356 -0.6180  0.2847
  589TMC3     C 8734   3.090   4.272   1.575 -0.0426  0.7073  0.0724
  589TMC3     O 8735   3.034   4.200   1.493 -0.8193 -0.2151  0.1319
  589TMC3     H 8736   3.289   4.440   1.692  1.8371 -0.5993  1.9504
  589TMC3    H1 8737   3.209   4.062   1.497 -0.2464  1.3791  0.8208
  589TMC3    H2 8738   3.603   4.156   1.637 -0.9063 -2.4551  1.0227
  589TMC3    C7 8739   3.463   3.973   1.528  0.4761 -0.6743 -0.1967
  589TMC3    C8 8740   3.532   4.390   1.755  0.5271 -0.9368  0.4720
  589TMC3    O1 8741   3.367   3.904   1.499 -0.6174 -0.2102 -0.0320
  589TMC3    O2 8742   3.493   4.483   1.813  0.0031 -0.1649  0.4251
  590MPD2     C 8743   2.656   2.916  16.180  0.5620 -0.0983  0.9302
  590MPD2    C1 8744   2.668   3.050  16.181 -0.0912  0.4567 -0.2233
  590MPD2    C2 8745   2.796   3.098  16.193 -1.2832  0.0648 -0.8049
  590MPD2    C3 8746   2.909   3.016  16.203 -0.6109  0.3224 -0.1767
  590MPD2    C4 8747   2.888   2.879  16.211 -0.3193  0.6424 -0.3346
  590MPD2    C5 8748   2.761   2.830  16.200  0.4509 -0.7941 -0.2172
  590MPD2     H 8749   2.814   3.204  16.180  1.4391 -0.3903 -0.7071
  590MPD2    H1 8750   2.973   2.812  16.221  0.0721  1.6636  3.1214
  590MPD2    H2 8751   2.560   2.869  16.166  2.0710 -1.8511 -3.3410
  590MPD2    H3 8752   2.752   2.723  16.182  1.2469 -0.7725 -0.7330
  590MPD2     N 8753   3.034   3.074  16.199 -0.8625 -0.1359 -0.4215
  590MPD2    H5 8754   3.023   3.175  16.194  1.0539  0.1223  0.8308
  590MPD2    N1 8755   2.552   3.126  16.170 -0.0781 -0.3804  0.7721
  590MPD2    H7 8756   2.461   3.083  16.156 -1.7374  2.6557  2.1036
  591TMC3    C1 8757   3.256   3.127  16.201  0.1610  0.5739  0.4694
  591TMC3    C2 8758   3.325   3.110  16.082 -0.0447 -0.3722  0.3257
  591TMC3    C3 8759   3.348   3.217  16.000  0.4520 -0.2718 -0.0970
  591TMC3    C4 8760   3.208   3.256  16.232  0.0122 -0.2230 -0.2189
  591TMC3    C5 8761   3.232   3.362  16.151  0.0485  1.4239 -0.3273
  591TMC3    C6 8762   3.306   3.349  16.036  0.6651 -0.9343  0.1506
  591TMC3     C 8763   3.157   3.024  16.213 -0.2820  0.0514 -0.1580
  591TMC3     O 8764   3.196   2.910  16.217 -0.1834  0.5555 -0.1975
  591TMC3     H 8765   3.352   3.010  16.049 -1.2983 -0.5602 -0.1394
  591TMC3    H1 8766   3.130   3.266  16.308 -0.8070  0.0922 -1.1002
  591TMC3    H2 8767   3.323   3.431  15.968 -0.4495 -1.0229 -0.2348
  591TMC3    C7 8768   3.117   3.442  16.127  0.2132  0.4973  0.5190
  591TMC3    C8 8769   3.429   3.196  15.880 -0.7826 -0.4095 -0.0974
  591TMC3    O1 8770   3.005   3.395  16.156 -0.1910  0.0760  0.4464
  591TMC3    O2 8771   3.435   3.081  15.835  0.5542 -0.3807  0.5114
  592MPD2     C 8772   3.276   0.776  10.939 -0.1355 -0.1214  1.0140
  592MPD2    C1 8773   3.331   0.832  11.052  0.0831 -0.3492 -0.0024
  592MPD2    C2 8774   3.326   0.759  11.166  0.2270 -0.2973 -0.0082
  592MPD2    C3 8775   3.263   0.635  11.172 -0.4785 -0.0821 -0.7038
  592MPD2    C4 8776   3.205   0.588  11.060  0.4811  0.2537  0.1148
  592MPD2    C5 8777   3.215   0.653  10.938  0.5499 -0.1822 -0.4562
  592MPD2     H 8778   3.383   0.780  11.256 -0.8969  0.9682  0.3911
  592MPD2    H1 8779   3.149   0.495  11.064 -1.1668  1.2427  0.0052
  592MPD2    H2 8780   3.280   0.825  10.841 -1.9642 -1.7558  0.1309
  592MPD2    H3 8781   3.164   0.613  10.852 -0.6077  1.9988 -0.7856
  592MPD2     N 8782   3.258   0.581  11.303  0.4118 -0.7805 -0.3741
  592MPD2    H5 8783   3.286   0.633  11.386  1.4199  1.2750 -2.0344
  592MPD2    N1 8784   3.391   0.956  11.045  0.3869  0.6613  0.0309
  592MPD2    H7 8785   3.390   0.999  10.954  1.4261  0.9438  0.1525
  593TMC3    C1 8786   3.496   1.156  11.135 -1.3519  0.0166  0.2195
  593TMC3    C2 8787   3.517   1.237  11.244 -0.2049 -0.1218  0.4129
  593TMC3    C3 8788   3.552   1.365  11.220 -1.2184  0.3149 -0.1694
  593TMC3    C4 8789   3.512   1.199  11.004  0.8491  0.0673  0.1265
  593TMC3    C5 8790   3.535   1.333  10.984  0.3992 -0.6254 -0.5325
  593TMC3    C6 8791   3.549   1.419  11.094  0.5505 -0.2522 -0.6233
  593TMC3     C 8792   3.442   1.023  11.160  0.5536 -0.3417 -0.7351
  593TMC3     O 8793   3.412   1.000  11.275  0.7246  0.5620 -0.0538
  593TMC3     H 8794   3.517   1.197  11.345  0.5596 -3.4280 -0.9006
  593TMC3    H1 8795   3.504   1.125  10.925 -0.0122 -0.6810  0.9157
  593TMC3    H2 8796   3.589   1.519  11.082  0.9121 -0.7740 -3.6625
  593TMC3    C7 8797   3.569   1.393  10.857  0.0030 -0.5111 -0.1462
  593TMC3    C8 8798   3.613   1.445  11.321  0.6864  0.2609 -1.1836
  593TMC3    O1 8799   3.621   1.503  10.858 -0.2769 -0.0586  0.1061
  593TMC3    O2 8800   3.632   1.562  11.301  0.4127  0.1556  0.2601
  594MPD2     C 8801   2.297   3.748  14.696  0.6128 -0.3213 -0.3435
  594MPD2    C1 8802   2.222   3.768  14.594 -0.2985  0.1144 -0.2147
  594MPD2    C2 8803   2.263   3.844  14.483  0.2851 -0.1184  0.3979
  594MPD2    C3 8804   2.399   3.876  14.476 -0.8933 -0.3030  0.4345
  594MPD2    C4 8805   2.481   3.828  14.571  0.7529 -0.3871 -0.7390
  594MPD2    C5 8806   2.433   3.763  14.680 -0.0220 -0.1590  0.4489
  594MPD2     H 8807   2.200   3.885  14.404 -0.9015  0.1535  1.4810
  594MPD2    H1 8808   2.585   3.856  14.580 -0.1203  2.1550  1.3154
  594MPD2    H2 8809   2.273   3.692  14.786  1.5839 -0.3159 -0.0748
  594MPD2    H3 8810   2.506   3.740  14.757  0.7682  0.5363 -0.0931
  594MPD2     N 8811   2.444   3.965  14.373  0.1938 -0.3955 -0.2108
  594MPD2    H5 8812   2.372   4.006  14.315 -0.6446 -1.7060 -0.0992
  594MPD2    N1 8813   2.092   3.717  14.602  0.1521  0.6368 -0.1434
  594MPD2    H7 8814   2.070   3.661  14.683  2.3134 -0.4070 -0.2954
  595TMC3    C1 8815   2.723   4.285  14.162 -0.1443 -0.3140 -0.6605
  595TMC3    C2 8816   2.715   4.167  14.228 -0.6288  0.0665 -0.2523
  595TMC3    C3 8817   2.586   4.128  14.262  0.6006  0.9698  0.3542
  595TMC3    C4 8818   2.619   4.367  14.138 -0.2272 -0.2863 -0.0543
  595TMC3    C5 8819   2.495   4.326  14.175  0.3490 -0.0797 -0.6494
  595TMC3    C6 8820   2.474   4.202  14.238 -0.2891 -1.1881 -0.9148
  595TMC3     C 8821   2.843   4.354  14.195  0.7404  0.4196 -0.2968
  595TMC3     O 8822   2.891   4.326  14.303 -0.2841 -0.6914  0.0797
  595TMC3     H 8823   2.806   4.117  14.257 -0.6283  0.3673  0.2819
  595TMC3    H1 8824   2.628   4.438  14.057  1.5626 -0.9218 -0.4240
  595TMC3    H2 8825   2.374   4.180  14.275  0.4110  0.6098  2.0112
  595TMC3    C7 8826   2.417   4.437  14.238  0.3836 -0.7065  0.0886
  595TMC3    C8 8827   2.574   4.017  14.357  0.5240  0.1900  0.3363
  595TMC3    O1 8828   2.320   4.405  14.311  0.3341  0.3572 -0.0181
  595TMC3    O2 8829   2.681   3.988  14.409 -0.3866 -0.2987  0.4075
  596MPD2     C 8830   1.242   1.954  16.464  0.6092 -0.2421 -0.1672
  596MPD2    C1 8831   1.261   2.076  16.404  0.7381  0.7179 -0.5109
  596MPD2    C2 8832   1.274   2.090  16.267 -0.0204 -0.3890  0.5816
  596MPD2    C3 8833   1.262   1.979  16.181 -0.4555  0.2393 -0.3241
  596MPD2    C4 8834   1.252   1.853  16.241 -0.4623  0.3186 -0.4065
  596MPD2    C5 8835   1.243   1.840  16.380 -0.2086 -0.2918  0.2073
  596MPD2     H 8836   1.277   2.190  16.227  0.0937 -0.6616 -0.0863
  596MPD2    H1 8837   1.219   1.774  16.175 -2.1076 -1.2054  2.2887
  596MPD2    H2 8838   1.242   1.936  16.571  1.2048 -3.5138 -0.7071
  596MPD2    H3 8839   1.226   1.740  16.419 -0.6204  0.3997  1.7697
  596MPD2     N 8840   1.247   1.986  16.042 -0.3050  0.4331  0.3666
  596MPD2    H5 8841   1.228   1.895  15.999  2.0481  0.1124  0.0124
  596MPD2    N1 8842   1.242   2.196  16.480 -0.2324 -0.1207  0.4924
  596MPD2    H7 8843   1.252   2.277  16.419  0.6423 -3.6437 -4.0298
  597TMC3    C1 8844   1.159   2.340  16.646 -0.3742 -0.2283 -0.3072
  597TMC3    C2 8845   1.228   2.450  16.598  0.1588 -0.3230  0.5826
  597TMC3    C3 8846   1.205   2.579  16.638 -0.0670 -0.3448 -0.1784
  597TMC3    C4 8847   1.078   2.370  16.757 -0.6111  0.6368  0.3908
  597TMC3    C5 8848   1.064   2.496  16.803 -0.4586 -0.3598 -0.3064
  597TMC3    C6 8849   1.116   2.611  16.737 -0.2137 -0.2553  0.2788
  597TMC3     C 8850   1.188   2.205  16.604 -0.7835 -0.3593 -0.0835
  597TMC3     O 8851   1.164   2.121  16.693  0.3950 -0.6654 -0.0396
  597TMC3     H 8852   1.309   2.437  16.527 -1.0092 -2.1746 -0.4280
  597TMC3    H1 8853   1.029   2.294  16.818  0.8590 -0.1759  0.5523
  597TMC3    H2 8854   1.118   2.712  16.776  1.7528 -0.1237 -0.1729
  597TMC3    C7 8855   0.985   2.523  16.921  0.1615 -0.3345 -0.6860
  597TMC3    C8 8856   1.279   2.674  16.560  0.1423 -0.0844 -0.1175
  597TMC3    O1 8857   0.955   2.428  16.992  0.6180 -0.4717 -0.4099
  597TMC3    O2 8858   1.325   2.637  16.452 -0.1522 -0.2630  0.2723
  598TMC3    C1 8859   3.918   3.806  15.235  0.2780 -1.0796 -0.3391
  598TMC3    C2 8860   3.816   3.715  15.222 -0.1594 -0.1774  0.5303
  598TMC3    C3 8861   3.806   3.651  15.100  0.1018  0.2302 -0.1519
  598TMC3    C4 8862   4.004   3.835  15.123 -0.2390 -0.1571 -0.4915
  598TMC3    C5 8863   3.989   3.773  15.002  0.8062  0.8696 -0.2016
  598TMC3    C6 8864   3.882   3.687  14.988 -0.3066 -0.2540  0.4567
  598TMC3     C 8865   3.979   3.807  15.362 -0.9005  1.0057 -0.5266
  598TMC3     O 8866   3.995   3.699  15.414  0.5115 -0.1439  0.2647
  598TMC3     H 8867   3.758   3.690  15.311  0.9728  0.7526  1.5241
  598TMC3    H1 8868   4.097   3.883  15.150  0.8839 -2.5064 -0.1288
  598TMC3    H2 8869   3.862   3.629  14.899  0.2465 -2.7168  1.9245
  598TMC3    C7 8870   4.100   3.782  14.903 -0.3992 -0.1620  0.8714
  598TMC3    C8 8871   3.684   3.567  15.078  0.7216  0.4091 -0.1373
  598TMC3    O1 8872   4.111   3.699  14.815 -0.2235 -0.5178  0.1086
  598TMC3    O2 8873   3.689   3.468  15.004  0.3343 -0.5117  0.0810
  599MPD2     C 8874   4.089   1.047  15.369 -0.0420  0.4871 -0.0083
  599MPD2    C1 8875   4.067   0.928  15.434 -0.1657 -0.6712  0.0989
  599MPD2    C2 8876   3.948   0.915  15.502 -0.0406  0.0490  0.9941
  599MPD2    C3 8877   3.859   1.017  15.511  0.2809  0.5552 -0.0131
  599MPD2    C4 8878   3.877   1.128  15.435  0.1213 -0.3496  1.0038
  599MPD2    C5 8879   3.999   1.147  15.369 -0.0884 -0.3425  0.8241
  599MPD2     H 8880   3.938   0.825  15.562 -0.0253 -1.9419 -1.9524
  599MPD2    H1 8881   3.808   1.211  15.443 -0.9742 -1.3073  1.4001
  599MPD2    H2 8882   4.175   1.066  15.307  0.1965  1.3227  0.5777
  599MPD2    H3 8883   4.012   1.245  15.325 -1.8282 -0.5183 -0.1019
  599MPD2     N 8884   3.750   1.006  15.599 -0.2416  0.0474 -0.0645
  599MPD2    H5 8885   3.703   1.094  15.616  3.0768  1.8869 -0.3872
  599MPD2    N1 8886   4.170   0.831  15.426 -0.2321 -0.1328 -0.5733
  599MPD2    H7 8887   4.254   0.864  15.378  0.0383  1.1257  0.7828
  600TMC3    C1 8888   3.644   0.926  15.801  0.5046 -0.0781  0.2042
  600TMC3    C2 8889   3.540   0.842  15.826  0.1544 -0.5430 -0.2476
  600TMC3    C3 8890   3.481   0.867  15.946  0.3848 -0.3415 -0.6941
  600TMC3    C4 8891   3.685   1.035  15.883  0.2275 -0.1637  0.0869
  600TMC3    C5 8892   3.624   1.046  16.006 -0.3198  0.1871  0.4146
  600TMC3    C6 8893   3.522   0.969  16.029 -0.3672 -0.4236  0.5326
  600TMC3     C 8894   3.708   0.896  15.669 -0.3618  0.3478 -0.0521
  600TMC3     O 8895   3.713   0.776  15.636 -0.4261 -0.4636 -0.3515
  600TMC3     H 8896   3.524   0.753  15.766  0.9924 -1.2120  0.5239
  600TMC3    H1 8897   3.777   1.086  15.856 -0.1560  1.5591  1.9414
  600TMC3    H2 8898   3.476   0.972  16.128  0.9437  0.7606  1.1114
  600TMC3    C7 8899   3.667   1.144  16.101 -0.1102  0.3161  0.0178
  600TMC3    C8 8900   3.389   0.768  15.999  0.3651  0.7129  0.1600
  600TMC3    O1 8901   3.602   1.149  16.207 -0.2053 -0.1757  0.2530
  600TMC3    O2 8902   3.385   0.759  16.120 -0.1747  0.6827 -0.0696
  601MPD2     C 8903   1.583   3.515  17.463  0.4337 -0.2285  0.1567
  601MPD2    C1 8904   1.456   3.541  17.520 -0.0091 -0.1040  0.1971
  601MPD2    C2 8905   1.361   3.448  17.520 -0.4528  0.2903  0.0425
  601MPD2    C3 8906   1.389   3.312  17.490  0.0526  0.3682  0.1295
  601MPD2    C4 8907   1.519   3.279  17.465 -0.7068  0.7956  0.3436
  601MPD2    C5 8908   1.611   3.377  17.447 -0.6687 -0.3319 -0.4136
  601MPD2     H 8909   1.259   3.471  17.545 -0.7206 -0.2168 -0.5647
  601MPD2    H1 8910   1.549   3.177  17.445  2.2887  1.4206  1.6582
  601MPD2    H2 8911   1.664   3.587  17.467 -0.3461  0.6092  1.1085
  601MPD2    H3 8912   1.714   3.351  17.426 -0.8845 -2.2472  0.9609
  601MPD2     N 8913   1.290   3.213  17.487 -0.5883 -0.0977  0.1895
  601MPD2    H5 8914   1.321   3.120  17.461  1.7745  0.6982  0.1475
  601MPD2    N1 8915   1.411   3.666  17.562 -0.2062  0.1371  0.0752
  601MPD2    H7 8916   1.311   3.681  17.571 -0.5157 -0.5227 -2.5255
  602TMC3    C1 8917   1.418   3.895  17.598  0.0160 -0.7380  0.5861
  602TMC3    C2 8918   1.478   4.006  17.540  0.2352  0.2790 -0.4091
  602TMC3    C3 8919   1.391   4.106  17.500 -0.2941 -0.0835  0.8026
  602TMC3    C4 8920   1.278   3.885  17.599  0.1800 -0.0418  0.6208
  602TMC3    C5 8921   1.201   3.984  17.546 -0.0243 -0.3703  0.5889
  602TMC3    C6 8922   1.256   4.088  17.486  0.1054 -0.4279 -0.0706
  602TMC3     C 8923   1.492   3.772  17.575 -0.6795 -0.4105 -0.1423
  602TMC3     O 8924   1.617   3.788  17.575  0.1174  0.3126  0.1471
  602TMC3     H 8925   1.584   4.017  17.520  0.1511  1.1189 -0.3934
  602TMC3    H1 8926   1.226   3.798  17.638  0.3689 -1.4644 -2.2921
  602TMC3    H2 8927   1.193   4.153  17.425  2.5754  3.2817  1.3134
  602TMC3    C7 8928   1.056   3.955  17.527 -0.2912 -0.0595 -0.2046
  602TMC3    C8 8929   1.450   4.212  17.412 -0.2843 -0.2742 -0.0048
  602TMC3    O1 8930   1.018   3.838  17.507 -0.3341  0.5132 -0.5775
  602TMC3    O2 8931   1.552   4.190  17.351 -0.3228  0.1577 -0.5771
  603TMC3    C1 8932   3.904   0.363  10.450  0.1192 -0.3287  0.1886
  603TMC3    C2 8933   3.937   0.344  10.581 -1.2204 -0.1388 -0.4437
  603TMC3    C3 8934   3.991   0.439  10.652  0.2918  0.0526 -0.4888
  603TMC3    C4 8935   3.931   0.482  10.388 -0.1964 -0.6488  0.6061
  603TMC3    C5 8936   3.977   0.587  10.472  0.2892 -0.3036  0.0032
  603TMC3    C6 8937   3.996   0.569  10.608  0.4679 -0.5066  0.1452
  603TMC3     C 8938   3.839   0.260  10.370  0.1708  0.4371  0.0405
  603TMC3     O 8939   3.839   0.278  10.253 -0.0677  0.1073  0.1961
  603TMC3     H 8940   3.913   0.253  10.635 -2.0117 -0.7735 -1.8692
  603TMC3    H1 8941   3.939   0.487  10.280 -2.2297  0.2481  0.4862
  603TMC3    H2 8942   4.055   0.645  10.658  2.5860 -2.7254  1.0251
  603TMC3    C7 8943   4.026   0.702  10.401 -0.6151  0.2040  0.4585
  603TMC3    C8 8944   4.014   0.410  10.793  0.3408 -0.4576  0.6015
  603TMC3    O1 8945   4.130   0.763  10.426  0.0197 -0.0582  0.8035
  603TMC3    O2 8946   4.027   0.292  10.823 -0.6145 -0.1011 -0.2539
  604MPD2     C 8947   0.197   2.995  16.623 -0.2476 -0.4407 -0.1498
  604MPD2    C1 8948   0.096   3.082  16.576 -0.3592 -0.1871 -0.5020
  604MPD2    C2 8949   0.052   3.072  16.446  0.0555  0.5756 -0.8088
  604MPD2    C3 8950   0.114   2.982  16.354  0.1987  0.8184 -0.0833
  604MPD2    C4 8951   0.206   2.893  16.409 -0.3523 -0.3627  0.2118
  604MPD2    C5 8952   0.242   2.900  16.541 -0.6409 -0.1426  0.6671
  604MPD2     H 8953   4.687   3.124  16.408 -1.3500 -0.2983  1.2591
  604MPD2    H1 8954   0.255   2.813  16.354 -0.8826 -1.2627  1.0489
  604MPD2    H2 8955   0.233   3.005  16.725 -1.3446 -1.3552  0.3209
  604MPD2    H3 8956   0.311   2.826  16.581  0.1837 -0.5150 -1.4336
  604MPD2     N 8957   0.070   2.974  16.217  0.1839 -0.4456 -0.0123
  604MPD2    H5 8958   4.716   3.040  16.203 -0.1608 -1.0475 -0.9417
  604MPD2    N1 8959   0.051   3.181  16.660  0.0391  0.0487  0.1257
  604MPD2    H7 8960   0.091   3.187  16.753 -1.0199  1.6587  0.4860
  605TMC3    C1 8961   4.666   3.377  16.737 -0.5259  0.0336  0.3563
  605TMC3    C2 8962   0.059   3.412  16.802  0.8172  0.7851 -0.2596
  605TMC3    C3 8963   0.048   3.519  16.886  0.2821  0.2272  0.5210
  605TMC3    C4 8964   4.550   3.450  16.742 -1.0017 -0.5575 -0.0940
  605TMC3    C5 8965   4.538   3.548  16.836 -0.6901  0.3072  0.2225
  605TMC3    C6 8966   4.651   3.582  16.913  0.5020 -0.4108  0.2538
  605TMC3     C 8967   4.668   3.260  16.643 -0.2640  0.2231  0.3795
  605TMC3     O 8968   4.575   3.252  16.563 -0.1566  0.0046  0.2953
  605TMC3     H 8969   0.154   3.369  16.771 -0.5795 -1.5764 -1.2217
  605TMC3    H1 8970   4.466   3.412  16.685 -0.8355 -0.7362 -0.2214
  605TMC3    H2 8971   4.641   3.660  16.987  0.8634 -0.3640  0.2541
  605TMC3    C7 8972   4.417   3.630  16.833  0.5245 -0.2833  0.5571
  605TMC3    C8 8973   0.167   3.588  16.921 -0.2151 -0.4254 -0.1488
  605TMC3    O1 8974   4.315   3.585  16.785  0.3463 -0.0788  0.4831
  605TMC3    O2 8975   0.256   3.597  16.836 -0.2953  0.2454  0.0934
  606TMC3    C1 8976   1.733   1.388  17.080  0.2513 -0.1892  0.5117
  606TMC3    C2 8977   1.854   1.333  17.106  0.4173 -0.0389  0.9741
  606TMC3    C3 8978   1.854   1.196  17.114  0.6253  0.5850  0.2072
  606TMC3    C4 8979   1.615   1.317  17.064 -0.7889  0.1374  0.6056
  606TMC3    C5 8980   1.628   1.181  17.055 -0.2321  0.5871 -0.0404
  606TMC3    C6 8981   1.747   1.117  17.081  0.7845 -0.5745 -0.3422
  606TMC3     C 8982   1.734   1.520  17.025 -0.8746  0.2446  0.0482
  606TMC3     O 8983   1.629   1.541  16.961 -0.2907 -0.0451  0.8466
  606TMC3     H 8984   1.950   1.380  17.123 -0.1274  0.5505  2.4315
  606TMC3    H1 8985   1.520   1.368  17.052 -0.7638 -0.1302 -0.7382
  606TMC3    H2 8986   1.748   1.008  17.087  1.7785 -0.3669  3.4359
  606TMC3    C7 8987   1.510   1.098  17.054 -0.8877  0.3912  0.2633
  606TMC3    C8 8988   1.974   1.134  17.170  0.6525  0.6541 -0.5918
  606TMC3    O1 8989   1.538   0.981  17.019  0.2952  0.2796  0.1604
  606TMC3    O2 8990   2.072   1.202  17.182 -0.6156  0.0813 -0.2335
  607MPD2     C 8991   3.404   0.124  11.436 -0.1355  0.3553 -0.1315
  607MPD2    C1 8992   3.487   0.173  11.545  0.2902 -0.2812  0.1298
  607MPD2    C2 8993   3.456   0.128  11.667  0.1613 -0.6601 -0.2663
  607MPD2    C3 8994   3.369   0.030  11.690 -0.6604  0.2035 -0.1426
  607MPD2    C4 8995   3.299   4.697  11.580  0.7104 -0.2770  0.5762
  607MPD2    C5 8996   3.307   0.031  11.458 -0.2041  0.2684 -0.4107
  607MPD2     H 8997   3.514   0.164  11.752 -0.8479 -1.0262  0.5824
  607MPD2    H1 8998   3.226   4.619  11.594 -1.9216  1.8027 -1.5512
  607MPD2    H2 8999   3.427   0.158  11.336  3.1313 -2.2055 -0.2153
  607MPD2    H3 9000   3.242   4.721  11.378  0.2551  0.7842 -1.0008
  607MPD2     N 9001   3.357   4.714  11.827 -0.4217 -0.3297  0.2154
  607MPD2    H5 9002   3.409   0.045  11.896 -1.7478  0.2573  0.7691
  607MPD2    N1 9003   3.586   0.268  11.530 -0.0448 -0.0140 -0.0169
  607MPD2    H7 9004   3.639   0.289  11.613 -0.0243  1.3446 -0.3791
  608TMC3    C1 9005   3.701   0.453  11.439 -0.2038 -0.2317 -0.3271
  608TMC3    C2 9006   3.712   0.476  11.572  0.4014 -0.0416 -0.5240
  608TMC3    C3 9007   3.707   0.603  11.619 -0.4481  0.3898 -0.7028
  608TMC3    C4 9008   3.671   0.553  11.355 -0.8362 -0.5271 -0.7757
  608TMC3    C5 9009   3.666   0.679  11.407 -0.1294  0.0356 -0.3034
  608TMC3    C6 9010   3.682   0.709  11.540  0.6401 -0.1247  0.0684
  608TMC3     C 9011   3.612   0.342  11.414  0.0682  0.5303  0.5463
  608TMC3     O 9012   3.569   0.332  11.302  0.4577  0.4229 -0.4436
  608TMC3     H 9013   3.775   0.409  11.629 -1.2789 -0.8541  0.3746
  608TMC3    H1 9014   3.662   0.538  11.248  0.5236  0.8599 -1.0785
  608TMC3    H2 9015   3.678   0.811  11.576 -1.3913 -0.8144  1.7908
  608TMC3    C7 9016   3.679   0.782  11.306 -0.2258 -0.1261  0.2480
  608TMC3    C8 9017   3.670   0.635  11.758  0.3157 -0.1351 -0.3179
  608TMC3    O1 9018   3.655   0.755  11.189 -0.2308  0.5284 -0.1234
  608TMC3    O2 9019   3.659   0.751  11.784 -0.0081  0.3950 -0.1337
  609TMC3    C1 9020   1.457   3.461   9.639 -0.0139  0.8024  0.4895
  609TMC3    C2 9021   1.363   3.460   9.532 -0.6780  0.6019 -0.6245
  609TMC3    C3 9022   1.407   3.390   9.416 -0.1901 -0.0600  0.0463
  609TMC3    C4 9023   1.581   3.412   9.630 -0.1356  0.2716 -0.2548
  609TMC3    C5 9024   1.616   3.340   9.522 -0.5944  0.3587 -0.0112
  609TMC3    C6 9025   1.529   3.327   9.415  0.1876  0.0720  0.1699
  609TMC3     C 9026   1.423   3.528   9.768  0.3663  0.4210  0.4444
  609TMC3     O 9027   1.520   3.558   9.841  0.2153 -0.3063 -0.3035
  609TMC3     H 9028   1.276   3.525   9.528 -1.4451 -0.4561 -1.1129
  609TMC3    H1 9029   1.649   3.429   9.713  0.0478  1.2434 -0.6095
  609TMC3    H2 9030   1.573   3.282   9.326  0.0155 -1.1629  0.7108
  609TMC3    C7 9031   1.751   3.281   9.537 -0.2208  0.5693 -0.0671
  609TMC3    C8 9032   1.324   3.411   9.297 -0.4106 -0.1612  0.2596
  609TMC3    O1 9033   1.817   3.331   9.629  0.3123 -0.0251  0.1521
  609TMC3    O2 9034   1.237   3.497   9.299 -0.3591  0.3588 -0.1223
  610TMC3    C1 9035   3.750   0.161  12.371  0.0554  0.2736 -0.8275
  610TMC3    C2 9036   3.807   0.220  12.262 -0.6679  0.5281 -0.8149
  610TMC3    C3 9037   3.909   0.150  12.205  0.0098  0.6507 -0.0155
  610TMC3    C4 9038   3.804   0.055  12.437  0.0225  0.3452 -0.3345
  610TMC3    C5 9039   3.900   4.700  12.374 -0.2625 -0.5433 -0.5268
  610TMC3    C6 9040   3.959   0.031  12.256 -0.2379 -0.2791 -0.2798
  610TMC3     C 9041   3.650   0.236  12.441 -0.6305 -0.7551  0.6356
  610TMC3     O 9042   3.571   0.174  12.508 -0.7500 -0.4940 -1.1094
  610TMC3     H 9043   3.778   0.316  12.220 -0.8349 -0.6870 -3.4848
  610TMC3    H1 9044   3.755   0.014  12.524 -0.0679  0.1371 -0.4839
  610TMC3    H2 9045   4.040   4.707  12.201 -0.3512  0.2556 -0.8942
  610TMC3    C7 9046   3.986   4.609  12.452 -0.4293 -0.0825  0.2223
  610TMC3    C8 9047   3.975   0.215  12.093  0.0592 -0.3288 -0.3393
  610TMC3    O1 9048   4.104   4.602  12.413  0.1383  0.2305  0.1980
  610TMC3    O2 9049   3.907   0.287  12.022  0.2410  0.1460  0.3456
  611MPD2     C 9050   3.349   0.105   9.854  0.6553  0.1263  0.3248
  611MPD2    C1 9051   3.242   0.191   9.830 -0.1805  0.7597  0.2715
  611MPD2    C2 9052   3.266   0.324   9.791 -0.3617  0.0907 -0.0120
  611MPD2    C3 9053   3.398   0.364   9.779 -0.0595  0.7173 -0.7155
  611MPD2    C4 9054   3.505   0.275   9.809  0.7439 -0.1970 -0.3243
  611MPD2    C5 9055   3.478   0.146   9.851  0.5343  0.0849 -0.5117
  611MPD2     H 9056   3.188   0.397   9.776 -0.4077  0.1985  0.7443
  611MPD2    H1 9057   3.604   0.316   9.797 -0.0882  1.3127 -2.0505
  611MPD2    H2 9058   3.338   0.000   9.881  4.6440  0.0596  1.8093
  611MPD2    H3 9059   3.564   0.082   9.865 -0.6244 -1.3120  0.1965
  611MPD2     N 9060   3.435   0.503   9.757  0.1225  0.0715 -0.2510
  611MPD2    H5 9061   3.535   0.525   9.755  0.0632  0.3738  0.3811
  611MPD2    N1 9062   3.118   0.135   9.856 -0.1217 -0.0180 -0.8813
  611MPD2    H7 9063   3.105   0.036   9.873  1.9262 -0.3295 -1.1650
  612TMC3    C1 9064   3.418   0.737   9.718  0.2563  0.4632  0.4966
  612TMC3    C2 9065   3.554   0.752   9.732  0.6729 -0.6180 -0.0787
  612TMC3    C3 9066   3.613   0.871   9.691  0.0824  0.0664 -0.2945
  612TMC3    C4 9067   3.351   0.833   9.651 -0.2838  0.0320  0.5386
  612TMC3    C5 9068   3.404   0.961   9.644 -0.3349  0.0354 -0.1787
  612TMC3    C6 9069   3.541   0.983   9.652  0.7641  0.3740  0.0550
  612TMC3     C 9070   3.352   0.609   9.724 -0.3461 -0.0160  0.0224
  612TMC3     O 9071   3.232   0.611   9.702 -0.0609  0.6563  0.2357
  612TMC3     H 9072   3.614   0.677   9.782  0.0875 -0.3987  0.9509
  612TMC3    H1 9073   3.244   0.826   9.635 -0.2136 -0.1393  0.1582
  612TMC3    H2 9074   3.594   1.077   9.639  1.3477 -0.2330 -1.9946
  612TMC3    C7 9075   3.316   1.069   9.678  0.1874  0.3910 -0.1612
  612TMC3    C8 9076   3.736   0.910   9.759 -0.5644  0.1468 -0.3518
  612TMC3    O1 9077   3.210   1.023   9.722  0.1552 -0.0904  0.3941
  612TMC3    O2 9078   3.803   1.013   9.723 -0.0808  0.1668 -0.4552
  613MPD2     C 9079   2.594   1.515  16.369 -0.2786 -0.4670  0.1580
  613MPD2    C1 9080   2.599   1.546  16.231 -0.4465  0.1140 -0.2244
  613MPD2    C2 9081   2.539   1.456  16.146  1.1230  0.1911  0.5049
  613MPD2    C3 9082   2.473   1.348  16.190  0.2471  0.1366 -0.3868
  613MPD2    C4 9083   2.473   1.314  16.325  0.3325  0.4950 -0.1367
  613MPD2    C5 9084   2.530   1.403  16.416  0.2501 -0.5189 -0.1983
  613MPD2     H 9085   2.539   1.478  16.040 -1.7279  1.2167  0.7111
  613MPD2    H1 9086   2.418   1.229  16.363  0.5882  1.0206  1.4014
  613MPD2    H2 9087   2.633   1.586  16.441 -0.3452  1.1080 -1.3467
  613MPD2    H3 9088   2.516   1.393  16.523  0.5593 -2.0390 -0.3038
  613MPD2     N 9089   2.407   1.260  16.101 -0.3022  0.1802 -0.2776
  613MPD2    H5 9090   2.387   1.166  16.134 -1.4805 -0.1647 -1.9479
  613MPD2    N1 9091   2.678   1.650  16.181  0.8292 -0.0768  0.1204
  613MPD2    H7 9092   2.718   1.712  16.250 -1.6904  1.3632  0.2536
  614TMC3    C1 9093   2.785   1.788  16.031 -0.2674  0.2127 -0.1757
  614TMC3    C2 9094   2.861   1.775  15.916 -0.1948  0.4119  0.1731
  614TMC3    C3 9095   2.850   1.858  15.809  0.5352 -0.6726 -0.1298
  614TMC3    C4 9096   2.697   1.889  16.039 -0.3529 -0.2975  0.3510
  614TMC3    C5 9097   2.692   1.971  15.931  0.6304  0.4955 -0.4510
  614TMC3    C6 9098   2.759   1.960  15.815  0.3999  0.5865  0.4759
  614TMC3     C 9099   2.719   1.668  16.050 -0.2974  0.4026  0.1664
  614TMC3     O 9100   2.726   1.589  15.955  0.4226  0.4026  0.6880
  614TMC3     H 9101   2.933   1.693  15.911  1.6059  1.9984 -0.0015
  614TMC3    H1 9102   2.621   1.891  16.116 -0.8033 -1.0281 -0.0765
  614TMC3    H2 9103   2.744   2.028  15.732 -1.7135  2.1886  2.1569
  614TMC3    C7 9104   2.582   2.065  15.941  0.1280  0.3456  1.1509
  614TMC3    C8 9105   2.847   1.788  15.682 -0.4618  0.1803 -0.0083
  614TMC3    O1 9106   2.539   2.092  16.055  0.2045 -0.1189  1.2494
  614TMC3    O2 9107   2.871   1.857  15.582  0.3311  0.2013  0.2992
  615MPD2     C 9108   2.210   3.754  15.556 -0.4586  0.1224  0.2400
  615MPD2    C1 9109   2.144   3.845  15.634  0.3458 -0.2830 -0.2892
  615MPD2    C2 9110   2.010   3.827  15.664 -0.3354 -0.0892  0.0957
  615MPD2    C3 9111   1.936   3.732  15.601  0.3609 -0.2815 -0.0627
  615MPD2    C4 9112   2.001   3.649  15.516 -0.0062 -0.2447 -0.0528
  615MPD2    C5 9113   2.135   3.650  15.500 -0.2163 -0.5003 -0.1986
  615MPD2     H 9114   1.961   3.897  15.730  0.0525 -0.7524  1.0803
  615MPD2    H1 9115   1.940   3.573  15.468  1.1434 -2.1905  1.5499
  615MPD2    H2 9116   2.315   3.759  15.528 -1.3047  2.2915 -2.6078
  615MPD2    H3 9117   2.177   3.578  15.430  3.4630  0.1280  1.3560
  615MPD2     N 9118   1.796   3.724  15.623  0.2781 -0.5567  0.0615
  615MPD2    H5 9119   1.746   3.651  15.574  0.7517 -0.3218 -0.7951
  615MPD2    N1 9120   2.210   3.958  15.689 -0.6709  0.2418  0.0288
  615MPD2    H7 9121   2.153   4.016  15.750 -2.5551 -0.2538 -1.2591
  616TMC3    C1 9122   2.362   4.115  15.755 -0.1020  0.3098 -0.0053
  616TMC3    C2 9123   2.485   4.134  15.820 -0.5038 -0.6955  0.1248
  616TMC3    C3 9124   2.504   4.256  15.885  0.0279  0.0908 -0.0748
  616TMC3    C4 9125   2.257   4.201  15.771 -0.2293 -0.1049 -0.0282
  616TMC3    C5 9126   2.273   4.308  15.852 -0.1537  0.0408 -0.3029
  616TMC3    C6 9127   2.398   4.346  15.901 -0.1285 -0.1848 -0.8797
  616TMC3     C 9128   2.342   3.999  15.674  0.0783  0.7798 -1.0285
  616TMC3     O 9129   2.443   3.949  15.617  0.2120 -0.2644 -0.5538
  616TMC3     H 9130   2.557   4.055  15.805 -1.3809 -1.3807 -0.4411
  616TMC3    H1 9131   2.174   4.191  15.701  0.8025  1.6774 -1.5069
  616TMC3    H2 9132   2.407   4.442  15.951 -0.8506  0.8219 -2.6721
  616TMC3    C7 9133   2.163   4.403  15.860  0.2737 -0.1052  0.1599
  616TMC3    C8 9134   2.641   4.311  15.894  0.1416 -0.2662 -0.0849
  616TMC3    O1 9135   2.188   4.524  15.857  0.1255 -0.2947  0.2291
  616TMC3    O2 9136   2.659   4.435  15.899 -0.3785  0.0743  0.1821
  617MPD2     C 9137   4.684   1.963  14.205  0.3624  0.0919 -0.3024
  617MPD2    C1 9138   4.700   1.856  14.125 -0.3093 -0.3380 -0.4424
  617MPD2    C2 9139   4.591   1.779  14.089 -0.2907  0.4198 -0.1990
  617MPD2    C3 9140   4.467   1.800  14.152  0.3235 -0.0955 -0.1934
  617MPD2    C4 9141   4.460   1.905  14.244  0.5669 -0.3815 -0.2815
  617MPD2    C5 9142   4.564   1.987  14.265  0.3500  0.3377  0.3151
  617MPD2     H 9143   4.610   1.694  14.025  0.1720  0.4868 -0.1503
  617MPD2    H1 9144   4.366   1.929  14.293  1.7494  0.6818  1.4364
  617MPD2    H2 9145   0.046   2.025  14.232  0.1744  0.3858 -0.3906
  617MPD2    H3 9146   4.551   2.075  14.328 -0.0905  0.6620 -0.2265
  617MPD2     N 9147   4.357   1.716  14.140 -0.2800 -0.3302  0.1111
  617MPD2    H5 9148   4.288   1.735  14.211  0.3098 -0.6537  0.7669
  617MPD2    N1 9149   0.105   1.837  14.070  0.3880  0.3103  0.1317
  617MPD2    H7 9150   0.167   1.917  14.078  1.7649 -0.6900 -0.6024
  618TMC3    C1 9151   0.258   1.736  13.934 -0.2408 -0.9355 -0.5892
  618TMC3    C2 9152   0.309   1.617  13.890 -0.3521 -0.0444  0.3901
  618TMC3    C3 9153   0.429   1.625  13.820 -0.1108  0.4733 -0.2055
  618TMC3    C4 9154   0.312   1.857  13.897 -0.2410  0.3848  0.4477
  618TMC3    C5 9155   0.422   1.855  13.821 -1.2719 -0.1179 -1.3265
  618TMC3    C6 9156   0.495   1.742  13.798 -0.3892  0.1406 -0.5128
  618TMC3     C 9157   0.147   1.716  14.024 -0.1228  0.3217  0.8523
  618TMC3     O 9158   0.101   1.604  14.046 -0.1209 -0.1634  0.9851
  618TMC3     H 9159   0.253   1.524  13.885  1.1798 -0.9016 -0.9822
  618TMC3    H1 9160   0.262   1.952  13.910 -0.0931  0.5536 -0.1910
  618TMC3    H2 9161   0.585   1.741  13.738  0.5464 -1.5226  0.8918
  618TMC3    C7 9162   0.411   1.952  13.717  0.1320 -0.0371  0.2603
  618TMC3    C8 9163   0.459   1.500  13.750 -0.0060 -0.9213 -0.0665
  618TMC3    O1 9164   0.298   1.988  13.684 -0.3006  0.2151 -0.5272
  618TMC3    O2 9165   0.425   1.401  13.813  0.4434  0.2224  0.3452
  619MPD2     C 9166   1.632   3.108  14.268  0.5831  0.4432  0.7077
  619MPD2    C1 9167   1.587   3.066  14.144  0.6600 -0.5126 -0.1919
  619MPD2    C2 9168   1.466   3.001  14.135  0.2666  0.7599 -0.4039
  619MPD2    C3 9169   1.381   2.977  14.243 -0.1569 -0.4706  0.2468
  619MPD2    C4 9170   1.428   3.015  14.364  0.0984 -0.8407 -0.2273
  619MPD2    C5 9171   1.548   3.086  14.374 -0.2740  0.3105 -0.1230
  619MPD2     H 9172   1.434   2.972  14.036  3.4003 -1.1139 -0.8409
  619MPD2    H1 9173   1.361   3.008  14.449  0.3008  0.5605  0.0416
  619MPD2    H2 9174   1.724   3.156  14.301  0.5575  0.5709  0.5939
  619MPD2    H3 9175   1.595   3.105  14.469  0.5869  0.0280 -0.4906
  619MPD2     N 9176   1.253   2.913  14.226  0.3632 -0.2497  0.6268
  619MPD2    H5 9177   1.207   2.902  14.316 -1.7083  1.5694 -0.2061
  619MPD2    N1 9178   1.651   3.091  14.019  0.0800 -0.7049  0.2573
  619MPD2    H7 9179   1.595   3.069  13.937 -0.0893 -0.6531  0.3612
  620TMC3    C1 9180   1.770   3.232  13.870 -0.1015 -0.2219  0.2300
  620TMC3    C2 9181   1.659   3.207  13.784 -0.3475 -0.4089 -0.8072
  620TMC3    C3 9182   1.622   3.303  13.696  0.1847 -0.4321 -0.4062
  620TMC3    C4 9183   1.838   3.352  13.870 -0.5335  0.1436 -0.6867
  620TMC3    C5 9184   1.800   3.438  13.775 -0.3584  0.6645  0.6933
  620TMC3    C6 9185   1.695   3.419  13.686  0.0575  0.5769 -0.1217
  620TMC3     C 9186   1.768   3.166  14.002 -0.0621 -0.0433  0.1511
  620TMC3     O 9187   1.847   3.210  14.088 -0.3918  0.0357  0.3143
  620TMC3     H 9188   1.601   3.116  13.794  0.2499 -0.4335  2.3178
  620TMC3    H1 9189   1.914   3.382  13.941 -1.5191 -0.4391  0.6015
  620TMC3    H2 9190   1.667   3.497  13.616 -0.1151  0.1026 -0.5826
  620TMC3    C7 9191   1.845   3.574  13.792  0.3570 -0.9813 -0.1386
  620TMC3    C8 9192   1.491   3.300  13.630  0.3138 -0.0279 -0.3298
  620TMC3    O1 9193   1.962   3.598  13.819 -0.1523 -0.1136  0.0666
  620TMC3    O2 9194   1.439   3.402  13.592  0.1161 -0.1764 -0.0555
  621MPD2     C 9195   1.656   2.658   9.950 -0.0513 -1.0191  0.0686
  621MPD2    C1 9196   1.750   2.632  10.044 -0.1224  0.0206  0.7690
  621MPD2    C2 9197   1.794   2.732  10.135  0.3383  0.5176 -0.3157
  621MPD2    C3 9198   1.746   2.862  10.125 -0.9410  0.2387 -0.2229
  621MPD2    C4 9199   1.648   2.883  10.036  0.8949  0.1965 -0.0151
  621MPD2    C5 9200   1.602   2.784   9.946  0.4055 -0.3748  0.1983
  621MPD2     H 9201   1.877   2.719  10.203 -0.1715 -0.1934  0.1703
  621MPD2    H1 9202   1.604   2.981  10.035  0.2610 -0.0869  0.0592
  621MPD2    H2 9203   1.617   2.583   9.882 -1.2902 -2.9147  2.8971
  621MPD2    H3 9204   1.536   2.813   9.865 -2.6526 -2.5200  1.9211
  621MPD2     N 9205   1.788   2.962  10.224  0.3476  0.1039 -0.4591
  621MPD2    H5 9206   1.863   2.945  10.290 -0.7355 -1.7731  0.2619
  621MPD2    N1 9207   1.793   2.496  10.046  0.6461  0.0279  0.8865
  621MPD2    H7 9208   1.758   2.442   9.967 -2.3000  1.6789  1.0608
  622TMC3    C1 9209   1.956   2.323  10.074  0.9414 -0.2184 -0.0985
  622TMC3    C2 9210   1.960   2.239  10.178 -0.2598 -0.4132 -0.0451
  622TMC3    C3 9211   1.955   2.100  10.163  0.0193  0.0690  0.2418
  622TMC3    C4 9212   1.942   2.273   9.951  0.8285  0.4391 -0.6150
  622TMC3    C5 9213   1.942   2.137   9.934  0.1313 -0.2053  0.1594
  622TMC3    C6 9214   1.948   2.053  10.035 -0.1504 -0.5291  0.4988
  622TMC3     C 9215   1.895   2.452  10.120  0.1714  0.3473 -0.1152
  622TMC3     O 9216   1.951   2.505  10.216  0.2356 -0.8192  0.1773
  622TMC3     H 9217   1.951   2.282  10.277 -1.2200  0.1356 -0.3826
  622TMC3    H1 9218   1.921   2.329   9.861  0.1745  2.8202  1.0322
  622TMC3    H2 9219   1.931   1.948  10.015  1.4432 -0.6169 -0.4354
  622TMC3    C7 9220   1.876   2.078   9.824 -0.1902  0.1534  0.1536
  622TMC3    C8 9221   1.863   2.051  10.263 -0.5014  0.5399  0.3251
  622TMC3    O1 9222   1.788   2.007   9.868  0.5457  0.3737 -0.0908
  622TMC3    O2 9223   1.871   2.075  10.385 -0.3134  0.5131 -0.3249
  623MPD2     C 9224   0.342   3.299  16.459 -1.0289 -0.0547  0.5386
  623MPD2    C1 9225   0.341   3.430  16.500 -0.0394 -0.3176  0.2229
  623MPD2    C2 9226   0.459   3.483  16.546  0.2894 -0.1880  0.0531
  623MPD2    C3 9227   0.574   3.405  16.551 -0.5745 -0.4559  0.1988
  623MPD2    C4 9228   0.572   3.278  16.513 -0.0996  0.4607  0.2936
  623MPD2    C5 9229   0.452   3.220  16.472 -0.4528 -0.0568 -0.0453
  623MPD2     H 9230   0.461   3.581  16.591  0.8860  0.5965 -1.7050
  623MPD2    H1 9231   0.664   3.221  16.512 -0.7820 -0.6323 -0.2026
  623MPD2    H2 9232   0.255   3.251  16.416 -0.2772 -2.4203  1.6533
  623MPD2    H3 9233   0.450   3.120  16.430  0.9145 -0.2512  0.3532
  623MPD2     N 9234   0.681   3.477  16.616  0.3050 -0.6574  0.0417
  623MPD2    H5 9235   0.656   3.572  16.640 -1.0857 -1.2436  0.9155
  623MPD2    N1 9236   0.229   3.520  16.495  0.8101  0.2641  0.3253
  623MPD2    H7 9237   0.250   3.617  16.518 -1.9893  0.5412  1.6307
  624TMC3    C1 9238   1.078   3.601  16.807  0.2054 -0.0916 -0.6530
  624TMC3    C2 9239   1.012   3.648  16.913  0.6420  0.2824 -0.9487
  624TMC3    C3 9240   0.875   3.633  16.929  0.1022  0.2456 -0.2411
  624TMC3    C4 9241   1.014   3.529  16.710  0.3795  0.3053 -0.4020
  624TMC3    C5 9242   0.881   3.506  16.723  0.2553  0.1180 -0.0226
  624TMC3    C6 9243   0.811   3.557  16.829 -0.0133 -0.2808 -0.3843
  624TMC3     C 9244   1.218   3.607  16.816 -0.2734  0.4892  0.3371
  624TMC3     O 9245   1.271   3.658  16.915  0.0840 -0.3917 -0.0697
  624TMC3     H 9246   1.059   3.719  16.980  0.6678  0.2839 -0.9682
  624TMC3    H1 9247   1.059   3.475  16.627 -0.3116  0.3528 -0.8070
  624TMC3    H2 9248   0.711   3.520  16.847 -0.5252  0.3019 -1.9634
  624TMC3    C7 9249   0.809   3.436  16.625 -0.1746  0.6217 -0.6615
  624TMC3    C8 9250   0.797   3.693  17.041  0.0658 -0.5768  0.2060
  624TMC3    O1 9251   0.870   3.340  16.584  0.2187 -0.1828  0.2310
  624TMC3    O2 9252   0.844   3.724  17.153 -0.1433 -0.3486 -0.2653
  625MPD2     C 9253   0.694   4.541   0.732 -0.1821 -0.5709  1.0324
  625MPD2    C1 9254   0.761   4.657   0.751 -0.2221  0.2457  0.5915
  625MPD2    C2 9255   0.877   4.666   0.822  0.2652 -0.4074  0.1109
  625MPD2    C3 9256   0.935   4.552   0.872  0.2882 -0.3069 -0.7919
  625MPD2    C4 9257   0.870   4.427   0.850  0.5868 -0.4096  0.3922
  625MPD2    C5 9258   0.753   4.428   0.784  0.3426 -0.0726 -0.3390
  625MPD2     H 9259   0.910   0.038   0.863 -0.6524 -0.4058  0.8639
  625MPD2    H1 9260   0.918   4.335   0.879  1.5468 -0.0452 -0.0100
  625MPD2    H2 9261   0.599   4.537   0.681  0.0110  1.1005  0.5265
  625MPD2    H3 9262   0.694   4.338   0.775  2.4982 -1.5904  0.6746
  625MPD2     N 9263   1.049   4.563   0.950 -0.5998 -0.4758 -1.0193
  625MPD2    H5 9264   1.086   4.655   0.973  0.8867 -1.0611 -1.0500
  625MPD2    N1 9265   0.710   0.058   0.717 -0.0926  0.3674  0.8566
  625MPD2    H7 9266   0.762   0.139   0.751 -0.7798  1.5224 -0.8544
  626TMC3    C1 9267   0.581   0.232   0.653 -0.2237 -0.1338  0.1023
  626TMC3    C2 9268   0.600   0.289   0.531 -0.3879  0.5165 -0.9513
  626TMC3    C3 9269   0.627   0.422   0.527 -0.2159  0.5327 -0.7941
  626TMC3    C4 9270   0.586   0.295   0.774 -0.1491 -0.0773 -0.5959
  626TMC3    C5 9271   0.588   0.436   0.761 -0.4998 -1.0064 -0.7415
  626TMC3    C6 9272   0.619   0.497   0.642  0.1117  0.1074  0.6104
  626TMC3     C 9273   0.601   0.091   0.646  0.1979  0.0842 -0.6702
  626TMC3     O 9274   0.524   0.023   0.584 -0.1968 -0.3678 -0.0734
  626TMC3     H 9275   0.601   0.230   0.439 -1.9871 -2.0709  0.6876
  626TMC3    H1 9276   0.549   0.250   0.866  0.7930  0.7195  0.1662
  626TMC3    H2 9277   0.618   0.606   0.645  0.7062  0.2553 -4.1747
  626TMC3    C7 9278   0.569   0.500   0.887  0.8774  0.0238  0.5668
  626TMC3    C8 9279   0.623   0.487   0.389  0.0221 -0.3958 -0.1329
  626TMC3    O1 9280   0.605   0.440   0.988 -0.1125  0.1118 -0.5863
  626TMC3    O2 9281   0.582   0.411   0.306 -0.0035 -0.0498 -0.1507
  627MPD2     C 9282   4.530   0.493  13.850 -0.4692 -0.1003  0.0935
  627MPD2    C1 9283   4.461   0.522  13.967  0.1500 -0.0461  0.0930
  627MPD2    C2 9284   4.333   0.472  13.974 -0.4435  0.1703 -0.0229
  627MPD2    C3 9285   4.288   0.386  13.871 -0.7772 -0.0578  0.5422
  627MPD2    C4 9286   4.359   0.359  13.753 -0.5731 -0.2301  0.0907
  627MPD2    C5 9287   4.485   0.416  13.750  0.4154 -0.3857 -0.7604
  627MPD2     H 9288   4.281   0.486  14.067 -1.9077  1.8676 -1.1008
  627MPD2    H1 9289   4.343   0.274  13.688  2.0813  0.6148 -1.6294
  627MPD2    H2 9290   4.626   0.535  13.822 -0.1228 -1.6537 -1.0671
  627MPD2    H3 9291   4.554   0.392  13.670  0.7742 -0.5925 -0.3934
  627MPD2     N 9292   4.171   0.309  13.914  0.0896  0.7778 -0.1792
  627MPD2    H5 9293   4.137   0.328  14.008  0.1370  0.3809 -0.0791
  627MPD2    N1 9294   4.526   0.577  14.082 -0.3656 -0.3829  0.1361
  627MPD2    H7 9295   4.478   0.565  14.171 -3.5569 -1.2909 -1.7408
  628TMC3    C1 9296   4.697   0.607  14.226 -0.3771  0.3429 -0.3250
  628TMC3    C2 9297   0.096   0.557  14.252 -0.1868  0.5399 -0.1122
  628TMC3    C3 9298   0.137   0.546  14.380 -0.5017  0.2192 -0.3676
  628TMC3    C4 9299   4.631   0.682  14.319 -0.3539 -0.2864  0.6353
  628TMC3    C5 9300   4.680   0.686  14.452 -0.0881 -0.6312  0.2006
  628TMC3    C6 9301   0.067   0.607  14.487  0.1459  0.5435 -0.0696
  628TMC3     C 9302   4.650   0.613  14.090 -0.1013 -0.0166  0.4533
  628TMC3     O 9303   0.009   0.627  14.001  0.4273 -0.6217  0.4379
  628TMC3     H 9304   0.142   0.497  14.174  1.2708  0.2940  0.9381
  628TMC3    H1 9305   4.535   0.728  14.295  0.2933  1.2080  0.8886
  628TMC3    H2 9306   0.114   0.616  14.584  0.4627  0.0415 -0.1703
  628TMC3    C7 9307   4.639   0.791  14.539 -0.3057  0.2036 -1.2793
  628TMC3    C8 9308   0.275   0.512  14.400  0.0542 -0.1442  0.2544
  628TMC3    O1 9309   4.703   0.812  14.641 -0.3334 -0.3494  0.6493
  628TMC3    O2 9310   0.345   0.532  14.304 -0.5756  0.1766  0.1497
  629MPD2     C 9311   3.123   4.316  16.022 -0.8887  0.7935  0.2458
  629MPD2    C1 9312   3.062   4.215  16.096 -0.0367  0.1615 -0.0399
  629MPD2    C2 9313   2.932   4.176  16.061  0.2423  0.0772 -0.7746
  629MPD2    C3 9314   2.864   4.241  15.966  0.6976  0.5044  0.3044
  629MPD2    C4 9315   2.931   4.337  15.895 -0.3217  0.3508 -0.4066
  629MPD2    C5 9316   3.062   4.374  15.917  0.6174 -0.0504 -0.1032
  629MPD2     H 9317   2.866   4.109  16.114  0.8598 -1.4197 -1.9073
  629MPD2    H1 9318   2.882   4.374  15.806 -2.7913 -1.6203  0.1323
  629MPD2    H2 9319   3.225   4.347  16.042 -0.0212 -0.9863 -1.3840
  629MPD2    H3 9320   3.111   4.452  15.860 -1.4372 -0.9162 -3.0959
  629MPD2     N 9321   2.724   4.212  15.945  0.0275  0.0819  0.1407
  629MPD2    H5 9322   2.681   4.126  15.977 -1.0737  0.7228  0.3560
  629MPD2    N1 9323   3.140   4.152  16.201  0.2602  0.0390 -0.4301
  629MPD2    H7 9324   3.237   4.181  16.203  1.3814 -3.7024 -0.4364
  630TMC3    C1 9325   3.149   4.056  16.422 -0.1935 -0.0914  0.1922
  630TMC3    C2 9326   3.260   4.135  16.439 -0.2486 -0.1006 -0.0370
  630TMC3    C3 9327   3.348   4.092  16.526 -0.3633  0.1837 -0.4644
  630TMC3    C4 9328   3.114   3.948  16.497 -0.0161 -0.8447 -0.1707
  630TMC3    C5 9329   3.206   3.916  16.592 -0.8939 -0.1403  0.2969
  630TMC3    C6 9330   3.330   3.978  16.604 -0.0090  0.0317  0.2934
  630TMC3     C 9331   3.072   4.088  16.305 -0.2543  0.2360 -0.1689
  630TMC3     O 9332   2.963   4.037  16.309 -0.2110  0.2835  0.5678
  630TMC3     H 9333   3.259   4.236  16.400  1.1315 -0.6242 -1.4362
  630TMC3    H1 9334   3.011   3.913  16.489 -0.4909  0.6738 -0.8427
  630TMC3    H2 9335   3.408   3.954  16.675 -1.8644  0.9064  2.6244
  630TMC3    C7 9336   3.155   3.851  16.714 -0.4137 -0.1749 -0.5663
  630TMC3    C8 9337   3.479   4.155  16.540  0.2220 -0.0042 -0.2180
  630TMC3    O1 9338   3.197   3.905  16.816 -0.4986  0.0883  0.4214
  630TMC3    O2 9339   3.552   4.115  16.630 -0.0509 -0.3871 -0.0857
  631MPD2     C 9340   0.886   3.440  15.317  0.1417  0.3757  0.0247
  631MPD2    C1 9341   0.952   3.553  15.277  0.2451  0.3855 -0.2062
  631MPD2    C2 9342   1.086   3.574  15.320  0.5658  0.2355 -0.3025
  631MPD2    C3 9343   1.138   3.492  15.420 -0.2768  0.1652 -1.1077
  631MPD2    C4 9344   1.073   3.385  15.460  0.3690  0.8521  0.5701
  631MPD2    C5 9345   0.941   3.359  15.415 -0.3745  0.1489 -0.8051
  631MPD2     H 9346   1.159   3.643  15.280 -0.3392  3.1581  3.0900
  631MPD2    H1 9347   1.108   3.319  15.539  1.4222  1.8467  0.9243
  631MPD2    H2 9348   0.781   3.427  15.294  0.0406  0.0602  0.6532
  631MPD2    H3 9349   0.887   3.270  15.445 -0.7861  0.4916 -0.5331
  631MPD2     N 9350   1.264   3.518  15.475  0.0938 -0.5707  0.5020
  631MPD2    H5 9351   1.285   3.455  15.552  0.0528  0.6630  1.5177
  631MPD2    N1 9352   0.878   3.651  15.210 -0.1720  0.3092 -0.1088
  631MPD2    H7 9353   0.778   3.640  15.194 -0.2724 -0.0982  0.8350
  632TMC3    C1 9354   0.838   3.859  15.104  0.3844 -0.0787 -1.0619
  632TMC3    C2 9355   0.724   3.881  15.176  0.3824 -0.1877 -0.4002
  632TMC3    C3 9356   0.652   3.997  15.161  0.6540 -0.2383  0.0812
  632TMC3    C4 9357   0.883   3.961  15.017  1.6094  0.7329 -0.0397
  632TMC3    C5 9358   0.802   4.067  14.997  0.1866 -0.7651  0.3262
  632TMC3    C6 9359   0.684   4.087  15.067  0.0292  0.2671 -0.1034
  632TMC3     C 9360   0.935   3.765  15.158  0.0172  0.8192 -0.3280
  632TMC3     O 9361   1.055   3.794  15.147 -0.5102 -0.5907  0.1025
  632TMC3     H 9362   0.694   3.813  15.255 -1.9964 -0.6025 -1.6685
  632TMC3    H1 9363   0.976   3.952  14.963  1.5332 -1.6211  0.2512
  632TMC3    H2 9364   0.624   4.176  15.054  0.6463  0.7816  0.5872
  632TMC3    C7 9365   0.830   4.180  14.911 -0.4471 -0.5825  0.5327
  632TMC3    C8 9366   0.580   4.041  15.277  0.0354  0.2471  1.0470
  632TMC3    O1 9367   0.742   4.253  14.869  0.1218 -0.0929 -0.6493
  632TMC3    O2 9368   0.508   3.961  15.330  0.3338  0.1393 -0.6088
  633MPD2     C 9369   0.964   1.903  17.358  0.6105 -0.2269  0.4385
  633MPD2    C1 9370   0.916   1.838  17.251  0.5394 -0.3075 -0.9142
  633MPD2    C2 9371   0.859   1.712  17.265 -0.2055 -0.1245 -0.2967
  633MPD2    C3 9372   0.855   1.659  17.392 -0.6419  0.6055  0.3115
  633MPD2    C4 9373   0.914   1.728  17.499  0.3561  0.4325 -0.1783
  633MPD2    C5 9374   0.948   1.856  17.483 -0.4971  0.0926  0.5327
  633MPD2     H 9375   0.813   1.655  17.185 -0.6524 -0.4804  0.2103
  633MPD2    H1 9376   0.923   1.689  17.601  1.4611 -0.1380 -0.4903
  633MPD2    H2 9377   1.009   2.001  17.348 -0.9861  0.4795  0.1393
  633MPD2    H3 9378   0.992   1.914  17.564 -1.4626  2.4788 -0.6524
  633MPD2     N 9379   0.798   1.531  17.427  0.4953 -0.3706 -0.0595
  633MPD2    H5 9380   0.830   1.489  17.514  3.2841  1.6335 -0.1151
  633MPD2    N1 9381   0.924   1.892  17.123  0.8687  0.4128  0.0813
  633MPD2    H7 9382   0.897   1.830  17.047  0.0588  1.9146 -0.8578
  634TMC3    C1 9383   0.959   2.019  16.944  0.0592 -0.1137 -0.7254
  634TMC3    C2 9384   0.993   1.908  16.881  0.2203  0.0488  0.1732
  634TMC3    C3 9385   0.938   1.892  16.755 -0.0144  0.1824  0.3000
  634TMC3    C4 9386   0.877   2.116  16.896 -0.0212  0.2760  0.2095
  634TMC3    C5 9387   0.805   2.078  16.784 -0.0564 -0.2859  0.3197
  634TMC3    C6 9388   0.836   1.973  16.709  0.3716  0.2781 -0.6534
  634TMC3     C 9389   0.963   2.015  17.086  1.0338 -0.4314 -0.2854
  634TMC3     O 9390   0.983   2.115  17.157  0.6698 -0.3630 -0.3166
  634TMC3     H 9391   1.069   1.847  16.928  0.5568 -0.7739 -1.4312
  634TMC3    H1 9392   0.844   2.192  16.965  5.7705  0.2906  2.9694
  634TMC3    H2 9393   0.779   1.958  16.618 -0.0791 -1.3172 -0.1175
  634TMC3    C7 9394   0.731   2.192  16.728  0.6828  0.2401 -0.2718
  634TMC3    C8 9395   0.946   1.759  16.702 -0.7939  1.0181  0.8078
  634TMC3    O1 9396   0.754   2.217  16.613  0.0498 -0.2950 -0.1495
  634TMC3    O2 9397   1.000   1.672  16.765  0.3323  0.0323 -1.0514
  635TMC3    C1 9398   1.320   2.242  17.066 -0.0367  0.3392 -0.7519
  635TMC3    C2 9399   1.312   2.154  17.172  0.4452 -0.2878 -0.1629
  635TMC3    C3 9400   1.374   2.035  17.161 -0.9758  0.2833  0.1714
  635TMC3    C4 9401   1.375   2.204  16.948 -0.3698  0.3598 -0.5672
  635TMC3    C5 9402   1.425   2.073  16.936  0.5993  0.9897 -0.3456
  635TMC3    C6 9403   1.423   1.988  17.045  0.4158 -0.1276  0.0195
  635TMC3     C 9404   1.279   2.379  17.105 -0.7035 -0.1119  0.0488
  635TMC3     O 9405   1.239   2.412  17.214  0.4136 -0.3137 -0.0016
  635TMC3     H 9406   1.262   2.186  17.262  0.4466 -1.8300  0.3949
  635TMC3    H1 9407   1.335   2.260  16.864 -0.6201  0.9668 -0.0501
  635TMC3    H2 9408   1.448   1.883  17.032 -2.6869 -0.7030 -1.2470
  635TMC3    C7 9409   1.448   2.007  16.811 -0.2384  0.1931 -0.0393
  635TMC3    C8 9410   1.358   1.943  17.274 -1.1084 -0.3015 -0.7089
  635TMC3    O1 9411   1.439   1.887  16.801 -0.7552  0.1543  0.8450
  635TMC3    O2 9412   1.339   1.825  17.245 -0.2250  0.0624 -0.1704
  636MPD2     C 9413   2.091   1.890  15.608 -0.0516 -0.0873 -0.5823
  636MPD2    C1 9414   2.119   1.853  15.734 -0.2464  0.6093  0.1398
  636MPD2    C2 9415   2.149   1.724  15.773 -0.0980 -0.2064  0.6807
  636MPD2    C3 9416   2.151   1.623  15.673 -0.7383 -0.1357 -0.1098
  636MPD2    C4 9417   2.126   1.667  15.543  0.3047 -0.2998  0.6267
  636MPD2    C5 9418   2.092   1.791  15.514  0.3188  0.7616 -0.3154
  636MPD2     H 9419   2.153   1.707  15.880 -0.1163 -0.1759  0.6861
  636MPD2    H1 9420   2.124   1.603  15.455  0.2464 -0.4453  0.7330
  636MPD2    H2 9421   2.061   1.992  15.590  1.7341  0.1822 -1.9865
  636MPD2    H3 9422   2.061   1.816  15.413  0.4055 -4.2570 -1.6005
  636MPD2     N 9423   2.171   1.485  15.703  0.2414  0.0481 -0.2599
  636MPD2    H5 9424   2.196   1.469  15.800 -0.2422 -0.4685 -0.2181
  636MPD2    N1 9425   2.113   1.950  15.851  0.4353  0.7089 -0.1643
  636MPD2    H7 9426   2.143   1.920  15.943 -1.4549 -0.7971 -0.0452
  637TMC3    C1 9427   2.222   1.254  15.681  0.3882 -0.1170  0.1407
  637TMC3    C2 9428   2.206   1.251  15.816 -0.1649 -0.4082  0.5881
  637TMC3    C3 9429   2.307   1.203  15.893 -0.7838 -0.0177  0.0855
  637TMC3    C4 9430   2.320   1.186  15.620 -0.0728 -0.6109  0.0161
  637TMC3    C5 9431   2.422   1.137  15.701 -0.8260  0.2242 -0.0428
  637TMC3    C6 9432   2.406   1.130  15.841 -0.6925  0.1250  0.3331
  637TMC3     C 9433   2.186   1.383  15.615  0.3676  0.5763 -0.7186
  637TMC3     O 9434   2.173   1.378  15.496 -0.0983 -0.3741  0.4021
  637TMC3     H 9435   2.132   1.317  15.861  0.5565 -0.4724  1.8776
  637TMC3    H1 9436   2.328   1.190  15.512 -1.1230 -1.4726 -0.0951
  637TMC3    H2 9437   2.485   1.099  15.909 -2.0694 -0.7470  1.5495
  637TMC3    C7 9438   2.547   1.205  15.680 -0.8079 -0.3168  0.1677
  637TMC3    C8 9439   2.353   1.305  15.982 -0.5846  0.2639 -0.9719
  637TMC3    O1 9440   2.632   1.204  15.766 -0.2389  0.6440  0.4480
  637TMC3    O2 9441   2.362   1.413  15.927  0.6658 -0.0568  0.6459
  638MPD2     C 9442   1.745   1.289  14.742 -0.1195 -0.5089  1.2506
  638MPD2    C1 9443   1.690   1.198  14.660 -0.8977 -0.2620  0.7998
  638MPD2    C2 9444   1.623   1.083  14.706  0.8803 -0.1745 -0.2981
  638MPD2    C3 9445   1.630   1.046  14.840  0.3848 -0.1655  0.1572
  638MPD2    C4 9446   1.695   1.130  14.924 -0.1791  0.4744 -0.4170
  638MPD2    C5 9447   1.743   1.251  14.874  0.3482  0.4879  0.6260
  638MPD2     H 9448   1.558   1.015  14.653  1.0276  0.2932 -1.0789
  638MPD2    H1 9449   1.694   1.115  15.031  1.5286 -2.4872 -0.8234
  638MPD2    H2 9450   1.787   1.382  14.704 -0.2269 -1.1033 -0.3331
  638MPD2    H3 9451   1.775   1.321  14.950 -2.7788 -0.0826  2.4623
  638MPD2     N 9452   1.578   0.917  14.879 -0.0395 -0.7140  0.9415
  638MPD2    H5 9453   1.556   0.847  14.808 -1.6510  2.0577 -1.3263
  638MPD2    N1 9454   1.703   1.222  14.521 -0.1114  0.3361 -0.2451
  638MPD2    H7 9455   1.753   1.308  14.499 -0.6573  0.4312 -1.0864
  639TMC3    C1 9456   1.555   0.713  14.997  1.0325 -0.0907  0.6512
  639TMC3    C2 9457   1.481   0.677  14.892 -0.1213  0.0018  0.3558
  639TMC3    C3 9458   1.491   0.542  14.871  0.5448 -0.7848 -0.6346
  639TMC3    C4 9459   1.625   0.626  15.077 -0.3044 -0.7865  0.0468
  639TMC3    C5 9460   1.622   0.492  15.042  0.2487  0.2991  0.2574
  639TMC3    C6 9461   1.540   0.441  14.944 -0.4723 -0.1601 -0.9539
  639TMC3     C 9462   1.584   0.859  15.007  0.6308 -0.1717  0.0882
  639TMC3     O 9463   1.631   0.902  15.113 -0.1061  0.0121  0.1708
  639TMC3     H 9464   1.428   0.739  14.820  0.0222  0.3904  0.5856
  639TMC3    H1 9465   1.665   0.646  15.176 -2.9579 -0.3657  1.0338
  639TMC3    H2 9466   1.553   0.338  14.912  1.1438  0.9711 -3.9322
  639TMC3    C7 9467   1.733   0.409  15.077 -0.5099 -0.0848 -0.7073
  639TMC3    C8 9468   1.442   0.493  14.745  0.1595 -0.2010 -0.1071
  639TMC3    O1 9469   1.717   0.285  15.083  0.3164 -0.6099  0.4124
  639TMC3    O2 9470   1.479   0.537  14.639  0.0477  0.2672  0.9558
  640MPD2     C 9471   1.816   4.239  10.228 -0.5529 -0.5466  0.3821
  640MPD2    C1 9472   1.749   4.230  10.110 -0.4014 -0.0575 -0.4553
  640MPD2    C2 9473   1.697   4.342  10.050  0.0684 -0.0267  0.4538
  640MPD2    C3 9474   1.727   4.467  10.099  0.5058  0.9050 -0.6771
  640MPD2    C4 9475   1.795   4.470  10.222  0.5335  0.3185 -0.0043
  640MPD2    C5 9476   1.835   4.358  10.283 -0.3188 -0.5680  0.0228
  640MPD2     H 9477   1.656   4.335   9.950  0.3466 -0.8656  0.4024
  640MPD2    H1 9478   1.823   4.572  10.245  0.2163  0.4969 -0.4134
  640MPD2    H2 9479   1.855   4.148  10.272  2.7110 -0.1319 -1.6281
  640MPD2    H3 9480   1.905   4.368  10.365  0.7350 -3.6017 -0.5102
  640MPD2     N 9481   1.683   4.585  10.036 -0.1448  0.1399  0.2117
  640MPD2    H5 9482   1.703   4.673  10.084 -1.3814 -0.4344  1.7681
  640MPD2    N1 9483   1.743   4.103  10.050 -0.1317  0.5129 -0.1253
  640MPD2    H7 9484   1.781   4.027  10.106  0.3324  0.1338 -0.9531
  641TMC3    C1 9485   1.714   3.937   9.901 -0.9569  0.3326  0.1727
  641TMC3    C2 9486   1.838   3.893   9.946 -0.2079  0.2059 -0.0739
  641TMC3    C3 9487   1.900   3.806   9.864 -0.1823  1.1346 -0.0290
  641TMC3    C4 9488   1.650   3.894   9.790 -0.7402  0.1428  0.0697
  641TMC3    C5 9489   1.719   3.807   9.711 -0.0999  0.1613  0.4974
  641TMC3    C6 9490   1.834   3.760   9.750  0.0813 -0.1484  0.3751
  641TMC3     C 9491   1.685   4.072   9.932 -0.2724 -0.0827  0.0416
  641TMC3     O 9492   1.625   4.140   9.848 -0.2094 -0.1210  0.4284
  641TMC3     H 9493   1.874   3.919  10.044  0.1456 -1.0674  0.1364
  641TMC3    H1 9494   1.555   3.931   9.755  0.7146  1.9213 -2.0318
  641TMC3    H2 9495   1.894   3.691   9.692  1.2638  3.4668 -2.6365
  641TMC3    C7 9496   1.670   3.747   9.586  0.2391  0.0724  0.3567
  641TMC3    C8 9497   2.041   3.771   9.889 -0.0182  0.1130 -1.0252
  641TMC3    O1 9498   1.555   3.773   9.560 -0.0464  0.1768 -0.6544
  641TMC3    O2 9499   2.091   3.715   9.791  0.4479 -0.5374 -0.3048
  642TMC3    C1 9500   3.120   1.362  11.565 -0.3568  0.3658 -0.2039
  642TMC3    C2 9501   3.091   1.423  11.682  0.0982 -0.1698 -0.3731
  642TMC3    C3 9502   3.196   1.456  11.770 -0.6958  0.6089 -0.4951
  642TMC3    C4 9503   3.250   1.317  11.542 -0.1866  0.4537 -0.2782
  642TMC3    C5 9504   3.348   1.330  11.640 -0.4470  0.1411  0.0938
  642TMC3    C6 9505   3.326   1.412  11.748 -0.4513  0.8990  0.1530
  642TMC3     C 9506   3.032   1.252  11.557  0.2091 -0.4944  0.6732
  642TMC3     O 9507   3.008   1.209  11.446 -0.1058  0.0033 -0.1683
  642TMC3     H 9508   2.992   1.457  11.712 -0.7444 -1.0715 -2.1340
  642TMC3    H1 9509   3.266   1.242  11.465  0.1555 -1.5260  1.7296
  642TMC3    H2 9510   3.404   1.404  11.823  0.9685 -2.6621 -1.6776
  642TMC3    C7 9511   3.409   1.201  11.676  0.4724  0.2260  0.1367
  642TMC3    C8 9512   3.170   1.413  11.901  0.4471  0.3893  0.1021
  642TMC3    O1 9513   3.434   1.131  11.582  0.5614  0.1115 -0.6214
  642TMC3    O2 9514   3.079   1.332  11.906 -0.1200  0.7095 -0.3505
  643TMC3    C1 9515   2.390   4.346   0.550 -0.7381 -0.6484  0.7832
  643TMC3    C2 9516   2.293   4.256   0.510 -0.0336  0.2576 -0.1517
  643TMC3    C3 9517   2.316   4.165   0.412 -0.0193  0.5247 -0.3013
  643TMC3    C4 9518   2.502   4.375   0.469 -0.2046 -0.0295  0.1563
  643TMC3    C5 9519   2.514   4.300   0.349  0.2370  0.3264  0.4860
  643TMC3    C6 9520   2.431   4.188   0.332  0.3062 -0.4712 -0.0123
  643TMC3     C 9521   2.392   4.395   0.688  0.0730  0.6940  0.5343
  643TMC3     O 9522   2.288   4.374   0.751  0.4324  0.4441 -0.0725
  643TMC3     H 9523   2.208   4.231   0.572 -0.6585  1.4372 -0.5344
  643TMC3    H1 9524   2.578   4.450   0.488  3.1473 -3.0161 -1.5887
  643TMC3    H2 9525   2.443   4.130   0.241  1.2741 -0.6592  0.2388
  643TMC3    C7 9526   2.592   4.362   0.236 -0.1518 -0.6338 -0.3630
  643TMC3    C8 9527   2.205   4.152   0.317 -0.3272  0.1574 -0.2253
  643TMC3    O1 9528   2.632   4.474   0.252  0.5321  0.5039  0.7739
  643TMC3    O2 9529   2.143   4.048   0.301 -0.0990  0.0008  0.0261
  644MPD2     C 9530   1.781   0.033   9.615 -0.4005  0.3414 -0.2775
  644MPD2    C1 9531   1.891   0.002   9.693 -0.0413  0.0323  0.5487
  644MPD2    C2 9532   1.987   0.099   9.721 -0.1848  0.5769  0.1044
  644MPD2    C3 9533   1.976   0.230   9.682 -0.4818  0.0742  0.2042
  644MPD2    C4 9534   1.854   0.260   9.622 -0.2378 -0.5632  0.0408
  644MPD2    C5 9535   1.761   0.166   9.586  0.2752  0.3459  0.4501
  644MPD2     H 9536   2.076   0.087   9.782 -0.8828  2.0196  1.4137
  644MPD2    H1 9537   1.834   0.364   9.600  1.2912 -0.8753 -2.7708
  644MPD2    H2 9538   1.703   4.689   9.577  0.9346 -1.5871  0.3271
  644MPD2    H3 9539   1.668   0.204   9.545  0.9672  2.1372  0.5665
  644MPD2     N 9540   2.078   0.322   9.700 -0.2930  0.1835 -0.1722
  644MPD2    H5 9541   2.166   0.291   9.740 -1.3198  0.0447  1.9686
  644MPD2    N1 9542   1.895   4.596   9.741 -0.4522 -0.1083  0.0945
  644MPD2    H7 9543   1.828   4.533   9.699  0.4711 -0.3842 -0.9510
  645TMC3    C1 9544   2.202   0.519   9.721  0.3445  0.3812 -0.6491
  645TMC3    C2 9545   2.192   0.632   9.796 -0.8449 -0.1247 -0.3745
  645TMC3    C3 9546   2.308   0.685   9.854  0.3464 -0.8688 -0.3392
  645TMC3    C4 9547   2.317   0.451   9.709 -0.3384 -0.5799  0.1116
  645TMC3    C5 9548   2.429   0.505   9.768  0.7218  0.0421 -0.2968
  645TMC3    C6 9549   2.429   0.622   9.841  0.5342  0.4268 -0.4494
  645TMC3     C 9550   2.070   0.463   9.695 -0.3409 -0.0398 -0.7345
  645TMC3     O 9551   1.978   0.538   9.671  0.3420 -0.0158 -0.3556
  645TMC3     H 9552   2.105   0.694   9.814 -1.5160 -1.4645  0.9220
  645TMC3    H1 9553   2.320   0.356   9.657  0.0569 -0.5913  0.1548
  645TMC3    H2 9554   2.521   0.670   9.874  1.5103 -1.2359 -0.7720
  645TMC3    C7 9555   2.551   0.456   9.716  0.0777 -0.0884  0.4315
  645TMC3    C8 9556   2.300   0.804   9.934  0.7180  0.2412  0.8300
  645TMC3    O1 9557   2.645   0.531   9.734 -0.4501 -0.6993  0.4378
  645TMC3    O2 9558   2.201   0.874   9.916  0.9823 -0.2794 -0.2149
  646MPD2     C 9559   2.031   4.567  14.132  0.4801 -0.3687 -0.3414
  646MPD2    C1 9560   1.930   4.529  14.215 -0.2139 -0.1720 -0.1522
  646MPD2    C2 9561   1.798   4.587  14.193  0.2102 -0.2165  0.3909
  646MPD2    C3 9562   1.779   4.683  14.091 -0.1062 -0.4879 -0.6695
  646MPD2    C4 9563   1.887   4.722  14.012  0.8624  0.5243 -0.4000
  646MPD2    C5 9564   2.009   4.664  14.042  0.2807  0.1495  0.4409
  646MPD2     H 9565   1.718   4.560  14.260 -0.5161 -1.1100 -0.8338
  646MPD2    H1 9566   1.894   0.073  13.933  0.9067  1.3154  0.3433
  646MPD2    H2 9567   2.129   4.522  14.143  0.4832  0.0371  1.1962
  646MPD2    H3 9568   2.093   4.687  13.977  0.3202 -1.4806 -0.0842
  646MPD2     N 9569   1.647   0.013  14.087  0.2159  0.6019 -0.8065
  646MPD2    H5 9570   1.571   4.689  14.137  1.0949 -1.2927 -1.2386
  646MPD2    N1 9571   1.963   4.439  14.314  0.6799  0.2905  0.5646
  646MPD2    H7 9572   2.064   4.433  14.319  0.7207 -1.0290 -1.7745
  647TMC3    C1 9573   1.972   4.305  14.505 -0.3420  0.2440 -0.0465
  647TMC3    C2 9574   1.907   4.194  14.553  0.1280 -0.1226 -0.7496
  647TMC3    C3 9575   1.982   4.102  14.619  0.4096  0.8833  0.4157
  647TMC3    C4 9576   2.106   4.313  14.502 -0.0709  0.2443 -0.7483
  647TMC3    C5 9577   2.175   4.218  14.576 -0.3363 -0.2450 -0.6978
  647TMC3    C6 9578   2.112   4.110  14.629 -0.7926  0.2805  0.1472
  647TMC3     C 9579   1.892   4.391  14.423 -0.5097 -0.0213 -0.2677
  647TMC3     O 9580   1.778   4.405  14.461  0.0226  0.2808  0.0883
  647TMC3     H 9581   1.799   4.196  14.556  0.2411  0.5887  2.7590
  647TMC3    H1 9582   2.156   4.404  14.470  0.1702  0.2871 -0.2396
  647TMC3    H2 9583   2.161   4.025  14.674  0.1077  1.4663  1.3843
  647TMC3    C7 9584   2.313   4.224  14.627 -0.2166  0.2476 -0.4564
  647TMC3    C8 9585   1.929   4.016  14.719 -0.5106  0.3354 -0.8195
  647TMC3    O1 9586   2.327   4.164  14.733  0.2432  0.7959 -0.1781
  647TMC3    O2 9587   1.987   3.998  14.825  0.2543  0.2086 -0.0735
  648TMC3    C1 9588   1.203   2.073  15.829  1.4957  0.2947 -0.4586
  648TMC3    C2 9589   1.214   1.953  15.777 -0.1385 -0.3319 -0.2333
  648TMC3    C3 9590   1.136   1.917  15.670  0.1281  0.3702 -0.2370
  648TMC3    C4 9591   1.107   2.166  15.777  0.1485  1.0060  0.5588
  648TMC3    C5 9592   1.027   2.121  15.668 -0.2617  0.2831  0.8074
  648TMC3    C6 9593   1.041   1.994  15.615 -0.4487 -0.5603  0.8754
  648TMC3     C 9594   1.235   2.097  15.970  0.0914  0.2386  0.8379
  648TMC3     O 9595   1.218   2.210  16.017  0.7322 -0.2351  0.4451
  648TMC3     H 9596   1.284   1.880  15.815 -1.7084 -1.0450  1.2927
  648TMC3    H1 9597   1.095   2.267  15.813  0.9832  2.1019 -2.2141
  648TMC3    H2 9598   0.983   1.961  15.529 -1.0262 -1.5136  1.6212
  648TMC3    C7 9599   0.913   2.207  15.635 -0.1416  0.0483  0.0918
  648TMC3    C8 9600   1.125   1.782  15.637  0.2277 -1.0139 -0.2125
  648TMC3    O1 9601   0.869   2.191  15.521  0.5196  0.4283 -0.2919
  648TMC3    O2 9602   1.017   1.733  15.616  0.2681 -0.3123  0.6327
  649TMC3    C1 9603   0.641   2.946  13.122  0.1903  0.7231  0.2226
  649TMC3    C2 9604   0.694   2.822  13.086  0.7125 -0.3943  0.0900
  649TMC3    C3 9605   0.670   2.725  13.176  0.4788  0.7466  0.1775
  649TMC3    C4 9606   0.579   2.976  13.234 -0.0240 -0.6402  0.3763
  649TMC3    C5 9607   0.559   2.876  13.322 -0.3201 -0.8206  0.3675
  649TMC3    C6 9608   0.598   2.750  13.295 -1.3543  0.3080 -0.0959
  649TMC3     C 9609   0.663   3.058  13.030 -0.0800  0.6880  0.5187
  649TMC3     O 9610   0.578   3.147  13.027 -0.4209 -0.0576  0.4475
  649TMC3     H 9611   0.731   2.795  12.988  0.5467 -0.6657  0.1015
  649TMC3    H1 9612   0.540   3.077  13.245 -1.7469 -1.2853  0.2695
  649TMC3    H2 9613   0.583   2.663  13.357 -0.2591 -0.4106 -0.8479
  649TMC3    C7 9614   0.468   2.896  13.434  0.4511  0.4391  0.1246
  649TMC3    C8 9615   0.701   2.591  13.144 -0.0172  0.3519  0.3580
  649TMC3    O1 9616   0.390   2.986  13.439 -0.0925 -0.3034 -0.8255
  649TMC3    O2 9617   0.628   2.505  13.190 -0.2750 -0.0668 -0.0878
  650TMC3    C1 9618   2.873   4.697  12.457  0.8139 -0.9121 -0.0778
  650TMC3    C2 9619   2.841   0.104  12.471  0.8484 -0.8965  0.0638
  650TMC3    C3 9620   2.711   0.144  12.436 -0.0773  0.3330  0.1540
  650TMC3    C4 9621   2.777   4.601  12.421 -0.0631 -0.5668 -0.5654
  650TMC3    C5 9622   2.655   4.653  12.372 -0.0049 -0.1342 -0.3896
  650TMC3    C6 9623   2.616   0.056  12.389  0.0587 -0.1576  0.2756
  650TMC3     C 9624   3.012   4.652  12.458  0.3493 -0.9026  0.1038
  650TMC3     O 9625   3.085   4.708  12.378  0.0867 -0.3147  0.1619
  650TMC3     H 9626   2.912   0.185  12.486 -1.0555  0.5766  1.0743
  650TMC3    H1 9627   2.802   4.498  12.396 -0.7437 -0.9253  0.2126
  650TMC3    H2 9628   2.515   0.087  12.363 -0.1077 -0.0977  0.9936
  650TMC3    C7 9629   2.577   4.572  12.285 -0.3021  0.0205  0.1311
  650TMC3    C8 9630   2.684   0.287  12.449  0.8712  0.5986  0.5240
  650TMC3    O1 9631   2.577   4.448  12.306 -0.3444  0.7798 -0.3510
  650TMC3    O2 9632   2.775   0.368  12.440 -0.6559  0.8981 -0.4102
  651MPD2     C 9633   1.582   1.601  10.126 -0.1903  0.2762  0.5188
  651MPD2    C1 9634   1.567   1.641  10.255 -0.2393  0.5922 -0.6063
  651MPD2    C2 9635   1.676   1.666  10.334 -0.0779  0.2677  0.5505
  651MPD2    C3 9636   1.806   1.658  10.282 -0.1349 -0.7171  0.0079
  651MPD2    C4 9637   1.817   1.627  10.150  0.3939  0.1613  0.2600
  651MPD2    C5 9638   1.704   1.590  10.072  0.0893 -0.8150 -0.2104
  651MPD2     H 9639   1.667   1.662  10.442 -0.3190  0.6743  0.5453
  651MPD2    H1 9640   1.915   1.620  10.105 -0.3253  1.4776 -1.4661
  651MPD2    H2 9641   1.507   1.568  10.055 -0.7662  0.5558  0.9985
  651MPD2    H3 9642   1.726   1.561   9.970  1.3555 -1.2828  0.1863
  651MPD2     N 9643   1.924   1.693  10.358  0.0250 -0.4161 -0.4241
  651MPD2    H5 9644   1.903   1.705  10.456 -1.1905 -0.4981 -0.6832
  651MPD2    N1 9645   1.440   1.673  10.311  0.2489 -0.0989  0.2664
  651MPD2    H7 9646   1.435   1.704  10.407 -2.9241  0.1225  0.0519
  652TMC3    C1 9647   2.388   1.782  10.427 -0.0607  0.0581  0.3777
  652TMC3    C2 9648   2.280   1.756  10.347  0.2090 -0.3587  0.6356
  652TMC3    C3 9649   2.149   1.768  10.400 -0.3638  0.1341  0.3244
  652TMC3    C4 9650   2.365   1.843  10.546 -0.5106  0.3322  0.6028
  652TMC3    C5 9651   2.240   1.866  10.590 -0.4499  0.1454 -0.0710
  652TMC3    C6 9652   2.125   1.814  10.524 -0.4700 -0.1175  0.7881
  652TMC3     C 9653   2.521   1.797  10.364 -0.1478  0.2532  0.1811
  652TMC3     O 9654   2.522   1.826  10.243 -0.4609  0.1885  0.4103
  652TMC3     H 9655   2.295   1.711  10.250  0.6978 -0.3317  0.6986
  652TMC3    H1 9656   2.447   1.891  10.598 -2.3952  0.9212  3.0282
  652TMC3    H2 9657   2.024   1.835  10.556 -0.4028  1.3388  0.0600
  652TMC3    C7 9658   2.214   1.929  10.719 -0.1640  0.3921  0.7121
  652TMC3    C8 9659   2.043   1.737  10.301 -1.2660  0.2268 -0.5977
  652TMC3    O1 9660   2.126   1.883  10.794  0.4820 -0.4486 -0.4532
  652TMC3    O2 9661   2.073   1.754  10.186  0.1696  0.2963  0.2515
  653MPD2     C 9662   0.541   1.952  17.392  0.2135 -0.0962 -0.0995
  653MPD2    C1 9663   0.447   2.033  17.457  0.3632 -0.4851  0.3233
  653MPD2    C2 9664   0.315   1.995  17.464  0.7938 -0.0727 -0.3407
  653MPD2    C3 9665   0.276   1.871  17.425  0.0068 -0.2457 -0.1945
  653MPD2    C4 9666   0.370   1.786  17.382  0.1972  0.3647 -0.2098
  653MPD2    C5 9667   0.504   1.821  17.360 -0.0477  0.8359 -0.0639
  653MPD2     H 9668   0.245   2.070  17.499  1.9035  0.1968  1.3032
  653MPD2    H1 9669   0.347   1.681  17.369  0.5727  0.3080 -0.4183
  653MPD2    H2 9670   0.648   1.973  17.388  0.1231  0.1270 -1.2201
  653MPD2    H3 9671   0.574   1.749  17.320 -1.2331 -0.5138  0.3190
  653MPD2     N 9672   0.137   1.840  17.416  0.7323 -0.4727  0.1001
  653MPD2    H5 9673   0.065   1.889  17.469  1.9925  0.7830  0.6534
  653MPD2    N1 9674   0.491   2.161  17.497  0.8504  0.1468  0.4066
  653MPD2    H7 9675   0.587   2.188  17.484  0.6495  0.4361 -0.4532
  654TMC3    C1 9676   4.675   1.708  17.369  0.3822 -0.3515 -0.4226
  654TMC3    C2 9677   4.606   1.803  17.302  0.2458 -0.2072  0.0031
  654TMC3    C3 9678   4.496   1.761  17.227 -0.6430  0.4485 -0.3664
  654TMC3    C4 9679   4.639   1.580  17.360  0.3021  0.4048 -0.2246
  654TMC3    C5 9680   4.537   1.535  17.272  0.0548  0.0780 -0.7003
  654TMC3    C6 9681   4.463   1.630  17.210 -0.0203  0.2471  0.5888
  654TMC3     C 9682   0.096   1.725  17.362 -0.5643  0.5565  1.4894
  654TMC3     O 9683   0.152   1.645  17.288  0.1404 -0.6569 -0.1940
  654TMC3     H 9684   4.632   1.908  17.299  0.1094 -0.1396  1.1628
  654TMC3    H1 9685   4.698   1.512  17.422  0.8053  1.4333  0.4162
  654TMC3    H2 9686   4.366   1.603  17.170 -1.3434  2.2659  2.4373
  654TMC3    C7 9687   4.535   1.406  17.209 -0.2818 -0.5473 -0.3129
  654TMC3    C8 9688   4.402   1.856  17.168 -0.1558 -0.1408  0.1849
  654TMC3    O1 9689   4.454   1.391  17.121  0.7048 -0.5146 -0.4718
  654TMC3    O2 9690   4.386   1.959  17.235  0.6257  0.6069 -0.1207
  655MPD2     C 9691   1.542   2.402  15.459 -0.7378  1.3318 -0.0740
  655MPD2    C1 9692   1.408   2.381  15.418  0.9666 -0.4746  0.3852
  655MPD2    C2 9693   1.393   2.296  15.309 -0.2708  0.1578 -1.0903
  655MPD2    C3 9694   1.493   2.257  15.225 -0.5755  0.0828 -0.0703
  655MPD2    C4 9695   1.622   2.283  15.264 -0.3707  0.2640  0.0649
  655MPD2    C5 9696   1.644   2.359  15.381 -0.2377 -0.5226  0.7862
  655MPD2     H 9697   1.291   2.274  15.279 -0.4133 -0.7529  0.0372
  655MPD2    H1 9698   1.707   2.250  15.206 -2.2483 -2.5463 -1.0733
  655MPD2    H2 9699   1.565   2.455  15.550  2.0308 -0.0626  0.0314
  655MPD2    H3 9700   1.747   2.378  15.412  0.2479  0.7138 -1.5530
  655MPD2     N 9701   1.473   2.186  15.101  0.7085  0.1287 -0.4525
  655MPD2    H5 9702   1.561   2.159  15.059  0.2417  1.8849 -2.5329
  655MPD2    N1 9703   1.299   2.418  15.497  0.0919 -0.7643 -0.3877
  655MPD2    H7 9704   1.208   2.393  15.459 -0.2643  0.0352 -0.0509
  656TMC3    C1 9705   1.172   2.512  15.675  0.2691  0.5320 -0.2839
  656TMC3    C2 9706   1.169   2.521  15.808  0.0301 -0.1414 -0.2728
  656TMC3    C3 9707   1.081   2.611  15.861  0.4987  0.0747 -0.5618
  656TMC3    C4 9708   1.092   2.586  15.588 -0.1474 -0.4169 -0.2912
  656TMC3    C5 9709   1.014   2.681  15.645  0.4158  0.7846  0.5527
  656TMC3    C6 9710   1.004   2.687  15.782  0.0234 -0.0745  0.6489
  656TMC3     C 9711   1.307   2.473  15.623 -0.4040 -0.3301 -0.3214
  656TMC3     O 9712   1.398   2.499  15.702  0.2256  0.1080 -0.0663
  656TMC3     H 9713   1.239   2.465  15.869  1.6194  1.5450 -0.5455
  656TMC3    H1 9714   1.108   2.590  15.481 -0.0862  1.8244 -0.1989
  656TMC3    H2 9715   0.944   2.761  15.835  1.3513  0.8873  0.8275
  656TMC3    C7 9716   0.919   2.747  15.558  0.2953 -0.8093  0.0212
  656TMC3    C8 9717   1.016   2.547  15.971  0.4037  0.1230  0.4201
  656TMC3    O1 9718   0.937   2.733  15.437 -0.2919 -0.2283  0.4354
  656TMC3    O2 9719   1.012   2.426  15.978  0.1184 -0.5377 -0.1222
  657TMC3    C1 9720   0.445   1.507  14.815 -0.1422 -0.0025 -1.2253
  657TMC3    C2 9721   0.441   1.448  14.941  0.8555  0.3822 -0.4188
  657TMC3    C3 9722   0.356   1.499  15.028  0.2313 -0.0278 -0.2978
  657TMC3    C4 9723   0.356   1.601  14.775  0.0571  0.0754  0.0971
  657TMC3    C5 9724   0.265   1.641  14.872  0.3336  0.2396 -0.1619
  657TMC3    C6 9725   0.263   1.583  14.996  0.2521  0.2586  0.5137
  657TMC3     C 9726   0.513   1.439  14.706  0.0276 -0.7634 -0.1565
  657TMC3     O 9727   0.497   1.474  14.593 -0.0757 -0.0060 -0.3703
  657TMC3     H 9728   0.498   1.359  14.965  0.4263 -0.0363 -0.9384
  657TMC3    H1 9729   0.355   1.627  14.670  2.4967 -0.2058 -0.0099
  657TMC3    H2 9730   0.190   1.614  15.070 -1.1998 -1.5404 -0.1441
  657TMC3    C7 9731   0.169   1.742  14.826 -0.6799  0.3309 -0.6281
  657TMC3    C8 9732   0.366   1.452  15.160 -0.6380  0.1141 -0.3498
  657TMC3    O1 9733   0.185   1.785  14.713  0.6054 -0.3611  0.1208
  657TMC3    O2 9734   0.262   1.444  15.226  0.5217  0.0621  0.4731
  658MPD2     C 9735   1.954   2.066  14.740 -0.1472 -0.3423  0.8276
  658MPD2    C1 9736   1.844   2.092  14.656  0.0359 -0.3448  0.2494
  658MPD2    C2 9737   1.861   2.153  14.531  0.3347 -0.5416 -0.4458
  658MPD2    C3 9738   1.987   2.192  14.488 -0.7370  1.1495 -0.2403
  658MPD2    C4 9739   2.092   2.171  14.573 -0.0693  0.4643  0.2632
  658MPD2    C5 9740   2.075   2.106  14.694 -0.3183 -0.0211  0.1940
  658MPD2     H 9741   1.774   2.157  14.466  0.3557  0.0466 -0.4446
  658MPD2    H1 9742   2.194   2.195  14.547  1.1013 -5.0558 -0.2970
  658MPD2    H2 9743   1.941   1.998  14.823  1.4966 -1.6317  0.0383
  658MPD2    H3 9744   2.168   2.080  14.742 -0.6651 -0.6183  0.5419
  658MPD2     N 9745   1.993   2.231  14.350 -0.1848  0.8666 -0.0710
  658MPD2    H5 9746   1.902   2.222  14.306 -0.0581  0.5041 -0.2598
  658MPD2    N1 9747   1.716   2.055  14.705 -0.0841  0.3803  0.2061
  658MPD2    H7 9748   1.705   2.035  14.803  1.1980  0.7363  0.4320
  659TMC3    C1 9749   1.482   2.031  14.724  0.2168 -0.3439 -0.6631
  659TMC3    C2 9750   1.480   2.097  14.847 -0.1321  0.0637  0.7156
  659TMC3    C3 9751   1.367   2.084  14.921 -0.0556  0.4459  0.4483
  659TMC3    C4 9752   1.373   1.973  14.669  0.2157  0.0719  0.3667
  659TMC3    C5 9753   1.265   1.971  14.744 -0.8783  0.1226 -0.3332
  659TMC3    C6 9754   1.256   2.025  14.867  0.1053 -0.2617  0.7751
  659TMC3     C 9755   1.599   2.050  14.634 -0.1084  0.3126 -0.1582
  659TMC3     O 9756   1.585   2.029  14.515 -0.1085  0.2159  0.0295
  659TMC3     H 9757   1.568   2.146  14.888  0.8790 -1.2509  0.1300
  659TMC3    H1 9758   1.373   1.927  14.571 -0.7313 -1.5641  1.1206
  659TMC3    H2 9759   1.164   2.015  14.922  0.3918 -4.1516  0.5138
  659TMC3    C7 9760   1.135   1.931  14.685  0.4332  0.0231 -0.0534
  659TMC3    C8 9761   1.349   2.145  15.055  0.4011 -0.1874  0.0475
  659TMC3    O1 9762   1.040   1.987  14.736  0.0429  0.6443 -0.0640
  659TMC3    O2 9763   1.242   2.135  15.117  0.9814 -0.3846 -0.3838
  660MPD2     C 9764   4.379   0.798  12.394 -0.2418  0.2535 -0.0029
  660MPD2    C1 9765   4.266   0.870  12.374  0.1816  0.5649 -0.1049
  660MPD2    C2 9766   4.157   0.823  12.445 -0.0529  0.0679 -0.0516
  660MPD2    C3 9767   4.175   0.731  12.551 -0.1060 -0.6671 -0.4458
  660MPD2    C4 9768   4.294   0.670  12.572  0.2136 -0.0707 -0.1696
  660MPD2    C5 9769   4.395   0.699  12.487  1.1929 -0.4700 -1.0218
  660MPD2     H 9770   4.057   0.863  12.429  1.2160  2.5425 -1.7481
  660MPD2    H1 9771   4.313   0.599  12.652  0.0603  0.0371 -0.0381
  660MPD2    H2 9772   4.465   0.826  12.334 -0.4596 -0.9925 -0.8870
  660MPD2    H3 9773   4.489   0.649  12.506  0.1750 -2.4074 -1.1368
  660MPD2     N 9774   4.080   0.710  12.654  0.3294  0.4712 -0.0222
  660MPD2    H5 9775   4.112   0.664  12.739 -1.1467 -0.2595  0.1413
  660MPD2    N1 9776   4.259   0.970  12.276  0.1248 -0.2595  0.0182
  660MPD2    H7 9777   4.340   0.984  12.218 -2.8073  0.9387 -3.7654
  661TMC3    C1 9778   4.175   1.150  12.150  0.2268  0.3143 -0.2872
  661TMC3    C2 9779   4.260   1.106  12.042  0.2413  0.1180  0.3900
  661TMC3    C3 9780   4.226   1.148  11.914 -0.6633 -0.1756 -0.7744
  661TMC3    C4 9781   4.073   1.240  12.127  0.5674  0.0146  0.2031
  661TMC3    C5 9782   4.052   1.273  11.998  0.2177 -0.1666  0.7327
  661TMC3    C6 9783   4.126   1.233  11.886  0.0298  0.5764  0.4191
  661TMC3     C 9784   4.157   1.050  12.249 -0.2189 -0.5177 -0.1286
  661TMC3     O 9785   4.056   1.057  12.319  0.2731 -0.3505 -0.3179
  661TMC3     H 9786   4.333   1.026  12.053  0.7040  0.6335  1.1169
  661TMC3    H1 9787   4.009   1.270  12.208 -0.0997 -2.5215  0.6157
  661TMC3    H2 9788   4.114   1.270  11.784 -0.3003  0.5566  0.4511
  661TMC3    C7 9789   3.934   1.352  11.963 -0.4669 -0.2151 -0.1133
  661TMC3    C8 9790   4.309   1.098  11.809 -0.0915 -0.3325 -0.2132
  661TMC3    O1 9791   3.895   1.430  12.047 -0.4474  0.9353  0.3459
  661TMC3    O2 9792   4.429   1.087  11.838  0.0982 -0.0551 -0.0444
  662MPD2     C 9793   4.703   0.585  17.223  0.3789 -0.3004 -0.0337
  662MPD2    C1 9794   0.040   0.588  17.351  0.5428 -0.2999 -0.7300
  662MPD2    C2 9795   0.002   0.680  17.443 -0.8069  0.1941  0.0525
  662MPD2    C3 9796   4.627   0.774  17.412 -0.5397  0.3140  0.4105
  662MPD2    C4 9797   4.563   0.770  17.285  0.3955  0.1211 -0.3929
  662MPD2    C5 9798   4.602   0.682  17.192  0.4550  0.2054 -0.1435
  662MPD2     H 9799   0.052   0.681  17.538 -0.6844 -1.9065  0.0127
  662MPD2    H1 9800   4.484   0.841  17.264  0.1847 -1.2011 -4.1752
  662MPD2    H2 9801   0.003   0.504  17.155 -2.2327 -1.0651  0.0289
  662MPD2    H3 9802   4.554   0.668  17.096  1.4933  1.8733 -0.9027
  662MPD2     N 9803   4.577   0.862  17.510 -0.1510 -0.4761 -0.0675
  662MPD2    H5 9804   4.483   0.895  17.493 -0.4863 -1.5095 -0.2529
  662MPD2    N1 9805   0.139   0.492  17.390 -0.6060 -0.6185  0.1678
  662MPD2    H7 9806   0.185   0.510  17.479 -0.0140 -0.2651 -0.2094
  663TMC3    C1 9807   0.302   0.318  17.387  0.0978 -0.6396 -0.2948
  663TMC3    C2 9808   0.275   0.290  17.516 -0.1652 -0.4892  0.1448
  663TMC3    C3 9809   0.327   0.185  17.579 -0.2186 -0.1115 -0.3686
  663TMC3    C4 9810   0.368   0.232  17.308 -0.5993  0.1666  0.5200
  663TMC3    C5 9811   0.428   0.127  17.375  0.2436 -0.7087  0.7683
  663TMC3    C6 9812   0.412   0.104  17.505 -0.5116 -0.3063  0.4775
  663TMC3     C 9813   0.199   0.396  17.312  0.7705 -0.3752 -0.2026
  663TMC3     O 9814   0.198   0.387  17.188  0.4641  0.4106  0.1183
  663TMC3     H 9815   0.180   0.324  17.557  0.1467  0.3925  0.1462
  663TMC3    H1 9816   0.384   0.250  17.203  0.5034 -0.3363  0.5967
  663TMC3    H2 9817   0.448   0.021  17.565 -0.4559 -0.9753 -0.4734
  663TMC3    C7 9818   0.397   0.011  17.298 -0.7940 -0.2348 -0.0269
  663TMC3    C8 9819   0.230   0.109  17.648  0.2865 -0.5444  0.1951
  663TMC3    O1 9820   0.424   0.025  17.179 -0.3893 -0.0589  0.1133
  663TMC3    O2 9821   0.212   4.718  17.602  0.7799 -0.6221  0.4076
  664MPD2     C 9822   2.557   3.867   0.071 -1.2680 -0.6130 -0.9832
  664MPD2    C1 9823   2.684   3.840   0.133 -0.5413  0.7757  0.6040
  664MPD2    C2 9824   2.687   3.812   0.264  0.4575  0.0337  0.6849
  664MPD2    C3 9825   2.578   3.820   0.349  0.4565  0.5310  0.0249
  664MPD2    C4 9826   2.455   3.850   0.294  0.2054  0.2843  0.0951
  664MPD2    C5 9827   2.445   3.864   0.160 -0.5575 -0.1488 -0.5011
  664MPD2     H 9828   2.779   3.787   0.315 -1.0619 -3.4165  1.7218
  664MPD2    H1 9829   2.362   3.834   0.347 -0.3437 -1.0403 -1.2938
  664MPD2    H2 9830   2.532   3.881  17.659  0.6229 -1.8960 -1.6063
  664MPD2    H3 9831   2.345   3.856   0.119 -1.1967  0.3096  0.9782
  664MPD2     N 9832   2.595   3.785   0.489  0.3088 -0.3028 -0.2916
  664MPD2    H5 9833   2.691   3.761   0.513 -0.1292 -1.1072  0.6561
  664MPD2    N1 9834   2.804   3.819   0.064  0.5989  0.5727  0.1097
  664MPD2    H7 9835   2.885   3.791   0.119 -0.1525  1.6189  1.7590
  665TMC3    C1 9836   2.530   3.732   0.718 -0.6965 -0.1649  0.0601
  665TMC3    C2 9837   2.420   3.701   0.797  0.5144  0.0444  0.4818
  665TMC3    C3 9838   2.444   3.669   0.931 -0.4754 -0.4978  0.3194
  665TMC3    C4 9839   2.660   3.728   0.771 -0.0371 -0.1450 -0.3822
  665TMC3    C5 9840   2.673   3.705   0.903  0.9227 -1.0521 -1.1457
  665TMC3    C6 9841   2.569   3.679   0.991  0.2046 -0.3583  0.0851
  665TMC3     C 9842   2.496   3.762   0.582  0.3084 -0.3181  0.3298
  665TMC3     O 9843   2.375   3.750   0.558 -0.3517 -0.0802 -0.3949
  665TMC3     H 9844   2.316   3.704   0.770  0.8778 -1.9271 -1.1087
  665TMC3    H1 9845   2.741   3.765   0.710  1.1740 -2.5543 -0.2634
  665TMC3    H2 9846   2.580   3.657   1.096  0.5709  0.2726  0.1777
  665TMC3    C7 9847   2.807   3.698   0.946  0.5611  0.3822 -0.4516
  665TMC3    C8 9848   2.326   3.635   1.023  0.2792  0.5883  0.1961
  665TMC3    O1 9849   2.890   3.675   0.858  0.2348 -0.3350 -0.1030
  665TMC3    O2 9850   2.346   3.644   1.144 -0.2343 -0.2759 -0.0107
  666TMC3    C1 9851   1.822   3.177  10.305  0.2284 -1.4844 -0.7618
  666TMC3    C2 9852   1.944   3.128  10.345 -1.1655  0.0160  0.5616
  666TMC3    C3 9853   2.035   3.221  10.378 -0.3887 -0.2552 -0.5488
  666TMC3    C4 9854   1.803   3.312  10.295 -0.2557  0.1097 -0.5075
  666TMC3    C5 9855   1.898   3.397  10.338 -0.7477 -0.2289 -0.7314
  666TMC3    C6 9856   2.020   3.355  10.379  0.5333  0.2541 -0.0602
  666TMC3     C 9857   1.739   3.094  10.221  0.4872 -0.0202 -0.5839
  666TMC3     O 9858   1.634   3.134  10.173 -0.1293  0.1731  0.0701
  666TMC3     H 9859   1.967   3.023  10.361  0.4713  0.1793 -0.6556
  666TMC3    H1 9860   1.705   3.340  10.258  0.2047  0.4699 -1.4378
  666TMC3    H2 9861   2.094   3.426  10.413 -0.8310  2.0263 -0.7956
  666TMC3    C7 9862   1.860   3.539  10.352  0.3181  0.0426  0.3301
  666TMC3    C8 9863   2.170   3.171  10.421 -0.3315 -0.4487 -0.2066
  666TMC3    O1 9864   1.937   3.598  10.426  0.0636  0.5118 -0.5283
  666TMC3    O2 9865   2.171   3.059  10.478  0.1211  0.1374 -0.0464
  667MPD2     C 9866   3.601   3.642  14.681 -0.7004 -0.0184 -0.0094
  667MPD2    C1 9867   3.532   3.762  14.683 -0.0523  0.6584 -0.0995
  667MPD2    C2 9868   3.405   3.769  14.633 -0.5081  0.8124  0.8725
  667MPD2    C3 9869   3.342   3.665  14.573  0.4917 -0.2701 -0.0635
  667MPD2    C4 9870   3.413   3.550  14.569 -0.4623 -0.6377  0.6170
  667MPD2    C5 9871   3.533   3.537  14.624 -0.2639  0.5109  0.4609
  667MPD2     H 9872   3.359   3.866  14.621  1.0200  1.5553  0.9503
  667MPD2    H1 9873   3.380   3.466  14.508  1.7408 -0.8252 -0.3205
  667MPD2    H2 9874   3.697   3.615  14.721 -0.6579  0.4340  0.1867
  667MPD2    H3 9875   3.589   3.445  14.614 -0.5920  0.5915 -2.1456
  667MPD2     N 9876   3.217   3.657  14.503  0.6616 -0.1095 -0.4355
  667MPD2    H5 9877   3.198   3.562  14.473  1.0838 -0.3038 -0.0891
  667MPD2    N1 9878   3.601   3.884  14.722 -0.2100 -0.2144  0.2461
  667MPD2    H7 9879   3.545   3.967  14.739 -0.3968 -0.3841  0.4635
  668TMC3    C1 9880   3.764   4.011  14.819  0.0799  0.5862 -0.2912
  668TMC3    C2 9881   3.833   4.109  14.759  0.2549  0.0800  0.5644
  668TMC3    C3 9882   3.860   4.232  14.836 -0.1019  0.4004 -0.2499
  668TMC3    C4 9883   3.709   4.025  14.942  0.1250  0.1438 -0.1006
  668TMC3    C5 9884   3.739   4.136  15.014  0.1124  0.1063 -0.3588
  668TMC3    C6 9885   3.818   4.238  14.968 -0.1048  0.7120  0.0473
  668TMC3     C 9886   3.736   3.894  14.745 -0.6640 -0.2491 -0.6422
  668TMC3     O 9887   3.832   3.841  14.687  0.2909 -0.2209  0.1588
  668TMC3     H 9888   3.850   4.098  14.652 -0.4921 -1.2510  0.5871
  668TMC3    H1 9889   3.672   3.931  14.983  2.1259 -0.1108  1.1279
  668TMC3    H2 9890   3.850   4.321  15.030  0.3001 -0.5229  1.5029
  668TMC3    C7 9891   3.760   4.117  15.160  0.3896 -0.0674  0.3421
  668TMC3    C8 9892   3.934   4.347  14.790  0.2326  0.5790 -0.1993
  668TMC3    O1 9893   3.863   4.163  15.211 -0.2863  0.1609  0.7018
  668TMC3    O2 9894   3.932   4.447  14.860  0.5276 -0.5869 -0.0185
  669TMC3    C1 9895   1.778   3.478  14.684 -0.4512  0.0030  0.9708
  669TMC3    C2 9896   1.658   3.518  14.640 -0.0593  0.1844 -0.0197
  669TMC3    C3 9897   1.650   3.618  14.550 -0.5728 -0.7790  0.5716
  669TMC3    C4 9898   1.896   3.545  14.650 -0.4902  0.5013 -0.3558
  669TMC3    C5 9899   1.876   3.650  14.567  0.1719  0.7576 -0.0945
  669TMC3    C6 9900   1.757   3.689  14.514  0.4165 -0.2665  0.4162
  669TMC3     C 9901   1.774   3.381  14.789  0.0606 -0.5246  1.1841
  669TMC3     O 9902   1.680   3.381  14.869  0.2248  1.0713 -0.0478
  669TMC3     H 9903   1.571   3.461  14.673  0.9689  0.6924  3.5265
  669TMC3    H1 9904   1.991   3.515  14.692 -0.7568  2.5917  1.7569
  669TMC3    H2 9905   1.753   3.745  14.421  1.2839 -0.2465  0.3958
  669TMC3    C7 9906   1.988   3.731  14.520  1.1963 -1.5679  0.0550
  669TMC3    C8 9907   1.525   3.628  14.479 -0.6070  0.0833  0.7645
  669TMC3    O1 9908   1.984   3.796  14.420  0.1551  0.0923 -0.2350
  669TMC3    O2 9909   1.442   3.535  14.498  0.9108 -0.4201  0.0615
  670MPD2     C 9910   0.232   1.394  13.187 -0.2194 -0.6628  0.4795
  670MPD2    C1 9911   0.187   1.523  13.223 -1.1639  0.6309 -0.3387
  670MPD2    C2 9912   0.116   1.535  13.346 -0.3176 -0.0515 -0.3919
  670MPD2    C3 9913   0.073   1.425  13.421 -0.9789 -0.2428  0.1068
  670MPD2    C4 9914   0.115   1.296  13.381  0.0086  0.7053 -0.2874
  670MPD2    C5 9915   0.194   1.287  13.268 -0.6918 -0.9350  0.4686
  670MPD2     H 9916   0.096   1.637  13.376 -1.6613 -0.6151  0.6322
  670MPD2    H1 9917   0.084   1.198  13.415  0.1084  0.4220 -1.0016
  670MPD2    H2 9918   0.296   1.381  13.100 -0.0381  3.3330  0.0377
  670MPD2    H3 9919   0.229   1.188  13.243  0.5191 -0.3884 -0.0414
  670MPD2     N 9920   4.721   1.445  13.537  0.7910  0.1117  0.6539
  670MPD2    H5 9921   4.718   1.532  13.588  1.4508 -0.0232  0.9289
  670MPD2    N1 9922   0.226   1.636  13.145  0.3454 -0.7034 -0.4372
  670MPD2    H7 9923   0.210   1.728  13.184  0.3599 -0.2177 -1.5989
  671TMC3    C1 9924   4.573   1.388  13.716  0.2158  0.2297 -0.2393
  671TMC3    C2 9925   4.653   1.420  13.820 -0.2186 -0.0045  0.0588
  671TMC3    C3 9926   4.632   1.347  13.931 -0.5703 -0.1844 -0.2612
  671TMC3    C4 9927   4.449   1.329  13.729 -0.4557  0.4131 -0.2926
  671TMC3    C5 9928   4.432   1.264  13.849  0.6712  0.4001 -0.7569
  671TMC3    C6 9929   4.521   1.273  13.950  0.4515  0.5818  0.1258
  671TMC3     C 9930   4.648   1.342  13.601  0.4544 -0.8925 -0.2923
  671TMC3     O 9931   4.621   1.231  13.561  0.1268  0.4426  0.1004
  671TMC3     H 9932   0.034   1.434  13.792 -0.1763  0.3596  0.4045
  671TMC3    H1 9933   4.394   1.302  13.640 -0.7056  1.7433 -0.5448
  671TMC3    H2 9934   4.506   1.215  14.040  2.1191 -0.9713 -0.5968
  671TMC3    C7 9935   4.357   1.137  13.839 -1.1446 -0.8450  0.3027
  671TMC3    C8 9936   0.031   1.285  13.981 -0.1956 -0.1844  0.8987
  671TMC3    O1 9937   4.329   1.111  13.726  0.5872  0.3981  0.2195
  671TMC3    O2 9938   0.130   1.292  13.911  0.0015 -0.1081 -0.2027
  672MPD2     C 9939   0.485   1.218   0.959  1.0068 -0.3540  0.3910
  672MPD2    C1 9940   0.498   1.352   0.914  0.5146 -0.2298  0.5098
  672MPD2    C2 9941   0.531   1.441   1.013 -0.3024  0.3283  0.3374
  672MPD2    C3 9942   0.554   1.419   1.142  0.0495  0.6330 -0.1490
  672MPD2    C4 9943   0.534   1.285   1.184  0.7274  0.1138 -0.1168
  672MPD2    C5 9944   0.491   1.188   1.095  0.3402  0.4371 -0.0315
  672MPD2     H 9945   0.522   1.542   0.975  2.0925  0.9502  1.4785
  672MPD2    H1 9946   0.539   1.260   1.289 -0.8926 -1.8686 -0.4918
  672MPD2    H2 9947   0.473   1.127   0.903 -2.5012 -0.3728  1.2021
  672MPD2    H3 9948   0.495   1.088   1.137 -1.3528  0.5550  0.3812
  672MPD2     N 9949   0.587   1.514   1.231  0.2231 -0.4281  0.0998
  672MPD2    H5 9950   0.594   1.478   1.326 -2.0859 -0.1217  0.3772
  672MPD2    N1 9951   0.498   1.382   0.775  0.5627 -0.5215  0.1454
  672MPD2    H7 9952   0.522   1.478   0.749  1.0926 -0.3521  1.2380
  673TMC3    C1 9953   0.517   1.339   0.546  0.2804  0.1717 -0.1585
  673TMC3    C2 9954   0.589   1.245   0.472  0.2100 -0.2294 -0.4820
  673TMC3    C3 9955   0.673   1.302   0.380 -0.6147  1.1277 -0.4703
  673TMC3    C4 9956   0.521   1.476   0.526 -0.2609  0.6601  0.2494
  673TMC3    C5 9957   0.590   1.518   0.412 -0.4023  0.7096  0.6482
  673TMC3    C6 9958   0.665   1.432   0.335 -0.5585 -0.8015  0.3337
  673TMC3     C 9959   0.473   1.292   0.674  0.1424 -0.5201 -0.3697
  673TMC3     O 9960   0.440   1.172   0.681 -0.0048  0.7931  0.0956
  673TMC3     H 9961   0.596   1.140   0.498 -1.2237 -0.3063 -0.4164
  673TMC3    H1 9962   0.468   1.544   0.591  0.3010  0.8930  0.4593
  673TMC3    H2 9963   0.737   1.468   0.263  1.8053  1.2663  3.7525
  673TMC3    C7 9964   0.618   1.658   0.414  0.0572  0.1523  0.5463
  673TMC3    C8 9965   0.803   1.244   0.344  0.1947  1.1289  0.0110
  673TMC3    O1 9966   0.711   1.689   0.336 -0.2096  0.2356  0.6792
  673TMC3    O2 9967   0.866   1.277   0.241 -0.0499  0.1708  0.6092
  674MPD2     C 9968   0.043   2.193   0.110 -0.3051 -0.1744 -0.7824
  674MPD2    C1 9969   0.071   2.067   0.158  0.1217 -0.0643 -0.4914
  674MPD2    C2 9970   4.692   2.003   0.235  0.4938  0.8846  0.2588
  674MPD2    C3 9971   4.569   2.061   0.245 -0.6969 -0.2883 -0.1860
  674MPD2    C4 9972   4.537   2.182   0.184  0.6308  0.3569  0.1134
  674MPD2    C5 9973   4.637   2.248   0.118 -0.1508 -0.5767  0.0442
  674MPD2     H 9974   4.716   1.912   0.288 -1.8596  1.9993  3.2124
  674MPD2    H1 9975   4.438   2.226   0.199  0.4974  0.1601 -0.2114
  674MPD2    H2 9976   0.111   2.259   0.057  0.8881 -0.1489  0.7866
  674MPD2    H3 9977   4.617   2.340   0.064 -1.4355 -0.0853  1.3559
  674MPD2     N 9978   4.481   1.986   0.331 -0.0711 -0.4299  0.9585
  674MPD2    H5 9979   4.520   1.907   0.380  1.6105  0.3608  0.8877
  674MPD2    N1 9980   0.194   2.007   0.128  0.4937  0.0189 -0.1979
  674MPD2    H7 9981   0.261   2.071   0.087  3.0127 -0.9188  2.4642
  675TMC3    C1 9982   0.344   1.820   0.083 -0.9088 -0.2687  0.0472
  675TMC3    C2 9983   0.354   1.684   0.069  0.5744  0.0001  0.4992
  675TMC3    C3 9984   0.476   1.623   0.061 -0.1943  0.3518 -0.4661
  675TMC3    C4 9985   0.456   1.894   0.087  0.0731 -0.0596 -0.6011
  675TMC3    C5 9986   0.574   1.834   0.065  0.6986 -0.2697  0.0804
  675TMC3    C6 9987   0.591   1.694   0.060  0.3637 -0.1042 -0.1212
  675TMC3     C 9988   0.220   1.872   0.138  0.3991  0.0253 -0.1856
  675TMC3     O 9989   0.138   1.788   0.171  0.1504 -0.0453  0.0496
  675TMC3     H 9990   0.268   1.621   0.045 -0.3848  0.6886  2.1382
  675TMC3    H1 9991   0.458   2.001   0.104 -2.7552 -0.1674  0.4244
  675TMC3    H2 9992   0.691   1.653   0.054 -0.3290 -1.5464 -1.7164
  675TMC3    C7 9993   0.689   1.917   0.051  0.2509  0.1367  0.1726
  675TMC3    C8 9994   0.477   1.482   0.080 -0.0750 -0.2296  0.3737
  675TMC3    O1 9995   0.691   2.016  17.672 -0.2349 -0.6981 -0.0787
  675TMC3    O2 9996   0.570   1.418   0.035  0.1776  0.1376 -0.2146
  676MPD2     C 9997   2.710   0.100  11.001  0.2874 -0.6373  0.7346
  676MPD2    C1 9998   2.666   4.716  11.078 -0.4255  0.2394  0.2641
  676MPD2    C2 9999   2.661   4.593  11.024 -0.0895 -0.1613  0.4677
  676MPD2    C310000   2.707   4.567  10.902 -0.3420 -0.4627  0.3774
  676MPD2    C410001   2.734   4.676  10.822 -0.5703  0.9792 -0.3627
  676MPD2    C510002   2.746   0.079  10.876 -0.4177  0.3980 -0.1817
  676MPD2     H10003   2.627   4.512  11.088  3.3436 -1.6691  0.3700
  676MPD2    H110004   2.761   4.648  10.721 -0.1713 -1.1950  0.3415
  676MPD2    H210005   2.713   0.203  11.037  0.6366 -0.4729  0.2289
  676MPD2    H310006   2.763   0.167  10.816  1.4025  0.1202 -0.0713
  676MPD2     N10007   2.724   4.437  10.845  0.1372 -0.6532  0.1095
  676MPD2    H510008   2.746   4.435  10.746  1.1563  1.8461  0.2951
  676MPD2    N110009   2.609   0.003  11.206 -0.0885 -0.3682 -0.3831
  676MPD2    H710010   2.581   4.638  11.248 -0.7841 -0.1822 -0.4713
  677TMC3    C110011   2.563   0.087  11.419 -0.2762  0.4928 -0.0281
  677TMC3    C210012   2.557   4.678  11.464 -0.3331  0.4912  0.3654
  677TMC3    C310013   2.567   4.660  11.596  0.1915  0.1948  0.4916
  677TMC3    C410014   2.555   0.192  11.504  0.2215 -0.3732  0.3763
  677TMC3    C510015   2.556   0.173  11.645 -0.2617 -0.3545 -0.4635
  677TMC3    C610016   2.552   0.040  11.690 -0.3540  0.1143 -0.0513
  677TMC3     C10017   2.614   0.114  11.289 -0.1751 -0.2645  0.7486
  677TMC3     O10018   2.659   0.229  11.271 -0.3585  0.1186  0.3180
  677TMC3     H10019   2.546   4.591  11.400  0.8088  1.2363 -0.8778
  677TMC3    H110020   2.561   0.292  11.462  0.6469 -1.1713 -1.4969
  677TMC3    H210021   2.547   0.016  11.796 -1.3679 -0.0454 -0.1347
  677TMC3    C710022   2.636   0.266  11.723  0.2500  0.3118 -0.5141
  677TMC3    C810023   2.563   4.526  11.641  0.5568  0.1650  0.0279
  677TMC3    O110024   2.621   0.263  11.845 -0.1336 -0.0109 -0.3642
  677TMC3    O210025   2.475   4.458  11.591  0.2306 -0.4122 -0.6182
  678MPD2     C10026   3.988   4.593   1.838 -0.2828 -0.3535 -0.7470
  678MPD2    C110027   3.995   4.515   1.726  0.2057 -0.2409 -0.0461
  678MPD2    C210028   3.890   4.432   1.700 -0.5761  0.1365 -0.5656
  678MPD2    C310029   3.778   4.430   1.778 -0.8505  0.5252  0.2565
  678MPD2    C410030   3.770   4.510   1.891 -0.5038 -0.2007  0.2229
  678MPD2    C510031   3.885   4.579   1.927  0.1537  0.2148 -0.6187
  678MPD2     H10032   3.895   4.378   1.606  0.2006 -0.0768 -0.3965
  678MPD2    H110033   3.684   4.533   1.951 -0.9448 -0.6013 -0.2570
  678MPD2    H210034   4.076   4.651   1.865 -0.5188 -0.2514 -0.1964
  678MPD2    H310035   3.893   4.638   2.018 -1.5149  0.1535 -0.4246
  678MPD2     N10036   3.670   4.357   1.731  0.2894  0.2485 -0.1388
  678MPD2    H510037   3.698   4.303   1.650  1.6882  0.4685  0.2153
  678MPD2    N110038   4.114   4.508   1.648  0.2620 -0.5297  0.3839
  678MPD2    H710039   4.132   4.423   1.596  3.8229  1.9837 -2.5078
  679TMC3    C110040   4.443   4.403   1.421  0.1143  0.1517 -0.3753
  679TMC3    C210041   4.352   4.428   1.525 -0.1662 -0.4077 -0.4141
  679TMC3    C310042   4.316   4.557   1.545  0.4630 -0.3962 -0.0739
  679TMC3    C410043   4.503   4.502   1.343 -0.3397 -0.3262  0.3855
  679TMC3    C510044   4.458   4.627   1.374  0.0505 -0.4625  0.3727
  679TMC3    C610045   4.357   4.656   1.459 -1.0515  0.3368  0.6554
  679TMC3     C10046   4.504   4.274   1.412 -0.7912 -0.4756 -0.2883
  679TMC3     O10047   4.591   4.258   1.326 -0.3173 -0.2649 -0.0547
  679TMC3     H10048   4.322   4.350   1.594 -1.2599  0.9127  0.5965
  679TMC3    H110049   4.580   4.486   1.268 -0.6479 -0.3374  0.0736
  679TMC3    H210050   4.308   0.030   1.456 -0.2306  0.6423 -3.2446
  679TMC3    C710051   4.526   0.013   1.304  0.4984  0.8742  0.1594
  679TMC3    C810052   4.209   4.603   1.636 -0.1832 -0.4471 -0.1777
  679TMC3    O110053   4.563   4.717   1.191  0.9294 -0.1149  0.6888
  679TMC3    O210054   4.217   4.717   1.678  0.1229  0.4049  0.1376
  680MPD2     C10055   4.385   3.446  13.578  0.0510 -0.4840 -0.2989
  680MPD2    C110056   4.487   3.392  13.649 -0.4993 -0.2749 -0.2049
  680MPD2    C210057   4.580   3.481  13.710 -0.1006  0.0400  0.0879
  680MPD2    C310058   4.578   3.614  13.686 -0.2458 -0.4581  0.4601
  680MPD2    C410059   4.472   3.661  13.615 -0.2823  0.5560 -0.1328
  680MPD2    C510060   4.378   3.580  13.562  0.2109  0.1541  0.1551
  680MPD2     H10061   4.662   3.437  13.767  0.8153  2.3077  0.5279
  680MPD2    H110062   4.457   3.767  13.596  2.9268  0.8873 -0.6863
  680MPD2    H210063   4.306   3.387  13.534  0.4883 -0.0903 -1.5988
  680MPD2    H310064   4.295   3.615  13.501  1.1099  0.3781 -0.9437
  680MPD2     N10065   4.686   3.694  13.740 -0.0949  0.6672 -0.0345
  680MPD2    H510066   0.030   3.646  13.800  0.0888  1.9236  0.7876
  680MPD2    N110067   4.490   3.264  13.699 -0.4514  0.1438  0.2559
  680MPD2    H710068   4.572   3.238  13.753 -1.3903 -0.7846  1.2362
  681TMC3    C110069   4.427   3.040  13.743 -0.2762  0.1410 -0.1939
  681TMC3    C210070   4.339   3.015  13.844  0.3964  0.5701  0.2442
  681TMC3    C310071   4.391   3.006  13.972  0.3342 -1.0755 -0.0177
  681TMC3    C410072   4.558   3.019  13.753  0.4511  0.6746 -0.1417
  681TMC3    C510073   4.600   2.968  13.876 -0.1796  0.5248 -0.8001
  681TMC3    C610074   4.521   2.970  13.990  0.4701 -0.4726  0.2473
  681TMC3     C10075   4.393   3.162  13.671  1.0885 -0.3356  0.1831
  681TMC3     O10076   4.276   3.180  13.651  0.2455 -0.0118  0.2734
  681TMC3     H10077   4.234   3.038  13.829  0.0929 -0.4673  0.8304
  681TMC3    H110078   4.621   3.030  13.666  0.5438 -0.8526 -0.2762
  681TMC3    H210079   4.552   2.930  14.085 -2.6030 -3.2593  0.0630
  681TMC3    C710080   0.013   2.943  13.910  0.0252  0.2953  0.1528
  681TMC3    C810081   4.327   3.098  14.064 -0.1366 -0.3052  0.1267
  681TMC3    O110082   0.051   2.939  14.026 -0.2761  0.1019 -0.6428
  681TMC3    O210083   4.207   3.119  14.046  0.5659 -0.2174 -0.3015
  682MPD2     C10084   1.445   4.646  11.031  0.3667 -0.5322 -0.1059
  682MPD2    C110085   1.372   4.531  11.016  0.2805 -0.0270  0.0874
  682MPD2    C210086   1.238   4.523  11.058 -0.2996  0.0649 -0.3864
  682MPD2    C310087   1.187   4.628  11.128 -0.2406 -0.3972 -0.2604
  682MPD2    C410088   1.271   0.012  11.159  0.4740  0.3862  0.1967
  682MPD2    C510089   1.397   0.024  11.110  0.4818 -0.1448  0.4076
  682MPD2     H10090   1.194   4.424  11.056  0.6614 -0.3983  0.7614
  682MPD2    H110091   1.243   0.091  11.227 -1.9642 -1.0762  0.8843
  682MPD2    H210092   1.546   4.653  10.993  0.5310  0.4345  0.5081
  682MPD2    H310093   1.459   0.113  11.116 -0.7043  0.5572  2.0625
  682MPD2     N10094   1.075   4.624  11.210 -0.5573  0.0138  0.3053
  682MPD2    H510095   1.058   4.693  11.282  0.8698  1.1227 -0.4233
  682MPD2    N110096   1.412   4.422  10.935 -0.2456 -0.0149 -0.4414
  682MPD2    H710097   1.363   4.335  10.952  1.0475 -0.3132  1.7933
  683TMC3    C110098   0.835   4.477  11.505  0.1034 -0.0528 -0.6570
  683TMC3    C210099   0.743   4.382  11.477  0.7149  0.5738  0.2983
  683TMC3    C310100   0.703   4.361  11.350 -0.1658 -0.4046  0.0773
  683TMC3    C410101   0.908   4.540  11.416 -0.5616  0.0015  0.1960
  683TMC3    C510102   0.874   4.512  11.286 -0.5500  0.2182 -0.2278
  683TMC3    C610103   0.770   4.423  11.251 -0.6310 -0.9118  0.1805
  683TMC3     C10104   0.886   4.478  11.645 -0.2025  0.6348  0.2360
  683TMC3     O10105   0.974   4.560  11.669 -0.2326  1.1246 -0.1106
  683TMC3     H10106   0.693   4.330  11.558  0.8068  1.1122  0.6980
  683TMC3    H110107   0.997   4.597  11.440  0.5919  0.0469 -4.0863
  683TMC3    H210108   0.742   4.408  11.147 -0.4578  0.5599 -0.0881
  683TMC3    C710109   0.976   4.529  11.186  0.4441  0.3868  0.1773
  683TMC3    C810110   0.640   4.233  11.320  0.4616 -0.3236 -0.2729
  683TMC3    O110111   0.969   4.439  11.103  0.2353 -0.4851 -0.0559
  683TMC3    O210112   0.529   4.246  11.266 -0.0604  0.1898 -0.1216
  684MPD2     C10113   4.699   4.127  16.871 -0.1293  0.2181  0.1462
  684MPD2    C110114   4.652   4.124  16.740  0.1519 -0.8880  0.2984
  684MPD2    C210115   4.612   4.242  16.682 -0.2097 -0.4644  0.5216
  684MPD2    C310116   4.614   4.369  16.757 -0.1167 -0.3026 -0.3243
  684MPD2    C410117   4.663   4.363  16.884 -0.2279  0.4292 -0.0471
  684MPD2    C510118   4.703   4.243  16.942  0.3154 -0.1100  0.5236
  684MPD2     H10119   4.585   4.234  16.578  0.2981 -0.2879  0.3748
  684MPD2    H110120   4.679   4.454  16.940  1.0537 -0.8066  1.5709
  684MPD2    H210121   0.027   4.042  16.917  0.0687  0.7467  0.8993
  684MPD2    H310122   0.028   4.238  17.039 -0.3746  0.5696  0.8900
  684MPD2     N10123   4.570   4.497  16.715 -0.0813 -0.1605 -0.0622
  684MPD2    H510124   4.591   4.567  16.785  2.6486 -0.2081 -0.8459
  684MPD2    N110125   4.646   4.019  16.655 -0.5850  0.0213  0.1197
  684MPD2    H710126   4.620   4.043  16.560  0.3833  0.4585 -0.0344
  685TMC3    C110127   4.672   3.811  16.565 -0.4351  0.7813 -0.2396
  685TMC3    C210128   4.576   3.836  16.475  0.2148 -0.9167 -0.2132
  685TMC3    C310129   4.562   3.744  16.374  0.6680 -0.2081 -0.0405
  685TMC3    C410130   0.027   3.700  16.566  0.6561 -0.3939 -0.5677
  685TMC3    C510131   0.007   3.609  16.463  0.1521  0.6395  0.4481
  685TMC3    C610132   4.639   3.628  16.367  0.0439 -0.3303 -0.2602
  685TMC3     C10133   4.692   3.896  16.680  0.2113  0.1461 -0.6080
  685TMC3     O10134   0.016   3.847  16.779 -0.8976  0.1482 -0.4026
  685TMC3     H10135   4.498   3.903  16.509  0.4323 -0.8631  0.1738
  685TMC3    H110136   0.095   3.689  16.649  0.7531  0.9989 -0.4661
  685TMC3    H210137   4.642   3.571  16.274 -0.2217  2.0254 -1.7213
  685TMC3    C710138   0.104   3.497  16.444  0.3472 -0.4336  0.1195
  685TMC3    C810139   4.494   3.787  16.253 -0.2420  0.1516 -0.2201
  685TMC3    O110140   0.067   3.414  16.365 -0.2891  0.1126  0.4908
  685TMC3    O210141   4.482   3.710  16.162  0.0503  0.4163 -0.0793
  686MPD2     C10142   0.826   4.215  15.818  0.7127 -0.1628  0.4334
  686MPD2    C110143   0.798   4.084  15.776 -0.3255  0.2616 -0.6794
  686MPD2    C210144   0.911   3.994  15.764 -0.0173  0.3682  0.4620
  686MPD2    C310145   1.039   4.032  15.797 -0.3200 -0.9079 -0.1289
  686MPD2    C410146   1.068   4.162  15.830 -0.0661  0.2103  0.3153
  686MPD2    C510147   0.964   4.253  15.838 -0.2051  0.3768  0.0395
  686MPD2     H10148   0.893   3.890  15.738  0.9860  0.0318  1.0972
  686MPD2    H110149   1.170   4.196  15.844 -0.2324  0.6374  0.5103
  686MPD2    H210150   0.753   4.293  15.835  1.5692  0.6602  0.3762
  686MPD2    H310151   0.984   4.358  15.854 -0.7128  0.4698  0.0898
  686MPD2     N10152   1.138   3.937  15.777 -0.0815 -0.1144  0.2876
  686MPD2    H510153   1.098   3.846  15.757  0.5778 -0.2335 -0.4907
  686MPD2    N110154   0.660   4.050  15.764  0.5120 -0.1967 -0.1565
  686MPD2    H710155   0.588   4.119  15.781 -0.8238 -1.4060 -0.9358
  687TMC3    C110156   1.356   3.840  15.739  0.6786  0.0505 -0.5946
  687TMC3    C210157   1.306   3.761  15.632  0.2924 -0.0102 -0.4946
  687TMC3    C310158   1.391   3.675  15.579 -0.0937  0.7114  0.0419
  687TMC3    C410159   1.482   3.833  15.775  0.0157  0.0090  0.8295
  687TMC3    C510160   1.571   3.768  15.694  0.7553 -0.7515  0.2748
  687TMC3    C610161   1.527   3.688  15.598  0.8695 -0.4152  0.3022
  687TMC3     C10162   1.271   3.944  15.810 -0.2059 -0.2176 -0.0377
  687TMC3     O10163   1.335   4.040  15.847  0.6566  0.1958  0.3858
  687TMC3     H10164   1.202   3.762  15.601 -0.7358 -1.1907  2.9259
  687TMC3    H110165   1.518   3.887  15.861 -0.6335  3.8805 -1.3618
  687TMC3    H210166   1.592   3.629  15.534 -1.8821 -0.9998 -1.9869
  687TMC3    C710167   1.710   3.807  15.692 -0.1302 -0.3373  0.7184
  687TMC3    C810168   1.349   3.629  15.455 -0.6830 -0.5058  0.0128
  687TMC3    O110169   1.734   3.900  15.767  0.3950 -0.4476 -0.1594
  687TMC3    O210170   1.355   3.714  15.367  0.0934 -0.2633  0.1090
  688MPD2     C10171   0.621   2.791  17.145 -1.1261 -0.1458  0.0964
  688MPD2    C110172   0.684   2.680  17.189 -0.4021  0.0537 -0.2631
  688MPD2    C210173   0.793   2.630  17.119  0.1763  0.3429 -0.5756
  688MPD2    C310174   0.835   2.691  17.001  0.6187  0.0699 -0.3782
  688MPD2    C410175   0.767   2.807  16.960  0.2933 -0.5399 -0.0291
  688MPD2    C510176   0.661   2.849  17.025 -0.8148  0.3929 -1.0431
  688MPD2     H10177   0.836   2.535  17.149 -2.3269 -0.8064 -0.6335
  688MPD2    H110178   0.787   2.851  16.863 -0.9870  1.3654  0.5675
  688MPD2    H210179   0.531   2.832  17.188 -1.2930 -0.7232  0.3000
  688MPD2    H310180   0.600   2.927  16.982  0.5976 -0.0959 -3.9650
  688MPD2     N10181   0.935   2.643  16.910 -0.0982 -0.1966  0.1436
  688MPD2    H510182   0.963   2.697  16.829 -0.9911 -0.2489 -0.2015
  688MPD2    N110183   0.640   2.612  17.307 -0.1071 -0.5723 -0.9282
  688MPD2    H710184   0.695   2.533  17.339 -1.8739 -2.4053 -2.3773
  689TMC3    C110185   0.517   2.569  17.503 -0.8396 -0.3280 -0.5275
  689TMC3    C210186   0.506   2.630  17.626  0.0121  0.2327  0.1388
  689TMC3    C310187   0.468   2.558   0.043  0.0650  0.2903 -0.2316
  689TMC3    C410188   0.501   2.432  17.487 -0.1052  0.3144  0.0724
  689TMC3    C510189   0.467   2.365  17.604 -0.5878 -0.1758 -0.1378
  689TMC3    C610190   0.453   2.423   0.032  0.1361  0.4607  0.5984
  689TMC3     C10191   0.541   2.660  17.397  0.5613 -0.5356  0.2234
  689TMC3     O10192   0.469   2.756  17.390  0.0252  0.8370 -0.1276
  689TMC3     H10193   0.512   2.738  17.630  1.5051  0.1000  1.5127
  689TMC3    H110194   0.519   2.377  17.396 -2.7084 -3.0792  1.5825
  689TMC3    H210195   0.413   2.365   0.114 -0.1619  2.0678  1.5916
  689TMC3    C710196   0.429   2.227  17.600  1.2030  0.5299  0.2993
  689TMC3    C810197   0.461   2.619   0.172  0.7073  0.3636  0.0296
  689TMC3    O110198   0.350   2.182  17.682  0.4610 -0.0158 -0.3665
  689TMC3    O210199   0.422   2.541   0.261 -0.0118  0.5168  0.0199
  690MPD2     C10200   2.783   4.512  15.595 -0.6407  0.4498 -0.0203
  690MPD2    C110201   2.728   4.528  15.470 -0.4365 -0.1335 -0.7919
  690MPD2    C210202   2.769   4.634  15.386  0.1938  0.1570  0.5191
  690MPD2    C310203   2.888   4.700  15.413  0.3274 -0.5896  0.8096
  690MPD2    C410204   2.948   4.677  15.531 -0.0681  0.2608 -0.4036
  690MPD2    C510205   2.896   4.585  15.621  0.1528 -0.6642  0.6956
  690MPD2     H10206   2.709   4.639  15.295 -0.0801  0.5185  0.7168
  690MPD2    H110207   3.033   0.008  15.572 -0.1672 -0.4980  0.7703
  690MPD2    H210208   2.740   4.447  15.671 -0.5867 -0.2466 -0.5812
  690MPD2    H310209   2.947   4.570  15.715  1.0066  0.4173  0.4019
  690MPD2     N10210   2.930   0.083  15.330  0.3081 -0.0347  0.4616
  690MPD2    H510211   2.871   0.112  15.253  0.2994  0.4216  0.6416
  690MPD2    N110212   2.627   4.442  15.420  0.0982  0.0506  0.2904
  690MPD2    H710213   2.578   4.472  15.337 -1.5996  0.5340  1.4657
  691TMC3    C110214   2.520   4.245  15.389  0.1243 -0.3371  0.4345
  691TMC3    C210215   2.386   4.280  15.380 -0.0179  0.0956 -0.2942
  691TMC3    C310216   2.309   4.193  15.310  0.1182  0.3340 -0.4195
  691TMC3    C410217   2.562   4.112  15.360 -0.7994 -0.9543  0.0749
  691TMC3    C510218   2.481   4.032  15.282  0.3820 -0.1341  1.1448
  691TMC3    C610219   2.352   4.078  15.249  0.7644  0.1094  0.1098
  691TMC3     C10220   2.608   4.320  15.475  0.4837  0.0444  0.3242
  691TMC3     O10221   2.654   4.264  15.574 -0.4103  0.0274  0.2296
  691TMC3     H10222   2.355   4.378  15.412 -0.4036  0.0253 -0.4576
  691TMC3    H110223   2.666   4.089  15.382 -0.4701 -1.1982 -1.7182
  691TMC3    H210224   2.292   4.016  15.184  0.3112  0.6337  0.0254
  691TMC3    C710225   2.520   3.893  15.273  0.1437  0.2542 -0.5436
  691TMC3    C810226   2.173   4.172  15.356 -0.5012  0.5841  0.1726
  691TMC3    O110227   2.613   3.849  15.338 -0.1778 -0.4668 -0.1263
  691TMC3    O210228   2.111   4.072  15.335 -0.0703  0.0357 -0.0397
  692TMC3    C110229   4.286   0.636  15.453  0.1973  0.1054 -0.2617
  692TMC3    C210230   4.396   0.704  15.498  0.0763 -0.0706 -0.5837
  692TMC3    C310231   4.477   0.650  15.581 -0.4220 -0.7333  0.3616
  692TMC3    C410232   4.252   0.506  15.496  0.0218 -0.1661  0.5666
  692TMC3    C510233   4.335   0.459  15.596  0.6363  0.1864 -0.4510
  692TMC3    C610234   4.440   0.531  15.641 -0.8589  0.4784  0.0772
  692TMC3     C10235   4.155   0.704  15.462 -1.2328  0.9432  0.0441
  692TMC3     O10236   4.064   0.662  15.532  0.0051  0.1684  0.4108
  692TMC3     H10237   4.414   0.809  15.478  2.9576 -0.1178  1.8625
  692TMC3    H110238   4.155   0.466  15.469  0.5571 -0.5371 -0.8151
  692TMC3    H210239   4.521   0.491  15.700  0.5125  1.9429 -0.7938
  692TMC3    C710240   4.288   0.338  15.659  0.2869 -0.3887 -0.6373
  692TMC3    C810241   4.537   0.748  15.674 -0.4683  0.1362  0.5702
  692TMC3    O110242   4.179   0.304  15.627  0.4964  0.4679  0.1960
  692TMC3    O210243   4.594   0.842  15.626  0.6359 -0.2571 -0.7616
  693MPD2     C10244   3.932   3.612  10.451 -0.7093 -0.0682 -1.5283
  693MPD2    C110245   3.883   3.483  10.450 -0.2299 -0.4483 -0.3772
  693MPD2    C210246   3.965   3.385  10.411 -0.6970 -0.3612  0.0113
  693MPD2    C310247   4.091   3.411  10.354 -0.4943 -0.6479 -0.8850
  693MPD2    C410248   4.121   3.541  10.341  0.6894 -0.2609  0.0625
  693MPD2    C510249   4.046   3.641  10.384  0.6126 -0.3406 -0.4946
  693MPD2     H10250   3.934   3.281  10.418 -0.1070 -0.5023  0.5596
  693MPD2    H110251   4.211   3.565  10.285  1.6066 -1.9384  0.8017
  693MPD2    H210252   3.862   3.692  10.469 -1.3686 -0.5752 -1.8549
  693MPD2    H310253   4.075   3.742  10.356  3.7146 -1.3800 -1.0038
  693MPD2     N10254   4.187   3.317  10.320 -0.4351  0.0796 -0.4340
  693MPD2    H510255   4.277   3.355  10.292 -0.2420  2.0102  2.7055
  693MPD2    N110256   3.757   3.468  10.495 -0.3203  0.1545  0.1349
  693MPD2    H710257   3.719   3.554  10.533  0.3912  0.4238  0.2292
  694TMC3    C110258   3.547   3.371  10.538 -0.1026 -0.5073 -0.0713
  694TMC3    C210259   3.447   3.297  10.483  0.7157  0.2518 -0.0715
  694TMC3    C310260   3.363   3.227  10.563 -0.7883  0.0597  0.5602
  694TMC3    C410261   3.551   3.385  10.674 -0.3741 -0.1180 -0.5854
  694TMC3    C510262   3.462   3.327  10.755  0.0769  0.1811 -0.3142
  694TMC3    C610263   3.368   3.245  10.701  0.0182 -0.6730  0.4952
  694TMC3     C10264   3.682   3.357  10.482 -0.0757 -0.4959  0.0669
  694TMC3     O10265   3.705   3.254  10.417  0.2398 -0.0660  0.2384
  694TMC3     H10266   3.448   3.272  10.377 -4.6784  0.3671 -0.1535
  694TMC3    H110267   3.636   3.437  10.718  0.2283 -1.0156 -0.6832
  694TMC3    H210268   3.291   3.202  10.765 -0.3638 -0.5231  0.1406
  694TMC3    C710269   3.468   3.342  10.898 -0.1924  0.0101 -0.1190
  694TMC3    C810270   3.248   3.153  10.510  0.2543 -0.5186  0.4369
  694TMC3    O110271   3.513   3.450  10.934 -0.3742 -0.6052  0.3256
  694TMC3    O210272   3.193   3.088  10.596 -0.4028  0.5153  0.1836
  695MPD2     C10273   4.691   0.490  13.277 -0.4270  0.6053 -0.5880
  695MPD2    C110274   4.667   0.538  13.406  0.1448  0.1768 -0.2689
  695MPD2    C210275   4.529   0.555  13.440  0.0135  0.3107 -0.5376
  695MPD2    C310276   4.427   0.527  13.347  0.0714 -0.2438 -0.0000
  695MPD2    C410277   4.456   0.465  13.219  0.8994 -0.2798 -0.5021
  695MPD2    C510278   4.595   0.460  13.188  0.5014  0.6998 -0.4329
  695MPD2     H10279   4.494   0.598  13.533  0.6150  0.8733 -0.5701
  695MPD2    H110280   4.375   0.446  13.150 -0.0247  1.7845  0.0181
  695MPD2    H210281   0.068   0.492  13.233  0.9878 -1.4740  2.5070
  695MPD2    H310282   4.622   0.429  13.088  2.2458  0.7454  0.0288
  695MPD2     N10283   4.296   0.552  13.380  0.3094  0.2327  0.1516
  695MPD2    H510284   4.280   0.597  13.469  0.9242  1.3104 -0.2794
  695MPD2    N110285   0.053   0.570  13.504  0.5084  0.1864  0.6909
  695MPD2    H710286   0.015   0.615  13.586 -3.4843 -2.4863  0.2782
  696TMC3    C110287   4.071   0.583  13.380  0.3538  0.6768  0.6953
  696TMC3    C210288   4.062   0.530  13.506  0.5640 -1.1107  0.1145
  696TMC3    C310289   3.986   0.606  13.589  0.1603 -0.2228 -0.1062
  696TMC3    C410290   4.000   0.686  13.334  0.3139 -0.4726 -0.2273
  696TMC3    C510291   3.925   0.758  13.426  0.2407  0.0855  0.1210
  696TMC3    C610292   3.923   0.723  13.556  0.1150 -0.6449  0.5043
  696TMC3     C10293   4.189   0.561  13.297 -0.7314 -0.2707 -0.1009
  696TMC3     O10294   4.173   0.588  13.179 -0.3693  0.5564  0.4208
  696TMC3     H10295   4.124   0.447  13.537  2.6542  0.2018 -0.5650
  696TMC3    H110296   4.005   0.731  13.236 -0.3351 -1.3847 -0.6839
  696TMC3    H210297   3.844   0.765  13.616  0.3953 -1.0076  1.1301
  696TMC3    C710298   3.922   0.899  13.399 -0.4996 -0.2215 -0.2709
  696TMC3    C810299   4.027   0.602  13.720  0.2016 -0.4194 -0.0409
  696TMC3    O110300   3.928   0.937  13.283 -0.2735  0.0766 -0.2128
  696TMC3    O210301   3.952   0.546  13.801 -0.7751  0.4496  0.0818
  697MPD2     C10302   4.109   2.457  15.426 -1.0786  0.2757 -0.0209
  697MPD2    C110303   4.028   2.468  15.316 -0.8904  0.4806  0.3120
  697MPD2    C210304   4.033   2.581  15.230 -0.2582  0.5803  0.2849
  697MPD2    C310305   4.098   2.689  15.280 -0.1868 -0.3311  0.2285
  697MPD2    C410306   4.169   2.682  15.397 -0.2433 -0.4189 -0.5493
  697MPD2    C510307   4.185   2.565  15.467 -0.4043 -0.2748  0.3387
  697MPD2     H10308   3.996   2.582  15.128 -0.8772  0.8232  0.5128
  697MPD2    H110309   4.232   2.761  15.437  1.0971 -0.7024 -2.1186
  697MPD2    H210310   4.129   2.368  15.485  0.4436  1.0255  0.5891
  697MPD2    H310311   4.262   2.561  15.544 -0.6197 -1.2111  0.5018
  697MPD2     N10312   4.111   2.802  15.202  0.4557  0.0098 -0.6429
  697MPD2    H510313   4.096   2.789  15.102  0.8260 -1.0728 -0.5584
  697MPD2    N110314   3.947   2.366  15.268 -0.3580  0.1791  1.4276
  697MPD2    H710315   3.881   2.393  15.196  0.8916  0.6507  0.4672
  698TMC3    C110316   4.143   3.030  15.137 -0.2782  0.1589  0.2109
  698TMC3    C210317   4.146   3.164  15.182  0.9085 -0.6660 -0.6601
  698TMC3    C310318   4.142   3.255  15.080  0.1771 -0.0182  0.7414
  698TMC3    C410319   4.156   2.991  15.003  0.5160  0.3317  0.4136
  698TMC3    C510320   4.159   3.094  14.917 -0.1328  0.0355 -0.7597
  698TMC3    C610321   4.140   3.227  14.947  0.6845 -0.6883  0.6510
  698TMC3     C10322   4.131   2.929  15.243 -0.8349  0.3869  0.4708
  698TMC3     O10323   4.118   2.973  15.361  0.4635 -0.1240  0.1295
  698TMC3     H10324   4.157   3.194  15.285  0.7790  0.0259 -0.8504
  698TMC3    H110325   4.183   2.891  14.975  0.1584 -0.2329  2.0734
  698TMC3    H210326   4.143   3.311  14.878 -1.2920 -1.1736 -0.0251
  698TMC3    C710327   4.178   3.063  14.779  0.2654  0.1583 -0.5288
  698TMC3    C810328   4.142   3.390  15.129  0.0748  0.7324  0.1432
  698TMC3    O110329   4.113   3.128  14.702 -0.3292  0.2649  0.6553
  698TMC3    O210330   4.085   3.411  15.235  0.1429 -0.0765 -0.1569
  699TMC3    C110331   3.880   0.750  12.783  0.6663 -0.1292  0.8893
  699TMC3    C210332   3.864   0.618  12.821 -1.0021  0.3430  0.0759
  699TMC3    C310333   3.761   0.594  12.896 -0.0825 -0.0824 -0.4345
  699TMC3    C410334   3.815   0.848  12.835 -0.8072 -0.3522  0.1365
  699TMC3    C510335   3.707   0.826  12.919 -0.7568 -0.1650  0.0531
  699TMC3    C610336   3.679   0.692  12.951  0.0739  0.2966 -0.0453
  699TMC3     C10337   3.964   0.785  12.669  0.1161  0.1991 -0.2899
  699TMC3     O10338   3.912   0.874  12.597  0.2867  0.1792 -0.2377
  699TMC3     H10339   3.920   0.540  12.770  1.1754  0.7020  1.9266
  699TMC3    H110340   3.839   0.951  12.811 -1.0754 -0.9808 -2.8545
  699TMC3    H210341   3.609   0.671  13.031 -0.7156  2.0494 -0.2667
  699TMC3    C710342   3.670   0.929  13.007  0.3556  0.3977 -0.4818
  699TMC3    C810343   3.763   0.479  12.985  0.3213  0.3431  0.3104
  699TMC3    O110344   3.617   0.890  13.106  0.1715 -0.4800  0.2234
  699TMC3    O210345   3.661   0.455  13.046  0.1776 -0.8270  0.3788
  700TMC3    C110346   3.298   2.999   0.301 -0.1318  0.1252  0.4012
  700TMC3    C210347   3.237   2.877   0.307  0.1368 -0.0131  0.1935
  700TMC3    C310348   3.314   2.770   0.356  0.2145 -0.2525 -0.1974
  700TMC3    C410349   3.410   3.025   0.366 -0.1343  0.0293  0.0488
  700TMC3    C510350   3.484   2.924   0.418  0.2871 -0.2851  0.4124
  700TMC3    C610351   3.432   2.798   0.413 -0.5818 -0.1290  0.1245
  700TMC3     C10352   3.226   3.094   0.224  0.3301  0.2964 -1.2790
  700TMC3     O10353   3.109   3.059   0.197 -0.1217  0.8929 -0.3854
  700TMC3     H10354   3.145   2.861   0.251  1.8069 -1.1902 -2.2517
  700TMC3    H110355   3.446   3.127   0.377 -0.4104  0.2553 -1.0648
  700TMC3    H210356   3.484   2.711   0.452 -2.0754 -2.0578 -2.1361
  700TMC3    C710357   3.606   2.944   0.487 -0.1107 -0.3973  0.2548
  700TMC3    C810358   3.329   2.649   0.275 -0.7113 -0.4515 -0.5381
  700TMC3    O110359   3.634   2.864   0.574 -0.0567  0.1314  0.0568
  700TMC3    O210360   3.446   2.610   0.264  0.0442 -0.4775 -0.4476
  701TMC3    C110361   3.254   1.815  15.587  0.1808  0.5560  0.3686
  701TMC3    C210362   3.175   1.797  15.470  0.7052 -1.2741 -0.6402
  701TMC3    C310363   3.184   1.895  15.371 -0.0555 -0.6782 -0.2935
  701TMC3    C410364   3.343   1.920  15.599 -0.1590 -0.5616 -0.1542
  701TMC3    C510365   3.326   2.021  15.507 -0.1596 -0.8681 -0.0033
  701TMC3    C610366   3.253   2.007  15.390  0.4834  0.8249 -0.0914
  701TMC3     C10367   3.195   1.760  15.706  0.0642  1.0769 -0.1259
  701TMC3     O10368   3.115   1.672  15.678  0.0576 -0.0206  0.8139
  701TMC3     H10369   3.106   1.713  15.462 -1.7576  0.7217 -0.3933
  701TMC3    H110370   3.409   1.922  15.684 -0.8507 -1.5280  0.4022
  701TMC3    H210371   3.257   2.088  15.318 -0.0148 -0.9022 -2.0755
  701TMC3    C710372   3.405   2.142  15.515 -0.4927 -0.0883  0.5659
  701TMC3    C810373   3.089   1.888  15.257 -0.4249 -0.5447 -0.6345
  701TMC3    O110374   3.366   2.250  15.465 -0.0972  0.1542 -0.0606
  701TMC3    O210375   3.022   1.785  15.251 -0.7380 -0.3860  0.0466
  702MPD2     C10376   3.061   4.131  10.290 -0.1321 -0.1269 -0.7434
  702MPD2    C110377   2.995   4.218  10.366  0.0199 -0.8050 -0.5387
  702MPD2    C210378   2.971   4.342  10.317 -0.5532  0.2407  0.4871
  702MPD2    C310379   2.992   4.382  10.184 -0.1096 -0.0536 -0.2388
  702MPD2    C410380   3.056   4.287  10.106 -0.1632  0.0787  0.2052
  702MPD2    C510381   3.088   4.165  10.162 -0.3380  0.1188 -0.4451
  702MPD2     H10382   2.916   4.414  10.377  1.2112 -0.1382  2.5631
  702MPD2    H110383   3.086   4.303  10.003  1.0554 -0.2870  0.5052
  702MPD2    H210384   3.082   4.031  10.327  0.2401 -0.3835 -1.6503
  702MPD2    H310385   3.131   4.087  10.100  1.1570 -1.1419  2.1417
  702MPD2     N10386   2.957   4.505  10.129 -0.2281 -0.2190  0.5158
  702MPD2    H510387   2.979   4.527  10.033  1.3161  0.9561  1.1369
  702MPD2    N110388   2.945   4.190  10.492 -0.8327  0.2885 -0.1329
  702MPD2    H710389   2.889   4.266  10.531 -0.1449 -0.1880  1.7799
  703TMC3    C110390   2.840   4.706  10.111 -0.3863  0.2307  0.0743
  703TMC3    C210391   2.713   0.033  10.119  0.0396  0.3969 -0.0821
  703TMC3    C310392   2.688   0.136  10.035 -0.2103  0.1646 -1.4683
  703TMC3    C410393   2.933   0.027  10.024  0.1391  0.5418  0.7299
  703TMC3    C510394   2.900   0.120   9.924 -0.4661  0.3477 -0.3425
  703TMC3    C610395   2.776   0.177   9.938 -0.2898  0.6929 -0.1643
  703TMC3     C10396   2.878   4.599  10.200 -0.1894  0.3095 -0.0929
  703TMC3     O10397   2.801   4.589  10.297  0.2958  0.1855 -0.4010
  703TMC3     H10398   2.654   0.006  10.206  2.0391  0.5298  1.3155
  703TMC3    H110399   3.033   4.708  10.032  0.1125 -0.1239 -2.3678
  703TMC3    H210400   2.754   0.263   9.877 -2.4043  0.4132  0.2097
  703TMC3    C710401   3.001   0.207   9.874  0.8781 -0.3827 -0.4784
  703TMC3    C810402   2.558   0.199  10.036  0.2592 -0.6773 -0.3554
  703TMC3    O110403   2.962   0.320   9.839 -0.1962  0.3306 -0.1157
  703TMC3    O210404   2.553   0.313   9.989 -0.2119 -0.0072 -0.3741
  704TMC3    C110405   0.408   2.364  11.998 -0.5013  0.0375  0.2318
  704TMC3    C210406   0.531   2.417  11.989 -0.5019 -0.1558  0.6326
  704TMC3    C310407   0.637   2.354  12.045 -0.0199 -0.1382  0.3523
  704TMC3    C410408   0.390   2.260  12.091 -0.1311  0.4100  0.4359
  704TMC3    C510409   0.499   2.202  12.153  0.3289  0.2569 -0.3873
  704TMC3    C610410   0.623   2.250  12.135 -0.0046 -0.0060  0.3105
  704TMC3     C10411   0.296   2.426  11.934 -0.6825  0.3561  0.7203
  704TMC3     O10412   0.186   2.397  11.974 -0.2551 -0.0666 -0.1276
  704TMC3     H10413   0.557   2.503  11.928 -1.2162 -0.7980 -0.5615
  704TMC3    H110414   0.286   2.234  12.108  0.0853 -0.4991  0.3735
  704TMC3    H210415   0.704   2.185  12.166 -0.3879  0.1624  1.6349
  704TMC3    C710416   0.497   2.061  12.117  0.3252  0.2866 -0.3006
  704TMC3    C810417   0.761   2.371  11.982 -0.1260  0.2786 -0.0973
  704TMC3    O110418   0.593   2.026  12.044  0.7726  1.1884  0.4450
  704TMC3    O210419   0.763   2.416  11.869 -0.4666  0.1054  0.3092
  705MPD2     C10420   4.540   0.481  16.193 -0.1152  0.3902 -0.4679
  705MPD2    C110421   4.558   0.598  16.257 -0.6701 -1.1665  0.0853
  705MPD2    C210422   4.456   0.649  16.336 -0.8034  0.9856 -0.1981
  705MPD2    C310423   4.337   0.577  16.352 -0.5817 -0.6550 -0.5850
  705MPD2    C410424   4.320   0.465  16.278 -1.1749 -0.3335  0.2129
  705MPD2    C510425   4.418   0.419  16.194  0.4477  0.2625  0.7143
  705MPD2     H10426   4.479   0.745  16.381 -1.3578 -0.2066  2.6180
  705MPD2    H110427   4.227   0.410  16.285 -1.3817 -0.1403 -1.1808
  705MPD2    H210428   4.612   0.432  16.128  0.9512  0.8931  0.3454
  705MPD2    H310429   4.406   0.320  16.152  1.8188  0.3717  0.0684
  705MPD2     N10430   4.237   0.625  16.443  0.4129  0.0819  0.0738
  705MPD2    H510431   4.278   0.685  16.514  1.0060  0.3085 -0.4488
  705MPD2    N110432   4.675   0.677  16.240  0.0919 -0.4761 -0.7635
  705MPD2    H710433   4.674   0.756  16.303 -1.7206 -2.7046  2.0265
  706TMC3    C110434   0.361   0.828  16.092  0.0324  0.0002  0.7942
  706TMC3    C210435   0.353   0.944  16.159  0.2093  0.6947  1.2378
  706TMC3    C310436   0.236   0.970  16.228 -0.0807  0.0759  0.3936
  706TMC3    C410437   0.261   0.735  16.090 -0.1424  0.3198 -0.4131
  706TMC3    C510438   0.144   0.766  16.148 -0.3622 -0.8071 -0.8165
  706TMC3    C610439   0.131   0.883  16.222 -0.0565 -0.0961  0.1311
  706TMC3     C10440   0.492   0.794  16.047  0.2795 -0.9239  0.0375
  706TMC3     O10441   0.574   0.878  16.081  0.3946 -0.5254  0.1526
  706TMC3     H10442   0.433   1.015  16.171  0.2936  0.4231  2.2287
  706TMC3    H110443   0.290   0.645  16.036  0.7350  2.0421 -2.8421
  706TMC3    H210444   0.037   0.908  16.269 -0.2608 -0.0764 -0.2877
  706TMC3    C710445   0.052   0.665  16.147 -0.2391 -0.2877  0.4624
  706TMC3    C810446   0.194   1.107  16.228  0.5544  0.2513  0.4786
  706TMC3    O110447   0.083   0.566  16.077 -0.0395 -0.7113 -0.2440
  706TMC3    O210448   0.265   1.185  16.162 -0.0177 -0.0035 -0.0687
  707TMC3    C110449   2.555   4.108   2.378 -0.1969 -0.5418 -0.3615
  707TMC3    C210450   2.434   4.122   2.318  0.8723  0.0223 -0.4833
  707TMC3    C310451   2.367   4.236   2.336  0.4947  0.3104 -0.3851
  707TMC3    C410452   2.605   4.204   2.460  0.7534  0.3942  0.4419
  707TMC3    C510453   2.534   4.321   2.475  0.1344  0.0891  0.0673
  707TMC3    C610454   2.414   4.339   2.413 -0.7622 -0.6552  0.0782
  707TMC3     C10455   2.645   4.011   2.316 -0.4426  0.3218  0.0973
  707TMC3     O10456   2.602   3.910   2.261  0.2979 -0.1654  0.3731
  707TMC3     H10457   2.398   4.034   2.265  3.1367 -2.1065  1.4494
  707TMC3    H110458   2.691   4.184   2.523  0.7107  1.1542  0.7482
  707TMC3    H210459   2.337   4.401   2.457  0.6645  1.3723 -0.3220
  707TMC3    C710460   2.585   4.421   2.553  0.4188 -0.2297  0.6426
  707TMC3    C810461   2.254   4.279   2.244 -0.1441 -0.9715 -0.1033
  707TMC3    O110462   2.658   4.389   2.644  0.6776 -0.1706 -0.0375
  707TMC3    O210463   2.207   4.392   2.254  0.6356 -0.7224  1.1598
  708MPD2     C10464   3.917   3.482  14.046 -0.5041  0.1081  0.8482
  708MPD2    C110465   3.782   3.510  14.033  0.4677 -0.1691  0.0861
  708MPD2    C210466   3.730   3.613  14.119 -0.5718 -0.4971 -0.1354
  708MPD2    C310467   3.823   3.692  14.191  0.3758 -0.4521  0.3955
  708MPD2    C410468   3.956   3.663  14.197 -0.0885 -0.1367 -0.4080
  708MPD2    C510469   4.002   3.559  14.127 -0.1064 -0.2266  0.5179
  708MPD2     H10470   3.628   3.648  14.111 -0.7735 -1.1736 -0.5690
  708MPD2    H110471   4.029   3.710  14.262 -2.0514  1.5757  0.5342
  708MPD2    H210472   3.952   3.383  14.020  0.8454  0.5810  0.8836
  708MPD2    H310473   4.100   3.526  14.158 -0.7295 -2.4850  0.0525
  708MPD2     N10474   3.772   3.803  14.259  0.2642 -0.6309  0.1896
  708MPD2    H510475   3.671   3.799  14.268  0.4512 -5.0134  0.0976
  708MPD2    N110476   3.694   3.435  13.946 -0.2430  0.2824  0.2155
  708MPD2    H710477   3.726   3.357  13.888  0.2999 -0.1183  1.0537
  709TMC3    C110478   3.495   3.404  13.825 -0.6996 -0.2036  0.3091
  709TMC3    C210479   3.552   3.429  13.704  0.4675 -0.9835  0.3367
  709TMC3    C310480   3.474   3.481  13.604  0.4717 -1.1199 -0.5690
  709TMC3    C410481   3.355   3.420  13.840 -0.3461 -0.4610  0.5270
  709TMC3    C510482   3.280   3.472  13.739  0.2586 -0.8688 -0.6348
  709TMC3    C610483   3.342   3.505  13.623 -0.0663 -0.2476  0.0120
  709TMC3     C10484   3.564   3.462  13.934 -0.4089  0.1406  0.0037
  709TMC3     O10485   3.490   3.533  14.002  0.3238 -0.1197 -0.1377
  709TMC3     H10486   3.656   3.402  13.687  0.8639 -0.0562  1.2453
  709TMC3    H110487   3.312   3.412  13.940  1.6751  1.1512  1.5197
  709TMC3    H210488   3.283   3.560  13.551  2.4795  1.7673 -0.5606
  709TMC3    C710489   3.183   3.568  13.795 -0.4854  1.0603  0.8126
  709TMC3    C810490   3.516   3.455  13.468  0.6381  0.7107  0.3243
  709TMC3    O110491   3.083   3.596  13.726 -0.4452  0.3742 -0.3751
  709TMC3    O210492   3.605   3.366  13.449 -0.4987  0.0967  0.2607
  710TMC3    C110493   4.407   0.585   0.650  0.9398 -0.1518 -0.0165
  710TMC3    C210494   4.462   0.534   0.538 -0.1140 -0.7867 -0.2187
  710TMC3    C310495   4.523   0.407   0.552 -0.3436 -0.1767  0.5954
  710TMC3    C410496   4.422   0.526   0.769  0.6697 -0.0426  0.2767
  710TMC3    C510497   4.493   0.412   0.784 -0.6354 -0.6504  0.1208
  710TMC3    C610498   4.538   0.345   0.673  0.0414 -0.5953  1.1858
  710TMC3     C10499   4.322   0.699   0.627  0.6609 -0.2660 -0.3748
  710TMC3     O10500   4.343   0.764   0.525 -0.3777 -0.3566  0.2752
  710TMC3     H10501   4.463   0.593   0.448  0.9469  2.5571  1.9955
  710TMC3    H110502   4.392   0.574   0.861  1.3168  0.5950  0.1587
  710TMC3    H210503   4.602   0.258   0.689 -0.5708 -0.8812  2.1368
  710TMC3    C710504   4.515   0.350   0.910 -0.0614 -1.0227  0.8580
  710TMC3    C810505   4.605   0.361   0.442 -0.4976 -0.3481 -0.3711
  710TMC3    O110506   4.526   0.229   0.916  0.0143  0.3374  0.2412
  710TMC3    O210507   4.634   0.443   0.353  0.0737 -0.2398  0.1925
  711TMC3    C110508   4.070   1.018  14.807 -0.2788 -0.8175  1.0851
  711TMC3    C210509   4.067   1.147  14.853 -0.0229 -0.6487  0.0250
  711TMC3    C310510   4.152   1.177  14.961  0.1393 -0.1316  0.1094
  711TMC3    C410511   4.153   0.924  14.858  0.5988 -0.1671  0.6599
  711TMC3    C510512   4.236   0.962  14.960 -0.5930  0.0027  1.0332
  711TMC3    C610513   4.238   1.087  15.022  0.4310 -0.7117 -0.0584
  711TMC3     C10514   4.035   0.991  14.671 -0.0138 -0.2970  0.5854
  711TMC3     O10515   4.101   0.911  14.607 -0.4572  0.4176 -0.2664
  711TMC3     H10516   4.013   1.225  14.800  1.6399  1.4726  1.4709
  711TMC3    H110517   4.174   0.832  14.805 -1.9462  0.2371 -1.0717
  711TMC3    H210518   4.305   1.110  15.104 -0.6749  1.4471  0.2281
  711TMC3    C710519   4.309   0.860  15.019  0.0487  0.6070  0.2108
  711TMC3    C810520   4.150   1.312  15.007  0.2089 -0.4732 -0.3895
  711TMC3    O110521   4.409   0.896  15.079  0.4259 -0.2940  0.1284
  711TMC3    O210522   4.054   1.378  14.962  0.1960 -0.1940 -0.1331
  712MPD2     C10523   0.820   2.459  13.444  0.2002 -0.2394  0.0330
  712MPD2    C110524   0.728   2.467  13.542 -0.3266 -1.2237  0.5615
  712MPD2    C210525   0.763   2.517  13.667 -0.1104  0.0611  0.5562
  712MPD2    C310526   0.886   2.578  13.683 -0.3538  0.6216  0.0320
  712MPD2    C410527   0.973   2.578  13.578 -0.0678 -0.1624 -0.0262
  712MPD2    C510528   0.938   2.520  13.457  0.4359 -0.1080  0.0222
  712MPD2     H10529   0.681   2.528  13.738 -0.4699 -1.0127  0.3164
  712MPD2    H110530   1.071   2.624  13.584  0.2617 -0.9334  0.5744
  712MPD2    H210531   0.796   2.407  13.352 -1.3798  0.2420  0.1788
  712MPD2    H310532   1.007   2.514  13.374 -0.7839 -0.9816 -0.9340
  712MPD2     N10533   0.912   2.647  13.800  0.9766 -0.1931 -0.2155
  712MPD2    H510534   0.997   2.703  13.799  0.5136  0.4810 -2.3754
  712MPD2    N110535   0.599   2.423  13.503 -0.0119  0.2648 -0.3418
  712MPD2    H710536   0.583   2.390  13.408  1.2755 -1.9935  0.2340
  713TMC3    C110537   0.873   2.750  14.011  0.3803 -0.3611  0.5224
  713TMC3    C210538   1.011   2.752  14.037  0.1294 -0.7746  0.3108
  713TMC3    C310539   1.051   2.845  14.122 -1.0669 -0.9923 -0.1725
  713TMC3    C410540   0.786   2.839  14.070  0.0557  0.4683 -0.1247
  713TMC3    C510541   0.840   2.932  14.157 -0.0087  0.3412  0.5389
  713TMC3    C610542   0.975   2.936  14.183 -0.1443  0.1491 -0.7231
  713TMC3     C10543   0.830   2.658  13.913  0.1112 -0.0822 -0.0182
  713TMC3     O10544   0.718   2.617  13.934  0.5572 -0.3578 -0.3673
  713TMC3     H10545   1.082   2.693  13.979 -0.7097 -0.6951 -0.8034
  713TMC3    H110546   0.678   2.830  14.057  0.0311  0.0258  0.3729
  713TMC3    H210547   1.009   3.020  14.244  0.3209 -1.5383  1.3417
  713TMC3    C710548   0.781   3.063  14.175  0.3570  0.0612  0.4859
  713TMC3    C810549   1.191   2.869  14.107  0.8215 -0.6702 -0.7388
  713TMC3    O110550   0.829   3.143  14.259 -0.0225 -0.1614  0.3164
  713TMC3    O210551   1.240   2.865  13.999 -0.0818 -0.1569  0.3256
  714MPD2     C10552   2.417   0.984   1.543  0.8469 -0.3333  0.1315
  714MPD2    C110553   2.467   0.868   1.486 -0.5133  0.1470  0.6882
  714MPD2    C210554   2.474   0.857   1.346  0.2219 -0.1641  0.1640
  714MPD2    C310555   2.439   0.966   1.264  0.5430 -0.3633 -0.3907
  714MPD2    C410556   2.415   1.092   1.330  0.4241  0.8691  0.7112
  714MPD2    C510557   2.392   1.092   1.464  0.6342  0.6793 -0.1206
  714MPD2     H10558   2.510   0.762   1.308 -1.3885  0.0630 -1.9156
  714MPD2    H110559   2.407   1.186   1.277 -2.2523 -0.7966 -1.8704
  714MPD2    H210560   2.407   1.006   1.649  1.4537  0.0521  0.1103
  714MPD2    H310561   2.364   1.183   1.517  0.4890  0.1605  0.6920
  714MPD2     N10562   2.452   0.959   1.123  0.0748 -0.4935 -0.0796
  714MPD2    H510563   2.461   0.866   1.085 -0.7277 -0.7296  0.3197
  714MPD2    N110564   2.494   0.764   1.580 -0.1355  0.8446  0.1107
  714MPD2    H710565   2.485   0.785   1.679  1.6383  1.6358  0.1058
  715TMC3    C110566   2.611   0.578   1.658 -0.1232  0.1380  0.0113
  715TMC3    C210567   2.629   0.445   1.647  0.1130  0.4694  0.3116
  715TMC3    C310568   2.726   0.394   1.726  0.0147 -0.3180  0.1435
  715TMC3    C410569   2.673   0.662   1.745 -0.2124 -0.1615 -0.2189
  715TMC3    C510570   2.752   0.600   1.840  0.6368 -0.7504 -0.0929
  715TMC3    C610571   2.785   0.471   1.828 -0.1567 -0.0642  0.6252
  715TMC3     C10572   2.557   0.645   1.543  0.7191 -0.0036  0.3302
  715TMC3     O10573   2.570   0.594   1.430  0.0859 -0.3566 -0.2023
  715TMC3     H10574   2.586   0.398   1.560 -0.7633  2.1709 -0.1781
  715TMC3    H110575   2.674   0.769   1.731  0.6664 -0.3191 -1.4568
  715TMC3    H210576   2.855   0.436   1.903  2.8834  1.2192 -1.5861
  715TMC3    C710577   2.795   0.683   1.945 -0.1668  0.0036  0.0247
  715TMC3    C810578   2.801   0.291   1.663  0.6722 -0.7295  0.3572
  715TMC3    O110579   2.890   0.642   2.011 -0.5034  0.6071 -0.1365
  715TMC3    O210580   2.755   0.240   1.561  0.5830 -0.6343 -0.0198
  716MPD2     C10581   2.288   3.816  10.160  0.0920  0.4068  0.0130
  716MPD2    C110582   2.232   3.768  10.043  1.0071  0.1771 -0.4768
  716MPD2    C210583   2.305   3.678   9.970  0.2294  0.2792 -0.0335
  716MPD2    C310584   2.422   3.628  10.015  0.3704  0.1758  0.4120
  716MPD2    C410585   2.480   3.665  10.133  0.2159 -0.7885 -0.2923
  716MPD2    C510586   2.413   3.760  10.200 -0.1370  0.2278  0.2615
  716MPD2     H10587   2.266   3.641   9.876 -0.7741  2.0872 -0.3232
  716MPD2    H110588   2.571   3.619  10.170 -0.5084 -1.2832  0.8546
  716MPD2    H210589   2.245   3.900  10.214 -0.0199 -1.1679  2.3714
  716MPD2    H310590   2.461   3.799  10.289  4.1102  0.3635 -2.0784
  716MPD2     N10591   2.475   3.532   9.920  0.0275 -0.1702 -0.0389
  716MPD2    H510592   2.422   3.529   9.834  2.0525 -0.1191 -1.3012
  716MPD2    N110593   2.102   3.815  10.007  0.7855 -0.6030  0.7146
  716MPD2    H710594   2.051   3.869  10.077 -1.3354  0.6168 -1.7760
  717TMC3    C110595   2.560   3.332   9.839  0.4008  0.2393  0.5403
  717TMC3    C210596   2.432   3.300   9.801  0.4760  0.0608 -0.1784
  717TMC3    C310597   2.411   3.191   9.720 -0.5225 -0.2657 -0.0127
  717TMC3    C410598   2.671   3.260   9.797  0.0412 -0.3810 -0.1584
  717TMC3    C510599   2.645   3.151   9.712 -0.0363  0.1569 -0.2111
  717TMC3    C610600   2.516   3.105   9.682 -0.0520  0.3872 -0.1822
  717TMC3     C10601   2.580   3.441   9.938  0.4802 -0.2877 -0.5983
  717TMC3     O10602   2.668   3.442  10.024  0.1601 -0.8837  0.1835
  717TMC3     H10603   2.345   3.357   9.834  1.0146  1.5911 -1.4399
  717TMC3    H110604   2.767   3.283   9.842 -0.1940 -0.0447  0.1718
  717TMC3    H210605   2.504   3.004   9.647 -0.5372  0.0275  1.0163
  717TMC3    C710606   2.757   3.064   9.682 -0.3645  0.7594  0.5251
  717TMC3    C810607   2.271   3.177   9.667 -0.3000 -0.5050  0.4921
  717TMC3    O110608   2.858   3.066   9.746  0.8023  0.3489  0.0069
  717TMC3    O210609   2.192   3.246   9.726 -0.1352  0.2399  0.0058
  718MPD2     C10610   2.189   3.353  12.801  0.9883 -0.4501 -0.4081
  718MPD2    C110611   2.145   3.405  12.683  0.6470 -0.5329 -0.4626
  718MPD2    C210612   2.079   3.315  12.603 -0.0632 -0.3358  0.0291
  718MPD2    C310613   2.044   3.188  12.646  0.4423  1.0450 -0.1845
  718MPD2    C410614   2.088   3.131  12.762 -0.0938 -0.1905  0.1036
  718MPD2    C510615   2.163   3.222  12.840  0.4779 -0.0344  0.4556
  718MPD2     H10616   2.059   3.334  12.498 -0.2212 -0.7820 -0.0213
  718MPD2    H110617   2.088   3.027  12.791 -3.3718 -0.1583  0.1966
  718MPD2    H210618   2.232   3.415  12.879  1.3313  0.5453 -1.3806
  718MPD2    H310619   2.191   3.195  12.941  1.1856  1.0908  0.5630
  718MPD2     N10620   1.954   3.122  12.570  0.4856  0.1739 -0.0908
  718MPD2    H510621   1.906   3.172  12.496  0.9915  1.0652  0.1863
  718MPD2    N110622   2.194   3.528  12.628  0.0761  0.5122 -0.4719
  718MPD2    H710623   2.255   3.590  12.681  0.4784  0.7098 -1.1678
  719TMC3    C110624   2.194   3.715  12.486  0.2480  0.2848  0.3840
  719TMC3    C210625   2.117   3.761  12.384 -0.4515 -0.4818  0.6753
  719TMC3    C310626   2.180   3.797  12.272  0.8465 -0.6132 -0.1327
  719TMC3    C410627   2.328   3.737  12.490 -0.5220  0.4638 -0.2243
  719TMC3    C510628   2.388   3.775  12.373  0.2917 -0.2665  0.1815
  719TMC3    C610629   2.314   3.808  12.264 -0.5359  0.1215  0.4337
  719TMC3     C10630   2.133   3.587  12.515  0.0332  0.9307  0.2054
  719TMC3     O10631   2.034   3.554  12.453 -0.0575  1.0200  0.7679
  719TMC3     H10632   2.009   3.760  12.387 -0.3674 -2.7878  3.3511
  719TMC3    H110633   2.394   3.706  12.570 -0.0254  2.0202 -0.0267
  719TMC3    H210634   2.358   3.841  12.171  0.5331 -2.7634 -0.0857
  719TMC3    C710635   2.530   3.815  12.394 -0.5482  0.8656  0.5866
  719TMC3    C810636   2.128   3.741  12.149  0.1392  0.3916  0.2461
  719TMC3    O110637   2.570   3.833  12.510 -0.5093  0.0479 -1.3161
  719TMC3    O210638   2.145   3.799  12.039  0.0285 -0.0556  0.4434
  720MPD2     C10639   0.243   4.618  13.846 -0.2443 -0.2695  0.6363
  720MPD2    C110640   0.353   4.578  13.766 -0.8084 -0.0915 -0.1579
  720MPD2    C210641   0.476   4.540  13.829 -0.1081 -0.1369  0.3500
  720MPD2    C310642   0.484   4.532  13.965 -0.7097  0.1462 -0.2658
  720MPD2    C410643   0.370   4.556  14.039 -0.1860 -0.0043 -0.2756
  720MPD2    C510644   0.253   4.602  13.984  0.1122  0.5752 -0.1784
  720MPD2     H10645   0.558   4.508  13.765  1.7390  0.7847  2.2213
  720MPD2    H110646   0.372   4.558  14.147 -0.8553 -2.3414 -0.2023
  720MPD2    H210647   0.158   4.673  13.807 -0.9557  1.1408  4.0996
  720MPD2    H310648   0.172   4.640  14.045 -2.4034 -0.2393 -2.9765
  720MPD2     N10649   0.617   4.506  14.012  0.0263 -0.3840  0.0049
  720MPD2    H510650   0.683   4.472  13.943  0.5089  0.2798  0.1419
  720MPD2    N110651   0.355   4.594  13.625  0.6696  0.2813  0.1739
  720MPD2    H710652   0.445   4.582  13.579  1.4638  0.4584  1.6902
  721TMC3    C110653   0.799   4.500  14.157  0.7396 -0.9455  0.4871
  721TMC3    C210654   0.837   4.528  14.285  0.2343  0.1709 -0.3131
  721TMC3    C310655   0.974   4.549  14.302 -0.2763  0.3148  0.4068
  721TMC3    C410656   0.888   4.522  14.047 -0.0479  0.3251  0.0401
  721TMC3    C510657   1.017   4.566  14.075 -0.0064  0.4267  0.4435
  721TMC3    C610658   1.062   4.567  14.203  0.2210  0.3886 -0.2307
  721TMC3     C10659   0.656   4.518  14.141  0.5237 -0.1020  0.3774
  721TMC3     O10660   0.584   4.545  14.236 -0.0900  0.1233 -0.3714
  721TMC3     H10661   0.764   4.524  14.366  1.0990  1.7619  0.5488
  721TMC3    H110662   0.851   4.511  13.946  0.2026  2.7101 -0.2954
  721TMC3    H210663   1.166   4.592  14.220  0.3939 -0.2079 -0.4060
  721TMC3    C710664   1.112   4.567  13.976 -0.1154  0.2182  0.1347
  721TMC3    C810665   1.032   4.570  14.432 -0.2738 -0.7683 -0.3311
  721TMC3    O110666   1.227   4.535  14.009 -0.5417 -0.3080  0.1030
  721TMC3    O210667   1.131   4.641  14.439 -0.2629 -0.6598 -0.3937
  722MPD2     C10668   4.618   3.047  13.366 -0.1824 -0.4815  0.3005
  722MPD2    C110669   4.607   3.181  13.335 -0.1218 -0.0826 -0.8213
  722MPD2    C210670   4.506   3.227  13.253 -0.3084  0.3178  0.8944
  722MPD2    C310671   4.418   3.134  13.197  0.3968  0.8394  0.1261
  722MPD2    C410672   4.435   2.997  13.225 -0.4883 -0.0406  0.1899
  722MPD2    C510673   4.536   2.956  13.312 -0.8675 -0.2035 -0.4333
  722MPD2     H10674   4.502   3.329  13.218 -2.8088  0.6338  2.0986
  722MPD2    H110675   4.379   2.920  13.173  0.7944  0.9923 -2.7591
  722MPD2    H210676   4.696   3.007  13.431  0.3805  1.1192  0.6091
  722MPD2    H310677   4.558   2.853  13.336  0.7475 -0.0811 -1.4007
  722MPD2     N10678   4.324   3.175  13.103  0.9823  0.4217  0.8488
  722MPD2    H510679   4.298   3.273  13.093  0.4389 -0.1435 -3.4174
  722MPD2    N110680   4.692   3.283  13.390  0.4307 -0.5349  0.0965
  722MPD2    H710681   4.685   3.378  13.355  0.5176 -0.3712  0.5229
  723TMC3    C110682   4.138   3.152  12.955  0.7864 -0.2053 -0.4861
  723TMC3    C210683   4.010   3.095  12.945 -0.0621  0.7036 -0.0039
  723TMC3    C310684   3.904   3.173  12.902  0.5595  0.7543 -1.0878
  723TMC3    C410685   4.159   3.276  12.914  0.0324  0.3898  0.2516
  723TMC3    C510686   4.055   3.346  12.860  0.2048 -0.0983  0.4064
  723TMC3    C610687   3.926   3.301  12.860  0.0003  0.7871  0.5011
  723TMC3     C10688   4.237   3.088  13.036 -0.6171  0.0182  0.6921
  723TMC3     O10689   4.225   2.966  13.033 -0.1607 -0.1563  0.1015
  723TMC3     H10690   3.984   3.004  12.999 -0.5841  0.7391 -0.1890
  723TMC3    H110691   4.258   3.320  12.909  0.4270 -0.5843 -0.4393
  723TMC3    H210692   3.845   3.362  12.821  2.3429  3.1630 -0.6065
  723TMC3    C710693   4.075   3.484  12.811  0.2818 -0.2741  0.3831
  723TMC3    C810694   3.769   3.136  12.931  0.7069  0.2049  0.3634
  723TMC3    O110695   4.182   3.510  12.764 -0.2601 -0.0734  0.2431
  723TMC3    O210696   3.689   3.224  12.959  0.7789 -0.0606  0.4742
  724TMC3    C110697   4.069   1.307   9.207  0.5561  0.0652  0.1135
  724TMC3    C210698   4.065   1.440   9.164 -0.5547 -0.9546  0.0096
  724TMC3    C310699   4.186   1.502   9.134  0.7511 -0.3597 -0.7274
  724TMC3    C410700   4.187   1.242   9.205  0.5513  0.8400 -0.1093
  724TMC3    C510701   4.301   1.306   9.160 -0.6923 -0.5278  0.0803
  724TMC3    C610702   4.302   1.435   9.120  0.0579 -0.1458 -0.0710
  724TMC3     C10703   3.936   1.247   9.237 -0.1506 -0.8880 -0.2102
  724TMC3     O10704   3.834   1.311   9.214 -0.2247  0.2835  0.0517
  724TMC3     H10705   3.979   1.502   9.187  0.1904 -0.1094  0.5378
  724TMC3    H110706   4.200   1.135   9.219 -0.0960  0.8007  0.2274
  724TMC3    H210707   4.388   1.488   9.081 -0.8793  1.1484 -0.3733
  724TMC3    C710708   4.438   1.255   9.189 -0.1861  0.7252 -0.3391
  724TMC3    C810709   4.166   1.628   9.074  1.2515 -0.1733 -0.8610
  724TMC3    O110710   4.539   1.313   9.143 -0.0371  0.0539  0.3497
  724TMC3    O210711   4.063   1.647   9.008 -0.3745 -0.4584  0.6983
  725TMC3    C110712   0.962   4.652  12.542 -0.2155  0.0718  0.1744
  725TMC3    C210713   0.899   4.692  12.431  0.8206  0.2618  0.1035
  725TMC3    C310714   0.824   4.601  12.365 -0.5407 -0.3788  0.2816
  725TMC3    C410715   0.963   4.521  12.588  0.4237 -0.7539 -0.4303
  725TMC3    C510716   0.877   4.438  12.520 -0.7482  0.5875  0.2960
  725TMC3    C610717   0.818   4.474  12.406  0.6949  0.0393  0.4195
  725TMC3     C10718   0.990   0.030  12.640 -0.7061  0.8139 -0.1768
  725TMC3     O10719   0.988   0.146  12.603  0.5823  0.2409  0.5057
  725TMC3     H10720   0.879   0.076  12.423 -1.9411 -0.1812  1.3296
  725TMC3    H110721   1.008   4.489  12.681 -0.4630  0.8480  0.5485
  725TMC3    H210722   0.765   4.393  12.358 -0.6807  0.8634  0.5484
  725TMC3    C710723   0.898   4.296  12.537 -1.3677  0.0139 -0.0232
  725TMC3    C810724   0.779   4.620  12.232  0.4760 -0.1288  0.5653
  725TMC3    O110725   0.802   4.230  12.572 -0.1851 -0.0911 -0.1451
  725TMC3    O210726   0.679   4.555  12.206  0.0292 -0.3589  0.0651
  726MPD2     C10727   3.694   1.311   9.894  0.6743  0.9501  0.9690
  726MPD2    C110728   3.692   1.436   9.948 -0.0379  0.5620  0.5539
  726MPD2    C210729   3.594   1.462  10.041  0.0202 -0.0740 -0.2474
  726MPD2    C310730   3.494   1.370  10.085 -0.5671 -0.7344  0.1499
  726MPD2    C410731   3.493   1.248  10.018  0.0403  0.1570  0.1297
  726MPD2    C510732   3.596   1.223   9.927 -0.3337  0.4057  0.0359
  726MPD2     H10733   3.599   1.558  10.091 -0.7866 -0.2346  0.1413
  726MPD2    H110734   3.421   1.170  10.039  1.0351  0.0303  3.0404
  726MPD2    H210735   3.772   1.278   9.826  0.1496  1.0520  0.3172
  726MPD2    H310736   3.591   1.127   9.877  2.2281 -1.5097  3.5419
  726MPD2     N10737   3.392   1.400  10.179  0.3356  0.0707  0.0461
  726MPD2    H510738   3.323   1.329  10.200  1.5044 -0.9219  0.5485
  726MPD2    N110739   3.797   1.528   9.918  0.7610 -0.1947  0.6538
  726MPD2    H710740   3.781   1.624   9.948  1.8984  0.4719 -0.8451
  727TMC3    C110741   3.998   1.618   9.850  0.7374  0.0474 -0.6859
  727TMC3    C210742   4.131   1.597   9.873 -0.5566 -0.9888 -0.0794
  727TMC3    C310743   4.207   1.708   9.866 -0.5317  0.0055 -0.0161
  727TMC3    C410744   3.945   1.736   9.801 -0.3722  0.6674  0.2893
  727TMC3    C510745   4.034   1.837   9.774 -0.0196  0.0212 -0.0758
  727TMC3    C610746   4.167   1.830   9.806  0.2069  0.0081 -0.0464
  727TMC3     C10747   3.909   1.504   9.836 -0.2599 -0.6240 -0.3791
  727TMC3     O10748   3.959   1.401   9.788  0.2067  0.1356 -0.3295
  727TMC3     H10749   4.162   1.494   9.890 -0.2096 -0.7603  0.6873
  727TMC3    H110750   3.842   1.744   9.767 -1.0747  0.3409  2.3422
  727TMC3    H210751   4.238   1.911   9.797 -0.0885  0.4187  1.3946
  727TMC3    C710752   3.988   1.953   9.708 -0.3313  0.5379  0.3092
  727TMC3    C810753   4.325   1.704   9.949  0.0614  0.1392 -0.6242
  727TMC3    O110754   3.885   1.935   9.640  0.0187  0.2109  0.2685
  727TMC3    O210755   4.404   1.794   9.938  0.2044  0.0846 -0.1612
  728TMC3    C110756   3.080   0.242  15.235 -0.6559 -0.1449 -0.7517
  728TMC3    C210757   3.211   0.279  15.229 -0.0881 -0.4742  0.2511
  728TMC3    C310758   3.268   0.334  15.119  1.0505 -0.7340  0.5133
  728TMC3    C410759   2.999   0.270  15.126 -0.6924 -0.2222 -0.0524
  728TMC3    C510760   3.054   0.330  15.017 -0.2221  0.2249 -0.1031
  728TMC3    C610761   3.191   0.355  15.009  0.2028 -0.1494 -0.3151
  728TMC3     C10762   3.059   0.131  15.331  0.9334 -0.2708 -0.7400
  728TMC3     O10763   3.153   0.091  15.392 -0.1111  0.1460 -0.5071
  728TMC3     H10764   3.268   0.274  15.320  0.1967 -1.0457  0.0451
  728TMC3    H110765   2.896   0.237  15.128  0.0459 -2.5383 -0.2415
  728TMC3    H210766   3.233   0.396  14.918 -2.2121 -0.2995 -1.5207
  728TMC3    C710767   2.962   0.376  14.916 -0.0465 -0.2390  0.0539
  728TMC3    C810768   3.410   0.299  15.091 -0.7919 -0.1069 -0.3690
  728TMC3    O110769   2.851   0.317  14.912 -0.2234 -0.4229  0.0442
  728TMC3    O210770   3.454   0.332  14.980  0.0425 -0.3310  0.1303
  729MPD2     C10771   0.409   1.160  16.725  0.3505 -0.2722 -0.3578
  729MPD2    C110772   0.501   1.080  16.788 -0.1403 -0.4450  0.1076
  729MPD2    C210773   0.503   1.077  16.926  0.2903  0.2407 -0.2935
  729MPD2    C310774   0.414   1.157  17.003  0.6739 -0.2105  0.1972
  729MPD2    C410775   0.332   1.235  16.936 -0.7751 -0.3632 -0.3451
  729MPD2    C510776   0.324   1.238  16.800  0.0382  0.3336  0.3188
  729MPD2     H10777   0.587   1.027  16.973 -0.4843  0.2629  1.0934
  729MPD2    H110778   0.265   1.303  16.988 -0.7113  0.8201 -1.8210
  729MPD2    H210779   0.414   1.178  16.618  1.2126 -1.4378 -0.5062
  729MPD2    H310780   0.250   1.300  16.749 -1.6236 -0.3084  1.9637
  729MPD2     N10781   0.424   1.163  17.145  0.1194  0.6003 -0.2038
  729MPD2    H510782   0.372   1.237  17.192  0.8347  0.6829  0.4586
  729MPD2    N110783   0.601   1.009  16.710 -0.1167  0.2742 -0.3740
  729MPD2    H710784   0.615   1.054  16.620 -1.7693  1.1124 -0.2217
  730TMC3    C110785   0.546   1.149  17.345  0.1059 -0.7110 -0.2710
  730TMC3    C210786   0.641   1.070  17.398 -0.0287 -0.4950  0.3407
  730TMC3    C310787   0.764   1.129  17.426 -0.1022  0.2310 -0.5173
  730TMC3    C410788   0.556   1.286  17.360 -0.0763  0.0768  0.2373
  730TMC3    C510789   0.672   1.341  17.409  0.5061 -0.2496 -0.5189
  730TMC3    C610790   0.781   1.263  17.434 -0.2355 -0.7565  0.0903
  730TMC3     C10791   0.502   1.084  17.221 -0.3528 -0.1534 -0.0872
  730TMC3     O10792   0.554   0.976  17.194  0.3535 -0.0237 -0.1656
  730TMC3     H10793   0.630   0.962  17.395 -1.7507 -0.3522  1.4174
  730TMC3    H110794   0.476   1.355  17.335 -0.2308 -1.1070 -2.4672
  730TMC3    H210795   0.872   1.312  17.465 -0.2979 -0.9120  0.5250
  730TMC3    C710796   0.713   1.462  17.346  1.0668 -0.1309  0.8689
  730TMC3    C810797   0.869   1.040  17.401 -0.2507  0.2132  0.1858
  730TMC3    O110798   0.657   1.490  17.245  0.7644 -0.3536  1.0310
  730TMC3    O210799   0.851   0.921  17.424  0.0523 -0.0098 -0.0707
  731MPD2     C10800   0.937   3.639  12.445  0.0819  0.3502 -0.6589
  731MPD2    C110801   0.839   3.729  12.407 -0.5530  0.4774  0.4744
  731MPD2    C210802   0.753   3.771  12.505  0.0352 -1.2711  0.0064
  731MPD2    C310803   0.761   3.723  12.636  0.0362  0.0196 -0.1755
  731MPD2    C410804   0.839   3.615  12.656  0.7415 -0.2506 -0.4037
  731MPD2    C510805   0.925   3.574  12.562 -0.8255  0.2646 -0.5576
  731MPD2     H10806   0.685   3.855  12.494  0.8186 -0.5412  0.6942
  731MPD2    H110807   0.847   3.578  12.757  0.7672  2.0360  0.4219
  731MPD2    H210808   1.021   3.605  12.386  0.2530  3.1643 -2.0592
  731MPD2    H310809   0.981   3.485  12.589  0.1287  0.9963 -0.1403
  731MPD2     N10810   0.696   3.786  12.739  0.4432  0.2168 -1.0648
  731MPD2    H510811   0.649   3.873  12.714  2.3128  1.4044 -0.4857
  731MPD2    N110812   0.846   3.791  12.282  0.7394  0.1397  0.3309
  731MPD2    H710813   0.919   3.754  12.222  2.6321 -1.1497  3.4216
  732TMC3    C110814   0.760   3.875  12.077  0.7831  0.2142 -0.2264
  732TMC3    C210815   0.644   3.893  11.997  0.2659  0.5012 -0.2817
  732TMC3    C310816   0.660   3.896  11.860 -0.1185  0.1676  0.1853
  732TMC3    C410817   0.885   3.880  12.019  0.6720 -0.0984 -0.2314
  732TMC3    C510818   0.887   3.898  11.886  0.3777 -0.0646  0.2531
  732TMC3    C610819   0.782   3.895  11.803 -0.5320  0.3636 -0.0171
  732TMC3     C10820   0.744   3.855  12.222  0.3526 -0.3526  0.0895
  732TMC3     O10821   0.628   3.866  12.257  0.0061  0.1138  0.3179
  732TMC3     H10822   0.544   3.885  12.037  1.2982 -0.6260  2.0989
  732TMC3    H110823   0.976   3.870  12.077  0.1914 -0.4533  0.4673
  732TMC3    H210824   0.787   3.911  11.696  1.8956 -1.4681 -0.1616
  732TMC3    C710825   0.982   4.001  11.847 -0.4153  0.1760 -0.1689
  732TMC3    C810826   0.550   3.932  11.768  0.3472  0.5466 -0.3198
  732TMC3    O110827   0.952   4.064  11.751 -0.2521 -0.6177 -0.0619
  732TMC3    O210828   0.571   4.024  11.686 -0.4618  0.2101  0.2781
  733TMC3    C110829   1.614   2.902  12.387  0.4837 -0.2888  0.2874
  733TMC3    C210830   1.703   2.904  12.492  0.2590  0.1147  0.0652
  733TMC3    C310831   1.823   2.964  12.463  0.0997 -0.1219  0.7416
  733TMC3    C410832   1.631   2.975  12.273  0.9640  0.1501  0.0298
  733TMC3    C510833   1.756   3.022  12.253  0.1924  0.3151  0.9454
  733TMC3    C610834   1.848   3.031  12.351  0.0139 -0.3548 -0.3183
  733TMC3     C10835   1.485   2.829  12.401  0.3638  0.0640  0.1443
  733TMC3     O10836   1.390   2.877  12.339 -0.3266  0.4439 -0.3268
  733TMC3     H10837   1.676   2.864  12.589 -2.6104 -0.3199 -0.9195
  733TMC3    H110838   1.549   2.984  12.202  1.3269  1.4040 -0.2178
  733TMC3    H210839   1.944   3.080  12.334 -0.4408  0.0416 -1.7417
  733TMC3    C710840   1.774   3.117  12.145 -0.5050  0.2955 -0.5063
  733TMC3    C810841   1.911   2.993  12.580 -0.4779  0.2817  0.4481
  733TMC3    O110842   1.752   3.066  12.035 -0.0599 -0.4396  0.3380
  733TMC3    O210843   1.939   2.908  12.661 -0.4222  0.2364  0.2028
  734MPD2     C10844   3.468   0.510  12.208  0.3102 -0.4086  0.1700
  734MPD2    C110845   3.491   0.394  12.144 -0.2756 -0.4617  0.4694
  734MPD2    C210846   3.554   0.402  12.016 -0.2737 -0.7115  0.1816
  734MPD2    C310847   3.581   0.528  11.968 -0.0220  0.3669  0.2539
  734MPD2    C410848   3.553   0.647  12.039  0.2535 -0.5445  0.1170
  734MPD2    C510849   3.505   0.627  12.166 -0.1460  0.4282 -0.0467
  734MPD2     H10850   3.575   0.317  11.952  2.9653  0.0336  0.3025
  734MPD2    H110851   3.569   0.747  12.001  3.5730 -0.7377  0.9629
  734MPD2    H210852   3.422   0.507  12.306 -0.5380  2.8262 -0.1512
  734MPD2    H310853   3.483   0.709  12.233 -0.5846 -0.5157  0.9569
  734MPD2     N10854   3.647   0.527  11.836 -0.4363 -0.1696 -0.3412
  734MPD2    H510855   3.675   0.433  11.811 -0.2241  0.2859 -1.8274
  734MPD2    N110856   3.423   0.282  12.200 -0.3189  0.3546 -1.2853
  734MPD2    H710857   3.349   0.284  12.270  0.6367  0.7398 -0.2801
  735TMC3    C110858   3.343   0.061  12.192  0.8005 -0.1214 -0.5133
  735TMC3    C210859   3.280   0.034  12.072 -0.3038  0.6864 -0.1176
  735TMC3    C310860   3.278   4.629  12.026  0.8470 -0.6463 -0.0036
  735TMC3    C410861   3.405   4.684  12.262 -0.0434  0.0722  0.6407
  735TMC3    C510862   3.418   4.566  12.204 -0.4509  0.4313  0.1707
  735TMC3    C610863   3.362   4.533  12.085  0.1928 -0.4394  0.3571
  735TMC3     C10864   3.445   0.158  12.148  0.0570  0.0998 -0.0428
  735TMC3     O10865   3.503   0.125  12.046 -0.0688  0.2187 -0.1308
  735TMC3     H10866   3.239   0.114  12.011 -2.5052  0.4102  1.0053
  735TMC3    H110867   3.466   4.715  12.346  0.7754  0.1157  0.0313
  735TMC3    H210868   3.376   4.432  12.049 -0.5120  0.0167 -1.1972
  735TMC3    C710869   3.551   4.516  12.240  0.2582  1.0600  1.4337
  735TMC3    C810870   3.274   4.621  11.878 -0.7030  0.2422 -0.4979
  735TMC3    O110871   3.582   4.516  12.356  0.0964  0.1226  0.1148
  735TMC3    O210872   3.238   4.516  11.826  0.2545 -0.0597  0.2555
  736MPD2     C10873   3.833   4.408  12.193 -0.2225 -0.6297  0.4342
  736MPD2    C110874   3.763   4.495  12.110 -0.5122 -0.2071 -0.2490
  736MPD2    C210875   3.825   4.549  11.995 -0.3032  0.1184  0.6623
  736MPD2    C310876   3.960   4.515  11.972 -0.3653  0.3398 -0.3171
  736MPD2    C410877   4.030   4.435  12.060 -0.2470  0.2891 -0.0348
  736MPD2    C510878   3.964   4.386  12.169 -0.0345  0.9184 -0.6841
  736MPD2     H10879   3.757   4.612  11.938  1.7157  2.3315  0.7100
  736MPD2    H110880   4.132   4.400  12.057 -0.1231  0.2651  4.0805
  736MPD2    H210881   3.783   4.364  12.278 -0.4963  2.5897  1.9696
  736MPD2    H310882   4.015   4.309  12.226 -2.3736  1.2798  1.9018
  736MPD2     N10883   4.041   4.579  11.867 -0.0277  0.3986  0.2876
  736MPD2    H510884   4.137   4.554  11.848 -0.4057  0.8005 -2.2000
  736MPD2    N110885   3.629   4.528  12.125 -0.1517 -0.0955 -0.8376
  736MPD2    H710886   3.593   4.560  12.036 -1.1614 -2.1435 -1.1741
  737TMC3    C110887   4.079   4.714  11.677  0.1046 -0.0499  0.7265
  737TMC3    C210888   4.030   0.104  11.613  1.0461 -0.2749 -0.4179
  737TMC3    C310889   4.071   0.125  11.488 -0.3898  0.2376  0.1037
  737TMC3    C410890   4.155   4.624  11.607 -0.2347  0.3402 -0.0346
  737TMC3    C510891   4.187   4.642  11.474  0.2314  0.4750 -0.1789
  737TMC3    C610892   4.151   0.044  11.415  0.3338  0.9180  0.5272
  737TMC3     C10893   3.986   4.663  11.773  0.2182 -0.3360  0.7403
  737TMC3     O10894   3.875   4.720  11.770  0.2602  0.3667  0.2331
  737TMC3     H10895   3.980   0.184  11.667 -1.8734 -1.4451 -1.4167
  737TMC3    H110896   4.202   4.536  11.650 -0.3972  0.6438  0.7731
  737TMC3    H210897   4.180   0.071  11.314 -1.3505  2.7594  0.5291
  737TMC3    C710898   4.249   4.527  11.400 -0.2648  0.3889  0.0780
  737TMC3    C810899   4.051   0.258  11.440  1.1760  0.6294 -0.2144
  737TMC3    O110900   4.217   4.413  11.443 -0.8317 -0.0517 -1.0360
  737TMC3    O210901   4.013   0.341  11.524  0.1615  0.2492 -0.7290
  738MPD2     C10902   4.266   3.646  15.232  0.6169 -0.0063 -0.0095
  738MPD2    C110903   4.300   3.582  15.111  0.0398 -0.1488 -0.2061
  738MPD2    C210904   4.393   3.638  15.027  0.4534 -0.2670  1.1733
  738MPD2    C310905   4.451   3.761  15.065 -0.5582  0.0960  0.7745
  738MPD2    C410906   4.409   3.828  15.174  0.0594 -0.6880 -0.3504
  738MPD2    C510907   4.319   3.764  15.259 -0.6121 -0.0058  0.2619
  738MPD2     H10908   4.417   3.587  14.934 -0.9021 -0.8412  1.1448
  738MPD2    H110909   4.456   3.921  15.204 -1.1127  0.2999 -1.5845
  738MPD2    H210910   4.196   3.612  15.308 -0.2057 -0.7238 -1.0858
  738MPD2    H310911   4.286   3.813  15.351  0.9758 -0.1817  0.9300
  738MPD2     N10912   4.566   3.822  14.999 -1.0053  0.7211  0.0536
  738MPD2    H510913   4.603   3.909  15.036 -0.7877  1.3110 -1.5933
  738MPD2    N110914   4.238   3.468  15.067 -0.1596 -0.1917 -0.4715
  738MPD2    H710915   4.264   3.425  14.979 -0.9304 -0.1294 -0.7319
  739TMC3    C110916   0.038   3.812  14.848  0.3373 -0.6659 -0.0143
  739TMC3    C210917   0.090   3.769  14.727 -0.5572  0.4318  0.3867
  739TMC3    C310918   0.220   3.810  14.700  0.5955  0.9868  1.0775
  739TMC3    C410919   0.103   3.890  14.938  0.1477  0.3990  0.4788
  739TMC3    C510920   0.232   3.936  14.903  0.3710 -0.0665  0.4420
  739TMC3    C610921   0.281   3.909  14.777  0.4576 -0.2675  0.5955
  739TMC3     C10922   4.628   3.762  14.887  0.1793 -0.0597 -0.4633
  739TMC3     O10923   4.584   3.668  14.820  0.2676  0.0069  0.1629
  739TMC3     H10924   0.043   3.687  14.674 -1.3097  0.1386  1.5077
  739TMC3    H110925   0.059   3.906  15.036 -0.2138 -1.0532  0.5472
  739TMC3    H210926   0.368   3.967  14.749 -0.7933  0.9941 -0.7113
  739TMC3    C710927   0.265   4.065  14.958  0.3305 -0.0472  0.1122
  739TMC3    C810928   0.266   3.796  14.566  0.0061  0.0426 -0.0656
  739TMC3    O110929   0.335   4.143  14.902  0.1635  0.5557  0.6442
  739TMC3    O210930   0.179   3.774  14.484 -1.0380  0.4193  0.1078
  740TMC3    C110931   0.427   0.197  14.064  0.0088  0.1601  0.1031
  740TMC3    C210932   0.478   0.209  14.187 -0.4555 -0.2442  0.9304
  740TMC3    C310933   0.612   0.186  14.196 -0.2976 -0.8290  0.1642
  740TMC3    C410934   0.500   0.177  13.953  0.0003 -0.3663  0.2400
  740TMC3    C510935   0.634   0.152  13.972  0.8255 -0.0632  0.1396
  740TMC3    C610936   0.692   0.163  14.092 -0.5552  0.3117 -0.1830
  740TMC3     C10937   0.285   0.212  14.036  0.3416 -0.1768 -0.2883
  740TMC3     O10938   0.258   0.232  13.920 -0.2961  0.4707 -0.1134
  740TMC3     H10939   0.410   0.224  14.270 -1.3055  0.4862  0.0881
  740TMC3    H110940   0.457   0.172  13.853 -1.2084 -0.0431  0.7389
  740TMC3    H210941   0.794   0.135  14.119  0.0097  1.7521 -0.8093
  740TMC3    C710942   0.712   0.089  13.868 -0.6627 -0.2907 -0.4004
  740TMC3    C810943   0.661   0.159  14.322  0.1710 -0.5286 -0.1878
  740TMC3    O110944   0.815   0.028  13.897 -0.1143 -0.3639  0.1543
  740TMC3    O210945   0.780   0.184  14.337 -0.8842  0.7172  0.3454
  741TMC3    C110946   0.280   4.148  14.292 -0.6512 -0.5287  0.5721
  741TMC3    C210947   0.173   4.104  14.218 -0.2665  0.1944 -0.4259
  741TMC3    C310948   0.059   4.062  14.283  0.0889  0.1680 -0.0971
  741TMC3    C410949   0.267   4.159  14.426 -0.6491  0.2467  0.6763
  741TMC3    C510950   0.152   4.113  14.488 -0.4642  0.0297 -0.0351
  741TMC3    C610951   0.048   4.054  14.416 -0.4102 -0.1020  0.0245
  741TMC3     C10952   0.400   4.173  14.218 -0.4415  0.2655 -0.4681
  741TMC3     O10953   0.383   4.186  14.095 -0.1249 -0.3625  0.2053
  741TMC3     H10954   0.189   4.089  14.112  0.5174  0.9244 -0.4088
  741TMC3    H110955   0.350   4.180  14.493  0.2159 -0.7071 -0.0830
  741TMC3    H210956   4.686   4.014  14.472  0.3216 -0.3940  0.9198
  741TMC3    C710957   0.128   4.180  14.614  0.5096  0.0569  0.9635
  741TMC3    C810958   4.703   3.971  14.212 -0.0038  0.3048  1.0833
  741TMC3    O110959   0.042   4.123  14.679  0.0609 -0.0288  0.0900
  741TMC3    O210960   4.673   3.996  14.096 -0.9593 -0.7159  0.0601
  742TMC3    C110961   4.551   2.699  15.016  0.2581  0.4615 -0.0230
  742TMC3    C210962   4.459   2.655  14.924 -0.9287  0.3769  0.2138
  742TMC3    C310963   4.461   2.526  14.892 -0.3359 -0.2227 -0.4778
  742TMC3    C410964   4.660   2.623  15.058  0.4923  0.2394  0.1817
  742TMC3    C510965   4.670   2.493  15.012 -0.3399 -0.0376  0.1212
  742TMC3    C610966   4.568   2.446  14.927 -0.9999  0.3110  0.3115
  742TMC3     C10967   4.512   2.820  15.077 -0.1141  0.6023 -0.7409
  742TMC3     O10968   4.458   2.901  15.005 -1.0321  0.3920 -0.4214
  742TMC3     H10969   4.363   2.706  14.927  0.6513  3.3698 -0.2457
  742TMC3    H110970   0.002   2.670  15.131 -0.3746  1.2105  0.3255
  742TMC3    H210971   4.583   2.345  14.889  0.9064  0.3362  1.0054
  742TMC3    C710972   0.068   2.410  15.037  0.8504 -0.4177 -0.9052
  742TMC3    C810973   4.365   2.468  14.800 -0.0097  0.5480 -0.3149
  742TMC3    O110974   0.078   2.300  14.987  0.1866  0.2876  0.1094
  742TMC3    O210975   4.374   2.349  14.775 -0.5113 -0.2574  0.6824
  743MPD2     C10976   1.863   3.183   2.081 -0.3839  0.1239 -0.7543
  743MPD2    C110977   1.945   3.205   1.976  0.0930 -0.1219 -0.6427
  743MPD2    C210978   2.048   3.116   1.946 -0.0213  0.1751 -0.3268
  743MPD2    C310979   2.071   3.001   2.014 -0.8649  0.3762 -1.0425
  743MPD2    C410980   1.978   2.971   2.117 -0.4883  0.2805  0.1880
  743MPD2    C510981   1.880   3.063   2.148  0.5965 -0.4530  0.5989
  743MPD2     H10982   2.113   3.145   1.863  0.3824  0.0083 -0.0711
  743MPD2    H110983   1.980   2.875   2.168  2.8700 -1.0207 -2.3921
  743MPD2    H210984   1.778   3.247   2.101  0.1428  0.5908 -0.0258
  743MPD2    H310985   1.804   3.030   2.218  0.7751  0.5466  1.2581
  743MPD2     N10986   2.183   2.919   1.988 -0.0883  0.3160 -0.4246
  743MPD2    H510987   2.247   2.959   1.920 -1.4332  1.2099 -1.1685
  743MPD2    N110988   1.915   3.323   1.902  0.2185 -0.1395 -0.2759
  743MPD2    H710989   1.850   3.389   1.943 -0.5500 -0.7574 -0.5086
  744TMC3    C110990   1.929   3.481   1.727  0.0022 -0.7976  0.3219
  744TMC3    C210991   1.939   3.590   1.815  0.4863  0.0532  0.0214
  744TMC3    C310992   1.934   3.718   1.760  0.1813  0.4721  0.4177
  744TMC3    C410993   1.917   3.500   1.593  0.0079  0.0902  0.9301
  744TMC3    C510994   1.912   3.626   1.543 -0.1630 -0.3058 -0.1053
  744TMC3    C610995   1.913   3.737   1.625 -0.2837 -0.0902  0.2236
  744TMC3     C10996   1.963   3.341   1.774 -0.7653 -0.0226 -0.5441
  744TMC3     O10997   2.030   3.266   1.701 -0.0045 -0.1217  0.1957
  744TMC3     H10998   1.963   3.571   1.919  0.5492  2.1738  0.3937
  744TMC3    H110999   1.917   3.414   1.527 -1.2029  0.0099  1.0294
  744TMC3    H211000   1.927   3.837   1.586 -2.3770  0.2247  0.2893
  744TMC3    C711001   1.950   3.638   1.402  0.0907 -0.1640  0.0577
  744TMC3    C811002   2.015   3.813   1.837  0.8851 -0.3557  0.2504
  744TMC3    O111003   2.015   3.740   1.371 -0.2824 -0.1336  0.3161
  744TMC3    O211004   2.107   3.762   1.904  0.0730 -0.2471  0.1793
  745TMC3    C111005   0.371   2.365  13.533 -0.3344 -0.2396  0.0981
  745TMC3    C211006   0.279   2.341  13.631  0.3611  0.0215 -0.4108
  745TMC3    C311007   0.151   2.393  13.622 -0.3098  0.3034  0.1040
  745TMC3    C411008   0.332   2.420  13.414 -0.0750  0.1509 -0.6417
  745TMC3    C511009   0.203   2.467  13.401  0.3234 -0.0508 -0.3555
  745TMC3    C611010   0.119   2.461  13.510 -0.0963 -0.2600 -0.9520
  745TMC3     C11011   0.492   2.412  13.594 -0.1557 -0.1373 -0.1012
  745TMC3     O11012   0.491   2.417  13.719 -0.8152 -0.1215  0.3369
  745TMC3     H11013   0.308   2.295  13.725 -2.4432 -0.8393  0.0195
  745TMC3    H111014   0.403   2.436  13.334 -0.9768 -0.3910 -1.5529
  745TMC3    H211015   0.024   2.513  13.508  1.1989  2.0654 -2.5502
  745TMC3    C711016   0.183   2.592  13.328  0.5661  0.5335  0.4292
  745TMC3    C811017   0.091   2.450  13.745  0.4209 -1.0804 -0.4002
  745TMC3    O111018   0.100   2.675  13.370  0.0143  0.1321  0.6314
  745TMC3    O211019   4.705   2.502  13.724 -0.1904  0.5452 -0.6411
  746TMC3    C111020   2.721   4.204  10.806  0.0306 -0.6893  0.4456
  746TMC3    C211021   2.826   4.206  10.718 -0.9573 -0.2401  0.3148
  746TMC3    C311022   2.874   4.083  10.682 -0.7614  0.2526  0.1228
  746TMC3    C411023   2.674   4.089  10.862  0.3570 -0.2959 -0.6800
  746TMC3    C511024   2.741   3.977  10.837 -0.3416 -0.0879 -0.1592
  746TMC3    C611025   2.827   3.968  10.734 -0.0684  0.0571 -0.0375
  746TMC3     C11026   2.694   4.313  10.900 -0.1643 -0.2800 -0.1269
  746TMC3     O11027   2.653   4.290  11.013  0.0700  0.2653 -0.5073
  746TMC3     H11028   2.876   4.301  10.701 -0.2082 -0.8003 -0.6733
  746TMC3    H111029   2.583   4.086  10.922  0.7706  1.3281  0.0231
  746TMC3    H211030   2.854   3.869  10.698 -0.0392  0.2073 -0.4287
  746TMC3    C711031   2.676   3.860  10.886 -0.3700 -1.4452  0.9170
  746TMC3    C811032   2.955   4.072  10.562  0.5200  0.2730  0.3850
  746TMC3    O111033   2.554   3.854  10.872  0.0843  0.0727 -1.2065
  746TMC3    O211034   2.999   3.964  10.528 -0.2238 -0.5568 -0.1404
  747TMC3    C111035   0.101   4.581  10.472 -0.4729  0.0134 -0.0317
  747TMC3    C211036   4.722   4.519  10.541 -0.1373 -0.1250  0.6130
  747TMC3    C311037   0.004   4.539  10.681 -0.5891 -0.1006  0.5304
  747TMC3    C411038   0.178   4.681  10.536  0.5630  0.3935  0.5710
  747TMC3    C511039   0.178   4.689  10.672 -0.0534  0.4788 -0.0183
  747TMC3    C611040   0.093   4.615  10.752 -0.0722 -0.8155  0.0146
  747TMC3     C11041   0.086   4.610  10.328 -0.1361 -0.6911  0.7118
  747TMC3     O11042   0.098   0.006  10.300 -0.0938  0.2632  0.2080
  747TMC3     H11043   4.663   4.442  10.492  1.9621 -1.6280  0.4356
  747TMC3    H111044   0.260   0.005  10.482 -0.9676  0.0644 -2.0334
  747TMC3    H211045   0.096   4.637  10.858  1.7567  0.5846 -0.3228
  747TMC3    C711046   0.246   0.078  10.743 -0.4977 -0.1214 -0.2880
  747TMC3    C811047   4.634   4.463  10.768 -0.9605 -0.2276 -0.0869
  747TMC3    O111048   0.269   0.069  10.865  0.4803 -0.2287  0.1617
  747TMC3    O211049   4.584   4.372  10.708 -0.2079 -0.1534 -0.3341
  748MPD2     C11050   1.658   0.473   2.023 -0.0039  0.1504  0.3688
  748MPD2    C111051   1.644   0.369   1.936  0.1020  0.0168  0.1742
  748MPD2    C211052   1.752   0.285   1.916  0.5504 -0.0666  0.9728
  748MPD2    C311053   1.860   0.289   1.994 -0.1078 -0.0740  0.2686
  748MPD2    C411054   1.878   0.393   2.085 -0.1290  0.9612  0.3054
  748MPD2    C511055   1.771   0.479   2.093 -0.2232  0.1671  0.1931
  748MPD2     H11056   1.742   0.218   1.832 -0.1320  1.8878 -0.5206
  748MPD2    H111057   1.961   0.413   2.152 -0.0111  0.2122  0.3781
  748MPD2    H211058   1.579   0.544   2.044 -0.4019  0.3160 -1.6564
  748MPD2    H311059   1.786   0.559   2.164 -1.5109 -0.5586  1.2852
  748MPD2     N11060   1.956   0.193   1.978  0.0306  0.1612  0.2085
  748MPD2    H511061   1.940   0.125   1.904 -0.7210 -0.0427  0.5620
  748MPD2    N111062   1.518   0.362   1.857 -0.5472 -0.0789  0.0954
  748MPD2    H711063   1.453   0.438   1.872 -3.2855 -2.3099 -0.4912
  749TMC3    C111064   2.151   0.061   2.003 -0.3352  0.2579 -0.4063
  749TMC3    C211065   2.236   0.006   2.094 -0.0823 -0.0727  0.4519
  749TMC3    C311066   2.317   4.623   2.052 -0.1251  0.5830  0.4205
  749TMC3    C411067   2.143   0.020   1.875  0.0117  0.5172  0.4211
  749TMC3    C511068   2.230   4.647   1.830  0.7727 -0.2706  0.6218
  749TMC3    C611069   2.316   4.584   1.919 -0.0605 -0.1815 -0.5838
  749TMC3     C11070   2.075   0.179   2.044  0.5155  0.2172 -1.2603
  749TMC3     O11071   2.121   0.239   2.142  0.1818 -0.3732 -0.7125
  749TMC3     H11072   2.251   0.046   2.193 -1.6352 -0.2717  0.7664
  749TMC3    H111073   2.086   0.073   1.800 -0.8254 -0.3901  0.4080
  749TMC3    H211074   2.382   4.511   1.874  1.3077  0.9509 -0.3936
  749TMC3    C711075   2.309   4.696   1.715  0.2534 -0.0610 -0.8876
  749TMC3    C811076   2.425   4.577   2.148  0.1344  0.3340 -0.2331
  749TMC3    O111077   2.426   4.721   1.735  0.2977  0.0921 -0.0588
  749TMC3    O211078   2.439   4.634   2.254  0.1324 -0.0765 -0.4052
  750MPD2     C11079   2.713   1.351  11.204 -0.5287  0.1266  0.1642
  750MPD2    C111080   2.625   1.267  11.260 -0.0848  0.4491 -0.1268
  750MPD2    C211081   2.552   1.168  11.193 -0.1164 -0.6756  0.6090
  750MPD2    C311082   2.575   1.153  11.055 -0.4706  0.3193 -0.2671
  750MPD2    C411083   2.669   1.240  10.997 -0.1500 -0.4605  0.6619
  750MPD2    C511084   2.739   1.332  11.070 -0.3184  0.0969  0.4692
  750MPD2     H11085   2.478   1.108  11.246  0.7716 -1.1075  1.3457
  750MPD2    H111086   2.692   1.224  10.892  0.8260  0.0647  0.8057
  750MPD2    H211087   2.769   1.426  11.259 -0.3766  0.7092 -0.7727
  750MPD2    H311088   2.809   1.397  11.018 -1.3088 -0.0934 -1.1077
  750MPD2     N11089   2.523   1.050  10.969 -0.2440 -0.3098 -0.3603
  750MPD2    H511090   2.546   1.044  10.871 -0.0814  0.3738 -0.3651
  750MPD2    N111091   2.607   1.288  11.393  0.0721 -0.3511 -0.2731
  750MPD2    H711092   2.674   1.351  11.436 -0.8652  0.4731 -0.0242
  751TMC3    C111093   2.401   0.860  10.910 -0.7781  0.5258 -0.3453
  751TMC3    C211094   2.299   0.773  10.947 -0.0730 -0.0763 -0.2405
  751TMC3    C311095   2.271   0.670  10.867 -0.8267  0.0643 -0.7982
  751TMC3    C411096   2.479   0.838  10.796  0.0012  0.1355  0.0330
  751TMC3    C511097   2.449   0.725  10.726 -0.1439 -0.0053 -0.0291
  751TMC3    C611098   2.340   0.646  10.752 -0.3749 -0.2914 -0.2534
  751TMC3     C11099   2.454   0.943  11.018 -0.1343 -0.3383  0.8744
  751TMC3     O11100   2.418   0.923  11.134 -0.1282 -0.2255  0.0406
  751TMC3     H11101   2.235   0.798  11.031 -0.5657 -0.4705 -0.4950
  751TMC3    H111102   2.569   0.897  10.777 -0.2171  0.2904 -0.5160
  751TMC3    H211103   2.304   0.572  10.682  0.8326 -2.9317  1.9294
  751TMC3    C711104   2.557   0.668  10.644 -0.9505  0.2982 -0.4942
  751TMC3    C811105   2.178   0.570  10.905  0.2213 -0.2278 -0.2941
  751TMC3    O111106   2.640   0.740  10.586 -0.0378  0.2875 -0.3597
  751TMC3    O211107   2.156   0.479  10.822  0.0692  0.6228  0.2021
  752TMC3    C111108   1.275   0.416  17.423  0.3974  0.9488  0.2063
  752TMC3    C211109   1.289   0.294  17.498  0.1252  0.1983 -0.1836
  752TMC3    C311110   1.225   0.292  17.618 -0.0768 -0.6483  0.3300
  752TMC3    C411111   1.227   0.533  17.473 -0.6498  0.1352 -0.4747
  752TMC3    C511112   1.159   0.512  17.597 -0.0235  0.0401  0.8057
  752TMC3    C611113   1.142   0.389  17.659  0.6325  1.2086 -0.1599
  752TMC3     C11114   1.336   0.421  17.294 -0.0663 -0.0524 -0.4544
  752TMC3     O11115   1.438   0.354  17.282 -0.1053 -0.1151  0.3829
  752TMC3     H11116   1.371   0.229  17.471  0.6111  0.6752  0.1535
  752TMC3    H111117   1.232   0.630  17.425 -1.1621 -0.2520 -1.3106
  752TMC3    H211118   1.083   0.380   0.057  0.5967 -0.2863 -0.3342
  752TMC3    C711119   1.112   0.631  17.669  0.2184 -0.4312  0.0774
  752TMC3    C811120   1.198   0.167  17.681 -0.0774  0.3807  0.3153
  752TMC3    O111121   1.009   0.620   0.040  0.6474 -0.2713 -0.5389
  752TMC3    O211122   1.082   0.140   0.014  0.3964  0.3013 -0.3288
  753TMC3    C111123   3.885   2.543  13.110  0.2927  0.8797  0.5442
  753TMC3    C211124   3.866   2.453  13.214  0.2524  0.9553 -0.5273
  753TMC3    C311125   3.915   2.325  13.195  0.2427 -1.5628 -0.0625
  753TMC3    C411126   3.937   2.508  12.985  0.2435 -0.8648  0.3028
  753TMC3    C511127   3.975   2.377  12.977  1.0060 -0.4301  0.5136
  753TMC3    C611128   3.969   2.284  13.077 -0.1753 -0.1675  0.7879
  753TMC3     C11129   3.854   2.677  13.129 -0.6346 -0.2590  0.4046
  753TMC3     O11130   3.928   2.757  13.071  0.0919 -0.2769  0.5576
  753TMC3     H11131   3.833   2.481  13.313  0.1154 -0.5566 -0.1407
  753TMC3    H111132   3.955   2.583  12.909 -0.5151  0.6973  1.6564
  753TMC3    H211133   4.009   2.183  13.069 -0.0456 -0.1557  1.2804
  753TMC3    C711134   4.031   2.324  12.852  0.2726 -0.3184  0.2881
  753TMC3    C811135   3.915   2.233  13.312  0.3118 -0.1045 -0.3844
  753TMC3    O111136   4.048   2.204  12.852 -0.1928  0.3528 -0.3249
  753TMC3    O211137   3.914   2.116  13.288  0.1072  0.6184 -0.2680
  754MPD2     C11138   2.044   0.752  12.670 -0.3600 -0.0152  0.6411
  754MPD2    C111139   2.028   0.680  12.786 -0.4123  0.4077  0.1325
  754MPD2    C211140   1.897   0.662  12.833 -0.7301 -0.1504  0.2406
  754MPD2    C311141   1.791   0.714  12.759 -0.3576  0.0393  1.4371
  754MPD2    C411142   1.810   0.788  12.647 -0.3914 -0.5566  0.1907
  754MPD2    C511143   1.938   0.798  12.600  0.5884 -1.0592 -0.7260
  754MPD2     H11144   1.879   0.626  12.934  0.5635  1.2454  0.9640
  754MPD2    H111145   1.736   0.820  12.574 -0.9135 -2.4709 -0.1008
  754MPD2    H211146   2.143   0.777  12.633  0.3979 -2.2616  1.1333
  754MPD2    H311147   1.954   0.852  12.507  1.1816 -0.0718 -0.0517
  754MPD2     N11148   1.655   0.715  12.810  0.0236 -0.0872 -0.0933
  754MPD2    H511149   1.588   0.770  12.757 -1.0425  1.1915  2.6012
  754MPD2    N111150   2.147   0.648  12.854 -0.1652  0.3503 -0.5374
  754MPD2    H711151   2.235   0.668  12.808 -0.8579  1.7094 -1.2507
  755MPD2     C11152   0.844   1.138  12.550  0.3337  0.4786 -0.2212
  755MPD2    C111153   0.925   1.180  12.653 -0.0141 -0.4996  0.3064
  755MPD2    C211154   1.033   1.103  12.697  0.3649 -0.0161 -0.0428
  755MPD2    C311155   1.045   0.976  12.651 -0.7435  0.7464 -0.0599
  755MPD2    C411156   0.974   0.937  12.538 -0.6002 -0.3061 -0.2587
  755MPD2    C511157   0.882   1.025  12.486  0.0943  0.9846 -0.2224
  755MPD2     H11158   1.086   1.140  12.784 -1.0987  1.3709  0.2531
  755MPD2    H111159   0.994   0.839  12.497 -0.4384 -0.5049  0.2918
  755MPD2    H211160   0.764   1.199  12.510 -0.0917  0.5914  0.8108
  755MPD2    H311161   0.824   1.007  12.397  0.4274 -0.6691 -0.0919
  755MPD2     N11162   1.143   0.889  12.697  0.1345 -0.7119  0.6511
  755MPD2    H511163   1.140   0.791  12.670  0.8435 -0.2894 -0.9293
  755MPD2    N111164   0.903   1.301  12.720 -0.0487  0.5187 -0.7280
  755MPD2    H711165   0.972   1.327  12.790 -1.8059  2.4724  0.2554
  756MPD2     C11166   3.173   1.240   9.384 -0.7669 -0.3387 -0.3060
  756MPD2    C111167   3.059   1.191   9.431 -0.1970  0.8684 -0.2796
  756MPD2    C211168   3.025   1.062   9.400 -0.1678 -0.4551  0.2549
  756MPD2    C311169   3.108   0.973   9.338 -0.7280  0.3293  0.0337
  756MPD2    C411170   3.226   1.026   9.294  0.4855 -1.0393 -0.0539
  756MPD2    C511171   3.254   1.160   9.312 -0.2828  0.0549 -0.6330
  756MPD2     H11172   2.925   1.031   9.428 -0.5057 -0.7274 -1.2176
  756MPD2    H111173   3.299   0.982   9.227  2.3009  1.8056  0.0268
  756MPD2    H211174   3.196   1.345   9.400 -3.4733  0.4372 -1.5016
  756MPD2    H311175   3.327   1.208   9.247  0.9150 -0.8091  0.0893
  756MPD2     N11176   3.069   0.841   9.321  0.3393 -0.2182 -0.4546
  756MPD2    H511177   2.980   0.808   9.357  1.3774 -1.5500  0.8898
  756MPD2    N111178   2.970   1.279   9.501  0.7299  0.5794 -0.6113
  756MPD2    H711179   2.995   1.377   9.509  0.3712  0.4235  2.6286
  757MPD2     C11180   2.237   0.714   9.449  0.4698 -0.3144  0.6820
  757MPD2    C111181   2.246   0.588   9.388 -0.2566  0.1367  0.6618
  757MPD2    C211182   2.373   0.536   9.363 -0.2033  0.3212 -0.0970
  757MPD2    C311183   2.482   0.609   9.398  0.6095  0.4412 -0.3867
  757MPD2    C411184   2.469   0.733   9.463  0.3642  0.0581 -1.2780
  757MPD2    C511185   2.347   0.784   9.485  0.0497  0.5097 -0.2414
  757MPD2     H11186   2.387   0.453   9.295 -1.3864  0.7347 -0.8437
  757MPD2    H111187   2.554   0.796   9.490  0.4923 -1.4273  1.7766
  757MPD2    H211188   2.139   0.755   9.469  0.5788 -0.1951  0.9572
  757MPD2    H311189   2.347   0.880   9.536 -1.9123  1.1155 -1.3653
  757MPD2     N11190   2.599   0.568   9.338 -0.2947 -0.0244  0.7270
  757MPD2    H511191   2.595   0.499   9.264 -1.3080 -0.1400  0.8863
  757MPD2    N111192   2.122   0.529   9.347 -0.8795  0.7504  0.1670
  757MPD2    H711193   2.039   0.581   9.375  0.4208  1.7268  2.2068
  758MPD2     C11194   2.260   0.166  15.821 -0.2217 -1.0543 -0.0326
  758MPD2    C111195   2.356   0.179  15.912  1.0294  0.1507 -0.0669
  758MPD2    C211196   2.325   0.233  16.032 -0.4125 -0.1582 -0.0562
  758MPD2    C311197   2.197   0.257  16.079  0.8021  1.1336  0.4221
  758MPD2    C411198   2.100   0.224  15.992 -0.2233  0.6951 -0.9858
  758MPD2    C511199   2.129   0.180  15.866 -0.6710 -0.5924 -0.2045
  758MPD2     H11200   2.413   0.256  16.092 -1.4720  1.1954  0.9940
  758MPD2    H111201   1.994   0.226  16.015  0.2762  0.6932  1.2999
  758MPD2    H211202   2.280   0.131  15.720  0.8037 -0.7310  0.0581
  758MPD2    H311203   2.047   0.164  15.797  0.0193  0.4352 -1.2674
  758MPD2     N11204   2.167   0.302  16.208 -0.0844  0.5916 -0.8009
  758MPD2    H511205   2.069   0.319  16.230  0.2231 -0.5822  1.4100
  758MPD2    N111206   2.479   0.126  15.884 -0.6671 -0.1157  0.4726
  758MPD2    H711207   2.495   0.100  15.788  1.4843 -1.6192  1.2357
  759MPD2     C11208   1.705   3.103  10.625 -0.0792  0.0812  0.0008
  759MPD2    C111209   1.588   3.111  10.561 -0.1715 -0.5163 -0.0444
  759MPD2    C211210   1.529   3.231  10.549  1.2583 -0.4174  0.4860
  759MPD2    C311211   1.601   3.349  10.581 -0.2424  0.0270 -0.0119
  759MPD2    C411212   1.730   3.339  10.633  0.8134  0.1992  0.2388
  759MPD2    C511213   1.772   3.214  10.657  0.0397 -0.0953  0.2438
  759MPD2     H11214   1.430   3.244  10.509  0.8015  1.9673  2.3720
  759MPD2    H111215   1.796   3.421  10.658 -0.1970  1.0748  0.0640
  759MPD2    H211216   1.749   3.006  10.648 -0.2710 -0.1808 -0.7422
  759MPD2    H311217   1.878   3.204  10.677 -0.1869  0.9466  1.9457
  759MPD2     N11218   1.531   3.467  10.566  0.1120 -0.1742 -0.2029
  759MPD2    H511219   1.438   3.450  10.528  0.1362  1.4887 -1.0368
  759MPD2    N111220   1.523   3.000  10.501  0.0588 -0.1540  0.6638
  759MPD2    H711221   1.434   3.013  10.454 -0.8002  1.2831  2.6857
  760MPD2     C11222   0.854   1.109  11.611  0.2237  0.3128  0.2788
  760MPD2    C111223   0.993   1.116  11.614 -0.1869 -0.6472 -1.2919
  760MPD2    C211224   1.070   1.020  11.681 -0.1428  0.6598 -0.0136
  760MPD2    C311225   1.006   0.911  11.739 -0.2697 -0.1586  0.2412
  760MPD2    C411226   0.872   0.911  11.744  0.1407 -0.7424 -0.0605
  760MPD2    C511227   0.799   1.012  11.688  0.0725 -0.1681 -0.1315
  760MPD2     H11228   1.177   1.026  11.667 -0.1950 -0.9570 -1.1009
  760MPD2    H111229   0.824   0.840  11.810 -0.0890  1.5461  2.2682
  760MPD2    H211230   0.795   1.193  11.577  0.6635  0.2280 -0.6991
  760MPD2    H311231   0.695   1.026  11.714  0.1336 -1.2165  0.6908
  760MPD2     N11232   1.073   0.798  11.791 -0.0788 -0.6036  0.1592
  760MPD2    H511233   1.012   0.726  11.829  0.5339  0.0977  2.4999
  760MPD2    N111234   1.069   1.213  11.545 -0.1024  0.5367  0.5577
  760MPD2    H711235   1.169   1.204  11.538 -0.4719 -2.8460 -0.5916
  761MPD2     C11236   1.924   0.257  11.204  0.0018 -0.0264 -0.2045
  761MPD2    C111237   1.993   0.237  11.092 -0.0084 -0.5093 -0.3512
  761MPD2    C211238   2.080   0.337  11.046 -0.2690  0.2085 -0.2444
  761MPD2    C311239   2.067   0.466  11.098 -0.3471  0.8956  0.1368
  761MPD2    C411240   1.985   0.491  11.204 -0.3311  0.2940 -0.1963
  761MPD2    C511241   1.915   0.383  11.254  0.5896 -0.4680  0.2429
  761MPD2     H11242   2.152   0.324  10.965 -0.1507 -0.0834 -0.0933
  761MPD2    H111243   1.966   0.596  11.225  0.6779  0.4477 -0.0428
  761MPD2    H211244   1.854   0.185  11.245 -0.3679  0.1303 -0.5705
  761MPD2    H311245   1.839   0.404  11.328  1.3548  2.4085  0.1952
  761MPD2     N11246   2.136   0.570  11.033 -0.2368 -0.3848 -0.6963
  761MPD2    H511247   2.161   0.648  11.093 -0.1682 -1.0359  0.1050
  761MPD2    N111248   1.979   0.118  11.011  0.2289  0.1201  0.0026
  761MPD2    H711249   1.898   0.062  11.036  0.5698 -0.2337  0.3168
  762MPD2     C11250   2.087   0.254  10.234 -0.7691  0.3613 -0.7784
  762MPD2    C111251   2.141   0.139  10.291 -0.2192 -0.6882  0.4347
  762MPD2    C211252   2.264   0.098  10.246 -0.7290  0.0908 -0.2104
  762MPD2    C311253   2.336   0.173  10.153 -0.8065 -0.0464  0.3264
  762MPD2    C411254   2.270   0.277  10.085 -0.0801 -0.4732 -0.3342
  762MPD2    C511255   2.150   0.319  10.127 -0.3444 -0.5930  0.2548
  762MPD2     H11256   2.303   0.005  10.286  1.5277  0.3354 -1.8341
  762MPD2    H111257   2.325   0.337  10.013 -0.5102  2.4223  1.7844
  762MPD2    H211258   2.007   0.308  10.282 -1.3032  1.4878 -2.9853
  762MPD2    H311259   2.107   0.402  10.071  2.5218  1.0679  0.5018
  762MPD2     N11260   2.466   0.134  10.121  0.4231  0.2164  0.1065
  762MPD2    H511261   2.503   0.044  10.148  0.9417  0.4864  0.3139
  762MPD2    N111262   2.076   0.099  10.406 -0.2810  0.5927 -0.2776
  762MPD2    H711263   1.999   0.157  10.439  1.3012  1.7604  1.2982
  763MPD2     C11264   3.603   0.461  16.035  0.4328  0.1405  0.1130
  763MPD2    C111265   3.704   0.538  15.975  0.2288  0.1455  0.2096
  763MPD2    C211266   3.754   0.654  16.032 -0.1877  0.1636 -0.5695
  763MPD2    C311267   3.717   0.679  16.165 -0.1833 -0.6602  0.2837
  763MPD2    C411268   3.633   0.591  16.236  0.4264  0.1183  0.6336
  763MPD2    C511269   3.572   0.484  16.172  0.2149  0.4506 -0.1532
  763MPD2     H11270   3.830   0.708  15.976  1.1533 -0.7966  0.3213
  763MPD2    H111271   3.615   0.609  16.341  2.2367  0.2124  0.9361
  763MPD2    H211272   3.566   0.370  15.988 -1.6445  1.1715 -0.2409
  763MPD2    H311273   3.511   0.410  16.224 -0.7053 -1.0083 -3.2922
  763MPD2     N11274   3.778   0.779  16.245  0.0117  0.3566 -0.5914
  763MPD2    H511275   3.733   0.788  16.336  0.8303  0.2753 -0.1704
  763MPD2    N111276   3.757   0.496  15.844  0.7715 -0.2909 -0.0588
  763MPD2    H711277   3.821   0.559  15.796  0.7528 -0.1124  0.1487
  764MPD2     C11278   2.914   1.645  17.070 -0.4972 -0.0295  0.1751
  764MPD2    C111279   2.781   1.599  17.063  0.0253  1.2301  0.0717
  764MPD2    C211280   2.750   1.485  17.123  0.9700  0.0706 -0.2009
  764MPD2    C311281   2.853   1.411  17.178  0.1686  0.0522 -0.8067
  764MPD2    C411282   2.980   1.452  17.184  0.5185 -0.2799 -1.0099
  764MPD2    C511283   3.012   1.568  17.128 -0.2706 -0.3915  0.7000
  764MPD2     H11284   2.648   1.449  17.121  0.8649  0.3687 -0.2214
  764MPD2    H111285   3.054   1.396  17.239  1.0272  2.7455  1.4014
  764MPD2    H211286   2.934   1.738  17.018  0.6032  0.8340  2.1571
  764MPD2    H311287   3.113   1.607  17.136  0.2285 -1.4389 -0.4439
  764MPD2     N11288   2.815   1.286  17.236  0.2885  0.2397 -0.2437
  764MPD2    H511289   2.717   1.261  17.242  0.2660 -0.2387 -2.4685
  764MPD2    N111290   2.675   1.678  17.015 -0.1051 -0.4487 -0.0541
  764MPD2    H711291   2.580   1.648  17.034 -0.5948  1.0440 -0.1560
  765MPD2     C11292   1.736   4.334  15.557  0.2726  0.5730  0.0768
  765MPD2    C111293   1.805   4.442  15.525 -0.3268  0.1784  0.6317
  765MPD2    C211294   1.936   4.428  15.477  0.0788  0.3738  0.1363
  765MPD2    C311295   1.994   4.300  15.469  0.8435  0.0834 -0.2553
  765MPD2    C411296   1.920   4.192  15.509 -0.2788 -0.1329 -0.4166
  765MPD2    C511297   1.796   4.211  15.563 -0.4632  1.0466 -0.7931
  765MPD2     H11298   1.993   4.517  15.449  0.6949 -0.0432  0.0602
  765MPD2    H111299   1.959   4.091  15.510  1.4941  0.5699  0.8465
  765MPD2    H211300   1.636   4.339  15.598 -0.2236 -0.7653 -0.9639
  765MPD2    H311301   1.746   4.122  15.597  1.0637  0.0661 -1.1082
  765MPD2     N11302   2.129   4.287  15.418 -0.1947 -0.7197  0.7776
  765MPD2    H511303   2.189   4.368  15.406 -1.0840 -0.4601 -1.9437
  765MPD2    N111304   1.740   4.570  15.519 -0.3721 -0.2860  0.3341
  765MPD2    H711305   1.639   4.563  15.530 -0.5992 -1.0619 -2.3634
  766MPD2     C11306   1.262   0.047  15.010 -0.3171 -0.2636 -0.1983
  766MPD2    C111307   1.400   0.043  15.037  0.0265 -0.2617 -0.0459
  766MPD2    C211308   1.487   0.031  14.926  0.6945  0.3385 -0.1476
  766MPD2    C311309   1.434   0.033  14.799  0.2788  0.1954  0.6805
  766MPD2    C411310   1.299   0.054  14.779  0.6701 -0.0804  0.0100
  766MPD2    C511311   1.212   0.052  14.882  1.2605 -0.4364 -0.4642
  766MPD2     H11312   1.592   0.046  14.946  0.2313  0.8338  1.8317
  766MPD2    H111313   1.255   0.055  14.680 -1.6303  0.2211  1.0312
  766MPD2    H211314   1.191   0.062  15.091  0.2204  0.1313  0.2002
  766MPD2    H311315   1.107   0.072  14.865  1.4758  1.3609  0.3658
  766MPD2     N11316   1.515   0.041  14.680 -0.7122 -0.3806 -0.1005
  766MPD2    H511317   1.465   0.038  14.592 -1.7264  0.5288  0.4340
  766MPD2    N111318   1.462   0.064  15.167 -0.7234  0.1688  0.0706
  766MPD2    H711319   1.562   0.050  15.163 -0.6964  1.1894 -2.8635
  767MPD2     C11320   1.119   0.316  14.710 -0.3053 -0.5629 -0.3577
  767MPD2    C111321   1.244   0.369  14.675  0.1804 -0.2107 -0.3977
  767MPD2    C211322   1.285   0.340  14.548  0.3988 -0.3358  0.5386
  767MPD2    C311323   1.209   0.264  14.463 -0.3926  0.2848 -0.0571
  767MPD2    C411324   1.085   0.225  14.494  0.3180  0.2610  0.7827
  767MPD2    C511325   1.042   0.255  14.617  0.2581  0.5414 -0.4662
  767MPD2     H11326   1.382   0.369  14.512  0.6048  1.5675  2.5886
  767MPD2    H111327   1.012   0.170  14.436  1.9914 -2.0520  0.8691
  767MPD2    H211328   1.088   0.314  14.813 -0.2364  1.6171 -0.2995
  767MPD2    H311329   0.952   0.209  14.653  0.8512  0.2051  0.5770
  767MPD2     N11330   1.263   0.227  14.337 -0.0301 -0.2923  0.9558
  767MPD2    H511331   1.361   0.254  14.324  0.2047 -0.4079  2.5252
  767MPD2    N111332   1.324   0.427  14.776 -0.0304 -0.2615  0.2491
  767MPD2    H711333   1.302   0.413  14.874  1.2961  2.6256  0.9371
  768MPD2     C11334   2.432   3.500  10.542 -0.1463  0.0731  0.8465
  768MPD2    C111335   2.454   3.431  10.660  0.6896  0.0359 -0.6748
  768MPD2    C211336   2.572   3.433  10.719  0.0612 -0.4933  0.4233
  768MPD2    C311337   2.675   3.501  10.659 -0.5959  0.0319  0.2675
  768MPD2    C411338   2.656   3.577  10.544 -0.5395  0.8091  0.2332
  768MPD2    C511339   2.531   3.575  10.488  0.7899  0.0522 -0.1375
  768MPD2     H11340   2.578   3.384  10.816 -0.6758 -0.9509  0.2388
  768MPD2    H111341   2.729   3.641  10.495 -0.5918  1.1853  0.6446
  768MPD2    H211342   2.343   3.480  10.484  1.2937 -2.0037 -0.6696
  768MPD2    H311343   2.513   3.642  10.404 -1.3935 -1.6774 -1.0555
  768MPD2     N11344   2.806   3.514  10.722  0.2197  0.9197  0.3130
  768MPD2    H511345   2.871   3.580  10.683  2.4707 -0.1174  2.2952
  768MPD2    N111346   2.355   3.358  10.735  0.1898 -0.5464 -0.1403
  768MPD2    H711347   2.397   3.306  10.812 -0.3720  2.8415  2.4925
  769MPD2     C11348   2.924   2.050  14.811  0.4209  0.7998 -0.1242
  769MPD2    C111349   2.881   1.945  14.885  0.1176  0.1004 -0.0492
  769MPD2    C211350   2.934   1.918  15.008  0.2059  0.2700  0.5275
  769MPD2    C311351   3.031   2.006  15.055  0.8645  0.1991 -0.2495
  769MPD2    C411352   3.059   2.119  14.982  0.7447 -1.2437  0.0963
  769MPD2    C511353   3.008   2.144  14.866 -0.4846  1.1275  0.0781
  769MPD2     H11354   2.910   1.823  15.055  2.3365  0.4284  1.8978
  769MPD2    H111355   3.130   2.186  15.030  0.2767  0.1634 -1.1768
  769MPD2    H211356   2.885   2.056  14.711 -0.2000 -1.9020 -0.0493
  769MPD2    H311357   3.046   2.230  14.810  2.5591 -0.2920 -0.0549
  769MPD2     N11358   3.099   1.995  15.179  0.2553  0.1679  0.4527
  769MPD2    H511359   3.166   2.068  15.203 -0.8067  0.4769  2.4575
  769MPD2    N111360   2.778   1.868  14.823 -0.2724 -0.1292 -0.2893
  769MPD2    H711361   2.747   1.900  14.732  0.4577 -1.7630 -1.1178
  770MPD2     C11362   2.191   1.112  14.940 -0.7300 -0.0870  0.2166
  770MPD2    C111363   2.330   1.124  14.931 -0.5074  0.0189  0.1132
  770MPD2    C211364   2.379   1.252  14.910 -0.6009 -0.2399  0.3656
  770MPD2    C311365   2.296   1.356  14.888  0.3520 -0.1945  0.2938
  770MPD2    C411366   2.159   1.342  14.902  0.2212 -0.2846 -0.0661
  770MPD2    C511367   2.103   1.218  14.919  0.0627  0.4186  0.4296
  770MPD2     H11368   2.484   1.277  14.907 -0.5648 -0.1803  1.9353
  770MPD2    H111369   2.083   1.419  14.902 -0.8393 -1.3395  0.2629
  770MPD2    H211370   2.141   1.019  14.961  0.7999 -1.3702 -1.9139
  770MPD2    H311371   2.000   1.183  14.918 -0.4371  1.8857  0.8235
  770MPD2     N11372   2.349   1.488  14.865  0.5569  0.0135 -0.4187
  770MPD2    H511373   2.448   1.510  14.876  1.4293 -3.2820 -1.8559
  770MPD2    N111374   2.411   1.008  14.941 -0.1106  0.0415 -0.1474
  770MPD2    H711375   2.360   0.924  14.966  0.8703 -0.3580  0.5154
  771MPD2     C11376   3.401   4.346  13.712  0.2345 -0.0172  0.8605
  771MPD2    C111377   3.426   4.429  13.610  0.1935 -0.1965  0.2407
  771MPD2    C211378   3.420   4.381  13.484 -0.3431 -0.3481 -0.9306
  771MPD2    C311379   3.405   4.247  13.456  0.4184 -0.6624 -0.3918
  771MPD2    C411380   3.383   4.162  13.558  0.7468  0.1727  0.8573
  771MPD2    C511381   3.376   4.213  13.684 -0.1953 -0.7512  0.4894
  771MPD2     H11382   3.438   4.440  13.395 -2.0370  0.3759 -0.7974
  771MPD2    H111383   3.360   4.056  13.550  1.2619  0.1489 -0.3321
  771MPD2    H211384   3.402   4.379  13.815 -2.3746 -1.6203  1.4112
  771MPD2    H311385   3.371   4.146  13.769  0.7656 -1.0107  0.3401
  771MPD2     N11386   3.391   4.208  13.318  0.0647  0.0166  0.9057
  771MPD2    H511387   3.389   4.284  13.250  2.0437 -0.6371  0.1237
  771MPD2    N111388   3.461   4.562  13.623 -0.6112  0.2382  0.2733
  771MPD2    H711389   3.482   4.617  13.540 -1.7344  0.0295 -0.1516
  772MPD2     C11390   3.189   0.570  13.723 -0.7107 -0.4640  0.1240
  772MPD2    C111391   3.174   0.441  13.758 -0.1040 -0.3225  0.2073
  772MPD2    C211392   3.049   0.391  13.782  0.8285  0.0536  0.7855
  772MPD2    C311393   2.941   0.473  13.777 -0.0871  0.7562  0.1643
  772MPD2    C411394   2.949   0.600  13.728  0.2840 -0.1706  0.0717
  772MPD2    C511395   3.073   0.639  13.692  0.3267  0.5783  0.2334
  772MPD2     H11396   3.039   0.286  13.809  0.7521  0.0738  0.8339
  772MPD2    H111397   2.868   0.672  13.727 -0.5344 -1.1074 -0.5885
  772MPD2    H211398   3.287   0.607  13.694  0.2148 -2.3682  0.7969
  772MPD2    H311399   3.078   0.740  13.652  0.7239 -0.1960 -1.6797
  772MPD2     N11400   2.809   0.433  13.815  0.9674 -0.1904  0.1544
  772MPD2    H511401   2.738   0.505  13.802  2.2448  1.3106  1.5174
  772MPD2    N111402   3.278   0.348  13.759 -0.3594  0.9936  0.4802
  772MPD2    H711403   3.252   0.251  13.744  0.9562  1.0561 -2.2626
  773MPD2     C11404   2.658   0.332   0.046  0.1860 -0.0569 -1.2024
  773MPD2    C111405   2.577   0.223   0.061 -0.3707  1.1447  0.1808
  773MPD2    C211406   2.627   0.123   0.139  0.3460 -0.0785  0.3830
  773MPD2    C311407   2.754   0.125   0.188  0.0150 -0.4387  0.1433
  773MPD2    C411408   2.829   0.238   0.180  0.4949  1.1220  0.6895
  773MPD2    C511409   2.774   0.347   0.116  0.3279  0.1416 -0.2754
  773MPD2     H11410   2.566   0.033   0.148  2.5425 -1.6941 -0.7802
  773MPD2    H111411   2.924   0.255   0.229  1.4138 -0.8745 -0.4022
  773MPD2    H211412   2.628   0.415  17.675  0.0939 -0.0531 -1.1540
  773MPD2    H311413   2.823   0.444   0.116  0.7400 -0.0648  0.4162
  773MPD2     N11414   2.807   4.718   0.221  0.1487  0.2335 -0.1662
  773MPD2    H511415   2.749   4.635   0.212 -0.4847  0.6399  0.2088
  773MPD2    N111416   2.451   0.206   0.008  0.1158 -0.3763 -0.5228
  773MPD2    H711417   2.403   0.120   0.032 -0.9645  0.0452 -1.1531
  774MPD2     C11418   2.312   4.557  13.458 -0.3938  0.1152 -0.5029
  774MPD2    C111419   2.204   4.604  13.389  0.0462 -0.0721 -0.3646
  774MPD2    C211420   2.218   0.003  13.325  0.9149 -0.6014  0.0696
  774MPD2    C311421   2.334   0.072  13.321 -0.5135  0.8567 -0.4616
  774MPD2    C411422   2.439   0.023  13.392 -0.1745  0.1413  0.1279
  774MPD2    C511423   2.426   4.632  13.464  0.4422 -0.5358 -0.7507
  774MPD2     H11424   2.133   0.043  13.271  0.7090  0.9884  1.5601
  774MPD2    H111425   2.540   0.063  13.388 -0.5185  1.1259  0.9298
  774MPD2    H211426   2.306   4.466  13.518 -2.9311  0.8004  0.2730
  774MPD2    H311427   2.510   4.588  13.517  0.5117  0.6862  0.1686
  774MPD2     N11428   2.335   0.198  13.256 -0.4675 -0.6892  1.0162
  774MPD2    H511429   2.249   0.229  13.212 -0.3976 -3.6630 -1.2612
  774MPD2    N111430   2.087   4.528  13.389  0.6327  0.7661 -0.1774
  774MPD2    H711431   2.082   4.457  13.461 -2.0962 -1.2295 -2.3565
  775MPD2     C11432   3.360   1.436  15.443 -0.8050  0.0288 -0.3327
  775MPD2    C111433   3.441   1.507  15.532  0.3908 -0.3130  0.0854
  775MPD2    C211434   3.514   1.616  15.482 -0.4479  0.1353 -0.4088
  775MPD2    C311435   3.498   1.656  15.348 -0.6958  0.4694  0.3884
  775MPD2    C411436   3.409   1.596  15.271  0.1023  0.2415  0.7925
  775MPD2    C511437   3.348   1.478  15.318 -0.1037  0.1723 -0.1245
  775MPD2     H11438   3.564   1.678  15.555 -0.4890 -1.4022  0.9174
  775MPD2    H111439   3.385   1.625  15.170  2.6362  0.3345  0.2145
  775MPD2    H211440   3.297   1.352  15.471  2.2760 -2.0026  0.4582
  775MPD2    H311441   3.272   1.423  15.265 -0.1290  0.1102 -0.0224
  775MPD2     N11442   3.565   1.767  15.295 -0.0171  0.3836 -0.2571
  775MPD2    H511443   3.551   1.788  15.197  0.8024  0.9894 -0.2402
  775MPD2    N111444   3.423   1.482  15.670 -0.8238 -0.1284 -0.5694
  775MPD2    H711445   3.347   1.420  15.695 -0.7260 -0.0220 -0.0082
  776MPD2     C11446   2.913   1.562  12.140  0.9555  0.2579  0.4623
  776MPD2    C111447   2.862   1.588  12.015  0.0445 -0.0793  0.0077
  776MPD2    C211448   2.878   1.716  11.960  0.1803  0.0781  0.4393
  776MPD2    C311449   2.952   1.807  12.032 -0.1685 -0.2179 -0.8441
  776MPD2    C411450   2.992   1.778  12.157 -0.2529  0.5312 -0.2757
  776MPD2    C511451   2.971   1.658  12.216  0.1056 -0.4680  0.1575
  776MPD2     H11452   2.842   1.750  11.864 -1.1491 -0.9256  0.5780
  776MPD2    H111453   3.043   1.852  12.217  0.1795  0.0943 -0.1024
  776MPD2    H211454   2.912   1.465  12.187  0.4345 -1.8426 -3.8402
  776MPD2    H311455   3.024   1.633  12.308 -0.8049 -3.7807 -0.2156
  776MPD2     N11456   2.943   1.939  11.979 -0.6437 -0.1145  0.6054
  776MPD2    H511457   2.905   1.944  11.885 -1.2312  0.9762  0.8960
  776MPD2    N111458   2.791   1.485  11.950  0.8527 -0.2149 -0.4900
  776MPD2    H711459   2.794   1.395  11.997  1.3429  0.5352  0.9006
  777MPD2     C11460   3.193   3.751   1.280 -0.8154  0.4753  0.1433
  777MPD2    C111461   3.073   3.784   1.351 -0.0369  0.1915 -0.2902
  777MPD2    C211462   2.952   3.765   1.290 -0.0342 -0.3102 -0.5245
  777MPD2    C311463   2.947   3.725   1.155  0.0329 -0.0305 -0.3758
  777MPD2    C411464   3.067   3.693   1.089  0.7596 -0.5024 -0.1106
  777MPD2    C511465   3.185   3.716   1.148 -1.0107  0.5925 -0.8066
  777MPD2     H11466   2.857   3.775   1.340 -0.4908 -0.5305 -1.3493
  777MPD2    H111467   3.075   3.652   0.989 -0.6016  1.9621 -1.2313
  777MPD2    H211468   3.286   3.771   1.331  1.0030  1.0083 -3.3409
  777MPD2    H311469   3.274   3.704   1.087  0.4141 -0.1851  1.4219
  777MPD2     N11470   2.827   3.723   1.081 -0.0683  0.5852 -0.3544
  777MPD2    H511471   2.745   3.752   1.135 -0.8103 -1.3875 -0.4332
  777MPD2    N111472   3.083   3.832   1.484  0.1994 -0.9161  0.0602
  777MPD2    H711473   3.180   3.836   1.516  0.0259  0.7580  0.3617
  778MPD2     C11474   4.059   4.560  14.638  0.9433 -1.0204  0.6800
  778MPD2    C111475   4.055   4.433  14.591 -0.3676 -0.3606  0.5845
  778MPD2    C211476   4.104   4.412  14.465 -0.1213  1.1507  0.2574
  778MPD2    C311477   4.147   4.513  14.380 -0.4378  0.1039  0.0288
  778MPD2    C411478   4.148   4.638  14.434 -0.1581  0.6910 -0.2104
  778MPD2    C511479   4.121   4.661  14.567  0.4164  0.2849  0.7663
  778MPD2     H11480   4.087   4.314  14.423 -0.3080  1.0688  0.5285
  778MPD2    H111481   4.191   4.721  14.379 -1.8144 -0.1277 -2.7396
  778MPD2    H211482   4.032   4.588  14.740 -1.4701  0.6844 -0.4304
  778MPD2    H311483   4.117   0.040  14.603  0.2313 -0.0358  1.6282
  778MPD2     N11484   4.182   4.483  14.246  0.5772 -0.6025 -0.3192
  778MPD2    H511485   4.183   4.386  14.216  0.6193 -0.8303  0.4132
  778MPD2    N111486   4.010   4.325  14.671 -0.1668 -0.3343  0.4366
  778MPD2    H711487   4.014   4.232  14.630 -1.1019 -0.8756  1.5531
  779MPD2     C11488   3.809   3.060  13.743  0.4334 -0.3320 -0.8694
  779MPD2    C111489   3.898   3.100  13.848  0.4105 -0.1360 -0.3568
  779MPD2    C211490   3.966   3.224  13.843 -0.2879 -0.0206  0.0377
  779MPD2    C311491   3.939   3.309  13.733 -0.2249  0.3770  0.1890
  779MPD2    C411492   3.857   3.275  13.629 -0.1814  0.3708 -0.1294
  779MPD2    C511493   3.795   3.151  13.639 -0.3338  0.0897  0.3597
  779MPD2     H11494   4.035   3.244  13.924 -0.2356 -1.6420  0.3836
  779MPD2    H111495   3.840   3.346  13.549  1.0944  0.2072 -0.5383
  779MPD2    H211496   3.741   2.976  13.748  0.2719 -0.2516 -1.7678
  779MPD2    H311497   3.727   3.109  13.565  0.0120 -0.8535  0.5806
  779MPD2     N11498   4.001   3.434  13.733 -0.5386  0.3351  0.3164
  779MPD2    H511499   4.082   3.444  13.793  0.1659 -1.7401 -0.2837
  779MPD2    N111500   3.942   3.010  13.952  0.3434 -0.1726  0.4514
  779MPD2    H711501   4.022   3.041  14.006 -0.1503 -0.2536  1.2353
  780MPD2     C11502   3.101   2.689   1.697 -0.5664  0.0583 -0.7147
  780MPD2    C111503   3.041   2.662   1.568  0.6336  0.4017  0.1358
  780MPD2    C211504   3.121   2.664   1.457  0.3527  0.4270  0.0125
  780MPD2    C311505   3.255   2.699   1.460 -0.8671 -0.5285  0.2318
  780MPD2    C411506   3.307   2.743   1.579 -0.1636 -0.1323  0.5392
  780MPD2    C511507   3.230   2.737   1.694  0.5448  0.5471  0.5278
  780MPD2     H11508   3.076   2.633   1.363  1.0099  0.2733 -0.2485
  780MPD2    H111509   3.411   2.773   1.589  0.3246 -2.4695  2.2737
  780MPD2    H211510   3.057   2.667   1.794  2.0817 -2.1599 -0.0183
  780MPD2    H311511   3.283   2.759   1.786 -0.9415 -0.8405  1.6988
  780MPD2     N11512   3.328   2.681   1.339  0.2196  0.1211  0.1557
  780MPD2    H511513   3.268   2.647   1.266  1.3311 -0.5447 -0.4405
  780MPD2    N111514   2.912   2.613   1.571 -0.5932  0.4147 -0.5601
  780MPD2    H711515   2.865   2.594   1.659  0.4780  0.9676  0.1263
  781MPD2     C11516   0.411   4.591  11.540 -0.4110  0.5277  0.2303
  781MPD2    C111517   0.433   4.706  11.624 -0.1999  0.4415  0.1107
  781MPD2    C211518   0.518   0.087  11.578  0.1533  0.8692  0.3764
  781MPD2    C311519   0.577   0.073  11.453  0.0404 -0.0399 -0.0962
  781MPD2    C411520   0.557   4.682  11.375  0.6052 -0.3474 -0.3483
  781MPD2    C511521   0.475   4.584  11.422 -0.0305  0.5662 -0.7951
  781MPD2     H11522   0.525   0.180  11.634 -1.7587  1.4534 -0.3607
  781MPD2    H111523   0.600   4.676  11.275  0.8844 -2.8657 -0.0850
  781MPD2    H211524   0.341   4.513  11.568 -0.0609 -0.1840 -0.8961
  781MPD2    H311525   0.459   4.493  11.365  0.3622  0.3693 -0.5904
  781MPD2     N11526   0.641   0.180  11.387  0.4517  0.5746 -0.0303
  781MPD2    H511527   0.692   0.158  11.302  1.4349 -1.7250  1.1834
  781MPD2    N111528   0.369   0.001  11.748  0.4487  0.2574  0.1515
  781MPD2    H711529   0.384   0.089  11.796 -0.2790  0.0560  0.7363
  782MPD2     C11530   2.771   1.056   9.939 -0.1183 -0.5751 -0.3277
  782MPD2    C111531   2.892   1.029   9.999  0.7341  0.1204 -0.3786
  782MPD2    C211532   2.959   1.128  10.060 -0.1822  0.0057 -0.7681
  782MPD2    C311533   2.903   1.246  10.077 -0.3158 -0.4576  0.4636
  782MPD2    C411534   2.777   1.275  10.036  0.0328 -0.7664  0.2300
  782MPD2    C511535   2.713   1.178   9.963  0.4935  0.3262 -0.2248
  782MPD2     H11536   3.053   1.105  10.109  1.4602  1.8340 -3.0585
  782MPD2    H111537   2.734   1.375  10.038  0.9433 -0.4237  2.2341
  782MPD2    H211538   2.709   0.979   9.896  1.5636 -2.5826  0.8146
  782MPD2    H311539   2.616   1.197   9.919 -0.1395 -2.0190  0.1847
  782MPD2     N11540   2.973   1.345  10.146 -0.3293 -0.0741 -0.0406
  782MPD2    H511541   3.070   1.324  10.169 -0.9681 -0.9421  1.8654
  782MPD2    N111542   2.959   0.897  10.003  0.1530  0.5352 -1.0250
  782MPD2    H711543   3.046   0.891  10.054 -1.7234 -0.9029  2.0408
  783MPD2     C11544   2.611   0.324  10.593 -0.7537  0.2996  0.4982
  783MPD2    C111545   2.613   0.455  10.566  0.9720 -0.7114 -0.8645
  783MPD2    C211546   2.682   0.494  10.448 -0.0112  0.2753 -0.9237
  783MPD2    C311547   2.737   0.399  10.362  0.0634  0.1738  0.2038
  783MPD2    C411548   2.728   0.267  10.395 -0.4621 -0.1087  0.2883
  783MPD2    C511549   2.670   0.234  10.511 -0.0646 -0.4609 -0.1088
  783MPD2     H11550   2.691   0.599  10.423 -0.2574 -0.0303 -2.2701
  783MPD2    H111551   2.794   0.196  10.346  0.7308  1.0372  0.2395
  783MPD2    H211552   2.562   0.286  10.683 -0.8324  2.2126  1.2664
  783MPD2    H311553   2.659   0.129  10.534 -1.0687 -0.0811  1.1079
  783MPD2     N11554   2.813   0.443  10.251 -0.1209 -0.8032 -0.3577
  783MPD2    H511555   2.814   0.542  10.231 -1.8723 -0.6507  0.3713
  783MPD2    N111556   2.547   0.538  10.659 -0.3888 -0.0554  0.3384
  783MPD2    H711557   2.475   0.506  10.723 -0.2591 -1.9357 -0.4671
  784MPD2     C11558   1.253   1.007   0.482 -0.6554 -0.3453  0.4467
  784MPD2    C111559   1.177   1.030   0.599  0.0445  0.3070 -0.5678
  784MPD2    C211560   1.045   1.078   0.583 -0.7763 -0.5836  0.0541
  784MPD2    C311561   0.994   1.116   0.454 -0.0526  0.3109 -0.4534
  784MPD2    C411562   1.083   1.094   0.347  0.3164 -1.3724  0.3183
  784MPD2    C511563   1.202   1.025   0.356  0.4332  0.6014 -0.0858
  784MPD2     H11564   0.977   1.095   0.665  2.0763  2.6609  1.7574
  784MPD2    H111565   1.041   1.103   0.248 -0.0396  1.1747  0.6960
  784MPD2    H211566   1.356   0.971   0.490 -0.7103 -1.0820 -2.1774
  784MPD2    H311567   1.261   0.996   0.269 -1.1917 -1.4107 -0.5231
  784MPD2     N11568   0.858   1.166   0.447 -0.0033  0.2358 -0.7913
  784MPD2    H511569   0.802   1.162   0.532 -0.5983  3.0990 -1.0386
  784MPD2    N111570   1.224   1.016   0.730  0.0403  0.0823 -0.2678
  784MPD2    H711571   1.163   1.048   0.804  0.6946  0.4197  0.1232
  785MPD2     C11572   1.085   3.925   9.775  0.3066 -0.6802  0.1656
  785MPD2    C111573   1.046   3.987   9.890  0.2384  0.5903  0.1685
  785MPD2    C211574   0.914   3.986   9.931 -0.2672  0.2572 -0.4145
  785MPD2    C311575   0.821   3.921   9.855 -0.3230  0.4853  0.1125
  785MPD2    C411576   0.858   3.849   9.746 -0.3529  0.3755  0.2552
  785MPD2    C511577   0.990   3.853   9.705 -0.3987 -0.3913 -0.1415
  785MPD2     H11578   0.880   4.027  10.025  0.0893  1.2274 -0.7038
  785MPD2    H111579   0.791   3.783   9.693  0.9912 -0.2390 -0.6768
  785MPD2    H211580   1.188   3.938   9.744 -0.3649  1.6025 -1.1385
  785MPD2    H311581   1.031   3.802   9.618 -1.5070 -0.4651 -0.6176
  785MPD2     N11582   0.687   3.942   9.899 -0.3862  0.0011  0.1145
  785MPD2    H511583   0.670   3.988   9.988 -0.3381  0.2071  0.0180
  785MPD2    N111584   1.137   4.050   9.979 -0.5568 -0.1425 -0.0096
  785MPD2    H711585   1.104   4.068  10.074  2.6041 -1.0832  1.2931
  786MPD2     C11586   4.018   2.555  14.416 -0.0717  0.2398 -0.0334
  786MPD2    C111587   4.088   2.442  14.457  0.0943  0.4638 -0.1780
  786MPD2    C211588   4.176   2.448  14.562 -0.0356  0.1040 -0.3967
  786MPD2    C311589   4.190   2.560  14.639  0.7938 -0.3908 -0.5294
  786MPD2    C411590   4.125   2.672  14.592 -0.0954 -0.1429 -0.7271
  786MPD2    C511591   4.037   2.672  14.489 -0.5286 -0.3763  1.5084
  786MPD2     H11592   4.214   2.352  14.593  1.9813  0.8681 -0.5589
  786MPD2    H111593   4.133   2.767  14.644 -1.5533  0.6496 -1.9555
  786MPD2    H211594   3.950   2.561  14.332  0.7376 -1.5011 -0.8255
  786MPD2    H311595   3.985   2.762  14.458 -1.8697 -1.5442  0.3883
  786MPD2     N11596   4.273   2.565  14.754 -0.0270 -0.4266  0.2153
  786MPD2    H511597   4.270   2.657  14.797  1.5079  0.2839 -1.1879
  786MPD2    N111598   4.078   2.319  14.396 -0.8478 -0.5375 -0.0257
  786MPD2    H711599   4.134   2.247  14.442  0.4799  0.0655 -0.6793
  787MPD2     C11600   4.122   1.823  14.780 -0.6550 -0.6003 -0.8045
  787MPD2    C111601   4.167   1.804  14.653  0.2747 -0.4042  0.1244
  787MPD2    C211602   4.280   1.724  14.638 -0.3784  0.4866 -0.0358
  787MPD2    C311603   4.348   1.670  14.746 -0.4090 -1.2062 -0.2807
  787MPD2    C411604   4.293   1.686  14.877 -0.1410  0.3062 -0.2456
  787MPD2    C511605   4.173   1.757  14.892 -0.5640  0.0660 -0.3168
  787MPD2     H11606   4.321   1.699  14.541  0.7856 -1.3529  0.9322
  787MPD2    H111607   4.342   1.648  14.966 -1.7021  1.5531  1.1509
  787MPD2    H211608   4.028   1.872  14.803 -1.0504 -1.1349 -1.2824
  787MPD2    H311609   4.119   1.755  14.986 -2.0039  0.5326 -1.1309
  787MPD2     N11610   4.470   1.595  14.732 -0.2415  0.5044  0.0901
  787MPD2    H511611   4.499   1.562  14.640 -0.2768  0.6841  0.0147
  787MPD2    N111612   4.109   1.874  14.545  0.6132  1.1149 -0.1190
  787MPD2    H711613   4.040   1.945  14.564 -1.1571 -0.0954 -2.0428
  788MPD2     C11614   1.466   0.325   1.218  0.3381 -0.5112 -0.9705
  788MPD2    C111615   1.487   0.225   1.125  0.5857  0.1233 -0.4987
  788MPD2    C211616   1.550   0.251   1.007  0.3255 -0.4603 -0.6696
  788MPD2    C311617   1.611   0.374   0.987 -0.1586 -0.1535  0.2723
  788MPD2    C411618   1.588   0.472   1.074  0.4694 -0.8584 -0.0917
  788MPD2    C511619   1.524   0.452   1.193  0.0443  0.3592 -0.3077
  788MPD2     H11620   1.545   0.171   0.933 -3.4146 -0.7324 -0.1405
  788MPD2    H111621   1.634   0.569   1.059 -1.5363  0.0909 -0.0925
  788MPD2    H211622   1.409   0.315   1.309  1.1862  1.2425 -0.2371
  788MPD2    H311623   1.523   0.533   1.265  1.2690 -0.5967  0.7889
  788MPD2     N11624   1.673   0.419   0.869 -0.1952  0.2274 -0.2766
  788MPD2    H511625   1.691   0.518   0.856  1.0466  0.1426  0.8910
  788MPD2    N111626   1.426   0.096   1.137  0.4919 -0.4449 -0.0984
  788MPD2    H711627   1.419   0.040   1.053  1.6087  0.3317 -0.7137
  789MPD2     C11628   1.786   0.190  16.244 -0.5044 -0.9591 -0.5494
  789MPD2    C111629   1.732   0.088  16.315  0.1545  0.2060  0.9830
  789MPD2    C211630   1.612   0.106  16.381 -0.1240  0.1246 -0.2421
  789MPD2    C311631   1.555   0.234  16.394  0.3183 -0.2568 -0.3128
  789MPD2    C411632   1.612   0.340  16.325  0.4319  0.9061 -0.2062
  789MPD2    C511633   1.724   0.313  16.250 -0.2786 -0.0522 -0.3037
  789MPD2     H11634   1.563   0.023  16.431 -1.0220  0.3128 -0.8150
  789MPD2    H111635   1.571   0.440  16.333 -0.0829  0.6239  0.6420
  789MPD2    H211636   1.875   0.180  16.183  0.7590 -0.6932  1.2530
  789MPD2    H311637   1.772   0.402  16.210 -2.3561  0.3591 -1.8563
  789MPD2     N11638   1.426   0.254  16.450  0.6114 -0.2707  0.7483
  789MPD2    H511639   1.390   0.349  16.447  2.3792  0.4218  1.8559
  789MPD2    N111640   1.783   4.677  16.320 -0.3860  0.6226 -0.6344
  789MPD2    H711641   1.718   4.605  16.352 -0.0451  0.5051 -0.2019
  790MPD2     C11642   2.855   2.826  13.170  0.0821 -0.7380  0.1352
  790MPD2    C111643   2.851   2.695  13.220  0.4899  0.1020 -0.2711
  790MPD2    C211644   2.802   2.594  13.137  0.1914 -0.0166  0.1470
  790MPD2    C311645   2.761   2.631  13.010  0.1346 -0.4079  0.4693
  790MPD2    C411646   2.761   2.764  12.966  0.8460  0.1668  0.4525
  790MPD2    C511647   2.809   2.863  13.043  0.7822 -0.6630  0.5542
  790MPD2     H11648   2.787   2.490  13.165  0.8772 -0.8444 -2.6021
  790MPD2    H111649   2.719   2.786  12.868  0.3585 -2.2333  0.1264
  790MPD2    H211650   2.891   2.908  13.231 -0.3308 -0.2632 -0.2597
  790MPD2    H311651   2.802   2.969  13.019  0.2499 -0.8013  0.0984
  790MPD2     N11652   2.727   2.521  12.925  0.1061 -0.2535 -0.3727
  790MPD2    H511653   2.739   2.428  12.964  1.2707  0.7531  1.6426
  790MPD2    N111654   2.887   2.670  13.357 -0.3938 -0.2948 -0.0041
  790MPD2    H711655   2.924   2.750  13.408 -1.4424  0.9968 -1.2383
  791MPD2     C11656   2.134   2.374  12.449 -0.0851  0.3276  0.1409
  791MPD2    C111657   2.199   2.254  12.483  0.4417 -0.1487 -0.8311
  791MPD2    C211658   2.128   2.135  12.486  0.0753  0.3168  0.1067
  791MPD2    C311659   1.994   2.130  12.445  0.3599 -0.0771 -0.2712
  791MPD2    C411660   1.940   2.244  12.399 -0.4114  0.6514 -0.3001
  791MPD2    C511661   2.009   2.360  12.410  0.0689 -0.6356 -0.1257
  791MPD2     H11662   2.176   2.042  12.513 -0.0008 -0.1810 -1.4828
  791MPD2    H111663   1.840   2.244  12.357  0.5669  0.3877 -2.6277
  791MPD2    H211664   2.168   2.475  12.466 -4.0789  1.8138 -0.9087
  791MPD2    H311665   1.963   2.450  12.369  1.2290  0.4566  0.9676
  791MPD2     N11666   1.926   2.005  12.454  0.2199 -0.0212  0.4047
  791MPD2    H511667   1.992   1.931  12.476  1.2877  1.0439  0.7713
  791MPD2    N111668   2.334   2.272  12.528 -0.0158 -0.1748  0.2783
  791MPD2    H711669   2.374   2.364  12.544 -0.7389 -0.2919  2.8576
  792MPD2     C11670   2.597   1.934  11.219  0.5680 -0.3333  0.8603
  792MPD2    C111671   2.669   1.886  11.115  0.2413 -0.4430 -0.2410
  792MPD2    C211672   2.607   1.816  11.013  0.3608 -0.0786 -0.1916
  792MPD2    C311673   2.471   1.781  11.017  1.3035  0.5013 -0.0185
  792MPD2    C411674   2.403   1.823  11.129 -0.4361  0.7037 -0.1876
  792MPD2    C511675   2.465   1.907  11.220  0.0218  0.4406  0.2334
  792MPD2     H11676   2.669   1.776  10.934 -2.0853 -1.2609 -1.4744
  792MPD2    H111677   2.300   1.792  11.143  0.3885 -1.9125  0.1094
  792MPD2    H211678   2.627   1.996  11.302 -0.2510 -2.1749  2.5352
  792MPD2    H311679   2.397   1.928  11.302 -0.0281  0.7178  0.1232
  792MPD2     N11680   2.408   1.693  10.934 -0.3738 -0.1083 -0.5718
  792MPD2    H511681   2.313   1.667  10.957 -0.2465 -0.0114  0.0689
  792MPD2    N111682   2.810   1.915  11.115 -0.1147 -0.0724  0.0796
  792MPD2    H711683   2.833   1.983  11.187  0.3651 -0.9669  0.7548
  793MPD2     C11684   2.243   1.431   9.955  0.2150 -0.1517  0.0074
  793MPD2    C111685   2.367   1.455  10.008  0.6649 -0.1988  0.2242
  793MPD2    C211686   2.386   1.451  10.144 -0.2612 -0.4312 -0.2199
  793MPD2    C311687   2.279   1.438  10.235 -0.0498  0.8160  0.3936
  793MPD2    C411688   2.160   1.414  10.181 -0.0558  0.6508 -0.0904
  793MPD2    C511689   2.138   1.415  10.046 -0.3517  0.7720  0.0507
  793MPD2     H11690   2.479   1.460  10.198 -0.6120  0.7667  0.1902
  793MPD2    H111691   2.076   1.386  10.243  1.3973 -1.7601  0.8248
  793MPD2    H211692   2.226   1.412   9.850 -1.2824  0.6198  0.0987
  793MPD2    H311693   2.036   1.403  10.013  0.3174  1.1465 -2.1352
  793MPD2     N11694   2.303   1.426  10.376  0.4346 -0.6503 -0.4653
  793MPD2    H511695   2.400   1.422  10.405 -0.3134  3.2801  2.4645
  793MPD2    N111696   2.478   1.457   9.922 -0.3444  0.6608  0.6272
  793MPD2    H711697   2.562   1.495   9.964 -1.0327  1.2123  1.4869
  794MPD2     C11698   1.794   0.551  17.272  0.6410  0.4377 -0.0725
  794MPD2    C111699   1.911   0.520  17.210 -0.4441  0.5305  0.2257
  794MPD2    C211700   1.958   0.595  17.107 -0.2568 -0.1429 -0.2209
  794MPD2    C311701   1.880   0.691  17.055 -0.0443 -0.7654  0.0144
  794MPD2    C411702   1.756   0.716  17.115 -0.0421  0.2461 -0.7191
  794MPD2    C511703   1.712   0.652  17.224 -0.4554 -0.4393  0.7421
  794MPD2     H11704   2.049   0.563  17.057  0.6805  0.5092  1.0628
  794MPD2    H111705   1.685   0.781  17.065 -0.5372  1.0230  0.9845
  794MPD2    H211706   1.752   0.501  17.359  1.0330 -1.0637 -0.7409
  794MPD2    H311707   1.611   0.663  17.261 -0.6950 -0.6974  0.1757
  794MPD2     N11708   1.902   0.772  16.948 -0.5147  0.3103  0.3326
  794MPD2    H511709   1.826   0.821  16.904  0.9040  1.7427 -0.5400
  794MPD2    N111710   1.996   0.415  17.252 -0.0040 -0.3258  0.1500
  794MPD2    H711711   2.078   0.388  17.198 -0.2564  1.1787 -0.9630
  795MPD2     C11712   0.518   3.468  14.029  0.1145  0.4898  0.1601
  795MPD2    C111713   0.493   3.369  13.938  0.8215 -0.3129 -0.0722
  795MPD2    C211714   0.557   3.251  13.959  0.4693  0.2148  0.1009
  795MPD2    C311715   0.627   3.216  14.075  0.3836  0.0789 -0.2578
  795MPD2    C411716   0.641   3.312  14.169  0.0919 -0.2728 -0.1701
  795MPD2    C511717   0.587   3.433  14.140  0.2020 -0.0813  0.2828
  795MPD2     H11718   0.545   3.180  13.878 -2.3710 -0.9456  1.5627
  795MPD2    H111719   0.673   3.293  14.270 -0.1224  0.0862 -0.0350
  795MPD2    H211720   0.479   3.569  14.019 -2.0518 -0.3000  0.5605
  795MPD2    H311721   0.616   3.514  14.206  1.2682 -0.0780 -0.1927
  795MPD2     N11722   0.679   3.089  14.085 -0.2156 -0.2598 -0.7640
  795MPD2    H511723   0.647   3.020  14.017 -1.9247 -3.0116  2.8027
  795MPD2    N111724   0.410   3.382  13.823  0.1975  0.5768 -0.3066
  795MPD2    H711725   0.400   3.300  13.765  0.5243 -0.1747  0.7085
  796MPD2     C11726   4.324   4.651  15.968 -0.2461  0.1986  0.4470
  796MPD2    C111727   4.414   0.025  16.010 -0.2676 -0.0193 -0.8058
  796MPD2    C211728   4.432   0.142  15.941  0.5788  0.0910 -0.2713
  796MPD2    C311729   4.361   0.169  15.823  0.3327  0.0377 -0.1305
  796MPD2    C411730   4.270   0.069  15.785 -0.5595 -0.0213 -0.2374
  796MPD2    C511731   4.250   4.677  15.858  1.0037  0.1717  0.2721
  796MPD2     H11732   4.507   0.217  15.965 -0.4810  0.7169  1.1034
  796MPD2    H111733   4.205   0.076  15.698  0.7271  1.1465 -1.0924
  796MPD2    H211734   4.293   4.564  16.024 -0.8598  1.6322  2.3585
  796MPD2    H311735   4.169   4.608  15.836  0.4362  0.9890 -0.2105
  796MPD2     N11736   4.373   0.290  15.751 -0.0734 -0.8406  0.1881
  796MPD2    H511737   4.448   0.353  15.775 -0.3851 -0.1155 -0.7492
  796MPD2    N111738   4.478   4.722  16.134  0.4041  0.2950 -0.3948
  796MPD2    H711739   4.471   4.626  16.164 -0.8656  0.1712 -1.0790
  797MPD2     C11740   0.801   3.975  17.364 -0.6166  0.3469  0.2689
  797MPD2    C111741   0.869   4.084  17.417  0.2665  0.4350 -0.0644
  797MPD2    C211742   0.830   4.215  17.386  0.3537 -0.3863  0.1357
  797MPD2    C311743   0.741   4.230  17.278  0.4847 -0.4562 -0.0894
  797MPD2    C411744   0.673   4.124  17.233  0.5441 -0.2150  0.0753
  797MPD2    C511745   0.697   3.998  17.278 -0.3274 -1.1027  1.1152
  797MPD2     H11746   0.879   4.304  17.423  0.8995 -0.7473  0.2750
  797MPD2    H111747   0.609   4.137  17.147 -2.3798  0.8725  2.3957
  797MPD2    H211748   0.833   3.873  17.381 -0.0416  0.5662  0.4857
  797MPD2    H311749   0.640   3.921  17.226 -0.8942 -1.3231  2.0760
  797MPD2     N11750   0.728   4.362  17.224 -0.2894  0.5095  0.6539
  797MPD2    H511751   0.786   4.432  17.268 -1.0969  1.7925 -0.3533
  797MPD2    N111752   0.984   4.068  17.496  0.4246  0.1881  0.0367
  797MPD2    H711753   1.018   4.157  17.531 -1.3691 -0.0012  2.2893
  798MPD2     C11754   1.327   4.597  17.094  0.2777  0.3064 -1.0218
  798MPD2    C111755   1.218   4.572  17.178  0.2439 -0.0713  0.1438
  798MPD2    C211756   1.237   4.480  17.283  0.4368 -0.5636 -0.1148
  798MPD2    C311757   1.360   4.419  17.303  0.6297 -0.0805  0.3776
  798MPD2    C411758   1.467   4.448  17.231 -0.3225  0.0509  0.3890
  798MPD2    C511759   1.450   4.543  17.132  0.8865  0.2110  0.5726
  798MPD2     H11760   1.157   4.451  17.350 -0.2659  2.5857  0.4066
  798MPD2    H111761   1.565   4.401  17.234 -0.2473  0.2774  1.4957
  798MPD2    H211762   1.316   4.663  17.009 -2.1979  0.8740 -0.2595
  798MPD2    H311763   1.533   4.562  17.064  0.7296 -0.7673  0.0933
  798MPD2     N11764   1.355   4.316  17.401  0.8242 -0.1356 -0.0506
  798MPD2    H511765   1.270   4.313  17.456 -0.6778  0.7140 -2.3117
  798MPD2    N111766   1.091   4.630  17.143 -0.4087 -0.2062  0.7034
  798MPD2    H711767   1.089   4.691  17.062 -2.2310  1.6706  2.1592
  799MPD2     C11768   4.499   1.037  14.668  0.1078 -0.8177 -0.0180
  799MPD2    C111769   4.495   1.001  14.537  0.7401  0.4982  0.3580
  799MPD2    C211770   4.428   1.089  14.453  0.0701 -0.3260  0.0800
  799MPD2    C311771   4.354   1.199  14.497 -0.5809 -0.1427 -0.3537
  799MPD2    C411772   4.366   1.237  14.628  0.1461  0.0308  0.5584
  799MPD2    C511773   4.445   1.159  14.711  0.4731  0.1444  0.0008
  799MPD2     H11774   4.428   1.059  14.348 -0.6444  0.3780 -0.1203
  799MPD2    H111775   4.331   1.336  14.655  2.8951  0.2675  3.2247
  799MPD2    H211776   4.569   0.992  14.738 -0.2844 -0.5742  0.5337
  799MPD2    H311777   4.459   1.190  14.813  3.0402 -0.5436 -0.1266
  799MPD2     N11778   4.279   1.287  14.412  0.2270  0.4201  0.6013
  799MPD2    H511779   4.227   1.360  14.459 -1.1682 -0.1301 -0.0757
  799MPD2    N111780   4.558   0.885  14.477 -0.1304  0.4691 -0.2034
  799MPD2    H711781   4.525   0.862  14.384 -1.6598 -0.2031  0.5008
  800MPD2     C11782   0.169   2.638  14.204  0.4002  0.3535 -0.0810
  800MPD2    C111783   0.287   2.574  14.166  0.2525 -0.1322 -0.1524
  800MPD2    C211784   0.285   2.507  14.048  0.4062 -0.2599  0.8465
  800MPD2    C311785   0.168   2.511  13.968  0.0864 -0.0981  0.2721
  800MPD2    C411786   0.055   2.575  14.011 -0.5711  0.1988  0.1831
  800MPD2    C511787   0.052   2.624  14.137 -0.1701 -1.2337 -0.2780
  800MPD2     H11788   0.370   2.449  14.015 -1.3770 -4.6220  3.9092
  800MPD2    H111789   4.693   2.601  13.948 -0.2016  0.0237 -0.3797
  800MPD2    H211790   0.167   2.701  14.292 -1.1086  1.8129 -1.1731
  800MPD2    H311791   4.687   2.680  14.168 -0.7066 -1.7708 -0.7996
  800MPD2     N11792   0.182   2.452  13.845 -0.4891 -0.0416 -0.5875
  800MPD2    H511793   0.274   2.411  13.829  0.5097  2.7174 -1.9169
  800MPD2    N111794   0.400   2.575  14.259  0.0759  0.7554 -0.6755
  800MPD2    H711795   0.396   2.632  14.342 -0.5861  0.2067 -0.3309
  801MPD2     C11796   0.637   3.099  14.633  0.3888 -0.0218 -0.8968
  801MPD2    C111797   0.549   2.997  14.615 -0.3705  0.0200  0.4420
  801MPD2    C211798   0.420   3.012  14.661  0.3888 -0.2918 -0.2682
  801MPD2    C311799   0.380   3.131  14.721  0.3255  0.3018  1.2663
  801MPD2    C411800   0.472   3.231  14.733  0.1452  0.4411  0.2412
  801MPD2    C511801   0.602   3.219  14.694  0.3981  0.3194 -0.3194
  801MPD2     H11802   0.353   2.927  14.672 -0.5629  0.5397  0.3496
  801MPD2    H111803   0.451   3.328  14.776  1.6246  0.2454  1.4120
  801MPD2    H211804   0.739   3.093  14.598 -0.0963  0.0192 -2.3112
  801MPD2    H311805   0.672   3.301  14.701 -1.4032  1.7697  0.6322
  801MPD2     N11806   0.261   3.146  14.788  0.3591 -0.0940 -0.1465
  801MPD2    H511807   0.231   3.236  14.825  0.2804 -0.7852  1.5146
  801MPD2    N111808   0.587   2.872  14.560  0.2990  0.3980 -0.5827
  801MPD2    H711809   0.510   2.806  14.555 -0.2946  1.0984 -0.5607
  802MPD2     C11810   4.439   2.476  17.592 -0.3469 -0.8347  0.2339
  802MPD2    C111811   4.406   2.608  17.571 -0.8124 -0.6503 -0.4926
  802MPD2    C211812   4.454   2.670  17.456  0.2320 -0.4598  0.9922
  802MPD2    C311813   4.522   2.595  17.359  0.5810  0.3795  0.4949
  802MPD2    C411814   4.544   2.460  17.373 -1.0111 -0.3714 -0.5194
  802MPD2    C511815   4.497   2.411  17.488 -0.4333 -0.0292 -0.2014
  802MPD2     H11816   4.424   2.773  17.440 -3.5165 -1.5951  0.7721
  802MPD2    H111817   4.588   2.395  17.299  1.7621 -0.3375  1.0920
  802MPD2    H211818   4.382   2.417  17.662 -1.6852 -0.7743 -0.8154
  802MPD2    H311819   4.510   2.304  17.506 -1.0884  0.3020  2.2107
  802MPD2     N11820   4.559   2.666  17.244  0.0008  0.0393  0.1061
  802MPD2    H511821   4.549   2.767  17.247 -1.6558 -0.2399  2.9185
  802MPD2    N111822   4.319   2.670  17.670  0.0033 -0.2811  0.3067
  802MPD2    H711823   4.314   2.626   0.069  0.9042 -0.4503  0.2653
  803MPD2     C11824   1.002   1.790  11.262 -0.9804 -0.2408  0.1709
  803MPD2    C111825   1.055   1.821  11.390  0.1157 -0.3998 -0.3461
  803MPD2    C211826   1.015   1.738  11.493  0.6649  0.1693  0.7622
  803MPD2    C311827   0.922   1.639  11.475  0.1187 -0.5381  0.6694
  803MPD2    C411828   0.862   1.622  11.350 -0.1909  1.0889 -0.2764
  803MPD2    C511829   0.908   1.687  11.242  0.3929  0.1232  0.5631
  803MPD2     H11830   1.057   1.779  11.584 -1.6699  1.7972  1.1288
  803MPD2    H111831   0.791   1.543  11.329  1.8464 -0.3329 -1.8240
  803MPD2    H211832   1.032   1.848  11.176 -0.9920 -2.9267 -1.6447
  803MPD2    H311833   0.858   1.670  11.147  0.8023  2.1240 -0.0152
  803MPD2     N11834   0.875   1.557  11.581  0.1301  0.2134  0.1399
  803MPD2    H511835   0.785   1.514  11.563  0.0863 -0.2728  1.4828
  803MPD2    N111836   1.146   1.925  11.419 -0.6718  0.1116 -0.1166
  803MPD2    H711837   1.162   1.948  11.516  2.4272  0.7546 -0.7734
  804MPD2     C11838   0.288   3.024  16.985  0.6382  0.1808  0.1178
  804MPD2    C111839   0.314   2.991  17.115  0.0096 -0.1669  0.5145
  804MPD2    C211840   0.398   3.071  17.187 -0.4294 -0.2356 -0.1124
  804MPD2    C311841   0.482   3.162  17.122 -0.4197 -0.4612  0.2645
  804MPD2    C411842   0.463   3.190  16.987 -0.6594  0.3267 -0.1121
  804MPD2    C511843   0.362   3.119  16.930  0.5074  0.6989  0.6260
  804MPD2     H11844   0.411   3.053  17.293  0.2649  2.3808  0.2492
  804MPD2    H111845   0.522   3.269  16.941 -0.6344  0.0358 -0.5802
  804MPD2    H211846   0.218   2.969  16.923  0.5566 -0.9028  1.1657
  804MPD2    H311847   0.334   3.133  16.826 -0.5121  0.1245  0.8200
  804MPD2     N11848   0.590   3.209  17.195  0.0980  0.0838  0.5747
  804MPD2    H511849   0.596   3.177  17.292 -2.0397  1.4693  1.1620
  804MPD2    N111850   0.256   2.881  17.174  0.2997  0.4830 -0.3161
  804MPD2    H711851   0.282   2.859  17.269 -4.8467 -2.0094  0.5077
  805MPD2     C11852   4.155   1.558  15.168 -0.0120  0.7323 -0.1207
  805MPD2    C111853   4.244   1.452  15.195 -0.3177  0.2562 -0.4065
  805MPD2    C211854   4.321   1.464  15.303 -0.3911 -0.9284 -0.0258
  805MPD2    C311855   4.327   1.575  15.381  0.3581  0.2541 -0.5239
  805MPD2    C411856   4.234   1.673  15.358  0.0105 -0.2734  0.5425
  805MPD2    C511857   4.147   1.665  15.258 -0.2214  0.7546  0.6203
  805MPD2     H11858   4.391   1.384  15.323  0.7645  0.6158  2.0714
  805MPD2    H111859   4.224   1.752  15.431  0.2350  0.7407 -0.5259
  805MPD2    H211860   4.089   1.547  15.083  0.9806  2.1779 -1.0706
  805MPD2    H311861   4.071   1.741  15.244 -2.0405 -0.5928  3.2366
  805MPD2     N11862   4.423   1.584  15.487  0.4351 -0.0230  0.4361
  805MPD2    H511863   4.492   1.513  15.509 -1.5574 -2.2362 -0.4329
  805MPD2    N111864   4.241   1.336  15.112 -0.1759 -0.0535  0.1136
  805MPD2    H711865   4.310   1.262  15.120 -1.2911 -1.3406 -1.9277
  806MPD2     C11866   0.273   1.034   0.278  0.2281 -0.3377 -0.5114
  806MPD2    C111867   0.231   1.145   0.354  0.2453  0.9476 -0.7481
  806MPD2    C211868   0.275   1.274   0.322  0.2497  0.2316  0.8131
  806MPD2    C311869   0.353   1.301   0.208  0.1709 -0.2560  0.3180
  806MPD2    C411870   0.389   1.189   0.136  0.0748  1.1831  0.0080
  806MPD2    C511871   0.350   1.063   0.166 -0.0134 -0.0389  0.0294
  806MPD2     H11872   0.245   1.357   0.386 -0.3266  0.9624 -0.4037
  806MPD2    H111873   0.455   1.190   0.049  0.2122  2.0019  0.1238
  806MPD2    H211874   0.256   0.932   0.308 -2.7159  0.4407  0.4408
  806MPD2    H311875   0.386   0.979   0.109 -0.2835  1.3992 -2.2558
  806MPD2     N11876   0.383   1.432   0.173 -0.5526  0.1266  0.5651
  806MPD2    H511877   0.347   1.506   0.232 -2.4034 -1.1255  1.0118
  806MPD2    N111878   0.167   1.103   0.471 -0.2817 -0.1076  0.5049
  806MPD2    H711879   0.151   1.003   0.477 -3.5359  0.3455 -1.0920
  807MPD2     C11880   0.136   0.527   0.809  0.2523  0.2291 -0.5769
  807MPD2    C111881   0.082   0.607   0.905 -0.2091  0.5819 -0.5283
  807MPD2    C211882   0.094   0.568   1.034 -0.4203  0.0748 -0.7022
  807MPD2    C311883   0.157   0.445   1.063  0.4410  0.2628  0.5673
  807MPD2    C411884   0.207   0.370   0.962  0.6763  0.5478 -0.3019
  807MPD2    C511885   0.189   0.407   0.830  0.1900 -0.8176  0.4192
  807MPD2     H11886   0.050   0.613   1.122 -2.5428  0.2456 -1.8711
  807MPD2    H111887   0.253   0.273   0.976  3.0130  1.9767  1.8221
  807MPD2    H211888   0.141   0.563   0.707  2.8849 -0.8796 -0.8320
  807MPD2    H311889   0.237   0.358   0.746  0.4158  1.4514 -0.7837
  807MPD2     N11890   0.152   0.394   1.193 -0.4435 -0.1211  0.7623
  807MPD2    H511891   0.106   0.456   1.260  0.1778 -0.1059  1.1690
  807MPD2    N111892   0.024   0.737   0.887  0.3966  0.5894  0.5692
  807MPD2    H711893   4.691   0.770   0.965 -1.0802 -2.2600  0.7256
  808MPD2     C11894   0.319   2.624   9.030 -0.0975  0.3040  0.6092
  808MPD2    C111895   0.338   2.592   9.162  0.0677 -1.0858 -0.5921
  808MPD2    C211896   0.467   2.612   9.214  0.0874  0.3563  0.2060
  808MPD2    C311897   0.567   2.664   9.132 -0.0089  0.2361  0.4607
  808MPD2    C411898   0.546   2.691   8.997  0.6972  0.6663  0.0817
  808MPD2    C511899   0.420   2.669   8.948 -0.3049  0.3319  0.8867
  808MPD2     H11900   0.485   2.584   9.317  0.5294 -0.4996 -0.1091
  808MPD2    H111901   0.624   2.710   8.923 -0.0313  1.7733 -0.4078
  808MPD2    H211902   0.220   2.617   8.989 -0.3493  0.1142  1.2491
  808MPD2    H311903   0.407   2.695   8.843  0.8299 -2.3114  0.0881
  808MPD2     N11904   0.702   2.695   9.173 -0.1122  0.3009  0.7932
  808MPD2    H511905   0.768   2.726   9.103 -1.0990 -2.9866 -1.5685
  808MPD2    N111906   0.246   2.524   9.247 -0.0913 -0.7134 -0.6390
  808MPD2    H711907   0.276   2.510   9.343 -0.3777 -1.5588 -0.6751
  809MPD2     C11908   1.443   2.657   8.756  0.2514 -0.3978  1.0177
  809MPD2    C111909   1.477   2.598   8.880  0.4523  0.2523 -0.6297
  809MPD2    C211910   1.383   2.602   8.980 -0.5176 -0.5546  0.1904
  809MPD2    C311911   1.266   2.677   8.974 -0.0953 -0.1310 -0.2278
  809MPD2    C411912   1.245   2.736   8.850 -0.0985 -0.5043 -0.2798
  809MPD2    C511913   1.324   2.723   8.739  0.4215  0.6535 -0.1410
  809MPD2     H11914   1.407   2.544   9.069 -1.9974  2.0718  2.3063
  809MPD2    H111915   1.154   2.794   8.837  0.9112  1.0383 -0.4682
  809MPD2    H211916   1.509   2.660   8.670 -0.1836 -0.5410  0.6844
  809MPD2    H311917   1.299   2.771   8.645  1.5661 -0.0513 -0.8084
  809MPD2     N11918   1.168   2.689   9.079  0.4373 -0.3281  0.3935
  809MPD2    H511919   1.080   2.737   9.059  1.4995  1.4407 -0.1019
  809MPD2    N111920   1.596   2.519   8.905  0.2028  0.6595  0.1115
  809MPD2    H711921   1.606   2.469   8.993 -1.3584 -1.6538 -1.0163
  810MPD2     C11922   0.072   1.719   9.543 -0.1119 -0.0002 -0.9624
  810MPD2    C111923   0.087   1.616   9.636 -0.2939 -0.7153 -0.3845
  810MPD2    C211924   0.179   1.630   9.741  0.5645 -0.5434  0.4429
  810MPD2    C311925   0.239   1.752   9.767  0.0834 -0.3969  0.7267
  810MPD2    C411926   0.227   1.855   9.676  0.4390 -0.5631 -0.7165
  810MPD2    C511927   0.139   1.838   9.567  0.0881 -0.1479  0.0210
  810MPD2     H11928   0.192   1.557   9.820 -0.8177 -1.5412 -0.2328
  810MPD2    H111929   0.258   1.956   9.701  0.4996 -0.7686  0.0311
  810MPD2    H211930   0.001   1.724   9.461  0.0648  0.2396 -1.1010
  810MPD2    H311931   0.122   1.926   9.507  0.4792 -1.0091 -1.3563
  810MPD2     N11932   0.309   1.774   9.891  0.4658 -0.1855 -0.2825
  810MPD2    H511933   0.337   1.868   9.917 -1.9898  0.3170  0.5728
  810MPD2    N111934   0.008   1.497   9.624  0.1126 -0.2514 -0.2654
  810MPD2    H711935   4.655   1.496   9.556  0.8770  1.3861 -1.1306
  811MPD2     C11936   3.946   1.497   9.498 -0.6497 -0.7230 -0.2669
  811MPD2    C111937   4.085   1.518   9.492  0.1234  0.3559  0.3446
  811MPD2    C211938   4.128   1.642   9.458  0.5041  0.1225 -0.8686
  811MPD2    C311939   4.043   1.740   9.407  0.4772  0.4225  0.2100
  811MPD2    C411940   3.911   1.704   9.389 -0.2857  0.1402  0.8696
  811MPD2    C511941   3.867   1.585   9.440 -0.2622  0.0905  0.5361
  811MPD2     H11942   4.230   1.675   9.470  0.4547  0.5558 -1.5924
  811MPD2    H111943   3.837   1.764   9.337 -2.7941 -0.8153  3.3100
  811MPD2    H211944   3.897   1.409   9.537  0.5121 -0.9055  0.7912
  811MPD2    H311945   3.768   1.543   9.430  0.0361 -0.8375  1.4262
  811MPD2     N11946   4.097   1.859   9.369 -0.1703  0.1628 -0.6639
  811MPD2    H511947   4.189   1.883   9.404 -0.4189 -0.0068  0.1053
  811MPD2    N111948   4.170   1.413   9.541 -0.5558  0.1605  0.7155
  811MPD2    H711949   4.124   1.328   9.571 -0.3262 -0.8530 -1.7684
  812MPD2     C11950   2.967   2.505  12.424 -0.6019 -0.3454 -0.2011
  812MPD2    C111951   3.095   2.484  12.467 -0.1145  0.4162 -0.2754
  812MPD2    C211952   3.133   2.353  12.480 -0.3267 -0.7033  0.3606
  812MPD2    C311953   3.040   2.250  12.470  0.4890  0.4590 -0.4197
  812MPD2    C411954   2.915   2.284  12.431 -0.2106  0.5957 -0.7638
  812MPD2    C511955   2.875   2.410  12.408  0.0608  0.0187 -0.0781
  812MPD2     H11956   3.240   2.336  12.490 -0.2329 -0.6884 -0.6515
  812MPD2    H111957   2.831   2.217  12.418  0.5419 -0.4943  0.0047
  812MPD2    H211958   2.943   2.609  12.405  0.8466  0.3659  1.9367
  812MPD2    H311959   2.775   2.444  12.383  0.2551  1.2450  0.7853
  812MPD2     N11960   3.088   2.117  12.477  0.3739  0.4006  0.4998
  812MPD2    H511961   3.187   2.112  12.500 -0.4684 -0.0967  4.0196
  812MPD2    N111962   3.178   2.594  12.485 -0.3316  0.4762 -0.6886
  812MPD2    H711963   3.125   2.681  12.486 -1.2521 -0.0784 -0.3219
  813MPD2     C11964   2.404   3.963  12.722  0.4059  0.3401 -0.0641
  813MPD2    C111965   2.485   3.922  12.822  0.3171 -0.1120 -0.7202
  813MPD2    C211966   2.426   3.928  12.945 -0.8556  0.5076 -0.3009
  813MPD2    C311967   2.298   3.970  12.965 -0.0845 -0.0154  0.0339
  813MPD2    C411968   2.231   4.021  12.861  0.5265 -0.1833 -0.2216
  813MPD2    C511969   2.283   4.016  12.743 -0.2764  0.5834 -0.2722
  813MPD2     H11970   2.486   3.898  13.031 -1.7302  2.9290  1.1550
  813MPD2    H111971   2.131   4.060  12.879 -0.0241 -2.6740  2.1893
  813MPD2    H211972   2.437   3.981  12.621  2.3663  0.0321  0.5155
  813MPD2    H311973   2.222   4.046  12.659 -1.7026  0.4685  0.7121
  813MPD2     N11974   2.249   3.953  13.096 -0.2786  0.2939 -0.4476
  813MPD2    H511975   2.311   3.910  13.165 -0.1091  2.1701  0.5713
  813MPD2    N111976   2.604   3.859  12.786  0.1639 -0.2171 -0.3665
  813MPD2    H711977   2.634   3.875  12.690 -1.2191  0.7793 -0.6477
  814MPD2     C11978   3.275   0.802  11.977 -0.1779  1.0059  0.5856
  814MPD2    C111979   3.306   0.800  11.839 -0.1761  0.2851 -0.2487
  814MPD2    C211980   3.336   0.918  11.780 -0.0692 -0.8795  0.2885
  814MPD2    C311981   3.341   1.036  11.853 -0.4007  0.1821  1.1333
  814MPD2    C411982   3.292   1.032  11.978  0.3069  0.0521  0.2474
  814MPD2    C511983   3.265   0.918  12.041 -0.6598 -0.2700 -0.6652
  814MPD2     H11984   3.363   0.916  11.675  0.8119  0.4643  0.4953
  814MPD2    H111985   3.292   1.124  12.036  0.5571 -0.0670  0.4339
  814MPD2    H211986   3.251   0.714  12.036 -2.3616  0.3040 -1.3562
  814MPD2    H311987   3.231   0.915  12.143 -0.2367 -0.0977 -0.5174
  814MPD2     N11988   3.373   1.167  11.804 -0.7966 -0.4761  0.0548
  814MPD2    H511989   3.368   1.239  11.876  1.5801  1.5106 -1.7784
  814MPD2    N111990   3.297   0.677  11.761  0.1219  0.2619  0.0940
  814MPD2    H711991   3.322   0.690  11.664  2.0727  1.4507  0.7638
  815MPD2     C11992   3.946   3.461  11.564 -0.1582 -0.7735  0.7367
  815MPD2    C111993   3.879   3.341  11.598  0.1554  0.6382 -0.2474
  815MPD2    C211994   3.758   3.342  11.662  0.0469  1.1203 -0.4263
  815MPD2    C311995   3.696   3.461  11.691  0.2417 -0.0114 -0.4262
  815MPD2    C411996   3.768   3.579  11.668  0.1152 -0.2186  0.2411
  815MPD2    C511997   3.891   3.579  11.611 -0.2290 -0.1661  0.3749
  815MPD2     H11998   3.710   3.248  11.686  2.2456 -0.1561 -1.0799
  815MPD2    H111999   3.715   3.673  11.681 -0.6613 -0.2750 -2.5601
  815MPD2    H212000   4.041   3.459  11.514 -0.0106  2.6223  0.8878
  815MPD2    H312001   3.945   3.670  11.585  1.8604 -1.5521 -0.2094
  815MPD2     N12002   3.563   3.459  11.748  0.2462 -0.2601  1.2940
  815MPD2    H512003   3.521   3.369  11.770  1.9912 -1.4663 -0.3142
  815MPD2    N112004   3.948   3.224  11.559 -0.0554  0.9172 -0.4132
  815MPD2    H712005   4.037   3.237  11.511  0.9086 -1.5776  0.6993
  816MPD2     C12006   3.106   2.464   0.054  0.1080 -0.2453 -0.4942
  816MPD2    C112007   3.227   2.518   0.096  0.1486  0.7962  0.4924
  816MPD2    C212008   3.336   2.496   0.013 -0.1118  0.0587  0.1592
  816MPD2    C312009   3.332   2.414  17.588 -0.1194 -0.4848  0.1293
  816MPD2    C412010   3.209   2.362  17.551 -0.9882 -0.5939 -0.1467
  816MPD2    C512011   3.098   2.390  17.631 -0.3539 -0.0704 -0.0728
  816MPD2     H12012   3.425   2.551   0.042  0.6962 -0.8039 -0.6915
  816MPD2    H112013   3.190   2.291  17.471 -0.0202 -2.3888  1.2062
  816MPD2    H212014   3.027   2.465   0.128  0.4577 -1.3153 -0.1178
  816MPD2    H312015   3.014   2.325  17.610  0.2751 -0.8676 -0.1145
  816MPD2     N12016   3.451   2.392  17.511  0.3158 -0.4058 -0.5710
  816MPD2    H512017   3.520   2.461  17.539 -0.7801  0.7449 -0.7345
  816MPD2    N112018   3.221   2.605   0.206 -0.2428  1.2314 -0.0235
  816MPD2    H712019   3.130   2.638   0.235  0.1033  1.4226  0.8479
  817MPD2     C12020   2.735   4.065  10.085  0.0509  0.2216 -0.1516
  817MPD2    C112021   2.666   3.974  10.008 -0.3538 -0.1744 -0.4900
  817MPD2    C212022   2.539   4.001   9.977 -0.7609 -0.7470 -0.4430
  817MPD2    C312023   2.469   4.108  10.031  0.3471 -0.4945  0.8697
  817MPD2    C412024   2.534   4.192  10.124 -0.5189  0.0155  0.0212
  817MPD2    C512025   2.668   4.163  10.151  0.3841 -0.2885  0.2553
  817MPD2     H12026   2.493   3.935   9.904  0.3314 -1.1715 -0.7626
  817MPD2    H112027   2.476   4.268  10.176  1.2464  0.5601  1.1846
  817MPD2    H212028   2.843   4.059  10.094  0.0640  0.0294 -0.4676
  817MPD2    H312029   2.717   4.227  10.223  1.8336  1.3297 -2.1677
  817MPD2     N12030   2.331   4.128   9.989 -0.4009 -0.3625  0.1749
  817MPD2    H512031   2.290   4.066   9.919  0.1310 -1.2246  0.6260
  817MPD2    N112032   2.725   3.861   9.955  0.0930  0.1436  0.0587
  817MPD2    H712033   2.663   3.812   9.890  1.3570 -1.4221  0.0380
  818MPD2     C12034   1.553   3.938  10.279  0.1568 -0.1433 -0.2546
  818MPD2    C112035   1.653   3.914  10.369  0.4541  0.3201  0.3680
  818MPD2    C212036   1.729   3.798  10.361  0.5110 -0.9358 -0.3635
  818MPD2    C312037   1.699   3.698  10.267 -0.6079  0.4995  0.8139
  818MPD2    C412038   1.600   3.730  10.168  0.2117  0.7001  0.4382
  818MPD2    C512039   1.535   3.850  10.177  0.1554 -0.3715 -0.0767
  818MPD2     H12040   1.813   3.777  10.426  0.3428 -1.8571 -0.4402
  818MPD2    H112041   1.570   3.661  10.090 -0.2482  0.6443  0.6678
  818MPD2    H212042   1.498   4.031  10.288 -2.4072 -1.6474 -0.2072
  818MPD2    H312043   1.474   3.883  10.094  0.0362 -0.8916 -0.2016
  818MPD2     N12044   1.763   3.578  10.265  0.0967  0.2127  0.4232
  818MPD2    H512045   1.731   3.523  10.186  2.8540 -0.2424 -0.3874
  818MPD2    N112046   1.673   3.997  10.480 -0.1731 -0.1570 -0.2308
  818MPD2    H712047   1.742   3.972  10.550 -0.0145  0.4647 -0.1633
  819MPD2     C12048   0.131   1.102  15.683  0.4213  0.8239  0.5105
  819MPD2    C112049   0.215   0.997  15.706 -0.0385 -0.5094  1.4480
  819MPD2    C212050   0.333   1.023  15.777  0.0606  0.6487  0.5077
  819MPD2    C312051   0.362   1.145  15.825 -0.3963 -0.6800 -0.2155
  819MPD2    C412052   0.270   1.251  15.801  0.5016  0.2653 -0.3295
  819MPD2    C512053   0.161   1.228  15.723 -0.4377  0.0849 -0.4098
  819MPD2     H12054   0.411   0.948  15.774  1.1891  1.8417  0.1072
  819MPD2    H112055   0.278   1.354  15.835  2.7967 -0.0053 -0.0823
  819MPD2    H212056   0.032   1.085  15.640  0.5094  1.7486 -0.0804
  819MPD2    H312057   0.094   1.309  15.698  1.0260  1.3566 -0.2281
  819MPD2     N12058   0.483   1.165  15.895  0.2737  0.7034 -0.0867
  819MPD2    H512059   0.541   1.085  15.919 -0.8514 -0.1606 -0.2387
  819MPD2    N112060   0.177   0.872  15.647  0.4205 -0.5353 -0.2889
  819MPD2    H712061   0.100   0.877  15.581 -1.9057  2.4550  2.6578
  820MPD2     C12062   4.214   0.515  15.108  0.2704  0.9374 -0.3541
  820MPD2    C112063   4.291   0.622  15.090 -0.3026 -0.6981  0.2909
  820MPD2    C212064   4.419   0.616  15.145  0.4186 -0.1363  0.2041
  820MPD2    C312065   4.468   0.502  15.204  0.5103 -0.1788  0.5126
  820MPD2    C412066   4.391   0.385  15.207 -0.0149 -0.0477  0.2888
  820MPD2    C512067   4.261   0.396  15.156 -0.4587 -0.5001  0.1980
  820MPD2     H12068   4.484   0.702  15.141 -0.3003  0.3718 -0.4405
  820MPD2    H112069   4.418   0.286  15.240 -0.2265 -0.8992 -2.0392
  820MPD2    H212070   4.116   0.511  15.063 -0.2634 -0.9856  1.0060
  820MPD2    H312071   4.191   0.316  15.171  0.6954 -1.3164  1.1893
  820MPD2     N12072   4.598   0.496  15.266 -0.4504 -0.2174 -0.2339
  820MPD2    H512073   4.629   0.413  15.316 -0.8423 -0.8960 -1.1119
  820MPD2    N112074   4.237   0.746  15.032 -0.5970 -0.0523  0.0351
  820MPD2    H712075   4.138   0.754  15.013 -1.1371 -0.5000  2.6700
  821MPD2     C12076   0.201   2.848  13.161  0.2438 -0.6635 -0.2456
  821MPD2    C112077   0.275   2.732  13.134 -0.4082  0.4280 -0.5010
  821MPD2    C212078   0.356   2.724  13.022  0.3975 -0.2087 -0.7242
  821MPD2    C312079   0.372   2.837  12.939 -0.3060 -0.4888 -0.0180
  821MPD2    C412080   0.294   2.943  12.959 -0.1816  0.0487 -0.3741
  821MPD2    C512081   0.207   2.945  13.067  0.1459  0.2403 -0.0181
  821MPD2     H12082   0.421   2.642  12.994 -1.2917 -1.5166 -0.8199
  821MPD2    H112083   0.306   3.031  12.897 -0.4801 -0.1104 -0.6593
  821MPD2    H212084   0.132   2.856  13.244 -1.2919  1.0686 -1.6829
  821MPD2    H312085   0.155   3.036  13.094  0.1412  0.4189 -0.6437
  821MPD2     N12086   0.458   2.848  12.828 -0.0559 -0.4497 -0.6803
  821MPD2    H512087   0.453   2.937  12.778  0.4410 -1.3768 -2.3914
  821MPD2    N112088   0.262   2.616  13.215  0.5766 -0.3340  0.3771
  821MPD2    H712089   0.309   2.532  13.182  2.8220  1.2632 -0.5037
  822MPD2     C12090   0.703   2.400  15.610  0.4696 -0.0795 -0.6189
  822MPD2    C112091   0.766   2.374  15.732 -0.0140  0.3036 -0.1154
  822MPD2    C212092   0.719   2.429  15.850 -0.1302 -0.1126 -0.1326
  822MPD2    C312093   0.621   2.523  15.856  0.0405 -0.1879 -0.3940
  822MPD2    C412094   0.571   2.567  15.732 -0.1088  0.2280 -0.3431
  822MPD2    C512095   0.604   2.497  15.615  0.0724 -0.5380 -0.3497
  822MPD2     H12096   0.761   2.394  15.943 -3.8046 -0.6454  1.3364
  822MPD2    H112097   0.503   2.648  15.710 -2.3198 -1.1336  1.4570
  822MPD2    H212098   0.726   2.353  15.515 -2.0306 -1.2720 -0.6329
  822MPD2    H312099   0.565   2.532  15.520 -0.7003  1.0197  0.5482
  822MPD2     N12100   0.580   2.592  15.975  0.9785  0.7447  0.0867
  822MPD2    H512101   0.602   2.556  16.068 -0.4950  2.0442  0.9423
  822MPD2    N112102   0.877   2.283  15.738  0.4751 -0.3296  0.1072
  822MPD2    H712103   0.929   2.274  15.825  1.4829 -2.5133 -0.7283
  823MPD2     C12104   0.508   2.646  16.805 -0.7151  0.1188 -0.7220
  823MPD2    C112105   0.543   2.591  16.687  0.4700  0.2871  0.3005
  823MPD2    C212106   0.588   2.459  16.690  0.0019 -0.7057 -0.0017
  823MPD2    C312107   0.606   2.387  16.811  0.0343  0.0091  0.0645
  823MPD2    C412108   0.555   2.441  16.922  0.5188 -0.2639  0.2945
  823MPD2    C512109   0.510   2.571  16.923 -0.1249  0.4007  0.1641
  823MPD2     H12110   0.612   2.405  16.600  0.0279  0.3654 -0.6391
  823MPD2    H112111   0.554   2.381  17.012  0.4735 -1.5455 -0.5528
  823MPD2    H212112   0.469   2.746  16.819 -0.5127  0.0254  0.5986
  823MPD2    H312113   0.470   2.611  17.016 -1.1148 -0.0020 -0.0877
  823MPD2     N12114   0.666   2.259  16.828  0.4559  0.7033 -0.5914
  823MPD2    H512115   0.668   2.224  16.923 -0.2685  0.0657 -0.8107
  823MPD2    N112116   0.542   2.672  16.572 -0.3843  0.0456  0.7531
  823MPD2    H712117   0.544   2.773  16.585 -1.0490  0.0938  0.4835
  824MPD2     C12118   1.168   1.487  15.595 -0.1951 -0.0019  0.1580
  824MPD2    C112119   1.266   1.585  15.598 -0.6188 -0.3397  0.4136
  824MPD2    C212120   1.394   1.538  15.575 -0.2211  0.0251  0.3204
  824MPD2    C312121   1.427   1.416  15.520 -0.5519 -0.2823 -0.4967
  824MPD2    C412122   1.316   1.329  15.500  0.1218 -0.0155 -0.5565
  824MPD2    C512123   1.194   1.361  15.549  0.1075  0.6264  0.4000
  824MPD2     H12124   1.468   1.618  15.573  0.4894 -0.6295  0.5190
  824MPD2    H112125   1.331   1.236  15.446  0.3033  0.7086 -1.7600
  824MPD2    H212126   1.065   1.504  15.624 -0.7502 -2.6088 -0.2647
  824MPD2    H312127   1.117   1.292  15.517  0.1225 -0.2376  2.2178
  824MPD2     N12128   1.552   1.378  15.481  0.4510 -0.3840 -0.2636
  824MPD2    H512129   1.620   1.449  15.508  0.4500  0.6442 -2.8855
  824MPD2    N112130   1.246   1.720  15.629  0.0191  0.0296  0.4940
  824MPD2    H712131   1.326   1.781  15.632  0.1117 -0.0603 -0.1727
  825MPD2     C12132   2.326   1.545  15.240  0.0980  0.4903 -0.1165
  825MPD2    C112133   2.199   1.577  15.200 -0.1964 -0.6532 -0.4659
  825MPD2    C212134   2.164   1.703  15.155  0.0085 -0.6598  0.3013
  825MPD2    C312135   2.264   1.800  15.165 -0.0176 -0.2158  0.3965
  825MPD2    C412136   2.392   1.767  15.201  1.0206  0.0468 -0.2336
  825MPD2    C512137   2.423   1.642  15.235  0.1514 -0.0113  0.3630
  825MPD2     H12138   2.062   1.725  15.126  0.0474 -0.3962  0.3689
  825MPD2    H112139   2.461   1.848  15.220  2.6016 -1.6425  1.1445
  825MPD2    H212140   2.348   1.448  15.285  0.2330  0.6021  0.0607
  825MPD2    H312141   2.523   1.632  15.277  0.0636  0.6073  0.7311
  825MPD2     N12142   2.238   1.940  15.152 -0.5977 -0.4024  0.1438
  825MPD2    H512143   2.304   2.005  15.194 -0.7447  0.4471 -0.9340
  825MPD2    N112144   2.094   1.479  15.221 -0.4225 -0.0063  0.1949
  825MPD2    H712145   2.116   1.391  15.267 -0.2392  1.4154  2.8663
  826MPD2     C12146   2.092   1.698  13.139 -0.0180 -0.0521 -0.1230
  826MPD2    C112147   1.957   1.679  13.160 -0.5871  0.2054  0.0489
  826MPD2    C212148   1.878   1.794  13.153  0.5723 -0.7982  0.4317
  826MPD2    C312149   1.931   1.921  13.137  0.0361 -0.0245  0.1297
  826MPD2    C412150   2.065   1.940  13.134  1.0272 -0.0958 -0.3964
  826MPD2    C512151   2.143   1.830  13.130 -0.0040 -0.4240 -0.0622
  826MPD2     H12152   1.771   1.780  13.164  0.9540 -2.0533  2.6471
  826MPD2    H112153   2.106   2.040  13.127 -0.1140  0.3110 -1.1945
  826MPD2    H212154   2.159   1.614  13.135 -0.0851 -0.1112 -0.0278
  826MPD2    H312155   2.248   1.849  13.111 -0.3529  2.4247  0.7491
  826MPD2     N12156   1.859   2.047  13.141 -0.4470  0.8849  0.9693
  826MPD2    H512157   1.911   2.134  13.141 -0.3910  0.8441  0.0766
  826MPD2    N112158   1.905   1.544  13.159 -0.2903  0.9480  0.1573
  826MPD2    H712159   1.965   1.462  13.152  2.0515  2.5968  0.8813
  827MPD2     C12160   2.289   2.618  10.106  0.7179  0.0552  0.1994
  827MPD2    C112161   2.404   2.548  10.081 -0.4854 -0.3130 -0.4922
  827MPD2    C212162   2.407   2.467   9.968  0.7226 -0.2160 -0.0800
  827MPD2    C312163   2.303   2.459   9.872 -0.2099  0.2883  0.2877
  827MPD2    C412164   2.184   2.514   9.911  0.1872 -0.0166 -0.4669
  827MPD2    C512165   2.180   2.605  10.017 -0.0744 -0.5095  0.3376
  827MPD2     H12166   2.498   2.420   9.932  0.2296 -1.3098  0.1200
  827MPD2    H112167   2.099   2.512   9.844  0.4099  0.3903 -0.7599
  827MPD2    H212168   2.279   2.690  10.186 -0.7072  1.8022 -1.5567
  827MPD2    H312169   2.086   2.656  10.033 -0.3547 -0.1717 -2.4784
  827MPD2     N12170   2.315   2.376   9.764 -0.0001  0.0773  0.0309
  827MPD2    H512171   2.408   2.341   9.743 -0.6268 -0.8418 -1.2408
  827MPD2    N112172   2.513   2.569  10.172 -0.1418  0.4022  0.0432
  827MPD2    H712173   2.500   2.637  10.246 -0.5748 -4.6070  4.6136
  828MPD2     C12174   1.017   2.697  12.192  1.2125  0.0090 -0.4529
  828MPD2    C112175   0.947   2.699  12.074  0.0375 -0.2950 -0.2513
  828MPD2    C212176   1.024   2.681  11.958  0.2128  0.1986 -0.3961
  828MPD2    C312177   1.163   2.651  11.958  0.9106 -0.0320  0.4287
  828MPD2    C412178   1.224   2.641  12.083 -0.3678  0.2467 -0.4524
  828MPD2    C512179   1.152   2.675  12.193 -0.2272  0.1573  0.3735
  828MPD2     H12180   0.974   2.687  11.862 -2.4185  0.1455  0.9604
  828MPD2    H112181   1.331   2.630  12.095 -0.5688 -0.6049  0.5654
  828MPD2    H212182   0.976   2.721  12.289  1.3119  1.1247 -0.6833
  828MPD2    H312183   1.205   2.689  12.287 -1.3247 -0.1922  1.0357
  828MPD2     N12184   1.244   2.626  11.846 -0.2965  0.0081  0.1987
  828MPD2    H512185   1.341   2.611  11.869 -0.2519 -0.2502 -0.1690
  828MPD2    N112186   0.805   2.713  12.062 -0.1752 -0.9988 -0.3917
  828MPD2    H712187   0.774   2.724  11.966 -1.6119 -2.0075 -0.0395
  829MPD2     C12188   0.395   3.055  11.408  0.1901  0.3033  0.1165
  829MPD2    C112189   0.288   3.056  11.491 -0.0088 -0.0338  0.2428
  829MPD2    C212190   0.300   2.997  11.618  1.1007 -0.8528  0.5116
  829MPD2    C312191   0.422   2.959  11.671  0.1155 -0.5240 -0.8079
  829MPD2    C412192   0.526   2.956  11.586 -0.7781 -0.3829  0.4408
  829MPD2    C512193   0.513   3.000  11.457 -0.1157  0.4891 -0.4105
  829MPD2     H12194   0.215   3.000  11.685  1.4295  1.3760  0.8336
  829MPD2    H112195   0.630   2.934  11.610 -0.3753 -0.0977 -1.0549
  829MPD2    H212196   0.390   3.094  11.307 -0.1705 -1.5018 -0.5522
  829MPD2    H312197   0.601   2.996  11.394 -0.2892 -2.5393 -0.4572
  829MPD2     N12198   0.448   2.911  11.801  0.3313  0.5994 -0.4481
  829MPD2    H512199   0.537   2.868  11.822 -0.7299 -2.1220 -1.4392
  829MPD2    N112200   0.164   3.091  11.426 -0.2956 -0.8946  0.2010
  829MPD2    H712201   0.170   3.117  11.328 -0.9877 -1.1166  0.1006
  830MPD2     C12202   1.162   0.830  15.804 -0.2970  0.4154 -0.3023
  830MPD2    C112203   1.077   0.929  15.771  0.2391 -0.8092 -1.1227
  830MPD2    C212204   1.086   0.977  15.638  0.7669 -0.0282  0.1977
  830MPD2    C312205   1.163   0.913  15.541 -0.2834  0.6062 -0.0426
  830MPD2    C412206   1.254   0.820  15.584  0.2339  0.4845  0.3841
  830MPD2    C512207   1.259   0.781  15.719  0.4044  0.4004 -0.1185
  830MPD2     H12208   1.028   1.061  15.601  1.0072 -0.8659 -2.1063
  830MPD2    H112209   1.313   0.759  15.517  0.7697 -0.1100  1.4031
  830MPD2    H212210   1.171   0.797  15.906 -0.4895  0.9354 -0.1160
  830MPD2    H312211   1.328   0.704  15.754  0.2482  0.5215  0.4654
  830MPD2     N12212   1.159   0.951  15.406 -0.1570  0.2922  0.4673
  830MPD2    H512213   1.077   1.009  15.387  0.4823  0.7745 -0.8115
  830MPD2    N112214   0.991   0.990  15.865 -0.5699 -0.3534 -0.9655
  830MPD2    H712215   0.975   0.928  15.944  0.5479  0.2070 -0.2867
  831MPD2     C12216   0.977   2.684  16.301 -0.0775  0.0155 -0.5747
  831MPD2    C112217   0.944   2.607  16.195  0.8431  0.2844  0.0057
  831MPD2    C212218   0.864   2.502  16.218  0.2226  0.4233  0.7740
  831MPD2    C312219   0.817   2.467  16.341  0.0942  0.1181  0.1610
  831MPD2    C412220   0.857   2.546  16.450 -0.4402 -0.6676  0.4346
  831MPD2    C512221   0.933   2.663  16.424 -0.1143  0.2237  0.4346
  831MPD2     H12222   0.841   2.432  16.138 -0.5832  0.5051  0.9341
  831MPD2    H112223   0.817   2.514  16.546  0.5047  0.9750  1.3682
  831MPD2    H212224   1.033   2.777  16.296 -0.4030  0.2511  0.2459
  831MPD2    H312225   0.955   2.740  16.498  1.6082  0.0641  0.0909
  831MPD2     N12226   0.734   2.352  16.363  0.3780  0.0371 -0.3372
  831MPD2    H512227   0.740   2.312  16.456 -1.5416 -1.5474 -0.9001
  831MPD2    N112228   0.997   2.638  16.070  0.8236  0.0492  0.2038
  831MPD2    H712229   1.041   2.729  16.066  1.3295 -0.3138 -2.9580
  832MPD2     C12230   4.508   3.500  17.581 -0.1689  0.3611 -0.1057
  832MPD2    C112231   4.462   3.634  17.579 -0.7314 -0.3536 -0.3924
  832MPD2    C212232   4.324   3.654  17.576  0.2561 -0.1659  0.7792
  832MPD2    C312233   4.235   3.552  17.562 -0.0721  0.3093 -0.0595
  832MPD2    C412234   4.286   3.423  17.544 -0.0098 -0.2019 -0.0680
  832MPD2    C512235   4.422   3.399  17.558 -0.6669  0.4802 -0.2106
  832MPD2     H12236   4.290   3.756  17.565  0.9736 -0.1535 -1.2811
  832MPD2    H112237   4.225   3.336  17.524  2.4806 -1.8823 -0.3273
  832MPD2    H212238   4.612   3.471  17.589 -0.1717 -0.0601 -1.6397
  832MPD2    H312239   4.452   3.296  17.543 -0.6330  0.3753  0.5888
  832MPD2     N12240   4.093   3.567  17.562 -0.3392  0.5212 -0.7847
  832MPD2    H512241   4.030   3.490  17.542 -1.1174  0.9143  0.1537
  832MPD2    N112242   4.555   3.732  17.614  0.4591 -0.8198 -0.3538
  832MPD2    H712243   4.647   3.689  17.623 -0.1999 -2.1931 -0.1484
  833MPD2     C12244   1.468   0.341  12.690 -0.4045  0.3368 -0.2079
  833MPD2    C112245   1.483   0.344  12.550  0.6289  0.3919 -0.9671
  833MPD2    C212246   1.487   0.227  12.477 -0.0889 -0.2754  0.4379
  833MPD2    C312247   1.484   0.103  12.540  0.2958  1.5085 -0.3200
  833MPD2    C412248   1.460   0.105  12.677 -0.6823 -0.2548 -0.6353
  833MPD2    C512249   1.457   0.215  12.753 -0.6959  0.3915 -0.4051
  833MPD2     H12250   1.488   0.243  12.369  1.2626 -1.7943  0.2305
  833MPD2    H112251   1.457   0.007  12.724 -0.5197 -0.7825 -1.7287
  833MPD2    H212252   1.469   0.430  12.751  0.3399  0.2513 -0.0934
  833MPD2    H312253   1.445   0.212  12.861  1.1862  0.4035 -0.1806
  833MPD2     N12254   1.483   4.710  12.466  0.3215  0.1190 -0.6595
  833MPD2    H512255   1.475   4.623  12.517 -1.2163  1.0030  0.6369
  833MPD2    N112256   1.495   0.465  12.479  0.3381  0.0281 -0.2446
  833MPD2    H712257   1.524   0.461  12.382  0.2306  0.5881 -0.3036
  834MPD2     C12258   0.778   4.285  11.941 -0.0099  0.2914  0.2232
  834MPD2    C112259   0.859   4.375  11.862  0.8003 -0.3252 -0.0373
  834MPD2    C212260   0.970   4.432  11.925 -0.3217 -0.7136 -0.8969
  834MPD2    C312261   1.008   4.400  12.054  0.7722 -0.4107 -0.0704
  834MPD2    C412262   0.937   4.306  12.125  0.6671  0.2284 -0.0105
  834MPD2    C512263   0.823   4.258  12.066  0.6444 -0.2238  0.0420
  834MPD2     H12264   1.032   4.500  11.867 -1.4606  3.2974  2.6181
  834MPD2    H112265   0.958   4.288  12.230 -2.0101  2.4932  0.8746
  834MPD2    H212266   0.698   4.227  11.897 -0.4362  0.6802  0.4818
  834MPD2    H312267   0.765   4.190  12.126 -0.7540  0.0586 -0.9622
  834MPD2     N12268   1.124   4.470  12.095  0.3308  0.3959  0.8141
  834MPD2    H512269   1.172   4.528  12.027 -3.7310  0.9895 -1.5382
  834MPD2    N112270   0.824   4.394  11.729 -0.3479 -0.0508  0.1031
  834MPD2    H712271   0.753   4.337  11.684  1.4679 -1.1488 -1.3757
  835MPD2     C12272   1.215   2.735  10.745 -0.3921  0.4766 -0.5214
  835MPD2    C112273   1.102   2.810  10.722  0.1500 -0.0693  0.0905
  835MPD2    C212274   1.058   2.889  10.828 -0.6357  0.0928 -0.3549
  835MPD2    C312275   1.123   2.883  10.951 -0.2339  0.1792 -0.6755
  835MPD2    C412276   1.233   2.810  10.974  0.0963 -0.6819 -0.5768
  835MPD2    C512277   1.281   2.737  10.867  0.2947  0.3228 -0.2700
  835MPD2     H12278   0.971   2.952  10.817 -1.1003 -0.5662 -0.4725
  835MPD2    H112279   1.285   2.804  11.069  1.6040  4.4258 -1.1065
  835MPD2    H212280   1.245   2.664  10.668 -3.1539 -1.1002 -0.1443
  835MPD2    H312281   1.363   2.667  10.883  0.3774 -0.2075 -3.0309
  835MPD2     N12282   1.066   2.944  11.074  0.2872  0.0334 -0.2773
  835MPD2    H512283   1.109   2.909  11.159  0.1414  1.7435  0.4968
  835MPD2    N112284   1.029   2.806  10.599  0.8048 -0.2766  0.6227
  835MPD2    H712285   0.958   2.880  10.599 -0.1251 -1.1673  0.3840
  836MPD2     C12286   0.420   3.388  11.157  0.8054 -0.8245 -0.5846
  836MPD2    C112287   0.487   3.372  11.271  0.0082  0.7868 -0.0446
  836MPD2    C212288   0.426   3.400  11.398  0.7041 -0.2350 -0.1702
  836MPD2    C312289   0.296   3.453  11.403  0.6606 -0.1066 -0.3351
  836MPD2    C412290   0.235   3.488  11.280 -0.1099 -0.3083 -0.8058
  836MPD2    C512291   0.301   3.447  11.161  0.0091 -0.5757 -0.0737
  836MPD2     H12292   0.480   3.377  11.489 -1.7382 -1.6643  0.9343
  836MPD2    H112293   0.156   3.562  11.274  3.3527  3.4735 -0.1357
  836MPD2    H212294   0.458   3.348  11.064  2.7465 -1.9513  0.6923
  836MPD2    H312295   0.259   3.461  11.062 -1.3483  1.9705  0.8702
  836MPD2     N12296   0.223   3.486  11.521  0.0509  0.0357  0.1376
  836MPD2    H512297   0.135   3.535  11.507  0.0891  0.1244  0.2158
  836MPD2    N112298   0.613   3.314  11.259  0.8437  0.4379  0.6302
  836MPD2    H712299   0.638   3.270  11.171 -1.2377 -2.1310  1.3438
  837MPD2     C12300   4.428   2.412   9.782  0.6479 -0.1396 -0.4592
  837MPD2    C112301   4.392   2.475   9.666 -0.5688 -0.2858 -0.2342
  837MPD2    C212302   4.368   2.614   9.671  0.6115 -1.0482 -0.5164
  837MPD2    C312303   4.367   2.675   9.794  0.2059  0.1736 -0.1947
  837MPD2    C412304   4.406   2.622   9.914 -0.3165 -0.1459 -0.2728
  837MPD2    C512305   4.427   2.487   9.904 -0.4298  0.0499  0.4113
  837MPD2     H12306   4.344   2.662   9.577 -1.3618 -1.5004 -0.2495
  837MPD2    H112307   4.395   2.669  10.011  1.6122 -2.4998  1.0924
  837MPD2    H212308   4.438   2.304   9.788  2.8499  0.1682  1.3430
  837MPD2    H312309   4.441   2.434   9.997  1.0387  1.1663  0.8302
  837MPD2     N12310   4.324   2.813   9.785  0.4699 -0.2219 -0.8253
  837MPD2    H512311   4.318   2.841   9.688  2.0926  1.4315 -0.4393
  837MPD2    N112312   4.363   2.409   9.542 -0.0088 -0.4516 -0.5629
  837MPD2    H712313   4.333   2.479   9.475  0.4904  0.1710 -0.1346
  838MPD2     C12314   2.554   0.473  11.022  0.3212 -0.1494  0.0315
  838MPD2    C112315   2.546   0.562  11.125 -0.4648  0.0209 -0.0974
  838MPD2    C212316   2.464   0.539  11.231 -0.4487  0.0104  0.4532
  838MPD2    C312317   2.383   0.420  11.237  0.4304 -0.1453  0.1518
  838MPD2    C412318   2.400   0.335  11.130  0.4518 -0.2036  0.3268
  838MPD2    C512319   2.477   0.364  11.021 -0.4601 -0.6245 -0.0493
  838MPD2     H12320   2.463   0.614  11.309 -2.4526  0.2891  0.1575
  838MPD2    H112321   2.337   0.247  11.125  1.3793 -0.8291 -0.1480
  838MPD2    H212322   2.626   0.485  10.943 -1.2308 -1.5515 -1.6150
  838MPD2    H312323   2.483   0.287  10.945 -0.4550  0.5882 -1.2579
  838MPD2     N12324   2.299   0.402  11.345  0.3584 -0.5686 -0.1815
  838MPD2    H512325   2.294   0.481  11.407 -1.9072 -0.4321 -0.5398
  838MPD2    N112326   2.632   0.678  11.133 -0.0272  0.4108 -0.0016
  838MPD2    H712327   2.620   0.744  11.209 -0.4440 -0.4002  0.6419
  839MPD2     C12328   2.814   0.504  11.790  0.2763 -0.4263 -0.0842
  839MPD2    C112329   2.796   0.450  11.664 -0.6250 -0.0266  0.0393
  839MPD2    C212330   2.858   0.512  11.557  0.3775  0.5031  0.9875
  839MPD2    C312331   2.925   0.629  11.570  0.6337 -0.0943 -0.5185
  839MPD2    C412332   2.933   0.689  11.694  0.3541  0.3127 -0.8755
  839MPD2    C512333   2.878   0.626  11.801  0.2100  0.3622  0.1894
  839MPD2     H12334   2.849   0.466  11.459  1.1240  0.9407  0.7162
  839MPD2    H112335   2.980   0.786  11.699 -0.9059  0.8411  0.8638
  839MPD2    H212336   2.780   0.457  11.882  2.5498 -0.0432  0.9528
  839MPD2    H312337   2.891   0.664  11.901  0.8108  0.9066 -0.0879
  839MPD2     N12338   2.972   0.682  11.449  0.5097  0.4281  0.6268
  839MPD2    H512339   2.944   0.630  11.366  2.3879  0.9543 -0.3244
  839MPD2    N112340   2.713   0.344  11.638  0.2292  0.2605  0.5474
  839MPD2    H712341   2.705   0.313  11.542  3.8784 -0.6761  0.5395
  840MPD2     C12342   2.910   3.045  10.146 -0.7642 -0.3629  0.5889
  840MPD2    C112343   2.928   2.978  10.274  0.0959  0.2700 -0.1481
  840MPD2    C212344   3.038   3.022  10.341 -0.0067  0.2711 -0.4175
  840MPD2    C312345   3.114   3.122  10.295 -0.2444  0.7390 -0.6130
  840MPD2    C412346   3.097   3.173  10.171  0.3666 -0.3324 -0.7935
  840MPD2    C512347   2.986   3.145  10.097 -0.1118 -0.4774  0.1288
  840MPD2     H12348   3.071   2.981  10.436  0.2665  1.0804 -0.1583
  840MPD2    H112349   3.155   3.261  10.144  1.0138 -0.3198  0.6461
  840MPD2    H212350   2.820   3.032  10.087 -0.4847  1.4476 -0.2199
  840MPD2    H312351   2.967   3.198  10.005  0.5895  1.6267  1.1927
  840MPD2     N12352   3.227   3.165  10.369 -0.4678 -0.2438 -0.1353
  840MPD2    H512353   3.296   3.216  10.314 -2.5537  0.8706 -1.7398
  840MPD2    N112354   2.839   2.883  10.318 -0.2480  0.0410 -0.2425
  840MPD2    H712355   2.766   2.869  10.249 -1.4658 -1.0899  1.3008
  841MPD2     C12356   2.606   3.290  14.913  0.5623 -0.1046  0.2683
  841MPD2    C112357   2.607   3.224  14.789 -0.4094 -0.2311  0.2002
  841MPD2    C212358   2.644   3.297  14.674 -0.5783 -0.0508 -0.1994
  841MPD2    C312359   2.667   3.433  14.678 -0.2716 -0.3766 -0.0284
  841MPD2    C412360   2.665   3.495  14.804  0.2737  0.6739 -0.7947
  841MPD2    C512361   2.648   3.421  14.920  0.1210 -0.0766 -0.0127
  841MPD2     H12362   2.661   3.241  14.583 -1.2404 -2.0762  0.9236
  841MPD2    H112363   2.685   3.600  14.820  2.5236  0.3850 -1.7257
  841MPD2    H212364   2.590   3.233  15.004 -1.2397 -0.3852 -0.2136
  841MPD2    H312365   2.649   3.480  15.011  0.2068  1.3899 -0.9457
  841MPD2     N12366   2.699   3.508  14.562  0.0818 -0.5743 -0.0374
  841MPD2    H512367   2.692   3.455  14.476 -0.6539  0.9212 -0.8978
  841MPD2    N112368   2.587   3.086  14.781  0.7027 -0.3981 -0.2996
  841MPD2    H712369   2.588   3.046  14.688  0.9045 -1.2314  0.0627
  842MPD2     C12370   2.957   3.538  16.749  0.3634  0.4393 -0.4885
  842MPD2    C112371   3.021   3.655  16.784 -0.0480  0.2938 -0.0145
  842MPD2    C212372   3.020   3.688  16.915 -0.1360  0.4070  0.1142
  842MPD2    C312373   2.964   3.605  17.010  0.4136  0.1097  0.5873
  842MPD2    C412374   2.888   3.498  16.977  0.9650  0.6834  0.1613
  842MPD2    C512375   2.880   3.472  16.841  0.4188 -0.2711  0.2812
  842MPD2     H12376   3.078   3.771  16.955 -1.5384  1.2309  0.4584
  842MPD2    H112377   2.828   3.443  17.048 -0.7340 -0.4283 -2.1322
  842MPD2    H212378   2.961   3.492  16.651 -1.8049 -0.6213 -0.0881
  842MPD2    H312379   2.822   3.385  16.812  0.2527 -0.3359  0.8056
  842MPD2     N12380   2.990   3.643  17.145 -0.1809 -1.1148  0.0822
  842MPD2    H512381   3.039   3.730  17.163  0.8948 -1.6802 -0.0948
  842MPD2    N112382   3.083   3.737  16.688 -0.2989 -0.1121  0.3303
  842MPD2    H712383   3.065   3.706  16.593  1.0522 -0.0729  0.0651
  843MPD2     C12384   0.514   4.243  17.546  0.0732  0.2830  0.0282
  843MPD2    C112385   0.538   4.187  17.669  0.0213  1.0106 -0.0341
  843MPD2    C212386   0.603   4.269   0.071  0.3336  0.1152  0.0665
  843MPD2    C312387   0.656   4.389   0.043  0.7032  0.7101  0.2509
  843MPD2    C412388   0.651   4.441  17.611  0.1625  0.2388 -0.6218
  843MPD2    C512389   0.572   4.368  17.523  0.2455  0.2506 -0.3772
  843MPD2     H12390   0.614   4.229   0.171 -0.4352  0.5000  0.3016
  843MPD2    H112391   0.691   4.539  17.589  0.4617  0.5606  1.3142
  843MPD2    H212392   0.449   4.193  17.475 -0.7684  1.0097  0.2964
  843MPD2    H312393   0.550   4.402  17.422  0.4074  1.9190  0.1565
  843MPD2     N12394   0.720   4.479   0.132 -0.3605 -0.6198  0.5044
  843MPD2    H512395   0.735   4.574   0.100 -0.4184 -0.7442  0.1106
  843MPD2    N112396   0.479   4.063   0.012  0.2989 -0.6013 -0.6731
  843MPD2    H712397   0.412   4.017  17.643 -0.6404  3.0290 -2.3506
  844MPD2     C12398   3.518   3.676  17.172 -0.1504 -0.0733 -0.2414
  844MPD2    C112399   3.599   3.565  17.160 -0.7171  0.1310  0.2698
  844MPD2    C212400   3.739   3.588  17.161 -1.0962 -0.4344 -0.0788
  844MPD2    C312401   3.788   3.716  17.174  0.7550 -0.1255  0.2892
  844MPD2    C412402   3.700   3.830  17.175 -0.5866 -0.2277 -0.5895
  844MPD2    C512403   3.569   3.803  17.185 -0.6068  0.0314  0.8341
  844MPD2     H12404   3.808   3.507  17.142 -1.3658 -0.6724 -0.0349
  844MPD2    H112405   3.731   3.933  17.177  0.6418 -0.6296  0.8869
  844MPD2    H212406   3.410   3.682  17.167 -0.3671 -0.5289  3.7121
  844MPD2    H312407   3.496   3.884  17.194  2.0211  2.3655  1.1897
  844MPD2     N12408   3.932   3.720  17.181  0.3994  0.2120  0.0797
  844MPD2    H512409   3.985   3.637  17.159  0.7701  0.6870 -0.8158
  844MPD2    N112410   3.546   3.436  17.123  0.2250  0.1342 -0.3709
  844MPD2    H712411   3.611   3.359  17.114  2.2107  1.6808  0.9421
  845MPD2     C12412   4.579   4.505  17.394 -0.5923 -0.2149  0.3017
  845MPD2    C112413   4.535   4.445  17.509 -0.6529  0.6559  0.3671
  845MPD2    C212414   4.460   4.329  17.506 -0.3176  0.6061 -0.1909
  845MPD2    C312415   4.453   4.259  17.385 -0.5991  1.3123 -0.0446
  845MPD2    C412416   4.499   4.324  17.270 -0.0523  0.0729 -0.9467
  845MPD2    C512417   4.554   4.447  17.272  0.1351 -0.8246 -0.2774
  845MPD2     H12418   4.418   4.284  17.595  0.7923  0.4513  0.2617
  845MPD2    H112419   4.485   4.278  17.172  0.4337 -0.5277 -0.7335
  845MPD2    H212420   4.625   4.603  17.393 -3.3982  1.0952  0.5964
  845MPD2    H312421   4.583   4.494  17.179  0.3205  2.1150  1.2731
  845MPD2     N12422   4.381   4.133  17.368 -0.4127  0.2913  0.4155
  845MPD2    H512423   4.312   4.104  17.437  0.4759  0.0722  1.2131
  845MPD2    N112424   4.539   4.523  17.628 -0.0731  0.0795  0.0662
  845MPD2    H712425   4.590   4.611  17.629  0.3616 -0.1650 -0.1863
  846MPD2     C12426   0.764   4.627  13.409 -0.1436 -1.2490  0.1035
  846MPD2    C112427   0.725   0.035  13.392  0.4141 -0.0951 -0.4340
  846MPD2    C212428   0.697   0.108  13.508 -0.1930  0.0653  0.5191
  846MPD2    C312429   0.705   0.041  13.632  0.1836  0.9598 -0.5865
  846MPD2    C412430   0.753   4.634  13.636  0.0750 -0.0318 -0.8728
  846MPD2    C512431   0.779   4.559  13.522 -0.2340  0.4663 -0.4966
  846MPD2     H12432   0.672   0.213  13.500 -0.2881  0.0428  0.5274
  846MPD2    H112433   0.773   4.580  13.728 -2.0353 -0.8956 -0.9116
  846MPD2    H212434   0.784   4.565  13.322  0.1768  0.8355 -1.3057
  846MPD2    H312435   0.821   4.458  13.519  1.1674  1.0808 -1.8070
  846MPD2     N12436   0.666   0.118  13.743 -0.5008 -0.2688  0.6621
  846MPD2    H512437   0.604   0.196  13.722 -1.5696 -1.4480 -0.6102
  846MPD2    N112438   0.723   0.109  13.268 -0.1045  0.0968 -0.0845
  846MPD2    H712439   0.699   0.207  13.275 -1.1053 -0.1022 -0.6618
  847MPD2     C12440   0.485   1.084  14.348  0.0617 -0.2981  0.2608
  847MPD2    C112441   0.602   1.044  14.289  0.2264  0.0493 -0.0710
  847MPD2    C212442   0.690   0.953  14.342  0.2468 -0.5682 -0.0330
  847MPD2    C312443   0.656   0.890  14.462 -1.0607  0.3411 -0.5380
  847MPD2    C412444   0.534   0.937  14.524  0.1026 -0.0674 -0.3059
  847MPD2    C512445   0.458   1.031  14.471  0.4139  0.2782  0.3730
  847MPD2     H12446   0.774   0.925  14.279 -0.1626  0.1802 -0.9083
  847MPD2    H112447   0.504   0.895  14.620 -2.1921 -0.9534 -1.4047
  847MPD2    H212448   0.429   1.165  14.304 -1.8322 -0.6162  2.0686
  847MPD2    H312449   0.368   1.064  14.523  0.6447 -2.5886  2.6276
  847MPD2     N12450   0.730   0.793  14.527 -1.0552  0.5648  0.5559
  847MPD2    H512451   0.687   0.738  14.601  0.2276 -0.9766  0.1509
  847MPD2    N112452   0.625   1.103  14.160 -0.1352  0.5548 -0.0495
  847MPD2    H712453   0.546   1.158  14.127 -1.7448 -1.9896 -0.4514
  848MPD2     C12454   3.580   4.207  17.366  0.1017 -0.1516 -0.4635
  848MPD2    C112455   3.705   4.155  17.367 -0.4021  0.9650  0.1407
  848MPD2    C212456   3.800   4.223  17.302  0.0552 -0.0248 -0.3172
  848MPD2    C312457   3.790   4.346  17.234  0.0262 -0.3612 -0.0047
  848MPD2    C412458   3.665   4.401  17.247 -0.7461  0.4360 -0.0670
  848MPD2    C512459   3.560   4.333  17.313  0.2472 -0.1289 -0.1911
  848MPD2     H12460   3.893   4.168  17.296  0.9166  1.0320  3.2188
  848MPD2    H112461   3.645   4.495  17.197 -0.3286  0.5484 -0.0171
  848MPD2    H212462   3.497   4.171  17.426  0.4042  0.7171  0.4911
  848MPD2    H312463   3.466   4.387  17.314 -0.8320 -1.9782 -1.9289
  848MPD2     N12464   3.889   4.409  17.146 -0.4813 -0.2698  0.4962
  848MPD2    H512465   3.852   4.489  17.097  1.3484 -2.0889 -3.7891
  848MPD2    N112466   3.736   4.027  17.422  0.3440 -0.5927 -0.0271
  848MPD2    H712467   3.834   4.001  17.413 -0.5251 -3.0093 -2.1962
  849MPD2     C12468   3.062   3.794  13.952  0.9052 -0.2859 -0.1689
  849MPD2    C112469   3.187   3.740  13.974  0.6195 -0.2012 -0.4609
  849MPD2    C212470   3.272   3.807  14.062  0.7725  0.1502 -0.6224
  849MPD2    C312471   3.232   3.913  14.138 -0.3004 -0.0079  0.3121
  849MPD2    C412472   3.113   3.971  14.111 -0.1896  0.0475  0.6979
  849MPD2    C512473   3.024   3.904  14.026  0.4443 -0.4441  0.2428
  849MPD2     H12474   3.366   3.756  14.080  1.9393  2.2138 -0.8708
  849MPD2    H112475   3.092   4.067  14.156  1.0086  0.3208  0.6823
  849MPD2    H212476   3.003   3.761  13.867 -0.4810  0.7257  0.3965
  849MPD2    H312477   2.927   3.947  14.006  0.7756  0.8539  1.5022
  849MPD2     N12478   3.320   3.958  14.237  0.5950  0.0111 -0.4283
  849MPD2    H512479   3.280   4.032  14.293  0.3091  0.3942 -1.1310
  849MPD2    N112480   3.245   3.636  13.895 -0.7295 -0.9292 -0.6799
  849MPD2    H712481   3.342   3.614  13.913 -1.3250 -0.0087  3.4903
  850MPD2     C12482   0.796   1.637  14.454 -0.0281  0.0443 -0.5592
  850MPD2    C112483   0.782   1.755  14.518  0.2411 -0.6145  0.5102
  850MPD2    C212484   0.894   1.822  14.569  0.2467 -0.1160  0.1710
  850MPD2    C312485   1.021   1.771  14.541  0.8773 -0.3604 -0.1821
  850MPD2    C412486   1.029   1.655  14.468 -0.5161 -0.0596  1.0776
  850MPD2    C512487   0.922   1.584  14.432  0.5500  0.2956 -0.0962
  850MPD2     H12488   0.889   1.923  14.609  1.1400  0.2513 -0.6640
  850MPD2    H112489   1.123   1.607  14.444 -1.3059 -0.4796 -1.1832
  850MPD2    H212490   0.710   1.579  14.422 -0.5792  1.2953 -1.3519
  850MPD2    H312491   0.942   1.488  14.385 -1.0538  0.5215 -1.2374
  850MPD2     N12492   1.137   1.825  14.597 -0.1026  0.1312 -0.4219
  850MPD2    H512493   1.220   1.785  14.556 -0.8705 -1.5413 -0.3295
  850MPD2    N112494   0.646   1.783  14.551  0.1612 -0.1791 -0.2182
  850MPD2    H712495   0.577   1.738  14.490  1.2083  0.0804 -1.5862
  851MPD2     C12496   1.189   1.749  15.177  0.5399  0.1102  0.4805
  851MPD2    C112497   1.091   1.686  15.106  0.6762  0.5398 -0.2208
  851MPD2    C212498   1.121   1.554  15.075 -0.3072  0.1490 -0.2118
  851MPD2    C312499   1.233   1.492  15.112  0.8925  0.1052 -0.0851
  851MPD2    C412500   1.333   1.556  15.177 -0.5682  0.6859 -0.5761
  851MPD2    C512501   1.308   1.682  15.210  0.1097 -0.6889 -0.0484
  851MPD2     H12502   1.049   1.504  15.012  1.7716  0.5530 -2.8892
  851MPD2    H112503   1.430   1.520  15.209 -2.3040 -1.1176  2.6842
  851MPD2    H212504   1.180   1.852  15.209 -0.2127  0.2017 -0.0410
  851MPD2    H312505   1.375   1.750  15.261 -0.8836  0.3482 -0.1231
  851MPD2     N12506   1.258   1.368  15.057 -0.2289 -0.1052 -1.1841
  851MPD2    H512507   1.180   1.331  15.004 -0.8157 -0.7933  0.1403
  851MPD2    N112508   0.973   1.758  15.070  0.0896 -0.1134  0.3129
  851MPD2    H712509   0.973   1.852  15.109  1.6324 -0.1017  0.2932
  852MPD2     C12510   0.328   4.617   9.636 -0.1497 -0.3486  0.0542
  852MPD2    C112511   0.427   4.585   9.731  0.1748  0.7277 -0.3131
  852MPD2    C212512   0.527   4.672   9.765 -0.5142 -0.0402  0.9381
  852MPD2    C312513   0.535   0.075   9.706  0.3795  0.2323 -0.5833
  852MPD2    C412514   0.438   0.104   9.612  0.2270  0.7187 -0.2860
  852MPD2    C512515   0.339   0.019   9.571  0.7338 -0.1415 -0.3518
  852MPD2     H12516   0.601   4.651   9.841  2.4227 -0.9507 -2.1891
  852MPD2    H112517   0.438   0.204   9.569 -1.6239 -0.3970 -2.8808
  852MPD2    H212518   0.255   4.543   9.606 -0.0659  0.2202 -1.6059
  852MPD2    H312519   0.269   0.056   9.496 -0.7734  1.7798  1.9783
  852MPD2     N12520   0.639   0.160   9.753 -0.4548 -0.2884  0.2595
  852MPD2    H512521   0.693   0.129   9.833 -0.5995 -1.2226 -0.0035
  852MPD2    N112522   0.445   4.456   9.786  0.1689 -0.0660 -0.4495
  852MPD2    H712523   0.526   4.450   9.847  0.0752 -2.0387 -0.5112
  853MPD2     C12524   2.791   4.201  12.162  0.0423 -0.0808 -0.1049
  853MPD2    C112525   2.657   4.177  12.125  0.9773  0.5303 -0.6660
  853MPD2    C212526   2.625   4.152  11.992  0.5560 -0.4175 -0.5807
  853MPD2    C312527   2.723   4.160  11.891 -0.2871 -0.2804 -0.1835
  853MPD2    C412528   2.854   4.175  11.930  0.3516  0.2023  1.0271
  853MPD2    C512529   2.889   4.196  12.065  0.5049 -0.2880 -0.3483
  853MPD2     H12530   2.523   4.126  11.964  0.1192 -0.0038  0.6288
  853MPD2    H112531   2.932   4.170  11.855 -1.9782  0.7264 -1.4456
  853MPD2    H212532   2.812   4.220  12.267 -1.4699 -0.0751  0.1893
  853MPD2    H312533   2.993   4.215  12.089 -0.0156  2.1105  0.0235
  853MPD2     N12534   2.686   4.150  11.754 -0.3186 -0.2476  0.4495
  853MPD2    H512535   2.759   4.156  11.684 -0.0241  0.9185  0.8547
  853MPD2    N112536   2.569   4.176  12.229  0.3046 -0.4367 -0.2920
  853MPD2    H712537   2.603   4.219  12.315  3.1750 -1.4665 -0.8926
  854MPD2     C12538   3.910   4.435  12.759 -0.1548 -0.0272  0.1990
  854MPD2    C112539   3.992   4.501  12.676 -0.2699  0.3822  0.8927
  854MPD2    C212540   4.123   4.501  12.697 -0.0864  0.6336  0.4510
  854MPD2    C312541   4.179   4.434  12.803  0.1560 -0.4165 -0.3554
  854MPD2    C412542   4.093   4.363  12.888 -0.8553 -0.4001  0.0696
  854MPD2    C512543   3.958   4.365  12.863 -0.2151 -0.7401  0.3522
  854MPD2     H12544   4.183   4.548  12.620  1.3734  0.2765  1.3713
  854MPD2    H112545   4.127   4.313  12.979  0.6119  0.0915 -0.2010
  854MPD2    H212546   3.803   4.429  12.744 -0.1880 -0.8414  0.8092
  854MPD2    H312547   3.896   4.304  12.928  0.5517  0.7444  2.4688
  854MPD2     N12548   4.320   4.441  12.814 -0.8179 -0.2560  0.1920
  854MPD2    H512549   4.368   4.494  12.742  0.5013 -1.2310  0.3479
  854MPD2    N112550   3.924   4.566  12.571  0.0479 -0.8810  0.5928
  854MPD2    H712551   3.824   4.577  12.582  0.2893 -0.0872  1.8906
  855MPD2     C12552   0.476   4.292  13.431  0.4621  0.1225 -0.1335
  855MPD2    C112553   0.358   4.221  13.425 -0.7033  0.1064  0.1827
  855MPD2    C212554   0.274   4.235  13.320 -0.2501 -0.0412 -0.6243
  855MPD2    C312555   0.297   4.333  13.228  0.1546  0.2093 -0.7044
  855MPD2    C412556   0.418   4.396  13.232 -0.0373  1.0824 -0.2771
  855MPD2    C512557   0.511   4.377  13.331 -0.6191  0.5696  0.1184
  855MPD2     H12558   0.181   4.179  13.324  1.0109 -2.1559 -0.6359
  855MPD2    H112559   0.453   4.457  13.149  2.6203 -1.1809 -0.8331
  855MPD2    H212560   0.547   4.278  13.511  1.2384  0.9053 -0.6876
  855MPD2    H312561   0.612   4.413  13.315  0.3287 -2.3200 -0.4235
  855MPD2     N12562   0.211   4.367  13.122 -0.1737  0.5975  0.1570
  855MPD2    H512563   0.241   4.412  13.036  1.0572 -3.6901 -1.6448
  855MPD2    N112564   0.327   4.119  13.515  0.2344  0.2991  0.4062
  855MPD2    H712565   0.244   4.063  13.501  0.5455 -0.0495 -0.0207
  856MPD2     C12566   1.871   0.538  13.347 -0.0567 -0.0892  0.1848
  856MPD2    C112567   1.887   0.647  13.436 -0.0354 -1.2492  0.2819
  856MPD2    C212568   1.783   0.731  13.466  0.1916 -0.0715 -0.2202
  856MPD2    C312569   1.661   0.714  13.402 -0.3214 -0.8276 -1.4428
  856MPD2    C412570   1.646   0.607  13.314 -0.2905  0.0767 -0.3828
  856MPD2    C512571   1.745   0.517  13.293  0.5216  0.4062  0.2505
  856MPD2     H12572   1.805   0.818  13.527  1.6810  0.3817 -1.3872
  856MPD2    H112573   1.555   0.582  13.261 -0.5410 -1.8803  0.9711
  856MPD2    H212574   1.948   0.464  13.329  0.0626 -0.1379  0.9165
  856MPD2    H312575   1.733   0.435  13.223  2.3281  0.8969 -0.6327
  856MPD2     N12576   1.548   0.794  13.427 -0.2510 -0.6315 -0.7442
  856MPD2    H512577   1.475   0.793  13.357 -0.0610  0.1401 -0.9503
  856MPD2    N112578   2.000   0.664  13.514  0.4298 -0.2279 -1.0026
  856MPD2    H712579   1.992   0.745  13.574 -0.0059 -0.4623 -0.7463
  857MPD2     C12580   3.462   2.724  12.923 -0.2253 -0.5465 -0.1211
  857MPD2    C112581   3.586   2.696  12.853 -0.3452  0.2235  0.4634
  857MPD2    C212582   3.678   2.798  12.854 -0.2919 -0.0005  0.3203
  857MPD2    C312583   3.653   2.917  12.913  0.1373  0.8372 -0.5220
  857MPD2    C412584   3.538   2.943  12.978  0.5806  0.2068 -0.1040
  857MPD2    C512585   3.446   2.846  12.986 -0.9562 -0.1890 -0.4524
  857MPD2     H12586   3.778   2.775  12.819 -0.8489 -0.0854 -1.1840
  857MPD2    H112587   3.510   3.037  13.024 -0.3284  1.2237 -2.7168
  857MPD2    H212588   3.382   2.651  12.933 -1.7550  1.2951  1.2171
  857MPD2    H312589   3.353   2.879  13.031 -0.4594 -0.1886  0.5825
  857MPD2     N12590   3.761   3.001  12.903 -0.5280  0.2763 -0.5010
  857MPD2    H512591   3.838   2.966  12.847  1.3788  0.1338  2.2139
  857MPD2    N112592   3.604   2.572  12.795  0.1431 -0.0955  0.3346
  857MPD2    H712593   3.528   2.505  12.805 -0.0786 -0.0234 -0.8831
  858MPD2     C12594   3.686   1.093  16.808  0.4224 -0.5163  0.5592
  858MPD2    C112595   3.795   1.163  16.756 -0.5820 -0.5276 -0.7150
  858MPD2    C212596   3.843   1.271  16.826  0.0059  0.0752 -0.3141
  858MPD2    C312597   3.791   1.309  16.948 -0.1933 -0.7274 -0.3268
  858MPD2    C412598   3.672   1.247  16.985  0.4918 -0.5420  0.0358
  858MPD2    C512599   3.617   1.148  16.912  0.4080 -0.7178 -0.5027
  858MPD2     H12600   3.933   1.324  16.798  1.7156 -1.5734  2.0431
  858MPD2    H112601   3.622   1.277  17.077 -0.9522  0.4271 -1.0507
  858MPD2    H212602   3.635   1.018  16.748 -1.1516 -0.9299  2.4187
  858MPD2    H312603   3.526   1.098  16.941  0.7897 -0.6480  0.8033
  858MPD2     N12604   3.847   1.411  17.031  0.3517 -0.1120  0.6214
  858MPD2    H512605   3.801   1.437  17.117  1.2148  0.4032  0.9228
  858MPD2    N112606   3.845   1.125  16.624  0.0607  0.6617  0.3556
  858MPD2    H712607   3.802   1.051  16.570  0.8260  1.2160 -0.9986
  859MPD2     C12608   2.883   3.532  15.454  0.4683  0.1593 -0.3041
  859MPD2    C112609   2.862   3.535  15.314 -0.8377  0.1530  0.5825
  859MPD2    C212610   2.866   3.418  15.238  0.6891  0.5531 -0.1433
  859MPD2    C312611   2.870   3.297  15.308  0.2142  0.8941  0.5366
  859MPD2    C412612   2.882   3.294  15.446  0.0425 -0.1268 -0.4195
  859MPD2    C512613   2.877   3.409  15.519  0.1630 -0.1433 -0.3984
  859MPD2     H12614   2.855   3.416  15.130  0.3118 -1.5907 -0.0730
  859MPD2    H112615   2.880   3.202  15.503  0.0267  1.1609  1.6593
  859MPD2    H212616   2.874   3.624  15.511 -2.8104  0.0825 -0.7123
  859MPD2    H312617   2.869   3.411  15.628 -0.3542  2.8162 -0.5143
  859MPD2     N12618   2.840   3.173  15.250  0.0476 -0.0689  0.1249
  859MPD2    H512619   2.838   3.089  15.307  2.1171  0.6679  1.2928
  859MPD2    N112620   2.858   3.665  15.257  0.2643 -0.2021 -0.1132
  859MPD2    H712621   2.850   3.745  15.319 -1.7040 -0.8771  0.4918
  860MPD2     C12622   0.334   3.894  11.577  0.1475 -0.3864 -0.7050
  860MPD2    C112623   0.320   3.885  11.714 -0.5876 -0.3829 -0.5463
  860MPD2    C212624   0.205   3.844  11.765 -0.5871 -0.5391 -0.1113
  860MPD2    C312625   0.090   3.844  11.687  0.3747  0.2237 -0.2380
  860MPD2    C412626   0.100   3.859  11.552 -0.5894  0.0869  0.1289
  860MPD2    C512627   0.226   3.871  11.497 -0.1250  0.7475  0.6208
  860MPD2     H12628   0.197   3.826  11.872 -1.8477 -0.9274 -0.2732
  860MPD2    H112629   0.015   3.871  11.486 -1.7283 -0.2083  1.5158
  860MPD2    H212630   0.432   3.915  11.537  0.1571  2.0417  0.6352
  860MPD2    H312631   0.238   3.871  11.389 -0.7982  1.4013  0.5468
  860MPD2     N12632   4.689   3.839  11.759 -0.5181  0.2604 -0.4768
  860MPD2    H512633   4.689   3.829  11.860 -0.9053 -1.3015 -0.6376
  860MPD2    N112634   0.424   3.882  11.809 -0.1530  0.0522  0.6616
  860MPD2    H712635   0.413   3.837  11.899  0.4165 -0.0784  0.6656
  861MPD2     C12636   3.922   2.250  10.707  0.7555 -0.1101  0.0918
  861MPD2    C112637   3.811   2.268  10.786 -0.3867  0.0003 -0.4044
  861MPD2    C212638   3.715   2.348  10.737 -0.1984  0.1847  1.1770
  861MPD2    C312639   3.732   2.420  10.617 -0.6911 -0.4297 -0.0797
  861MPD2    C412640   3.845   2.396  10.540 -0.7640 -0.3705 -0.7140
  861MPD2    C512641   3.945   2.311  10.588 -0.1963 -0.8891 -0.3422
  861MPD2     H12642   3.619   2.359  10.785 -0.5573 -1.9169  0.9546
  861MPD2    H112643   3.856   2.425  10.436 -0.3528 -0.2126 -0.6270
  861MPD2    H212644   4.000   2.179  10.733 -0.9710 -2.0625 -0.0594
  861MPD2    H312645   4.035   2.290  10.531  0.0776 -0.8364  0.0731
  861MPD2     N12646   3.641   2.522  10.575  0.4615 -0.2472 -0.3495
  861MPD2    H512647   3.663   2.552  10.480  1.6134  0.1299  0.0386
  861MPD2    N112648   3.788   2.198  10.909 -0.0073 -0.1456 -0.4209
  861MPD2    H712649   3.693   2.183  10.940 -0.2213  1.9065 -0.0524
  862MPD2     C12650   3.359   2.918  10.049 -0.0955 -0.2002 -0.4225
  862MPD2    C112651   3.432   2.809  10.091  0.6777 -0.1903 -0.0828
  862MPD2    C212652   3.432   2.692  10.017  0.3179  0.3355  0.1595
  862MPD2    C312653   3.373   2.693   9.892 -0.2514 -0.7594  0.7791
  862MPD2    C412654   3.299   2.800   9.845 -0.0084 -0.5593 -0.9859
  862MPD2    C512655   3.302   2.912   9.924  0.1285 -0.2032  0.6159
  862MPD2     H12656   3.485   2.609  10.062  0.4518  0.4187  0.1551
  862MPD2    H112657   3.254   2.805   9.747 -0.2507 -0.8105 -0.8878
  862MPD2    H212658   3.359   3.012  10.103 -2.0484  0.2348 -1.1544
  862MPD2    H312659   3.248   3.001   9.895 -0.1111 -1.4367 -2.6514
  862MPD2     N12660   3.384   2.574   9.811 -0.0793 -0.3944  0.5919
  862MPD2    H512661   3.341   2.568   9.720  1.9762 -0.1657 -0.4012
  862MPD2    N112662   3.500   2.801  10.213  0.2288  0.2468  0.7821
  862MPD2    H712663   3.542   2.710  10.228  0.8887  0.6760  1.5749
  863MPD2     C12664   2.720   0.491  16.717 -0.4721  0.4408 -0.5142
  863MPD2    C112665   2.603   0.455  16.789 -0.6817  0.1079  0.2184
  863MPD2    C212666   2.603   0.417  16.922 -0.4249 -0.0078 -0.0816
  863MPD2    C312667   2.728   0.414  16.990  0.1158  0.3108  0.3005
  863MPD2    C412668   2.839   0.433  16.913  0.4476 -0.4717 -0.8702
  863MPD2    C512669   2.838   0.475  16.786  0.4216  0.0274  0.3547
  863MPD2     H12670   2.520   0.378  16.980  0.7475  1.9374  2.8721
  863MPD2    H112671   2.933   0.432  16.966  1.0295  2.1318 -1.8538
  863MPD2    H212672   2.727   0.532  16.617 -1.2059  0.7092 -0.4496
  863MPD2    H312673   2.932   0.501  16.739  0.9680 -0.3029  1.2630
  863MPD2     N12674   2.749   0.382  17.125  0.2266  0.4092  0.0352
  863MPD2    H512675   2.845   0.395  17.156  0.4268 -1.5803  0.2558
  863MPD2    N112676   2.485   0.455  16.709  0.2728 -0.5212 -0.2430
  863MPD2    H712677   2.498   0.485  16.613 -0.9361  3.5149  0.8406
  864MPD2     C12678   3.294   1.298  17.235 -0.1207 -0.5501 -0.1496
  864MPD2    C112679   3.288   1.262  17.100  0.8108  0.2747 -0.2417
  864MPD2    C212680   3.340   1.343  17.001 -1.2200  0.5322  0.6106
  864MPD2    C312681   3.397   1.463  17.036 -0.1166 -0.0771  0.1590
  864MPD2    C412682   3.398   1.501  17.169  1.1438 -0.5372 -0.4965
  864MPD2    C512683   3.351   1.412  17.266 -0.6076 -0.6754 -0.1132
  864MPD2     H12684   3.351   1.314  16.898  0.5906  2.6272  0.2117
  864MPD2    H112685   3.441   1.592  17.209 -0.9540  0.3515 -0.2604
  864MPD2    H212686   3.245   1.238  17.311 -1.9322  0.7439 -0.3005
  864MPD2    H312687   3.351   1.450  17.368 -0.9216  0.5910 -0.5886
  864MPD2     N12688   3.471   1.541  16.946 -0.3046  0.1522 -0.8144
  864MPD2    H512689   3.516   1.623  16.987  0.1748 -0.1471 -0.7505
  864MPD2    N112690   3.235   1.137  17.071 -0.4573  0.5268  0.3113
  864MPD2    H712691   3.227   1.085  17.158 -1.1182 -0.3258 -0.2546
  865MPD2     C12692   3.716   1.908  16.194  0.1916 -0.4477  0.1316
  865MPD2    C112693   3.655   1.816  16.272  0.7059  0.1179  0.6153
  865MPD2    C212694   3.614   1.855  16.399  0.9887  0.3057  0.5432
  865MPD2    C312695   3.628   1.989  16.448  1.0522  0.2442  0.1207
  865MPD2    C412696   3.674   2.082  16.353  0.5138  0.0565  0.5853
  865MPD2    C512697   3.730   2.033  16.239  0.7296 -0.5065  0.4917
  865MPD2     H12698   3.553   1.792  16.463  1.8266 -0.0076  1.0409
  865MPD2    H112699   3.690   2.189  16.365  0.2452 -0.0678  2.0983
  865MPD2    H212700   3.746   1.876  16.095  0.5046  1.3413 -0.3550
  865MPD2    H312701   3.787   2.095  16.171 -0.8439  1.9114  1.3971
  865MPD2     N12702   3.607   2.034  16.584  0.3899  0.2851  0.7224
  865MPD2    H512703   3.596   2.135  16.593 -0.5446  0.2086  0.4454
  865MPD2    N112704   3.621   1.696  16.206  0.0610  0.8580  0.5888
  865MPD2    H712705   3.664   1.685  16.114  3.3889  0.7590  2.1577
  866MPD2     C12706   4.690   2.525  11.233 -0.5376 -0.2444 -0.1889
  866MPD2    C112707   4.662   2.459  11.113 -0.0549  0.0945  0.7441
  866MPD2    C212708   4.534   2.456  11.057 -0.4221  0.2615 -0.2704
  866MPD2    C312709   4.436   2.539  11.109  1.0543  0.0957  0.0892
  866MPD2    C412710   4.474   2.614  11.215 -0.3791 -0.2401  0.0202
  866MPD2    C512711   4.594   2.601  11.278  0.2700  0.1917 -0.4029
  866MPD2     H12712   4.518   2.407  10.962  1.5218  2.0334 -1.5013
  866MPD2    H112713   4.414   2.691  11.262 -0.4796 -0.1135 -0.3136
  866MPD2    H212714   0.069   2.531  11.270 -1.1197 -1.0733  1.5163
  866MPD2    H312715   4.611   2.665  11.364 -0.6533  0.1065 -0.1504
  866MPD2     N12716   4.306   2.568  11.059  0.1029  0.0386 -0.3281
  866MPD2    H512717   4.259   2.651  11.096  1.1177  1.0015 -1.2287
  866MPD2    N112718   0.051   2.400  11.047  0.3002  0.2842  0.4679
  866MPD2    H712719   0.147   2.410  11.080  0.1307  0.6551  0.8542
  867MPD2     C12720   1.807   1.526  16.581  0.4412  0.8648 -0.0064
  867MPD2    C112721   1.900   1.460  16.659  0.0329  0.3303 -0.3240
  867MPD2    C212722   2.003   1.536  16.718  0.3329 -0.5386 -0.3621
  867MPD2    C312723   2.027   1.668  16.686 -0.1654  0.3290  0.3570
  867MPD2    C412724   1.927   1.734  16.613 -0.3445 -0.5713  0.6863
  867MPD2    C512725   1.822   1.661  16.563  0.5311 -0.4329  0.5058
  867MPD2     H12726   2.073   1.474  16.773  2.3163 -0.3112 -2.6458
  867MPD2    H112727   1.926   1.842  16.606 -1.0029 -0.5272  1.4902
  867MPD2    H212728   1.729   1.467  16.536  0.3432 -0.5321  2.0263
  867MPD2    H312729   1.749   1.710  16.499  0.8946  1.6036  1.6178
  867MPD2     N12730   2.133   1.748  16.731  0.5951 -0.0917 -0.3224
  867MPD2    H512731   2.136   1.845  16.701 -0.6611  0.5300  1.5420
  867MPD2    N112732   1.878   1.323  16.677 -0.4427  0.1131 -0.1186
  867MPD2    H712733   1.798   1.279  16.632  0.1723 -4.2028  3.0394
  868MPD2     C12734   3.665   1.291  12.966  0.4737  0.3220 -0.1821
  868MPD2    C112735   3.659   1.174  13.030 -0.3875 -0.2298  1.1363
  868MPD2    C212736   3.632   1.181  13.163 -0.3009  0.2378  0.5378
  868MPD2    C312737   3.605   1.297  13.234 -0.0954 -0.3487  0.3194
  868MPD2    C412738   3.589   1.411  13.164  0.2663 -0.1144  0.0228
  868MPD2    C512739   3.633   1.407  13.030 -0.2866  0.7947 -1.0108
  868MPD2     H12740   3.639   1.100  13.235 -0.1833 -0.3637 -0.1600
  868MPD2    H112741   3.575   1.511  13.205  0.6544  0.3795 -1.0307
  868MPD2    H212742   3.701   1.295  12.864  0.2766  1.1110 -0.2251
  868MPD2    H312743   3.644   1.503  12.981 -1.1556  0.9229 -0.9601
  868MPD2     N12744   3.572   1.292  13.374  0.3272  0.0558  0.1110
  868MPD2    H512745   3.580   1.205  13.426 -1.8130 -0.0994  0.1597
  868MPD2    N112746   3.690   1.059  12.958 -0.2412 -0.3030  0.3610
  868MPD2    H712747   3.697   1.067  12.857 -1.0272  1.9203  0.4907
  869MPD2     C12748   0.694   3.087   1.526 -0.4300  0.0352  0.1120
  869MPD2    C112749   0.565   3.073   1.555 -0.3509 -0.0114 -0.0513
  869MPD2    C212750   0.466   3.159   1.497  0.9622  0.5319 -0.5480
  869MPD2    C312751   0.499   3.254   1.399 -0.0086  0.3464  0.4124
  869MPD2    C412752   0.632   3.258   1.358  0.4616  0.0119 -0.1824
  869MPD2    C512753   0.723   3.182   1.430 -0.3786  0.2973  0.5912
  869MPD2     H12754   0.367   3.145   1.539  1.7094  0.3225  1.1510
  869MPD2    H112755   0.673   3.327   1.286 -0.2971  0.3389 -0.2922
  869MPD2    H212756   0.777   3.037   1.575  1.0569  0.9398 -1.4791
  869MPD2    H312757   0.826   3.198   1.402 -0.4084 -1.0829 -0.3369
  869MPD2     N12758   0.404   3.350   1.349  0.2488  0.7623  0.1819
  869MPD2    H512759   0.453   3.423   1.299  1.5513 -0.2767 -0.0681
  869MPD2    N112760   0.525   2.987   1.656  0.3939  0.2721 -0.0821
  869MPD2    H712761   0.600   2.937   1.702  0.3178 -0.6024 -0.9204
  870MPD2     C12762   4.411   1.987   2.115 -0.7558 -0.1434 -0.4510
  870MPD2    C112763   4.480   1.956   1.999 -0.1504 -0.9899 -0.0395
  870MPD2    C212764   4.424   1.994   1.880  0.2797 -0.6956  0.0953
  870MPD2    C312765   4.296   2.043   1.865  0.3344  0.2341  0.2253
  870MPD2    C412766   4.238   2.074   1.984  0.1079  0.4278 -0.4912
  870MPD2    C512767   4.294   2.044   2.102 -0.0806 -0.5363  0.3414
  870MPD2     H12768   4.462   1.937   1.796 -3.0377 -2.5955 -0.1329
  870MPD2    H112769   4.137   2.112   1.979 -0.4656 -0.9013  0.9209
  870MPD2    H212770   4.451   1.967   2.214  0.4339 -2.0215 -1.3019
  870MPD2    H312771   4.234   2.060   2.191  1.1432  2.1746  0.6903
  870MPD2     N12772   4.219   2.044   1.746 -0.2878  0.3066 -0.4468
  870MPD2    H512773   4.123   2.076   1.754  0.8270  3.8815 -1.7390
  870MPD2    N112774   4.594   1.879   2.013  0.5347 -0.5479 -0.8300
  870MPD2    H712775   4.620   1.844   2.105  1.1239  2.3870  0.1210
  871MPD2     C12776   0.954   1.644  16.353  0.3180 -0.4241  0.2931
  871MPD2    C112777   0.938   1.633  16.490 -0.2691  0.0137 -0.5915
  871MPD2    C212778   0.940   1.507  16.547  0.1764  0.5617  0.1160
  871MPD2    C312779   0.953   1.391  16.469  1.2685 -0.5382  0.1976
  871MPD2    C412780   0.968   1.404  16.333  0.0353  0.1903 -0.5268
  871MPD2    C512781   0.978   1.532  16.275 -0.2412 -0.4168 -0.2900
  871MPD2     H12782   0.922   1.497  16.653 -1.0028  3.1532  0.1422
  871MPD2    H112783   0.978   1.315  16.272 -1.0148  0.8092 -1.6161
  871MPD2    H212784   0.972   1.739  16.305 -1.5633  0.5289  1.4692
  871MPD2    H312785   0.995   1.537  16.168 -1.8676 -1.4497 -0.5842
  871MPD2     N12786   0.949   1.264  16.528  0.3756 -0.1844  0.3522
  871MPD2    H512787   0.935   1.258  16.628  0.4520  0.6708  0.4094
  871MPD2    N112788   0.913   1.750  16.568  0.5306 -0.7771  0.3909
  871MPD2    H712789   0.891   1.839  16.526 -3.8952 -2.4347 -0.8546
  872MPD2     C12790   1.272   0.005  13.508 -0.6299  0.1351 -0.4218
  872MPD2    C112791   1.341   4.660  13.609  0.4792  0.3363 -0.0654
  872MPD2    C212792   1.274   4.626  13.728  0.6898  0.3827  0.6696
  872MPD2    C312793   1.136   4.650  13.740 -0.0242  0.0009  0.2763
  872MPD2    C412794   1.070   4.707  13.634 -0.8397 -0.0626  0.3673
  872MPD2    C512795   1.135   0.020  13.519 -0.2549  0.2083 -0.0184
  872MPD2     H12796   1.333   4.583  13.807 -1.4897 -0.6313  1.7509
  872MPD2    H112797   0.967   0.017  13.647 -0.7508 -0.1523  1.2977
  872MPD2    H212798   1.322   0.038  13.418  1.8684 -1.3653  0.4155
  872MPD2    H312799   1.086   0.073  13.437 -0.8283  0.3631  0.4211
  872MPD2     N12800   1.065   4.624  13.858  0.1915 -0.4041 -0.0299
  872MPD2    H512801   0.969   4.656  13.860  0.2284 -0.3660  1.4619
  872MPD2    N112802   1.479   4.619  13.596  0.1608  0.3048  0.3535
  872MPD2    H712803   1.516   4.570  13.677  1.1386  3.1419  1.6162
  873MPD2     C12804   3.782   3.789   1.512 -0.0907  0.5587  0.1732
  873MPD2    C112805   3.651   3.810   1.530 -0.3418 -0.1269 -0.3768
  873MPD2    C212806   3.567   3.698   1.526 -0.4706  0.1372 -0.2051
  873MPD2    C312807   3.615   3.571   1.505 -0.0660  0.2453 -0.3034
  873MPD2    C412808   3.749   3.562   1.476  0.7915  0.4766 -0.0907
  873MPD2    C512809   3.833   3.666   1.491 -0.4195 -0.2605  0.7795
  873MPD2     H12810   3.461   3.710   1.546  0.1800 -0.4528  3.5764
  873MPD2    H112811   3.801   3.468   1.458 -1.1025 -0.8590  1.3050
  873MPD2    H212812   3.852   3.872   1.507 -0.9259  1.3611  1.6496
  873MPD2    H312813   3.940   3.659   1.478 -0.4719  1.9140 -0.8499
  873MPD2     N12814   3.532   3.452   1.510 -0.6376  0.1218 -0.0295
  873MPD2    H512815   3.433   3.466   1.528 -0.4711 -0.6416  1.5043
  873MPD2    N112816   3.600   3.942   1.542 -0.1255 -0.1180 -0.2070
  873MPD2    H712817   3.669   4.017   1.542  0.6106 -0.8144  1.1914
  874MPD2     C12818   3.631   4.443  16.356 -0.7283 -0.0749 -0.1544
  874MPD2    C112819   3.613   4.351  16.456 -0.4549 -0.3000  0.6891
  874MPD2    C212820   3.706   4.356  16.554  0.4281 -0.2856  0.6148
  874MPD2    C312821   3.825   4.435  16.543  0.0983  0.2521  0.1135
  874MPD2    C412822   3.847   4.512  16.435 -0.1392  0.2893 -0.3377
  874MPD2    C512823   3.750   4.517  16.341 -1.2567  0.3957  0.1349
  874MPD2     H12824   3.704   4.290  16.641 -4.0401 -0.0948  0.6424
  874MPD2    H112825   3.935   4.572  16.416 -1.1165  1.3268 -1.5617
  874MPD2    H212826   3.559   4.446  16.275  0.9573  0.6608 -1.6290
  874MPD2    H312827   3.779   4.577  16.255 -1.5167 -1.9368 -1.5936
  874MPD2     N12828   3.926   4.430  16.649  0.2037  0.3766 -0.0315
  874MPD2    H512829   3.908   4.371  16.730  2.9354 -0.6599 -0.1654
  874MPD2    N112830   3.502   4.257  16.450 -0.5536  0.3551 -0.1336
  874MPD2    H712831   3.450   4.253  16.363 -3.4042  2.0499  1.5235
  875MPD2     C12832   4.465   2.847  14.427 -0.0159 -0.3864  0.7938
  875MPD2    C112833   4.332   2.890  14.422  0.4212 -0.5132  0.5419
  875MPD2    C212834   4.270   2.949  14.524  0.5796 -0.8578 -0.0712
  875MPD2    C312835   4.347   2.951  14.641  0.3429  0.2837 -0.1039
  875MPD2    C412836   4.479   2.901  14.641  0.1355  0.4766 -0.1300
  875MPD2    C512837   4.546   2.870  14.529  0.9737  0.5137  0.0216
  875MPD2     H12838   4.164   2.973  14.523  1.3314  2.5640  2.2996
  875MPD2    H112839   4.528   2.906  14.738 -0.3766 -0.1751  0.1610
  875MPD2    H212840   4.512   2.798  14.343 -1.0431 -0.4512  0.2491
  875MPD2    H312841   4.651   2.841  14.530  0.3678 -1.7256 -0.6310
  875MPD2     N12842   4.291   2.985  14.768 -0.3026 -0.2735 -0.2794
  875MPD2    H512843   4.339   2.961  14.854 -1.4444  0.6756  0.6306
  875MPD2    N112844   4.254   2.855  14.311  0.2723 -0.5177 -0.2403
  875MPD2    H712845   4.160   2.893  14.301  0.2266 -0.5548  0.0662
  876MPD2     C12846   2.887   3.859  15.945 -1.3594 -0.0465  0.7654
  876MPD2    C112847   3.018   3.874  15.919 -0.1566  0.4996 -0.5432
  876MPD2    C212848   3.101   3.778  15.974 -0.1219  0.3263 -0.2951
  876MPD2    C312849   3.049   3.665  16.039 -0.4542 -0.6453  0.7191
  876MPD2    C412850   2.918   3.651  16.063 -0.2312 -0.5436  0.0993
  876MPD2    C512851   2.842   3.750  16.011 -0.4571 -0.0477 -0.3330
  876MPD2     H12852   3.209   3.788  15.964  0.1943 -1.1858  1.5803
  876MPD2    H112853   2.874   3.578  16.130 -2.6405 -1.1897 -2.1969
  876MPD2    H212854   2.811   3.920  15.897  0.3079  1.8681  0.5774
  876MPD2    H312855   2.735   3.742  16.025 -0.1924 -0.6082  1.3650
  876MPD2     N12856   3.144   3.564  16.073  0.6086 -0.6848  0.3260
  876MPD2    H512857   3.243   3.583  16.064  0.6884 -0.3185  1.9470
  876MPD2    N112858   3.064   3.983  15.834 -0.5383 -0.3709  0.1239
  876MPD2    H712859   2.992   4.045  15.800  0.7918  1.2032  0.1657
  877MPD2     C12860   2.852   4.354  15.193  0.2665  0.0152 -0.3515
  877MPD2    C112861   2.966   4.414  15.239  0.3760  0.1850 -0.4894
  877MPD2    C212862   3.027   4.515  15.166 -0.1417  0.4076  0.6683
  877MPD2    C312863   2.961   4.566  15.054  0.1501  0.3182 -0.3589
  877MPD2    C412864   2.842   4.510  15.015 -0.0211 -0.0812 -0.8567
  877MPD2    C512865   2.790   4.402  15.085 -0.2764 -0.0377 -0.0618
  877MPD2     H12866   3.116   4.562  15.204  0.7905  0.0481 -1.0538
  877MPD2    H112867   2.784   4.551  14.933  1.5051  1.1287 -1.3259
  877MPD2    H212868   2.808   4.281  15.261 -0.2223  0.6973  0.0681
  877MPD2    H312869   2.698   4.354  15.053 -2.4303  3.6807  0.6218
  877MPD2     N12870   3.017   4.670  14.969 -0.5728  0.2224 -0.0686
  877MPD2    H512871   2.956   4.718  14.905  0.4027  0.0076 -1.1627
  877MPD2    N112872   3.039   4.381  15.356 -0.2023  0.0157 -0.2371
  877MPD2    H712873   3.114   4.444  15.382  0.0126 -0.3914  0.1189
  878MPD2     C12874   3.289   3.406  12.999 -0.1974  0.6839 -0.2055
  878MPD2    C112875   3.244   3.526  13.060 -0.5407  0.2524  0.1924
  878MPD2    C212876   3.305   3.555  13.183  0.1791 -0.9630  0.1901
  878MPD2    C312877   3.405   3.479  13.247 -0.6596  0.7687 -0.0328
  878MPD2    C412878   3.459   3.379  13.171 -0.5706 -0.1760  0.1588
  878MPD2    C512879   3.389   3.335  13.058  0.2190  0.4686  0.0665
  878MPD2     H12880   3.259   3.637  13.239 -1.0760 -0.7056 -1.2258
  878MPD2    H112881   3.536   3.314  13.211 -1.2110 -0.8429  0.3107
  878MPD2    H212882   3.237   3.382  12.907 -0.3878  1.9393 -0.4279
  878MPD2    H312883   3.412   3.237  13.018 -0.3258  0.0125  0.8617
  878MPD2     N12884   3.447   3.528  13.376  0.1761 -0.8875 -0.2087
  878MPD2    H512885   3.411   3.614  13.415 -1.3538 -1.3547 -0.5851
  878MPD2    N112886   3.149   3.598  12.988  0.1042  0.1144 -0.4817
  878MPD2    H712887   3.109   3.561  12.901 -2.5070  1.6785  0.0495
  879MPD2     C12888   3.979   0.208  16.994  0.0116 -0.1282 -0.4324
  879MPD2    C112889   3.906   0.117  17.060  0.0956 -0.4885 -0.2359
  879MPD2    C212890   3.829   0.026  16.988  0.5985 -0.9091 -0.4995
  879MPD2    C312891   3.809   0.038  16.853 -0.3006 -0.1036  0.0001
  879MPD2    C412892   3.877   0.139  16.788 -0.2436  0.7550  1.2564
  879MPD2    C512893   3.964   0.222  16.858  0.9464  0.7045  0.0080
  879MPD2     H12894   3.764   4.680  17.042 -0.9889  1.0325  0.0605
  879MPD2    H112895   3.864   0.162  16.683  1.1933  1.3912  1.2289
  879MPD2    H212896   4.056   0.261  17.049 -0.5760 -0.6273  0.8887
  879MPD2    H312897   4.011   0.301  16.800  1.4949 -0.2283 -0.8160
  879MPD2     N12898   3.709   4.681  16.782  0.0436  0.1023 -0.3750
  879MPD2    H512899   3.672   0.003  16.698 -1.4104 -1.9556 -0.8318
  879MPD2    N112900   3.912   0.132  17.206  0.5715  0.6260 -0.2388
  879MPD2    H712901   3.983   0.187  17.252  1.4714 -0.2050 -0.6157
  880MPD2     C12902   0.463   2.142   0.449  0.4651  0.2277 -0.3243
  880MPD2    C112903   0.359   2.062   0.491 -0.0079  1.0567  0.3195
  880MPD2    C212904   0.385   1.928   0.493  0.1080  0.0267 -0.2914
  880MPD2    C312905   0.501   1.875   0.446 -0.4895  0.4358 -0.0209
  880MPD2    C412906   0.600   1.960   0.403 -0.2475  0.1348 -0.1478
  880MPD2    C512907   0.580   2.094   0.408  0.4182 -0.6344 -0.5556
  880MPD2     H12908   0.312   1.858   0.532 -0.9895  2.2537  1.6333
  880MPD2    H112909   0.699   1.923   0.380 -0.3448  0.6972 -1.4996
  880MPD2    H212910   0.455   2.250   0.445 -0.2404  0.1178 -1.6105
  880MPD2    H312911   0.661   2.157   0.376 -0.1829  1.1735  1.5130
  880MPD2     N12912   0.515   1.735   0.461  0.0513 -0.0802 -0.0940
  880MPD2    H512913   0.432   1.695   0.503  0.9528 -0.9933  0.8186
  880MPD2    N112914   0.236   2.123   0.519  0.2066 -0.5462  0.3584
  880MPD2    H712915   0.229   2.224   0.510  1.0128 -0.5062  0.2356
  881MPD2     C12916   4.653   2.808   0.033 -0.0362  0.3300  0.1871
  881MPD2    C112917   0.015   2.706   0.017 -0.2252  0.9921 -0.2367
  881MPD2    C212918   0.031   2.611   0.119  0.9313  0.2321 -0.7156
  881MPD2    C312919   4.680   2.616   0.237  0.3054 -1.0632 -0.5501
  881MPD2    C412920   4.594   2.724   0.254  0.1692  0.1553  0.3742
  881MPD2    C512921   4.591   2.823   0.154  0.3987 -0.1783  0.6547
  881MPD2     H12922   0.093   2.524   0.105 -1.0022 -1.5089  1.4123
  881MPD2    H112923   4.536   2.735   0.345  0.8953  1.1638  0.7237
  881MPD2    H212924   4.628   2.879  17.647 -0.8041 -1.9938 -1.6763
  881MPD2    H312925   4.523   2.906   0.170  2.2458  1.9361 -2.4787
  881MPD2     N12926   4.702   2.503   0.322  0.1695  0.5073 -0.5493
  881MPD2    H512927   0.055   2.439   0.301 -0.0718 -0.4033  1.3571
  881MPD2    N112928   0.067   2.685  17.577  0.2049 -0.1977  0.1941
  881MPD2    H712929   0.030   2.747  17.506  0.6398 -0.2592 -0.0871
  882MPD2     C12930   3.126   0.072  14.139 -0.3601 -0.0035  0.0510
  882MPD2    C112931   3.092   4.721  14.254  0.1576  0.6326  0.1617
  882MPD2    C212932   3.011   4.609  14.245  0.4969 -0.7000  0.0038
  882MPD2    C312933   2.969   4.559  14.125  0.9205 -0.5958  0.3152
  882MPD2    C412934   2.998   4.638  14.010 -0.3439 -0.1643  0.5196
  882MPD2    C512935   3.076   0.027  14.021  0.0976  0.4727  0.1074
  882MPD2     H12936   2.984   4.551  14.333 -0.8356 -0.1278 -0.0417
  882MPD2    H112937   2.951   4.613  13.915 -1.2486 -1.2995  1.2613
  882MPD2    H212938   3.179   0.166  14.150  0.3242 -0.2830 -0.8613
  882MPD2    H312939   3.087   0.086  13.931 -0.8655 -0.2691 -0.4817
  882MPD2     N12940   2.874   4.455  14.109  0.2052 -0.9214  0.1827
  882MPD2    H512941   2.823   4.442  14.022  2.8727  0.6345 -1.5923
  882MPD2    N112942   3.140   0.048  14.381 -0.0914  0.1343 -0.1432
  882MPD2    H712943   3.195   0.134  14.387  0.5862 -0.2919 -0.1955
  883MPD2     C12944   0.131   4.425  16.374  0.3349 -0.3256  0.2497
  883MPD2    C112945   0.212   4.329  16.307  0.3196  0.0097 -0.3790
  883MPD2    C212946   0.344   4.311  16.345 -0.3939 -0.2933 -0.1158
  883MPD2    C312947   0.399   4.373  16.454 -0.3361  0.0214  0.5963
  883MPD2    C412948   0.325   4.465  16.525 -0.4890  0.4104  0.6064
  883MPD2    C512949   0.194   4.480  16.488  0.4067  0.2956  0.1002
  883MPD2     H12950   0.402   4.238  16.291  1.3114  0.7605  0.3183
  883MPD2    H112951   0.358   4.514  16.616  0.4555  1.0771 -0.0924
  883MPD2    H212952   0.025   4.437  16.353  1.0579 -1.4189 -3.8899
  883MPD2    H312953   0.124   4.541  16.545 -3.1120 -0.2669 -3.5823
  883MPD2     N12954   0.542   4.348  16.481 -0.2761  0.1277  0.5119
  883MPD2    H512955   0.585   4.278  16.421  2.7007 -0.1074  2.9221
  883MPD2    N112956   0.177   4.273  16.181  0.7541  0.5017  0.3514
  883MPD2    H712957   0.255   4.226  16.136 -0.1453  0.0058 -0.6819
  884MPD2     C12958   2.247   0.338  15.134 -0.3026 -0.5369  0.7574
  884MPD2    C112959   2.218   0.464  15.088  0.7029 -0.0606  0.1337
  884MPD2    C212960   2.084   0.513  15.081  0.1350 -0.0488  0.0060
  884MPD2    C312961   1.977   0.439  15.120 -0.4243 -0.3853  0.8958
  884MPD2    C412962   2.007   0.314  15.177  0.1196 -0.7437  0.4371
  884MPD2    C512963   2.140   0.269  15.185  0.1520  0.4048 -0.2046
  884MPD2     H12964   2.062   0.611  15.041  0.9787 -0.6264 -1.8891
  884MPD2    H112965   1.924   0.261  15.222 -0.7131  1.9536  2.1103
  884MPD2    H212966   2.342   0.284  15.136 -1.2027 -2.0698  2.0151
  884MPD2    H312967   2.164   0.173  15.229  1.9878  1.2128  0.5587
  884MPD2     N12968   1.844   0.485  15.096 -1.1682 -0.0176  0.5102
  884MPD2    H512969   1.843   0.580  15.061  2.0077 -0.2575 -0.2326
  884MPD2    N112970   2.321   0.553  15.042  0.1049  0.4229  0.4120
  884MPD2    H712971   2.297   0.651  15.030  0.6678  0.2155 -2.3983
  885MPD2     C12972   0.697   0.833   0.307 -0.3004 -0.3049  0.0056
  885MPD2    C112973   0.671   0.701   0.279 -0.7793  0.3083 -0.8016
  885MPD2    C212974   0.623   0.667   0.155 -0.3283  0.3991 -0.5786
  885MPD2    C312975   0.596   0.759   0.054  0.3155 -0.2945 -0.0528
  885MPD2    C412976   0.620   0.893   0.083  0.2026  0.0371 -0.0853
  885MPD2    C512977   0.671   0.924   0.206  0.6406  0.0173 -0.3991
  885MPD2     H12978   0.593   0.567   0.125 -0.7684  0.2841  0.2669
  885MPD2    H112979   0.606   0.974   0.013  1.5470  1.6487  1.5247
  885MPD2    H212980   0.727   0.862   0.407 -1.5065 -0.7954  0.5147
  885MPD2    H312981   0.680   1.031   0.223  0.4946 -0.3230  1.7720
  885MPD2     N12982   0.534   0.722  17.625 -0.2564 -0.2600 -0.5197
  885MPD2    H512983   0.545   0.624  17.601 -2.0102 -1.0417  1.7921
  885MPD2    N112984   0.671   0.616   0.388  0.8155  0.2501 -0.0178
  885MPD2    H712985   0.710   0.656   0.472  1.8041 -0.5931 -0.0807
  886MPD2     C12986   1.533   3.736  14.873  1.2126  0.4410  0.1018
  886MPD2    C112987   1.667   3.737  14.918 -0.0905  0.4140 -0.2994
  886MPD2    C212988   1.755   3.821  14.855 -0.2072  0.0151  0.2424
  886MPD2    C312989   1.710   3.908  14.758  0.3380 -0.0856  0.7511
  886MPD2    C412990   1.582   3.899  14.705 -0.3045  0.4499 -0.2056
  886MPD2    C512991   1.501   3.804  14.763 -0.2168 -1.1933 -0.1815
  886MPD2     H12992   1.859   3.822  14.887 -0.6791 -3.0678  1.8830
  886MPD2    H112993   1.545   3.958  14.622 -0.1915 -0.8231 -1.1603
  886MPD2    H212994   1.462   3.660  14.904 -0.3715  1.7204 -0.4357
  886MPD2    H312995   1.403   3.788  14.721  0.3885 -1.0703 -1.6375
  886MPD2     N12996   1.801   3.993  14.691  0.1697 -0.1037 -0.0066
  886MPD2    H512997   1.753   4.038  14.613  0.7827 -2.4876 -1.7529
  886MPD2    N112998   1.721   3.663  15.017  0.5526 -0.0366  0.0900
  886MPD2    H712999   1.819   3.667  15.044  0.5806 -2.5893  0.3159
  887MPD2     C13000   2.358   3.408  15.236 -0.2165  0.4863  1.0283
  887MPD2    C113001   2.252   3.492  15.199 -0.0410  0.0102 -0.6021
  887MPD2    C213002   2.279   3.620  15.198 -0.6028  0.1930 -0.0795
  887MPD2    C313003   2.402   3.673  15.236 -0.3014  0.2249  0.0079
  887MPD2    C413004   2.501   3.586  15.273  0.1911 -0.6930 -0.9187
  887MPD2    C513005   2.481   3.453  15.263 -0.1850  0.4790 -0.5890
  887MPD2     H13006   2.205   3.699  15.189  0.3029  1.1174  0.6637
  887MPD2    H113007   2.605   3.618  15.281 -0.4457  0.9647  0.5928
  887MPD2    H213008   2.343   3.301  15.238  0.4650  0.3971  1.3467
  887MPD2    H313009   2.567   3.389  15.283  1.1439  2.3017 -0.4953
  887MPD2     N13010   2.420   3.814  15.222  0.0937 -0.1526 -0.3539
  887MPD2    H513011   2.343   3.872  15.193 -0.6216 -1.1697 -0.4771
  887MPD2    N113012   2.117   3.460  15.166  0.3486 -0.1503  0.9409
  887MPD2    H713013   2.060   3.539  15.142 -0.5386 -0.5290  1.8068
  888MPD2     C13014   4.326   3.880  14.736 -0.4508  0.4308  0.2880
  888MPD2    C113015   4.236   3.963  14.807  0.0004  0.7872  1.0094
  888MPD2    C213016   4.253   4.104  14.786 -0.0277 -0.7222  0.2249
  888MPD2    C313017   4.344   4.161  14.702 -0.2851  0.0978  0.1289
  888MPD2    C413018   4.426   4.074  14.634 -0.1650  0.1113 -0.5292
  888MPD2    C513019   4.413   3.941  14.650  0.2973 -0.1445  0.2217
  888MPD2     H13020   4.199   4.163  14.858  0.3717  0.1941 -0.2335
  888MPD2    H113021   4.498   4.106  14.560  0.4497  3.3062  1.4583
  888MPD2    H213022   4.333   3.773  14.755  1.0735  0.5557  0.4564
  888MPD2    H313023   4.477   3.874  14.594  0.6504 -0.5158  1.0749
  888MPD2     N13024   4.352   4.300  14.702  1.0390 -0.0116  0.4059
  888MPD2    H513025   4.305   4.334  14.786 -0.4477 -0.5817 -0.2094
  888MPD2    N113026   4.143   3.911  14.904 -0.0717  0.1999  0.3011
  888MPD2    H713027   4.101   3.977  14.970  0.4008  0.6877  0.1147
  889MPD2     C13028   4.062   3.779  12.769 -0.2250  0.3754 -0.0272
  889MPD2    C113029   3.956   3.705  12.817 -0.3338 -0.2872 -0.0560
  889MPD2    C213030   3.840   3.766  12.869  0.3569 -0.5900  0.2907
  889MPD2    C313031   3.824   3.897  12.861 -0.3578  0.2202  0.5638
  889MPD2    C413032   3.922   3.972  12.802 -0.7954 -0.0784 -0.1612
  889MPD2    C513033   4.041   3.916  12.767  0.0648  0.1332 -0.1075
  889MPD2     H13034   3.755   3.706  12.899  0.3877 -0.9071 -0.2656
  889MPD2    H113035   3.909   4.079  12.786  0.1183  0.1645  0.6791
  889MPD2    H213036   4.152   3.738  12.724  0.8104  2.0158  0.5132
  889MPD2    H313037   4.118   3.966  12.709  0.9317 -0.0930  0.8729
  889MPD2     N13038   3.705   3.956  12.899  0.5807 -0.1975  0.5879
  889MPD2    H513039   3.633   3.898  12.939 -0.9267  0.3953 -1.2997
  889MPD2    N113040   3.969   3.565  12.843  0.3049 -0.1957 -0.0316
  889MPD2    H713041   3.906   3.503  12.893  0.2928  0.6844  1.0733
  890MPD2     C13042   2.788   0.670  14.545  0.8399  0.0167  0.6190
  890MPD2    C113043   2.921   0.698  14.555 -0.7007  0.4906 -0.3295
  890MPD2    C213044   2.988   0.634  14.653 -0.4820  0.2392 -0.2374
  890MPD2    C313045   2.929   0.534  14.729 -0.9025  0.8726 -0.4347
  890MPD2    C413046   2.794   0.506  14.714  0.9106 -0.0329  0.0140
  890MPD2    C513047   2.727   0.572  14.616 -0.1187 -0.8583  0.0016
  890MPD2     H13048   3.092   0.659  14.674  0.5128 -1.5474 -3.0716
  890MPD2    H113049   2.730   0.462  14.790 -1.9809  1.0255 -1.8093
  890MPD2    H213050   2.729   0.724  14.471  0.1646 -0.6405  0.6816
  890MPD2    H313051   2.621   0.559  14.600  0.0102 -2.6134  0.5380
  890MPD2     N13052   3.011   0.470  14.831  0.1701  0.1812  0.6100
  890MPD2    H513053   3.103   0.507  14.850  0.7872  0.1263 -2.3346
  890MPD2    N113054   2.973   0.802  14.475  0.4187  0.3502 -0.0462
  890MPD2    H713055   2.907   0.861  14.424 -0.1029  0.1371  0.3766
  891MPD2     C13056   1.473   3.532  16.564  0.5947  0.1007 -0.3907
  891MPD2    C113057   1.421   3.536  16.686 -0.1042 -0.2345  0.2754
  891MPD2    C213058   1.500   3.514  16.798  0.0339 -0.5041  1.0229
  891MPD2    C313059   1.633   3.498  16.778  0.2972  0.2709  0.0640
  891MPD2    C413060   1.689   3.502  16.656 -0.4539  0.0572  0.0832
  891MPD2    C513061   1.607   3.519  16.547  0.8720 -0.2792 -0.0769
  891MPD2     H13062   1.455   3.519  16.897 -0.4422  0.2194  0.7740
  891MPD2    H113063   1.788   3.459  16.646 -0.1246  0.0769  3.0430
  891MPD2    H213064   1.412   3.553  16.476  0.3575 -2.2775 -0.7722
  891MPD2    H313065   1.644   3.511  16.445  1.0334  4.0778 -0.3771
  891MPD2     N13066   1.711   3.499  16.895 -0.4502  0.2316  0.7812
  891MPD2    H513067   1.660   3.487  16.982  0.2441 -1.9471  0.8909
  891MPD2    N113068   1.281   3.567  16.699 -0.2098 -0.0825  0.6347
  891MPD2    H713069   1.227   3.553  16.615  0.1849 -0.6667  0.4820
  892MPD2     C13070   2.343   0.216  14.282  0.0782 -0.6186 -0.1424
  892MPD2    C113071   2.261   0.114  14.326 -1.0689 -0.3165 -0.6044
  892MPD2    C213072   2.303   4.706  14.309 -0.0034  0.0663 -0.0743
  892MPD2    C313073   2.420   4.685  14.240  0.4382 -0.4006 -1.0142
  892MPD2    C413074   2.489   0.069  14.183  0.1908  0.1401 -0.8807
  892MPD2    C513075   2.451   0.190  14.208 -0.0371  0.2037  0.3608
  892MPD2     H13076   2.245   4.622  14.346  0.3385 -0.3064 -0.3900
  892MPD2    H113077   2.582   0.052  14.130  0.8999  1.2815 -0.0043
  892MPD2    H213078   2.309   0.318  14.299  0.7494 -0.4597  0.2633
  892MPD2    H313079   2.504   0.274  14.165 -1.7217  1.1425  0.1609
  892MPD2     N13080   2.474   4.561  14.211 -0.1999  0.1938 -0.2301
  892MPD2    H513081   2.566   4.558  14.169 -0.3884  0.7958 -0.6848
  892MPD2    N113082   2.129   0.147  14.364  0.7330 -0.3058  0.4036
  892MPD2    H713083   2.097   0.243  14.352 -0.2638 -0.7087 -0.1713
  893MPD2     C13084   3.651   2.284   1.542  0.1219  0.3529 -0.2162
  893MPD2    C113085   3.749   2.246   1.625  0.1125  0.1690  0.5759
  893MPD2    C213086   3.728   2.157   1.723  1.0926 -0.9003 -0.3558
  893MPD2    C313087   3.601   2.111   1.749 -0.6676  0.8812 -0.8761
  893MPD2    C413088   3.503   2.148   1.657  0.4967  0.4060  0.1912
  893MPD2    C513089   3.531   2.229   1.560  0.4079 -0.5753  0.0996
  893MPD2     H13090   3.807   2.133   1.794 -1.3469 -0.5420  2.5180
  893MPD2    H113091   3.404   2.112   1.680 -0.5227  4.8693  2.8009
  893MPD2    H213092   3.661   2.361   1.467 -0.8789  1.2365  0.5584
  893MPD2    H313093   3.447   2.258   1.499  1.3084 -2.4576 -2.0660
  893MPD2     N13094   3.572   2.009   1.844 -0.0052  0.4155  0.2669
  893MPD2    H513095   3.479   1.968   1.842 -1.0779  2.7850  1.9517
  893MPD2    N113096   3.868   2.318   1.613 -0.2448  0.5449  0.6548
  893MPD2    H713097   3.868   2.376   1.530  0.5631  0.2563  0.4527
  894MPD2     C13098   2.166   0.278   0.742 -0.3252 -0.1582 -0.3718
  894MPD2    C113099   2.118   0.366   0.835 -0.4675  0.6944 -0.1976
  894MPD2    C213100   2.168   0.495   0.840  0.1571  0.2318  0.3266
  894MPD2    C313101   2.259   0.540   0.743 -0.1682  0.0003  0.9800
  894MPD2    C413102   2.305   0.450   0.647  0.2171  0.0574 -0.0542
  894MPD2    C513103   2.262   0.325   0.648 -0.2237  0.4486  0.3735
  894MPD2     H13104   2.143   0.567   0.918 -0.7633 -1.1428  1.3007
  894MPD2    H113105   2.376   0.480   0.571  0.7013  0.9277  0.7447
  894MPD2    H213106   2.130   0.177   0.730 -0.4842 -0.2381  0.8329
  894MPD2    H313107   2.296   0.255   0.572 -0.7180  0.4416  0.1549
  894MPD2     N13108   2.301   0.678   0.758  0.4884 -0.1324 -0.5588
  894MPD2    H513109   2.256   0.745   0.819 -0.2344 -1.3409  0.2449
  894MPD2    N113110   2.023   0.325   0.934 -1.3074 -0.0134 -0.2088
  894MPD2    H713111   1.986   0.395   0.997  1.0617  1.5669 -0.5889
  895MPD2     C13112   1.732   4.075  13.762 -0.4451 -0.4108 -0.2776
  895MPD2    C113113   1.616   4.000  13.737  0.9095 -0.0673 -0.2919
  895MPD2    C213114   1.619   3.862  13.755 -0.2832  0.1975  0.8159
  895MPD2    C313115   1.735   3.799  13.782 -1.5096 -0.3002  0.2226
  895MPD2    C413116   1.852   3.875  13.814  1.4647  0.0714 -0.3848
  895MPD2    C513117   1.846   4.008  13.808  0.7729  0.1071  0.3177
  895MPD2     H13118   1.533   3.814  13.711  0.3712 -0.4599  0.2738
  895MPD2    H113119   1.945   3.829  13.846  0.9098  1.2331  2.8148
  895MPD2    H213120   1.724   4.181  13.782  1.4328 -0.4947  0.9671
  895MPD2    H313121   1.935   4.063  13.839 -0.4669  1.1994  1.9164
  895MPD2     N13122   1.742   3.658  13.761 -0.5226  0.4370 -0.6626
  895MPD2    H513123   1.657   3.605  13.741  0.1759 -1.1585  0.6420
  895MPD2    N113124   1.491   4.047  13.681 -0.0565 -0.0621 -0.1133
  895MPD2    H713125   1.425   3.970  13.669 -0.5166  0.1383  1.1378
  896MPD2     C13126   3.479   1.725   1.669  0.5003 -0.1102  0.2286
  896MPD2    C113127   3.530   1.600   1.706 -0.4366  0.2855  0.0656
  896MPD2    C213128   3.452   1.510   1.778 -0.1262  1.2300  0.4481
  896MPD2    C313129   3.317   1.544   1.805  0.2924  0.5525  0.5318
  896MPD2    C413130   3.269   1.662   1.764  0.3876  0.5381 -0.4817
  896MPD2    C513131   3.349   1.752   1.698 -0.0208 -0.0566  0.6112
  896MPD2     H13132   3.503   1.418   1.802 -1.3551  0.4391 -0.0138
  896MPD2    H113133   3.170   1.697   1.792  0.6993  1.1196 -0.0951
  896MPD2    H213134   3.535   1.801   1.615 -1.6740  0.8890 -0.5921
  896MPD2    H313135   3.310   1.849   1.671  1.8555 -0.3499 -3.1243
  896MPD2     N13136   3.240   1.449   1.879 -0.4437 -0.3747 -0.6068
  896MPD2    H513137   3.292   1.386   1.939  1.6858  2.1275  0.1698
  896MPD2    N113138   3.659   1.575   1.657 -0.3017 -0.2122 -0.2142
  896MPD2    H713139   3.697   1.642   1.591 -0.8886  0.9222  0.6006
  897MPD2     C13140   0.067   3.466   9.759  0.2446 -0.3984  0.2522
  897MPD2    C113141   4.680   3.532   9.820 -0.5873 -1.3774  0.1878
  897MPD2    C213142   4.618   3.467   9.929  0.5230 -0.6651  0.4508
  897MPD2    C313143   4.661   3.340   9.968  0.2932  0.8840  0.4078
  897MPD2    C413144   0.052   3.284   9.912  0.6362  0.3817  0.2412
  897MPD2    C513145   0.118   3.354   9.811  0.2832  0.0992 -0.1509
  897MPD2     H13146   4.522   3.500   9.967 -0.3460 -1.9392 -0.6346
  897MPD2    H113147   0.085   3.187   9.947 -0.6922 -0.0224  0.3970
  897MPD2    H213148   0.121   3.502   9.672  2.0355 -1.0231  1.1012
  897MPD2    H313149   0.205   3.308   9.766  0.9618  0.8135  0.4316
  897MPD2     N13150   4.581   3.275  10.067 -0.1940 -0.0149 -0.3726
  897MPD2    H513151   4.512   3.339  10.104 -1.3200 -1.5393  0.1510
  897MPD2    N113152   4.646   3.659   9.769 -0.1326  0.0742 -0.5657
  897MPD2    H713153   4.706   3.690   9.693 -1.2209 -0.4860 -1.6501
  898MPD2     C13154   1.976   3.750   0.780 -0.4015 -0.1869  0.0560
  898MPD2    C113155   2.063   3.846   0.731 -0.3228  0.0902 -0.7860
  898MPD2    C213156   2.085   3.850   0.592  0.0685 -0.0974 -0.1594
  898MPD2    C313157   2.014   3.772   0.504 -0.9044 -0.0876 -0.0681
  898MPD2    C413158   1.923   3.680   0.561 -0.7593 -0.1191 -0.1105
  898MPD2    C513159   1.913   3.664   0.693  0.6563  0.4802  0.6611
  898MPD2     H13160   2.165   3.912   0.554  0.0214  0.9552  1.4212
  898MPD2    H113161   1.854   3.626   0.498  1.5068 -0.6982 -2.1102
  898MPD2    H213162   1.952   3.734   0.884 -0.0180 -1.3304 -0.0416
  898MPD2    H313163   1.846   3.587   0.730 -0.3659 -0.1318 -2.4071
  898MPD2     N13164   2.041   3.787   0.365 -0.3258 -0.0750  0.0737
  898MPD2    H513165   2.074   3.877   0.331 -1.8875  0.1843 -0.7365
  898MPD2    N113166   2.140   3.933   0.817  0.9329 -0.2104  0.0639
  898MPD2    H713167   2.207   3.996   0.775  1.7158 -0.5268  0.8479
  899MPD2     C13168   2.511   4.471  17.437  0.3057  0.1918  0.4377
  899MPD2    C113169   2.574   4.551  17.530  0.4241 -0.6916 -0.1492
  899MPD2    C213170   2.593   4.499  17.660  0.3466  0.5829 -0.2329
  899MPD2    C313171   2.555   4.368  17.682 -0.5503 -0.7644  0.0706
  899MPD2    C413172   2.496   4.288  17.583  0.0636  0.1762 -0.0149
  899MPD2    C513173   2.475   4.343  17.458  0.0190 -0.3888 -0.1816
  899MPD2     H13174   2.641   4.557   0.046  1.2798  0.1403 -0.4739
  899MPD2    H113175   2.467   4.185  17.599 -3.2458  1.2049  0.6020
  899MPD2    H213176   2.496   4.507  17.336  1.2811 -0.5926  0.0146
  899MPD2    H313177   2.441   4.279  17.378 -1.4877  1.7857 -1.2678
  899MPD2     N13178   2.552   4.306   0.114 -0.0067  0.1628 -0.1832
  899MPD2    H513179   2.507   4.215   0.116 -0.3236  0.2929 -1.4143
  899MPD2    N113180   2.621   4.678  17.485  0.0201 -0.2295 -0.1158
  899MPD2    H713181   2.590   4.722  17.399  0.3613  0.7118  0.2360
  900MPD2     C13182   2.620   1.710  12.415 -0.3615 -0.4180  0.5842
  900MPD2    C113183   2.540   1.600  12.411 -0.2897 -0.1921  0.0171
  900MPD2    C213184   2.408   1.620  12.363 -0.1851 -0.4285  0.2853
  900MPD2    C313185   2.364   1.747  12.317  0.1439 -0.1903  0.4049
  900MPD2    C413186   2.450   1.856  12.333 -0.0005 -0.5809  0.3744
  900MPD2    C513187   2.575   1.831  12.387 -0.4575  0.9644 -0.2707
  900MPD2     H13188   2.339   1.537  12.350 -0.1065 -0.5014  0.3367
  900MPD2    H113189   2.429   1.959  12.304  0.0251 -0.4246  0.9152
  900MPD2    H213190   2.721   1.694  12.449 -0.3806 -1.0879  0.3087
  900MPD2    H313191   2.644   1.914  12.390  0.8125 -0.0103 -2.4170
  900MPD2     N13192   2.236   1.759  12.267  0.0793 -0.4101 -0.6847
  900MPD2    H513193   2.175   1.679  12.280 -1.4963  0.8960 -0.0713
  900MPD2    N113194   2.599   1.476  12.440 -0.4144  0.5217  0.3682
  900MPD2    H713195   2.699   1.466  12.451 -0.3681 -0.8068 -1.1969
  901MPD2     C13196   2.343   0.417  12.519  0.4417 -0.3455  0.4499
  901MPD2    C113197   2.479   0.424  12.496 -0.3023 -0.4672  0.2458
  901MPD2    C213198   2.523   0.549  12.458 -0.2704 -0.8150  0.4624
  901MPD2    C313199   2.439   0.656  12.457 -0.1577 -0.3880 -0.4105
  901MPD2    C413200   2.301   0.644  12.462 -0.0030 -0.1898  0.2851
  901MPD2    C513201   2.257   0.518  12.489 -0.2137 -0.8251  0.1097
  901MPD2     H13202   2.629   0.555  12.436 -0.1510  2.1522  1.7492
  901MPD2    H113203   2.228   0.720  12.437 -0.0849 -0.2883  0.2260
  901MPD2    H213204   2.296   0.323  12.548 -1.6614  0.4655 -0.3136
  901MPD2    H313205   2.150   0.498  12.487 -0.1545 -1.3150  1.7842
  901MPD2     N13206   2.496   0.779  12.414 -0.0117  0.2079  0.2411
  901MPD2    H513207   2.593   0.776  12.387 -0.4253 -2.8372 -0.8960
  901MPD2    N113208   2.556   0.307  12.502  0.2155  0.3841 -0.1656
  901MPD2    H713209   2.513   0.222  12.538  0.5144  0.5268  0.5164
  902MPD2     C13210   1.016   4.019  12.600  0.0141 -0.0688  0.2518
  902MPD2    C113211   1.087   4.131  12.557  0.6180 -0.6028 -0.1604
  902MPD2    C213212   1.223   4.117  12.518  0.1370  0.1412  0.3174
  902MPD2    C313213   1.280   3.987  12.511 -0.0805 -0.4844  0.1718
  902MPD2    C413214   1.207   3.878  12.559 -0.1502 -0.1064  0.3009
  902MPD2    C513215   1.082   3.900  12.610  0.1175 -0.0127  0.5574
  902MPD2     H13216   1.271   4.209  12.485 -2.3272  0.9196 -1.0991
  902MPD2    H113217   1.234   3.773  12.548  1.0197  0.4227 -1.8647
  902MPD2    H213218   0.912   4.026  12.631 -0.1429 -0.2036 -0.2300
  902MPD2    H313219   1.022   3.819  12.651 -0.3710  0.1880  0.2327
  902MPD2     N13220   1.411   3.953  12.460  0.2550 -0.2205 -0.1283
  902MPD2    H513221   1.432   3.853  12.459 -1.5173 -0.6045  0.3598
  902MPD2    N113222   1.030   4.260  12.538 -0.3638 -0.5026  0.2509
  902MPD2    H713223   1.087   4.326  12.486  2.2362 -2.9296  0.0466
  903MPD2     C13224   1.434   4.214  11.867  0.1673 -0.1485  0.2739
  903MPD2    C113225   1.445   4.083  11.912  0.2671 -0.4023 -0.3277
  903MPD2    C213226   1.333   4.005  11.926  0.2686 -0.2289 -0.3304
  903MPD2    C313227   1.218   4.057  11.869 -0.4636 -0.0759  0.4922
  903MPD2    C413228   1.215   4.174  11.802 -0.0176 -0.5132  0.4876
  903MPD2    C513229   1.322   4.257  11.803  0.0190  0.3020  0.7206
  903MPD2     H13230   1.335   3.907  11.972  0.1795 -0.8323 -1.6283
  903MPD2    H113231   1.123   4.202  11.753  0.5528  0.4733 -0.0229
  903MPD2    H213232   1.518   4.282  11.868 -0.0946  0.1893 -0.2807
  903MPD2    H313233   1.322   4.358  11.764 -0.7096 -0.1563 -0.4552
  903MPD2     N13234   1.107   3.970  11.894  0.2244 -0.0970 -0.2747
  903MPD2    H513235   1.122   3.889  11.953  1.0183  2.0247  2.3991
  903MPD2    N113236   1.571   4.040  11.970 -0.3166 -0.4539  0.1484
  903MPD2    H713237   1.640   4.111  11.990  0.1988 -1.0160  0.3915
  904MPD2     C13238   1.304   3.563  13.927 -0.2853 -0.1937 -0.3136
  904MPD2    C113239   1.326   3.447  14.005  0.1973 -0.0089  0.2449
  904MPD2    C213240   1.439   3.428  14.075  0.0740  0.3749 -0.1786
  904MPD2    C313241   1.544   3.518  14.062  0.4641 -0.8016 -0.3595
  904MPD2    C413242   1.517   3.639  14.001  0.0094  0.2198  0.5543
  904MPD2    C513243   1.399   3.659  13.935  0.1029 -0.2023 -0.5480
  904MPD2     H13244   1.448   3.338  14.135 -3.8735 -1.1297 -1.8240
  904MPD2    H113245   1.592   3.717  13.991  0.2999  0.0308  1.2752
  904MPD2    H213246   1.215   3.580  13.866  0.4897  0.5774 -1.2315
  904MPD2    H313247   1.389   3.756  13.888  1.7755 -0.3618 -1.1974
  904MPD2     N13248   1.662   3.487  14.135  0.3973  0.4754 -0.7186
  904MPD2    H513249   1.667   3.392  14.172 -1.3218 -0.9134 -4.0966
  904MPD2    N113250   1.215   3.370  14.007 -0.2895 -0.3651  0.7832
  904MPD2    H713251   1.141   3.393  13.943  0.8958  0.5159 -0.2641
  905MPD2     C13252   1.054   3.054  13.555 -0.4648  0.2563 -0.4187
  905MPD2    C113253   1.071   3.173  13.627 -0.6424  0.1377  0.0707
  905MPD2    C213254   1.200   3.225  13.635 -0.7314  0.6188 -0.0229
  905MPD2    C313255   1.309   3.147  13.582  0.1124  0.0160 -0.3844
  905MPD2    C413256   1.282   3.031  13.514  0.0948 -0.9760 -0.3370
  905MPD2    C513257   1.162   2.990  13.505  0.0012 -0.0835 -0.1289
  905MPD2     H13258   1.220   3.315  13.692  0.0787 -0.8831  2.0441
  905MPD2    H113259   1.360   2.965  13.478 -0.0105 -1.4348  0.2716
  905MPD2    H213260   0.959   3.006  13.535  0.4215 -1.7395  0.0473
  905MPD2    H313261   1.136   2.904  13.446 -0.6617 -1.0585  1.5751
  905MPD2     N13262   1.445   3.169  13.612  0.1210  0.3760  0.1450
  905MPD2    H513263   1.515   3.097  13.601  0.1791  0.6613 -1.4041
  905MPD2    N113264   0.965   3.237  13.696  0.1070 -0.0977 -0.2626
  905MPD2    H713265   0.886   3.181  13.725 -0.3700  1.0100  0.5629
  906MPD2     C13266   3.473   3.317  11.196  0.1891 -0.0963  0.3384
  906MPD2    C113267   3.435   3.218  11.114  1.0357  0.2020  0.4476
  906MPD2    C213268   3.388   3.095  11.165  0.1200  0.0893 -0.1182
  906MPD2    C313269   3.382   3.074  11.302  0.1229 -0.7799 -0.0190
  906MPD2    C413270   3.422   3.176  11.387 -0.0809 -0.0190 -0.0610
  906MPD2    C513271   3.454   3.297  11.330 -0.2597 -0.2863  0.2634
  906MPD2     H13272   3.356   3.021  11.093  1.6306 -2.1952  1.5470
  906MPD2    H113273   3.422   3.166  11.495 -0.3184 -0.5432 -0.1073
  906MPD2    H213274   3.505   3.415  11.162 -0.7203  0.4809  1.1111
  906MPD2    H313275   3.494   3.364  11.405  1.9094 -1.0841 -0.1868
  906MPD2     N13276   3.336   2.947  11.351 -0.3377 -0.0452  0.7862
  906MPD2    H513277   3.315   2.935  11.449 -1.2030  0.6161  0.6839
  906MPD2    N113278   3.420   3.233  10.971  0.1766 -0.6957 -0.1783
  906MPD2    H713279   3.381   3.151  10.925  0.2512 -1.6528  1.4622
  907MPD2     C13280   2.224   2.389  15.710 -0.0949 -0.5883  0.0404
  907MPD2    C113281   2.248   2.273  15.638 -0.5902 -0.1595  0.1406
  907MPD2    C213282   2.346   2.182  15.674  0.1325  0.4178 -0.2361
  907MPD2    C313283   2.422   2.189  15.788  0.4081 -0.0182  0.5517
  907MPD2    C413284   2.384   2.293  15.871  0.0363  0.0822 -0.4362
  907MPD2    C513285   2.292   2.390  15.831  0.9013  0.3589  0.4716
  907MPD2     H13286   2.351   2.092  15.613 -1.4876 -0.6003  1.1349
  907MPD2    H113287   2.431   2.301  15.968 -1.8397 -1.8932  0.6413
  907MPD2    H213288   2.150   2.467  15.696 -0.5208 -1.3346 -1.8988
  907MPD2    H313289   2.278   2.468  15.905 -3.1386 -0.6030  0.6815
  907MPD2     N13290   2.522   2.091  15.816  0.2370  0.6913  0.0307
  907MPD2    H513291   2.542   2.030  15.737  0.5148  0.9989 -0.1357
  907MPD2    N113292   2.177   2.247  15.525  0.4372  0.1347 -0.7294
  907MPD2    H713293   2.204   2.163  15.476  2.4286  0.7575 -0.6795
  908MPD2     C13294   4.453   3.611   8.994  0.2192  0.6210  0.1618
  908MPD2    C113295   4.392   3.553   9.098  0.2203  0.0477  0.2887
  908MPD2    C213296   4.387   3.616   9.219 -0.0697 -0.0827 -1.0490
  908MPD2    C313297   4.454   3.734   9.238 -0.0008  0.5212 -0.1820
  908MPD2    C413298   4.517   3.801   9.137  0.4798  0.4340 -0.1185
  908MPD2    C513299   4.509   3.734   9.015 -0.7942  0.2540 -0.4568
  908MPD2     H13300   4.340   3.564   9.301  2.1722 -1.8031 -0.8645
  908MPD2    H113301   4.569   3.896   9.134  1.6768 -0.2885 -3.3289
  908MPD2    H213302   4.461   3.576   8.892 -0.6772  1.1803 -0.1012
  908MPD2    H313303   4.528   3.792   8.925 -2.3866 -1.9187 -2.1688
  908MPD2     N13304   4.443   3.794   9.361  0.2907  0.0762  0.0334
  908MPD2    H513305   4.383   3.741   9.423  0.9957  0.6709  1.2363
  908MPD2    N113306   4.314   3.439   9.084  0.2534  0.3850  0.1712
  908MPD2    H713307   4.259   3.400   9.161  2.1762 -0.7364  0.9756
  909MPD2     C13308   0.455   1.016  11.605 -0.9072 -0.6512 -0.9823
  909MPD2    C113309   0.447   1.126  11.521  0.0406  0.2415  0.4525
  909MPD2    C213310   0.344   1.209  11.539 -0.7800  0.8744 -0.8342
  909MPD2    C313311   0.253   1.202  11.643  0.0217 -0.5461 -0.1785
  909MPD2    C413312   0.280   1.101  11.733 -0.2412 -0.5827  0.4349
  909MPD2    C513313   0.385   1.018  11.717  0.3543 -0.6554  0.2877
  909MPD2     H13314   0.322   1.285  11.466 -0.3604  3.3873  1.6327
  909MPD2    H113315   0.216   1.081  11.817  1.8109 -1.5950  1.7520
  909MPD2    H213316   0.522   0.931  11.593 -1.2644 -1.0412 -0.1541
  909MPD2    H313317   0.393   0.930  11.779 -0.3933 -1.6983 -1.0785
  909MPD2     N13318   0.143   1.292  11.641  0.0026 -0.1150 -0.6821
  909MPD2    H513319   0.125   1.346  11.557  1.5559  0.0040 -0.9351
  909MPD2    N113320   0.520   1.144  11.399 -0.2718  0.2446  0.2798
  909MPD2    H713321   0.510   1.239  11.363 -1.4670  0.2094  0.5404
  910MPD2     C13322   1.709   2.649  16.100 -0.4590  0.9115  0.0107
  910MPD2    C113323   1.786   2.616  15.990  0.4699 -0.5704 -0.5216
  910MPD2    C213324   1.766   2.684  15.869  0.1148 -0.1076  0.7087
  910MPD2    C313325   1.666   2.777  15.861 -0.1216  0.6490 -0.3017
  910MPD2    C413326   1.598   2.813  15.977 -0.4679 -0.4395 -0.2531
  910MPD2    C513327   1.614   2.750  16.094  0.2485  0.4983 -0.3931
  910MPD2     H13328   1.810   2.652  15.775 -0.1494  1.4241  0.0639
  910MPD2    H113329   1.520   2.888  15.969 -1.4737 -1.3922  0.6030
  910MPD2    H213330   1.718   2.598  16.196 -0.3748 -0.0854 -0.5263
  910MPD2    H313331   1.567   2.782  16.187  1.1287  0.9039 -0.0880
  910MPD2     N13332   1.614   2.842  15.747 -0.1731  0.4864  0.9221
  910MPD2    H513333   1.530   2.899  15.754 -0.4143 -0.1082  2.8087
  910MPD2    N113334   1.874   2.504  15.996 -0.3324 -0.4657 -1.1098
  910MPD2    H713335   1.929   2.473  15.916  2.2476 -3.5099  1.8234
  911MPD2     C13336   4.401   3.987  16.924  0.7715  0.2132  0.2106
  911MPD2    C113337   4.360   3.876  16.850  0.2007  0.1597 -0.0384
  911MPD2    C213338   4.248   3.888  16.776  0.1815  0.4672 -0.6219
  911MPD2    C313339   4.184   4.019  16.760  0.7924 -0.8048 -0.0795
  911MPD2    C413340   4.232   4.124  16.832 -0.1081 -0.3013 -0.1546
  911MPD2    C513341   4.337   4.107  16.917  0.3108  0.2394 -0.1137
  911MPD2     H13342   4.205   3.800  16.729  0.3330  1.1645 -2.0779
  911MPD2    H113343   4.178   4.217  16.827  1.6324  0.7584  0.7859
  911MPD2    H213344   4.500   3.995  16.967  0.6831  1.9332  0.1140
  911MPD2    H313345   4.380   4.193  16.967  1.0045  1.6067 -3.0339
  911MPD2     N13346   4.070   4.051  16.686  0.3444  0.3808  0.0282
  911MPD2    H513347   4.031   4.144  16.697  0.5590  0.3709  0.8949
  911MPD2    N113348   4.440   3.760  16.870  0.4003 -0.4152  0.0151
  911MPD2    H713349   4.536   3.777  16.899  0.0951 -0.0685  0.8109
  912MPD2     C13350   3.368   3.721  16.341  0.3861 -0.3684 -0.7128
  912MPD2    C113351   3.485   3.684  16.402 -0.3220  0.1227 -0.9133
  912MPD2    C213352   3.494   3.578  16.485 -0.8365 -0.5247  0.3366
  912MPD2    C313353   3.382   3.506  16.515  0.3992 -0.1921 -0.2402
  912MPD2    C413354   3.260   3.545  16.460 -0.1871 -0.2955 -0.5768
  912MPD2    C513355   3.252   3.644  16.361 -0.3010  0.4554  0.2995
  912MPD2     H13356   3.591   3.550  16.525 -0.5917 -0.1309  0.0288
  912MPD2    H113357   3.172   3.486  16.480 -0.5197  0.0425 -1.0386
  912MPD2    H213358   3.355   3.812  16.282 -0.9564 -0.3391 -0.3789
  912MPD2    H313359   3.158   3.655  16.309 -0.1010  0.4259 -0.0673
  912MPD2     N13360   3.382   3.401  16.607  0.1242 -0.0614  0.7462
  912MPD2    H513361   3.291   3.360  16.629 -0.4135 -0.1808 -1.7489
  912MPD2    N113362   3.598   3.763  16.407 -0.5441  0.7803  0.1151
  912MPD2    H713363   3.680   3.735  16.460 -0.7663 -1.6900 -0.8445
  913MPD2     C13364   4.166   0.423   9.388 -0.4748 -0.6354  0.2885
  913MPD2    C113365   4.181   0.549   9.431  0.1140  0.3573  0.2824
  913MPD2    C213366   4.155   0.656   9.340 -0.0208 -0.0736  0.0155
  913MPD2    C313367   4.119   0.627   9.209  0.3496 -0.0075  0.3934
  913MPD2    C413368   4.090   0.498   9.169  0.0583 -0.6392 -0.2404
  913MPD2    C513369   4.118   0.404   9.265  0.1910 -0.1901 -0.0965
  913MPD2     H13370   4.155   0.759   9.373 -1.6341  0.1393 -0.6394
  913MPD2    H113371   4.057   0.473   9.068  1.0418 -0.2885 -0.6451
  913MPD2    H213372   4.191   0.333   9.444 -0.4489 -0.9460 -0.2264
  913MPD2    H313373   4.110   0.302   9.228  1.0574  0.7482 -2.8998
  913MPD2     N13374   4.084   0.729   9.120  0.3239 -0.2381 -0.1149
  913MPD2    H513375   4.042   0.705   9.031  0.2162  1.3389 -0.5034
  913MPD2    N113376   4.215   0.574   9.561  0.0308 -0.3754 -0.1151
  913MPD2    H713377   4.225   0.489   9.616  0.8189  2.1366  3.6353
  914MPD2     C13378   2.258   4.513  11.872  0.3322 -0.3289  0.5667
  914MPD2    C113379   2.277   4.646  11.900 -0.2505  0.1711 -0.3386
  914MPD2    C213380   2.355   4.688  12.009 -0.5721  0.4578 -0.0136
  914MPD2    C313381   2.420   4.597  12.090  0.2958 -0.6162 -0.2600
  914MPD2    C413382   2.400   4.461  12.062  0.1885  0.3555 -0.0610
  914MPD2    C513383   2.320   4.421  11.957 -0.4325  0.1947 -0.4834
  914MPD2     H13384   2.384   0.068  12.026 -1.2563  1.0205 -2.2239
  914MPD2    H113385   2.462   4.387  12.113  0.7770  0.5480 -0.5020
  914MPD2    H213386   2.201   4.481  11.785  1.0148 -0.0369  0.0171
  914MPD2    H313387   2.316   4.315  11.931  2.1023  0.0102 -0.1404
  914MPD2     N13388   2.509   4.645  12.188 -0.2521  0.2616  0.2198
  914MPD2    H513389   2.520   0.023  12.193  0.4758  0.2566 -1.6179
  914MPD2    N113390   2.220   0.020  11.809 -0.4696  0.8103  0.3102
  914MPD2    H713391   2.173   4.711  11.725  0.1020  1.2427 -0.1676
  915MPD2     C13392   0.836   0.578  15.758  0.3404  0.4130 -0.6145
  915MPD2    C113393   0.720   0.575  15.686 -0.4159  0.7738  0.8375
  915MPD2    C213394   0.602   0.634  15.738  0.4828 -0.2666 -0.1688
  915MPD2    C313395   0.611   0.678  15.871  0.0731 -0.3326  0.2163
  915MPD2    C413396   0.733   0.685  15.941 -0.0244 -0.6524  0.3362
  915MPD2    C513397   0.847   0.639  15.883 -0.3257  0.4197  0.1306
  915MPD2     H13398   0.507   0.646  15.688  1.6840 -0.8573 -2.6032
  915MPD2    H113399   0.740   0.724  16.042  1.6777 -1.7125  0.6231
  915MPD2    H213400   0.927   0.535  15.718 -0.4889  0.3338 -2.4339
  915MPD2    H313401   0.935   0.640  15.946  0.6715 -1.5867 -1.2645
  915MPD2     N13402   0.495   0.701  15.940 -0.2017  0.4975 -0.2792
  915MPD2    H513403   0.407   0.669  15.900 -0.2630  3.7362 -2.6955
  915MPD2    N113404   0.717   0.534  15.549 -0.3598 -0.1511 -0.4557
  915MPD2    H713405   0.798   0.486  15.512 -0.6766 -1.4909  0.5859
  916MPD2     C13406   3.615   3.439  15.669 -0.6797  0.7789 -0.5863
  916MPD2    C113407   3.575   3.316  15.712 -0.1063 -0.2805 -0.6807
  916MPD2    C213408   3.603   3.205  15.628  0.3209 -0.1737 -0.8433
  916MPD2    C313409   3.683   3.217  15.514 -0.0738  0.6376  0.2202
  916MPD2    C413410   3.731   3.338  15.480 -0.6199  0.8331  0.9168
  916MPD2    C513411   3.688   3.447  15.553  0.8877 -0.2034  0.2347
  916MPD2     H13412   3.557   3.112  15.658  2.8355 -0.2756  2.6817
  916MPD2    H113413   3.791   3.355  15.392 -1.6571 -1.9677 -0.3208
  916MPD2    H213414   3.591   3.533  15.718 -0.5307  0.2607  0.4859
  916MPD2    H313415   3.732   3.539  15.517 -1.3088  0.3872 -0.9399
  916MPD2     N13416   3.723   3.099  15.452 -0.2288  0.3299  0.3336
  916MPD2    H513417   3.695   3.014  15.501  1.6574 -0.0565  0.7364
  916MPD2    N113418   3.490   3.310  15.831  0.3517 -0.4854 -0.2055
  916MPD2    H713419   3.469   3.394  15.885  3.7573 -0.4981  1.1664
  917MPD2     C13420   3.513   1.267  10.526 -0.5446 -0.2846  0.1127
  917MPD2    C113421   3.578   1.333  10.626 -0.1029  0.3961 -0.0977
  917MPD2    C213422   3.696   1.402  10.595 -0.2695 -0.6938 -0.3628
  917MPD2    C313423   3.749   1.402  10.466 -0.0006  0.3056  0.6956
  917MPD2    C413424   3.682   1.322  10.371 -0.5435  0.5458 -0.1892
  917MPD2    C513425   3.560   1.264  10.399 -0.7897 -0.9484 -0.5747
  917MPD2     H13426   3.751   1.465  10.664  2.0446 -1.4518 -1.5366
  917MPD2    H113427   3.728   1.312  10.274  0.9566  2.4150  0.3486
  917MPD2    H213428   3.424   1.210  10.549  0.2470 -1.5431  0.0435
  917MPD2    H313429   3.500   1.205  10.330 -2.4871  1.2135 -0.9791
  917MPD2     N13430   3.869   1.468  10.422  0.7704 -0.3128 -0.4228
  917MPD2    H513431   3.879   1.472  10.321 -0.1504 -0.1508 -0.5110
  917MPD2    N113432   3.530   1.314  10.752 -0.1582  0.1185  0.3358
  917MPD2    H713433   3.463   1.240  10.766  0.0792 -0.0339  0.6521
  918MPD2     C13434   3.750   1.526  11.807  0.1591 -0.6081 -0.5042
  918MPD2    C113435   3.790   1.396  11.770 -0.2091  0.6130  0.2837
  918MPD2    C213436   3.753   1.348  11.648 -0.5675 -0.5851  0.3488
  918MPD2    C313437   3.690   1.433  11.554  0.3281 -0.4364  0.4010
  918MPD2    C413438   3.660   1.565  11.592  0.6445  0.2857  0.1880
  918MPD2    C513439   3.696   1.613  11.715  0.1024  0.1863 -0.2509
  918MPD2     H13440   3.771   1.245  11.618  1.4375  0.4285 -1.9738
  918MPD2    H113441   3.613   1.635  11.524  0.1054 -0.2195  0.0451
  918MPD2    H213442   3.788   1.573  11.897  1.9540 -0.2408 -1.4326
  918MPD2    H313443   3.680   1.714  11.751  2.8845  0.5596 -0.0659
  918MPD2     N13444   3.644   1.379  11.436  0.3537 -0.4780  0.4810
  918MPD2    H513445   3.658   1.279  11.430  0.1553 -0.4567 -0.3301
  918MPD2    N113446   3.873   1.306  11.847  0.1663 -0.1624 -0.1700
  918MPD2    H713447   3.909   1.219  11.808 -2.5497 -2.0013  1.4631
  919MPD2     C13448   4.013   0.529  11.294 -0.6722 -0.1001 -0.1866
  919MPD2    C113449   4.033   0.404  11.236 -0.5202 -0.2925 -0.2088
  919MPD2    C213450   4.037   0.404  11.098  0.2814 -0.2449  0.8963
  919MPD2    C313451   4.015   0.516  11.019  0.1172 -0.5767  0.3250
  919MPD2    C413452   3.984   0.634  11.082 -0.0933 -0.1913  0.3607
  919MPD2    C513453   4.012   0.637  11.213  0.2826 -0.1334 -0.1346
  919MPD2     H13454   4.037   0.304  11.055  0.2765  0.8288 -1.5875
  919MPD2    H113455   3.969   0.728  11.032 -0.6951  0.6179  2.0550
  919MPD2    H213456   4.008   0.542  11.401 -1.9656  1.8278 -0.4832
  919MPD2    H313457   3.990   0.729  11.265 -1.3676 -0.0817 -0.9277
  919MPD2     N13458   4.001   0.515  10.879 -0.3955  1.1300  0.0871
  919MPD2    H513459   3.990   0.605  10.834  0.6847  1.5841  0.7540
  919MPD2    N113460   4.062   0.281  11.305 -0.6975 -0.0535  0.1285
  919MPD2    H713461   4.087   0.214  11.232 -0.9814 -1.1044  0.9962
  920MPD2     C13462   3.996   0.891   9.918 -0.1596  0.6086  0.2037
  920MPD2    C113463   3.876   0.845   9.958 -0.2757  0.3305  0.3398
  920MPD2    C213464   3.859   0.797  10.088  0.2027  0.0852 -0.0876
  920MPD2    C313465   3.964   0.791  10.179  0.0001  0.6659 -0.1872
  920MPD2    C413466   4.082   0.849  10.145  0.4962  0.6173 -0.2469
  920MPD2    C513467   4.095   0.907  10.017  0.0763 -0.4393  0.4153
  920MPD2     H13468   3.763   0.752  10.109  1.0073 -2.0164 -0.9011
  920MPD2    H113469   4.157   0.855  10.222 -2.2672 -0.1685  2.5259
  920MPD2    H213470   4.015   0.933   9.820 -0.1057 -0.9658 -0.4533
  920MPD2    H313471   4.186   0.957   9.989 -0.2833 -1.2538 -2.2048
  920MPD2     N13472   3.942   0.721  10.296 -0.6963  0.4824 -0.1255
  920MPD2    H513473   3.850   0.678  10.292 -0.2947 -0.4406  0.7922
  920MPD2    N113474   3.761   0.835   9.874  0.0882  0.0709  0.8126
  920MPD2    H713475   3.689   0.771   9.907 -1.8093  0.9624 -1.5780
  921MPD2     C13476   0.564   3.688  17.234  0.8872 -0.5366  0.7747
  921MPD2    C113477   0.556   3.701  17.096  0.1899  0.0285 -0.2731
  921MPD2    C213478   0.433   3.683  17.037  0.2837 -0.3744  0.3569
  921MPD2    C313479   0.314   3.652  17.110  0.2350  0.2642 -0.0555
  921MPD2    C413480   0.329   3.640  17.249 -0.4457  0.2524 -0.0213
  921MPD2    C513481   0.451   3.659  17.303 -0.9412 -0.5206  0.1612
  921MPD2     H13482   0.435   3.694  16.929 -1.8144  0.6116  0.4172
  921MPD2    H113483   0.254   3.609  17.322 -0.5925  2.0503  0.5816
  921MPD2    H213484   0.658   3.695  17.287  0.4875 -0.8470  1.5252
  921MPD2    H313485   0.462   3.631  17.407 -1.3098  0.2607  0.4150
  921MPD2     N13486   0.181   3.619  17.056 -0.6378  0.0180 -0.5570
  921MPD2    H513487   0.102   3.591  17.114 -1.9410  0.5384 -2.0669
  921MPD2    N113488   0.664   3.704  17.007  0.0481 -0.9854 -0.1891
  921MPD2    H713489   0.655   3.708  16.906  1.1377  1.8385 -0.1746
  922MPD2     C13490   1.316   0.924  17.176  0.3472  0.1026  0.2122
  922MPD2    C113491   1.298   1.062  17.172  0.3453  0.0533 -1.1594
  922MPD2    C213492   1.186   1.119  17.224  0.8699  0.0297  0.1838
  922MPD2    C313493   1.089   1.043  17.283  0.5591  0.1129 -0.4748
  922MPD2    C413494   1.115   0.907  17.293 -0.1398 -0.0338 -0.0403
  922MPD2    C513495   1.223   0.845  17.247  0.7275 -0.4150 -0.6942
  922MPD2     H13496   1.164   1.225  17.213 -1.3758 -0.4896 -0.4339
  922MPD2    H113497   1.045   0.840  17.341 -0.4598 -1.1763 -2.1168
  922MPD2    H213498   1.401   0.867  17.140 -0.5357 -0.7427 -0.5352
  922MPD2    H313499   1.233   0.738  17.255  0.5402 -0.3194  0.9216
  922MPD2     N13500   0.966   1.106  17.328 -1.3153 -0.2207 -0.1244
  922MPD2    H513501   0.955   1.206  17.311  0.4858  0.3245  1.8793
  922MPD2    N113502   1.394   1.145  17.107  0.5562 -0.3290  0.3482
  922MPD2    H713503   1.385   1.244  17.124 -1.0731 -0.4981  0.4704
  923MPD2     C13504   1.911   3.008   9.341  0.4690 -0.5676  0.1916
  923MPD2    C113505   1.901   3.107   9.441 -0.4126  0.7824  0.7847
  923MPD2    C213506   2.009   3.127   9.526  0.0208 -0.1285 -0.5510
  923MPD2    C313507   2.129   3.064   9.499  0.6879  0.4619  0.3673
  923MPD2    C413508   2.139   2.969   9.398  0.9975 -0.0329 -0.9731
  923MPD2    C513509   2.031   2.940   9.326 -0.3611 -0.2213  0.4866
  923MPD2     H13510   2.006   3.205   9.601  0.7817 -2.2214  1.6354
  923MPD2    H113511   2.230   2.913   9.378  0.3750 -1.6537  0.6879
  923MPD2    H213512   1.828   2.978   9.278 -0.1781  1.9717 -0.1967
  923MPD2    H313513   2.043   2.869   9.245 -1.6047 -0.4483  0.4892
  923MPD2     N13514   2.252   3.087   9.569 -0.2329 -0.9732  0.3511
  923MPD2    H513515   2.340   3.047   9.538  1.1966  0.9288  1.9462
  923MPD2    N113516   1.778   3.179   9.446 -0.4556  0.0244 -0.2247
  923MPD2    H713517   1.701   3.149   9.388  0.0723  1.1895 -1.5287
  924MPD2     C13518   2.676   1.394  15.398  0.4432 -0.7005  0.4583
  924MPD2    C113519   2.635   1.376  15.529 -0.4462 -0.8646 -0.3644
  924MPD2    C213520   2.684   1.465  15.631  0.3587  0.3040  0.1920
  924MPD2    C313521   2.761   1.573  15.591 -0.6930  0.2278 -0.9993
  924MPD2    C413522   2.792   1.595  15.458 -0.2085 -0.3460 -0.6915
  924MPD2    C513523   2.753   1.502  15.361 -0.4358 -0.4364  0.2712
  924MPD2     H13524   2.666   1.447  15.736 -1.4318 -0.1438 -0.1789
  924MPD2    H113525   2.863   1.668  15.420  2.8173 -2.6357  0.5391
  924MPD2    H213526   2.657   1.325  15.317  2.1827  2.4041 -2.6029
  924MPD2    H313527   2.786   1.517  15.259 -0.0795 -1.2692  0.2636
  924MPD2     N13528   2.803   1.659  15.695  0.4829 -0.1599  0.6034
  924MPD2    H513529   2.791   1.636  15.793  0.1607 -0.4522  0.4960
  924MPD2    N113530   2.561   1.261  15.556 -0.0883  0.8527  0.5009
  924MPD2    H713531   2.527   1.205  15.479  2.3223  1.5512 -1.0621
  925MPD2     C13532   1.161   4.470  14.670  0.8636 -0.2158  0.9884
  925MPD2    C113533   1.027   4.450  14.643  0.1856  0.2335  0.1081
  925MPD2    C213534   0.960   4.366  14.728 -0.0875 -0.4645 -0.0793
  925MPD2    C313535   1.027   4.313  14.839 -0.3645 -0.0748  1.0535
  925MPD2    C413536   1.151   4.336  14.866  0.5289  0.5746  0.3310
  925MPD2    C513537   1.219   4.429  14.788 -0.1183 -0.2278  0.1831
  925MPD2     H13538   0.856   4.342  14.710 -1.0889  3.6109  0.1538
  925MPD2    H113539   1.204   4.288  14.946 -0.1502  1.9909  1.6382
  925MPD2    H213540   1.231   4.523  14.606 -2.1446 -0.1472 -2.2248
  925MPD2    H313541   1.324   4.448  14.810 -0.0086 -1.0156  0.3527
  925MPD2     N13542   0.965   4.206  14.914  0.3668 -0.2005 -0.9987
  925MPD2    H513543   1.033   4.153  14.967  1.5805  0.6362 -1.7304
  925MPD2    N113544   0.963   4.504  14.528  0.8644 -0.4930  0.3413
  925MPD2    H713545   0.871   4.471  14.498  0.4042 -0.2480  1.4626
  926MPD2     C13546   0.299   2.820  13.900 -0.0378 -0.0469  0.1234
  926MPD2    C113547   0.232   2.867  13.793 -0.3459  0.6112 -0.1417
  926MPD2    C213548   0.286   2.857  13.665  0.1254 -0.5576  0.3338
  926MPD2    C313549   0.410   2.797  13.655  0.2225  0.6714  0.7029
  926MPD2    C413550   0.473   2.740  13.763 -0.1724 -0.2787  0.9044
  926MPD2    C513551   0.418   2.755  13.887 -0.0858 -0.6855  0.0104
  926MPD2     H13552   0.229   2.895  13.580 -1.1487 -0.3400  1.2857
  926MPD2    H113553   0.571   2.697  13.752 -1.0376 -2.0583  0.0928
  926MPD2    H213554   0.257   2.828  14.000  1.2650 -0.1707  0.6830
  926MPD2    H313555   0.477   2.709  13.965 -0.7796 -1.0983  0.2906
  926MPD2     N13556   0.488   2.805  13.535  0.2189  0.1486 -0.0408
  926MPD2    H513557   0.576   2.755  13.530  0.0744 -0.2022  0.8250
  926MPD2    N113558   0.091   2.909  13.795  0.0016 -0.0741  0.1232
  926MPD2    H713559   0.045   2.928  13.706  2.0666 -2.1755 -1.3740
  927MPD2     C13560   4.685   0.010   0.365  0.5020  0.1507  0.5143
  927MPD2    C113561   4.696   0.149   0.356 -0.7351 -0.2126 -0.2697
  927MPD2    C213562   0.052   0.197   0.256  0.6551  0.3412 -0.5342
  927MPD2    C313563   0.115   0.115   0.165 -0.4057 -0.5776 -0.2624
  927MPD2    C413564   0.090   4.698   0.168 -0.0438 -0.1627 -0.6866
  927MPD2    C513565   0.020   4.646   0.272 -0.3085  0.2628  0.5923
  927MPD2     H13566   0.061   0.303   0.237 -0.4183  0.2707 -1.4250
  927MPD2    H113567   0.126   4.621   0.102  1.6653  0.5513 -0.5936
  927MPD2    H213568   4.624   4.685   0.441  0.4152 -0.6574 -0.0606
  927MPD2    H313569   0.012   4.541   0.294  0.0099  0.2400  0.5954
  927MPD2     N13570   0.187   0.181   0.057  0.0446  0.1525 -0.1056
  927MPD2    H513571   0.219   0.277   0.067  3.8011 -1.2436  1.1910
  927MPD2    N113572   4.621   0.226   0.444  1.0875 -0.1251  0.0736
  927MPD2    H713573   4.571   0.183   0.520  0.6418 -0.3711 -0.3561
  928MPD2     C13574   1.869   3.419   1.122  0.2236  0.4179  0.4840
  928MPD2    C113575   1.948   3.509   1.192 -0.3256  0.7671  0.5452
  928MPD2    C213576   2.067   3.551   1.139 -0.0547 -0.1424 -1.3065
  928MPD2    C313577   2.109   3.513   1.012 -0.1298 -0.5466  0.6286
  928MPD2    C413578   2.027   3.427   0.940  0.7568 -0.1121 -0.3815
  928MPD2    C513579   1.909   3.384   0.995 -1.0201  0.8347  0.0712
  928MPD2     H13580   2.130   3.622   1.191  0.5171 -0.3770 -1.6739
  928MPD2    H113581   2.062   3.379   0.849  0.6399  1.3405 -1.1944
  928MPD2    H213582   1.782   3.380   1.174  1.4221 -0.6252  1.6866
  928MPD2    H313583   1.851   3.308   0.943 -0.3893  0.5080 -0.1512
  928MPD2     N13584   2.227   3.568   0.952  0.4160  0.0567  0.4087
  928MPD2    H513585   2.259   3.549   0.857  1.3104  0.3443  0.6476
  928MPD2    N113586   1.898   3.540   1.318  0.3887 -1.2348 -0.6026
  928MPD2    H713587   1.810   3.496   1.345  0.0232  0.9886  1.8473
  929MPD2     C13588   2.683   3.182  10.443 -0.3136 -0.5132  0.5370
  929MPD2    C113589   2.593   3.099  10.502 -0.2739  0.0344 -0.1196
  929MPD2    C213590   2.463   3.110  10.467 -0.2844 -0.3009 -0.6156
  929MPD2    C313591   2.416   3.209  10.378 -0.3684 -0.4486 -0.0491
  929MPD2    C413592   2.508   3.286  10.309 -0.0955  0.1045  0.1145
  929MPD2    C513593   2.637   3.263  10.341  0.5196  0.1972  0.3531
  929MPD2     H13594   2.393   3.045  10.519 -0.6533  0.9434  0.4271
  929MPD2    H113595   2.477   3.357  10.233  0.3034  0.7549  0.5609
  929MPD2    H213596   2.787   3.194  10.471 -0.6841  2.1772  0.8028
  929MPD2    H313597   2.710   3.334  10.305 -0.9524  0.1775 -2.6401
  929MPD2     N13598   2.278   3.238  10.361 -0.2849  0.4261 -0.1787
  929MPD2    H513599   2.253   3.313  10.297  1.9980  0.3619 -1.1478
  929MPD2    N113600   2.635   3.016  10.607  0.3240  0.1591  0.0089
  929MPD2    H713601   2.729   3.031  10.643 -0.1615  1.0697  0.8882
  930MPD2     C13602   4.237   0.889  14.082 -0.3404 -0.0753  0.2098
  930MPD2    C113603   4.262   0.947  13.956 -0.0311 -0.1179  0.2036
  930MPD2    C213604   4.231   0.870  13.844 -0.0301 -0.3866  0.5682
  930MPD2    C313605   4.152   0.759  13.855  1.0757 -0.4553 -0.7853
  930MPD2    C413606   4.119   0.704  13.985  0.1647 -0.1655 -0.3556
  930MPD2    C513607   4.161   0.775  14.092 -0.6933 -0.1139  0.2419
  930MPD2     H13608   4.257   0.907  13.746 -0.8626 -0.9996  0.1123
  930MPD2    H113609   4.063   0.612  13.998 -1.6238  0.9727 -0.0889
  930MPD2    H213610   4.261   0.940  14.175  0.5713  1.4367 -0.8522
  930MPD2    H313611   4.141   0.742  14.194  2.6344 -1.6118  0.4036
  930MPD2     N13612   4.114   0.701  13.733  0.2199  0.0994  0.0077
  930MPD2    H513613   4.151   0.747  13.651  1.4631  1.3273  1.2692
  930MPD2    N113614   4.326   1.071  13.954  0.0445 -0.2905  0.6582
  930MPD2    H713615   4.331   1.121  14.041  1.4705 -0.4451  0.6540
  931MPD2     C13616   4.524   0.517   1.237 -0.0941 -0.2231  0.3653
  931MPD2    C113617   4.524   0.421   1.144 -0.7291 -0.7979  0.1882
  931MPD2    C213618   4.530   0.293   1.193 -0.4269  0.9915 -0.3181
  931MPD2    C313619   4.528   0.264   1.329  0.0644 -0.3738 -0.0926
  931MPD2    C413620   4.520   0.366   1.420  0.3744  0.5067  0.1408
  931MPD2    C513621   4.521   0.494   1.371  0.5903 -0.3319  0.6146
  931MPD2     H13622   4.525   0.210   1.124 -1.7934 -0.3143  1.3565
  931MPD2    H113623   4.514   0.335   1.523 -1.3076  2.7066  0.6913
  931MPD2    H213624   4.523   0.621   1.207  3.0009 -0.1082  0.6495
  931MPD2    H313625   4.510   0.583   1.433  1.2509 -0.0591  0.3433
  931MPD2     N13626   4.520   0.129   1.379 -0.3110  0.1661 -0.2846
  931MPD2    H513627   4.501   0.117   1.478 -0.8387 -2.1386 -0.6593
  931MPD2    N113628   4.510   0.447   1.008 -0.4467 -0.0802  0.2129
  931MPD2    H713629   4.506   0.547   0.986  3.7429 -0.1610 -1.0086
  932MPD2     C13630   0.546   3.945  11.283 -0.9291  0.2447  0.6198
  932MPD2    C113631   0.661   3.986  11.356  0.4309  0.4371 -0.0627
  932MPD2    C213632   0.735   3.882  11.415 -0.4902  0.4165  0.7470
  932MPD2    C313633   0.695   3.749  11.420 -0.3680  0.0005  0.1423
  932MPD2    C413634   0.584   3.715  11.343  0.7444  0.0225  0.6752
  932MPD2    C513635   0.511   3.815  11.275 -0.4893  0.0872  0.0048
  932MPD2     H13636   0.826   3.909  11.469  0.1606 -0.8612  0.2775
  932MPD2    H113637   0.556   3.610  11.335  0.4781  0.0753  0.9076
  932MPD2    H213638   0.480   4.012  11.228 -0.9503 -0.8180 -0.6759
  932MPD2    H313639   0.427   3.783  11.214  1.1276 -1.8436 -1.2209
  932MPD2     N13640   0.786   3.646  11.459 -0.5635 -0.4313 -0.0382
  932MPD2    H513641   0.763   3.551  11.431 -2.7005  0.0490  0.1430
  932MPD2    N113642   0.700   4.119  11.371  0.2324  0.5589 -0.2106
  932MPD2    H713643   0.791   4.130  11.414  2.1356 -1.3750 -3.7688
  933MPD2     C13644   1.954   4.175   1.855  0.0311  0.1460  0.1953
  933MPD2    C113645   2.014   4.059   1.895  0.3881  0.5174 -0.0632
  933MPD2    C213646   2.098   4.059   1.998  0.9272 -0.1353 -0.1095
  933MPD2    C313647   2.124   4.180   2.063 -0.4416  0.0688  0.8919
  933MPD2    C413648   2.071   4.295   2.016  0.3062 -0.7310 -0.6565
  933MPD2    C513649   1.985   4.294   1.911  0.3663  0.4990  0.1019
  933MPD2     H13650   2.147   3.966   2.026 -0.2027 -0.5880  0.3549
  933MPD2    H113651   2.082   4.397   2.052  0.3103 -0.7321 -0.6546
  933MPD2    H213652   1.884   4.180   1.773  0.7880 -2.3939 -0.6050
  933MPD2    H313653   1.933   4.382   1.875 -1.8773  0.0707  2.3510
  933MPD2     N13654   2.201   4.172   2.178  0.8364  0.3499 -0.5349
  933MPD2    H513655   2.241   4.081   2.196  2.9259  1.6412  1.3773
  933MPD2    N113656   1.974   3.948   1.821  0.4296 -0.6954  0.1647
  933MPD2    H713657   1.902   3.968   1.753 -0.0130  0.3922  0.9417
  934MPD2     C13658   2.832   1.115   2.213 -0.4169 -0.3865  0.0089
  934MPD2    C113659   2.924   1.016   2.181 -1.0796 -0.3676  0.7169
  934MPD2    C213660   2.898   0.911   2.107  0.0238 -0.4457  0.5501
  934MPD2    C313661   2.774   0.906   2.042  0.3835 -0.0947  0.0168
  934MPD2    C413662   2.682   1.005   2.067 -0.0876  0.1093  0.0477
  934MPD2    C513663   2.708   1.105   2.158  0.0670 -0.0586 -0.7472
  934MPD2     H13664   2.976   0.839   2.087 -0.9861 -1.8460  1.6355
  934MPD2    H113665   2.582   0.997   2.025  0.4475  1.4452 -1.4661
  934MPD2    H213666   2.850   1.198   2.281 -0.2277 -1.7340  1.6123
  934MPD2    H313667   2.633   1.177   2.190  1.1949  2.1672 -3.0919
  934MPD2     N13668   2.727   0.801   1.961  0.3158 -0.6566 -0.0723
  934MPD2    H513669   2.634   0.814   1.922 -0.5713 -0.9197  1.9446
  934MPD2    N113670   3.057   1.019   2.232 -0.3901  0.0550 -0.1262
  934MPD2    H713671   3.119   0.941   2.213  0.1212  0.9821 -2.1792
  935MPD2     C13672   3.229   0.009   1.652  0.3748  0.4229 -0.1429
  935MPD2    C113673   3.122   0.019   1.560  0.0546  0.0017  0.4704
  935MPD2    C213674   3.012   0.102   1.583 -0.3412  0.8385 -0.4956
  935MPD2    C313675   3.005   0.162   1.713  0.0079  0.2385 -0.0063
  935MPD2    C413676   3.107   0.143   1.804 -0.4212 -0.1462 -0.2044
  935MPD2    C513677   3.222   0.074   1.771  0.1184 -0.5197  0.1901
  935MPD2     H13678   2.938   0.093   1.504  0.3935  1.2309 -1.2240
  935MPD2    H113679   3.092   0.189   1.901  0.7761 -0.5314  0.1596
  935MPD2    H213680   3.323   4.680   1.635  1.1018  0.6832  3.0988
  935MPD2    H313681   3.300   0.067   1.847 -0.6100 -0.2304  0.9647
  935MPD2     N13682   2.897   0.247   1.747 -0.5167  0.0081 -0.0635
  935MPD2    H513683   2.902   0.283   1.842  1.4682  1.7055 -0.8513
  935MPD2    N113684   3.123   4.671   1.438  0.3818  0.2717  0.2280
  935MPD2    H713685   3.038   4.680   1.383  0.6995 -0.4490 -0.3777
  936MPD2     C13686   1.826   3.371  11.969 -0.1171  0.6960 -0.1819
  936MPD2    C113687   1.856   3.348  12.102  0.6584  0.5797  0.0430
  936MPD2    C213688   1.923   3.448  12.170  0.3498 -0.0205  0.2935
  936MPD2    C313689   1.976   3.556  12.105  0.5127 -0.7299 -0.3162
  936MPD2    C413690   1.955   3.569  11.973  1.2533  1.0787 -0.4865
  936MPD2    C513691   1.872   3.483  11.910  0.3494  0.5685 -0.4014
  936MPD2     H13692   1.944   3.433  12.275  0.0957 -1.2616  0.1706
  936MPD2    H113693   1.999   3.656  11.924  1.7464  0.7705 -0.5897
  936MPD2    H213694   1.767   3.306  11.906 -0.0666  2.3261 -1.9121
  936MPD2    H313695   1.848   3.501  11.805 -0.2337  1.0719 -0.1803
  936MPD2     N13696   2.049   3.637  12.190  0.4631 -0.1430 -0.6120
  936MPD2    H513697   2.037   3.612  12.287 -0.4256  1.1517 -0.3832
  936MPD2    N113698   1.811   3.243  12.185 -0.5105 -0.1772  0.1428
  936MPD2    H713699   1.811   3.269  12.283  0.0718 -1.9449  0.6230
  937MPD2     C13700   4.360   4.354  11.185 -0.1851  0.2140 -1.3896
  937MPD2    C113701   4.400   4.486  11.199 -0.1874 -1.1542  0.0302
  937MPD2    C213702   4.479   4.543  11.101 -0.6536 -0.0202 -0.5637
  937MPD2    C313703   4.528   4.469  10.994 -0.1935  0.0728 -0.0753
  937MPD2    C413704   4.491   4.338  10.990 -0.0870  0.4981  0.0027
  937MPD2    C513705   4.403   4.286  11.078 -0.3579  0.2759  0.0155
  937MPD2     H13706   4.502   4.649  11.103 -0.3362 -0.1099  0.6311
  937MPD2    H113707   4.530   4.261  10.924  0.2511  0.2839  0.4563
  937MPD2    H213708   4.294   4.300  11.252  1.0380 -0.5141 -0.7824
  937MPD2    H313709   4.362   4.185  11.069  0.2161  0.0928 -0.5536
  937MPD2     N13710   4.607   4.520  10.892 -0.1716  0.1988 -0.0282
  937MPD2    H513711   4.644   4.613  10.907  0.0609 -0.0578  1.0067
  937MPD2    N113712   4.332   4.569  11.295  0.6009  0.3254  1.1991
  937MPD2    H713713   4.340   4.669  11.288 -1.2827  0.1845 -2.5055
  938MPD2     C13714   2.421   0.047   1.225 -0.3938  0.0848 -0.5606
  938MPD2    C113715   2.487   0.106   1.337  0.2352  0.1279  0.0800
  938MPD2    C213716   2.426   0.085   1.464  0.0732 -0.6931 -0.4095
  938MPD2    C313717   2.303   0.010   1.469 -0.3541 -0.2616  0.6189
  938MPD2    C413718   2.244   4.687   1.351 -0.6825  0.7531 -1.1408
  938MPD2    C513719   2.299   4.722   1.228 -0.1566 -0.2696 -0.3918
  938MPD2     H13720   2.476   0.119   1.554 -2.8511 -1.7874  1.6240
  938MPD2    H113721   2.151   4.633   1.342 -0.1561 -0.0930 -1.5004
  938MPD2    H213722   2.463   0.062   1.126  0.8569 -0.5872 -0.1334
  938MPD2    H313723   2.242   4.703   1.138  0.6694 -2.3985 -0.4681
  938MPD2     N13724   2.241   4.695   1.595  0.3065 -0.0698  0.5931
  938MPD2    H513725   2.151   4.648   1.593  0.6189 -0.7824  2.8905
  938MPD2    N113726   2.614   0.171   1.325  0.3633 -0.0612 -0.3026
  938MPD2    H713727   2.645   0.211   1.413  2.0524  1.2460 -1.5001
  939MPD2     C13728   3.751   1.236   1.390 -0.3422  0.3255 -0.2693
  939MPD2    C113729   3.644   1.303   1.325 -0.8784  0.3938 -1.0520
  939MPD2    C213730   3.663   1.340   1.192  0.4858 -0.5253 -0.6970
  939MPD2    C313731   3.780   1.313   1.126 -1.2238  0.2623  0.3128
  939MPD2    C413732   3.880   1.239   1.190 -0.0457  1.1353  0.1633
  939MPD2    C513733   3.865   1.206   1.322  0.5738 -0.0903 -0.0105
  939MPD2     H13734   3.589   1.393   1.133  1.0685  0.6857 -0.3366
  939MPD2    H113735   3.980   1.222   1.152 -0.3123 -0.1733  0.0224
  939MPD2    H213736   3.734   1.207   1.494  2.5240 -0.5489 -0.0493
  939MPD2    H313737   3.935   1.148   1.381 -0.4839 -2.6676 -1.2992
  939MPD2     N13738   3.797   1.368   0.996 -0.3903  0.1286 -0.8848
  939MPD2    H513739   3.718   1.414   0.953 -0.9941  0.8062  0.9563
  939MPD2    N113740   3.527   1.329   1.397  0.1383  0.7070 -0.1092
  939MPD2    H713741   3.513   1.278   1.483 -1.4397  1.5911  0.1544
  940MPD2     C13742   2.329   2.683  13.216 -0.8843  0.2589 -0.2451
  940MPD2    C113743   2.439   2.763  13.237  0.3707  0.3277  0.2874
  940MPD2    C213744   2.470   2.856  13.134 -0.4881 -0.2408 -0.2456
  940MPD2    C313745   2.401   2.859  13.015 -0.7703 -0.0199 -0.4770
  940MPD2    C413746   2.307   2.762  12.990 -0.0927  0.1080 -0.3598
  940MPD2    C513747   2.269   2.684  13.090 -0.0002  0.1455  0.0064
  940MPD2     H13748   2.551   2.928  13.142 -2.4235  1.8890  0.1927
  940MPD2    H113749   2.267   2.745  12.891  1.1198  1.9745 -1.1901
  940MPD2    H213750   2.301   2.602  13.283 -0.0998  0.3249  0.1633
  940MPD2    H313751   2.192   2.615  13.060 -1.1845  2.6764 -2.7246
  940MPD2     N13752   2.432   2.949  12.908 -0.5734 -0.2733 -0.4661
  940MPD2    H513753   2.408   2.914  12.816 -0.0355 -0.5536 -0.4970
  940MPD2    N113754   2.521   2.753  13.348 -0.9437 -0.2935  0.1130
  940MPD2    H713755   2.606   2.807  13.338 -1.6802  0.8260 -0.1996
  941MPD2     C13756   1.826   1.710   9.728  0.0662 -0.2054  0.2848
  941MPD2    C113757   1.895   1.602   9.664 -0.3114 -0.4775  0.3018
  941MPD2    C213758   1.823   1.484   9.640 -0.9691  0.1217  0.7003
  941MPD2    C313759   1.686   1.480   9.670 -0.1593  0.4030 -0.3170
  941MPD2    C413760   1.619   1.590   9.724 -0.6966  0.0031  0.2690
  941MPD2    C513761   1.695   1.701   9.752  0.3302 -0.0094 -0.3254
  941MPD2     H13762   1.875   1.393   9.613  0.3679  1.0801  0.0602
  941MPD2    H113763   1.515   1.579   9.753 -0.4923 -0.4853  0.8146
  941MPD2    H213764   1.866   1.807   9.757 -0.9082  0.4386 -0.5354
  941MPD2    H313765   1.638   1.782   9.797  2.7163  0.5806  1.6381
  941MPD2     N13766   1.605   1.372   9.642 -0.2467 -0.3063 -0.0096
  941MPD2    H513767   1.504   1.386   9.639 -0.5614 -1.9016  2.6643
  941MPD2    N113768   2.035   1.610   9.634 -0.9653 -0.1291  0.5994
  941MPD2    H713769   2.084   1.525   9.609 -1.7401 -0.0912 -1.0384
  942MPD2     C13770   1.196   3.221   9.759 -0.8564 -0.5986  0.3440
  942MPD2    C113771   1.217   3.169   9.635 -0.4096  0.7965 -0.0101
  942MPD2    C213772   1.326   3.097   9.610  0.0593 -0.1507 -0.1030
  942MPD2    C313773   1.430   3.089   9.708  0.3202  0.7037 -0.2167
  942MPD2    C413774   1.409   3.144   9.829  0.4358 -0.1254  0.2862
  942MPD2    C513775   1.298   3.211   9.851  0.0164  0.5387 -0.0932
  942MPD2     H13776   1.336   3.047   9.514 -0.7634  1.8460 -1.2154
  942MPD2    H113777   1.474   3.127   9.914  0.1508 -0.2473  0.4793
  942MPD2    H213778   1.123   3.299   9.779 -0.1455  0.3144 -0.6116
  942MPD2    H313779   1.277   3.263   9.944 -1.9061  1.9745 -1.3305
  942MPD2     N13780   1.549   3.016   9.686  0.3076 -0.3531 -0.3775
  942MPD2    H513781   1.619   3.026   9.759  0.6216 -2.5641 -0.3934
  942MPD2    N113782   1.139   3.195   9.526  0.1982 -0.1901  0.1071
  942MPD2    H713783   1.160   3.157   9.434  0.7874  0.8588 -0.2046
  943MPD2     C13784   0.414   2.006   9.150  0.7023  0.2319  0.0063
  943MPD2    C113785   0.310   1.910   9.165 -0.5686 -0.0292 -0.4910
  943MPD2    C213786   0.322   1.813   9.255 -0.2216 -0.0876 -0.8318
  943MPD2    C313787   0.439   1.798   9.327 -0.7434  0.2101  0.0346
  943MPD2    C413788   0.534   1.901   9.318  0.1179 -0.5477 -0.1573
  943MPD2    C513789   0.526   2.003   9.229  0.6360  0.1690 -0.5742
  943MPD2     H13790   0.237   1.749   9.276 -0.8679  1.0218 -0.0915
  943MPD2    H113791   0.626   1.888   9.374  0.0298 -2.0342 -0.3541
  943MPD2    H213792   0.403   2.082   9.074  2.0836  1.4817  1.0533
  943MPD2    H313793   0.603   2.079   9.219 -0.0515  0.7772 -1.3695
  943MPD2     N13794   0.466   1.678   9.410  0.5072  0.4124 -0.0066
  943MPD2    H513795   0.544   1.687   9.474  0.3956 -0.8286  0.2899
  943MPD2    N113796   0.182   1.929   9.102 -0.2070 -0.8709  0.5660
  943MPD2    H713797   0.177   2.017   9.051 -0.1982 -1.6374 -0.7574
  944MPD2     C13798   0.497   1.246  10.691 -0.4077 -0.0970 -0.0147
  944MPD2    C113799   0.477   1.109  10.678 -0.0384  0.3440 -0.1276
  944MPD2    C213800   0.423   1.048  10.791 -0.3369  0.0825 -0.2617
  944MPD2    C313801   0.394   1.115  10.917 -0.0962 -0.5039  0.4972
  944MPD2    C413802   0.413   1.251  10.919  1.0417 -0.1047 -0.0347
  944MPD2    C513803   0.471   1.312  10.804 -0.1458 -0.5898 -0.2971
  944MPD2     H13804   0.403   0.941  10.793 -2.5853  0.4736 -2.4256
  944MPD2    H113805   0.404   1.308  11.011  2.7030 -1.3428  0.8780
  944MPD2    H213806   0.541   1.301  10.608 -3.1754  2.1359  0.0041
  944MPD2    H313807   0.485   1.419  10.812 -0.6064 -0.4188 -1.7881
  944MPD2     N13808   0.341   1.040  11.030  0.1452 -0.8990 -0.0229
  944MPD2    H513809   0.332   0.940  11.013  0.6151 -0.9153 -0.1860
  944MPD2    N113810   0.490   1.044  10.559  0.0539  0.2851 -0.1513
  944MPD2    H713811   0.535   1.102  10.489  2.3866 -2.4081 -0.9084
    1TCq1    O113812   2.955   1.678  14.641 -0.6104 -0.3450  0.6144
    1TCq1    C113813   3.063   1.758  14.656 -0.6116 -0.7446 -0.3248
    1TCq1    O213814   3.082   1.867  14.593 -0.4468  0.3473 -0.5660
    1TCq1    C213815   3.161   1.702  14.748  0.1780 -0.0365  0.6174
    1TCq1    C313816   3.205   1.574  14.730 -0.0815 -0.2149 -0.2369
    1TCq1    C413817   3.323   1.542  14.796 -0.0496  0.5840  0.1768
    1TCq1    C513818   3.393   1.635  14.875 -0.4041  0.1437 -0.3233
    1TCq1    C613819   3.334   1.757  14.885  0.8866  0.9222  0.1027
    1TCq1    C713820   3.219   1.795  14.826 -0.4261 -0.3262  0.4421
    1TCq1    C813821   3.411   1.853  14.953  0.4469  1.2014 -0.3961
    1TCq1    O413822   3.483   1.809  15.043 -0.5693 -0.2582  0.2253
    1TCq1    C913823   3.366   1.408  14.785 -0.0376  0.0675  0.6323
    1TCq1    O513824   3.318   1.332  14.693 -0.5804  0.0963 -0.3971
    1TCq1    O613825   3.465   1.369  14.854 -0.6071  0.3347 -0.3566
    1TCq1    H113826   2.951   1.601  14.703 -0.5186 -0.5629  0.3478
    1TCq1    H213827   3.147   1.515  14.660 -1.6915  0.5406  0.4615
    1TCq1    H313828   3.481   1.604  14.930 -0.8663 -0.6469 -0.0386
    1TCq1    H413829   3.168   1.889  14.844  0.1071 -0.1201  0.8919
    2MPD2     C13830   3.467   2.338  15.100 -0.1863 -0.1780  0.6088
    2MPD2    C113831   3.431   2.334  14.975  0.1627 -0.5459 -0.1984
    2MPD2    C213832   3.393   2.214  14.919  0.8625  0.1411 -0.0650
    2MPD2    C313833   3.408   2.098  14.984  0.4124  0.7443  0.1257
    2MPD2    C413834   3.453   2.094  15.110 -0.0492  0.6488  0.4832
    2MPD2    C513835   3.487   2.218  15.168  0.2257  0.0990  0.3244
    2MPD2     H13836   3.355   2.213  14.818 -2.2336  2.0196  1.0920
    2MPD2    H113837   3.462   1.999  15.160 -0.5916  1.2162  1.6657
    2MPD2    H213838   3.496   2.425  15.157  0.3095  0.9181 -1.3198
    2MPD2    H313839   3.513   2.225  15.272  0.2382  0.7313  0.2766
    2MPD2     N13840   3.377   1.981  14.915 -0.0558 -0.0896 -0.2603
    2MPD2    H513841   3.334   1.990  14.823  0.3003  1.4822 -0.2686
    2MPD2    N113842   3.422   2.454  14.904  0.0062 -0.9790  0.3727
    2MPD2    H713843   3.444   2.536  14.959  3.1994 -0.2674 -1.9474
    3TMC2    C113844   3.374   2.611  14.740 -0.0005 -0.0829 -0.5378
    3TMC2    C213845   3.328   2.703  14.828 -0.0240 -0.8783  0.0318
    3TMC2    C313846   3.288   2.820  14.766 -0.0960 -0.3596  0.1477
    3TMC2    C413847   3.374   2.626  14.602 -0.3348 -0.0128  0.5671
    3TMC2    C513848   3.325   2.743  14.548  0.0617 -0.1372 -0.0660
    3TMC2    C613849   3.279   2.842  14.633  0.6535  0.6097 -0.4543
    3TMC2     C13850   3.378   2.470  14.771 -0.2528 -0.8730 -0.1769
    3TMC2     O13851   3.352   2.389  14.683  0.2167 -0.1322 -0.6387
    3TMC2     H13852   3.301   2.667  14.926  1.2935 -0.9415  0.3697
    3TMC2    H113853   3.402   2.544  14.535  1.4475 -0.0577  1.3647
    3TMC2    H213854   3.241   2.937  14.598  1.7252  1.3660  0.4616
    3TMC2    C713855   3.268   2.725  14.408  0.7296 -0.2680  0.0776
    3TMC2    C813856   3.235   2.928  14.855 -0.5581  0.3106  0.8903
    3TMC2    O113857   3.281   2.616  14.357  0.3047  0.2603  0.4172
    3TMC2    O213858   3.166   3.019  14.810 -0.2731 -0.1494 -0.3899
    3TMC2    O513859   3.328   2.939  14.951  0.3701  0.2664  0.3539
    3TMC2    H513860   3.400   2.873  14.948  0.2531  0.2037 -1.5192
    4MPD2     C13861   2.231   3.425  13.860 -0.5233  0.8537 -0.1782
    4MPD2    C113862   2.287   3.495  13.758  0.2611  0.1486  0.0998
    4MPD2    C213863   2.420   3.525  13.756 -0.0846 -0.4902 -0.4481
    4MPD2    C313864   2.497   3.480  13.854 -0.4120  0.2576  0.1894
    4MPD2    C413865   2.444   3.405  13.958  0.6876 -0.1244 -0.4504
    4MPD2    C513866   2.312   3.376  13.959 -0.6018 -0.2004  0.1436
    4MPD2     H13867   2.458   3.590  13.678 -0.8030 -0.4897 -0.8036
    4MPD2    H113868   2.501   3.367  14.042  0.0367 -0.9476 -0.3847
    4MPD2    H213869   2.132   3.385  13.844 -0.1902 -0.1337  0.1770
    4MPD2    H313870   2.282   3.302  14.033  0.5353 -0.2370  0.5641
    4MPD2     N13871   2.636   3.492  13.844  0.1608 -0.4582 -0.0639
    4MPD2    H513872   2.672   3.534  13.759  1.0324  0.9680  1.0187
    4MPD2    N113873   2.193   3.529  13.652 -0.4894  0.8901 -0.1780
    4MPD2    H713874   2.095   3.508  13.670 -0.0371  0.4013  1.7322
    5TCq2    C113875   2.727   3.430  13.922 -0.0595 -0.7248  0.1282
    5TCq2    O213876   2.720   3.387  14.038  0.0989 -0.2891 -0.9811
    5TCq2    C213877   2.848   3.401  13.845 -0.5570 -0.3658  0.1839
    5TCq2    C313878   2.846   3.358  13.716  0.2343 -0.1081  0.3079
    5TCq2    C413879   2.942   3.273  13.672  0.2813 -0.1678  0.1875
    5TCq2    C513880   3.047   3.229  13.749 -0.6187  0.4778  0.0774
    5TCq2    C613881   3.052   3.274  13.876 -0.1149 -0.1917  0.4861
    5TCq2    C713882   2.958   3.364  13.924  0.0100  0.4550 -0.0242
    5TCq2    C813883   3.100   3.179  13.980  0.0936 -0.0997  0.0420
    5TCq2    O413884   3.135   3.221  14.086 -0.0782 -0.0728 -0.3385
    5TCq2    C913885   2.922   3.226  13.538  0.1214 -0.3150 -0.0827
    5TCq2    O513886   2.824   3.275  13.467  0.0522 -0.1504 -0.3374
    5TCq2    O613887   3.009   3.146  13.500  0.0016  0.3560  0.2732
    5TCq2    H213888   2.770   3.390  13.647 -0.3845 -2.5724 -0.1422
    5TCq2    H313889   3.114   3.153  13.709 -0.5140 -1.1298  3.2475
    5TCq2    H413890   2.959   3.381  14.031 -0.1443 -0.5175  0.1369
    6MPD1     C13891   1.869   0.330  12.546  0.0785 -0.5712  0.3240
    6MPD1    C113892   1.830   0.224  12.467 -0.3667  1.0311 -0.3022
    6MPD1    C213893   1.840   0.096  12.516  0.1405 -0.3172 -0.4660
    6MPD1    C313894   1.869   0.080  12.654 -0.1199 -0.7533  0.8576
    6MPD1    C413895   1.901   0.188  12.728  0.6617 -0.1152  0.2516
    6MPD1    C513896   1.899   0.313  12.679 -0.3144 -0.0428 -0.6995
    6MPD1     H13897   1.830   0.014  12.446 -0.2288  1.8795 -2.9648
    6MPD1    H113898   1.929   0.175  12.832 -0.1834 -1.3018  0.3275
    6MPD1    H213899   1.884   0.433  12.515 -2.1005  0.3354  2.3870
    6MPD1    H313900   1.937   0.388  12.748 -1.0136  0.2241 -0.5999
    6MPD1     N13901   1.867   4.671  12.710  0.4258 -0.1457  0.5464
    6MPD1    H513902   1.890   4.662  12.808 -0.6914 -0.4704  0.7813
    6MPD1    N113903   1.809   0.244  12.329 -0.0088 -0.4337  0.6111
    6MPD1    H613904   1.741   0.182  12.286  0.4571 -0.5052 -0.0161
    6MPD1    H713905   1.784   0.334  12.289 -1.8853 -1.1093  0.3002
    7MPD2     C13906   1.561   4.162  13.223 -0.6368 -0.6166 -0.1581
    7MPD2    C113907   1.698   4.152  13.230  0.3990 -0.4871 -0.6195
    7MPD2    C213908   1.753   4.040  13.287 -0.1995  0.3196  0.2368
    7MPD2    C313909   1.673   3.942  13.341  0.5883 -0.3078 -0.3595
    7MPD2    C413910   1.539   3.961  13.340 -0.5411 -0.1016 -0.2570
    7MPD2    C513911   1.483   4.068  13.286  0.3399 -0.2781  0.2641
    7MPD2     H13912   1.858   4.030  13.313 -0.3852 -0.5237  0.6509
    7MPD2    H113913   1.473   3.888  13.388 -0.6738  0.3544  0.2583
    7MPD2    H213914   1.504   4.230  13.160  1.2685  0.9260 -0.2241
    7MPD2    H313915   1.376   4.071  13.269  0.6825  0.6188 -1.6837
    7MPD2     N13916   1.726   3.819  13.387  0.2107  0.0831  0.2949
    7MPD2    H513917   1.656   3.746  13.401  0.2004 -0.0849 -0.6592
    7MPD2    N113918   1.780   4.232  13.146 -0.5172 -0.0746  0.4866
    7MPD2    H713919   1.873   4.193  13.133 -1.0792 -1.1509 -0.3114
    8TMC3    C113920   1.896   3.668  13.429  0.1836  1.1392 -0.7147
    8TMC3    C213921   2.012   3.659  13.499 -0.4844 -0.9216 -0.0729
    8TMC3    C313922   2.108   3.582  13.446 -0.8876  0.8905 -0.7680
    8TMC3    C413923   1.894   3.615  13.301  0.5398 -0.1925 -0.2517
    8TMC3    C513924   2.005   3.563  13.243 -0.0350 -0.1034 -0.2216
    8TMC3    C613925   2.118   3.541  13.313  0.1386 -0.0623 -1.0888
    8TMC3     C13926   1.852   3.808  13.434 -0.1006  0.0560  0.9815
    8TMC3     O13927   1.934   3.895  13.464 -0.2650  0.0889 -0.1199
    8TMC3     H13928   2.014   3.702  13.598  0.7608  0.6719 -0.7636
    8TMC3    H113929   1.812   3.649  13.238  0.2054 -0.0668  0.2505
    8TMC3    H213930   2.212   3.508  13.269  0.8757 -0.6989  0.9945
    8TMC3    C713931   2.033   3.591  13.105  0.3174 -0.7747 -0.1892
    8TMC3    C813932   2.227   3.570  13.525 -0.4389  0.7598  0.6415
    8TMC3    O113933   2.150   3.627  13.078  0.0154  0.5769 -0.3544
    8TMC3    O213934   2.335   3.589  13.466  0.0604  0.7160  0.4624
    9TMC3    C113935   1.835   4.434  12.730  0.1388 -0.6497 -0.2817
    9TMC3    C213936   1.866   4.311  12.679  0.2135  0.0862  0.4095
    9TMC3    C313937   1.881   4.200  12.751 -0.1347  0.0809 -0.0694
    9TMC3    C413938   1.807   4.440  12.861 -0.5179 -0.1039 -0.5415
    9TMC3    C513939   1.820   4.329  12.935 -0.2413  0.4922  0.4127
    9TMC3    C613940   1.857   4.206  12.888  0.1077  0.0230  0.2862
    9TMC3     C13941   1.844   4.549  12.638 -0.2716  0.6059 -0.2483
    9TMC3     O13942   1.842   4.519  12.519  0.8352  0.5497  0.3898
    9TMC3     H13943   1.890   4.291  12.575  1.4666  1.9291  0.3357
    9TMC3    H113944   1.787   4.536  12.907  0.0061 -0.2477 -0.0129
    9TMC3    H213945   1.840   4.119  12.950  1.3331 -1.0398 -0.8919
    9TMC3    C713946   1.739   4.326  13.058 -0.6377  0.6248  0.0495
    9TMC3    C813947   1.868   4.067  12.685 -0.0457  0.0318 -0.1111
    9TMC3    O113948   1.645   4.407  13.055  0.0269 -0.4895 -0.0566
    9TMC3    O213949   1.819   4.056  12.576 -0.1261  0.4223 -0.2346
   10MPD2     C13950   1.829   3.577  12.809  0.6071 -0.4612  0.4432
   10MPD2    C113951   1.899   3.641  12.901 -0.6548  0.1818 -0.6291
   10MPD2    C213952   1.929   3.772  12.883 -0.7780 -0.5001  0.7919
   10MPD2    C313953   1.910   3.836  12.768  0.1845 -0.3798 -0.3322
   10MPD2    C413954   1.872   3.762  12.659 -0.0351 -0.6091 -0.0470
   10MPD2    C513955   1.828   3.632  12.677  0.1866 -0.2759 -0.2295
   10MPD2     H13956   1.979   3.824  12.964 -0.2734 -1.1103  0.8690
   10MPD2    H113957   1.862   3.807  12.561  0.5477 -0.4320 -0.0253
   10MPD2    H213958   1.785   3.480  12.831  2.1612 -0.7436  2.2777
   10MPD2    H313959   1.777   3.574  12.602  0.1323 -1.3494  0.6515
   10MPD2     N13960   1.927   3.974  12.762 -0.2886  0.1937 -0.3155
   10MPD2    H513961   1.968   4.018  12.844  1.9112  1.2569 -2.0008
   10MPD2    N113962   1.921   3.574  13.025 -0.9865  0.3999 -0.0578
   10MPD2    H713963   1.859   3.498  13.051 -0.6870  0.2867  0.3156
   11MPD2     C13964   3.073   2.719  14.186 -0.4043 -0.2534  0.4909
   11MPD2    C113965   3.140   2.838  14.235  0.6429 -0.2971  0.4724
   11MPD2    C213966   3.131   2.945  14.158 -0.5733 -0.4891  0.1233
   11MPD2    C313967   3.076   2.936  14.033  0.2313  0.1955  0.1177
   11MPD2    C413968   3.007   2.829  13.990  0.1863  0.2136 -0.1251
   11MPD2    C513969   3.005   2.720  14.065 -0.1154 -0.0200  0.4563
   11MPD2     H13970   3.185   3.031  14.194 -0.7067 -0.8518  1.1839
   11MPD2    H113971   2.962   2.838  13.891  0.7972 -2.0226 -0.6132
   11MPD2    H213972   3.063   2.629  14.246 -1.1606 -0.8588 -0.5485
   11MPD2    H313973   2.967   2.627  14.025 -4.5104  1.5179  1.0337
   11MPD2     N13974   3.057   3.050  13.953  0.5915 -0.0461  0.1084
   11MPD2    H513975   3.005   3.035  13.868  1.1686 -0.8001 -0.1172
   11MPD2    N113976   3.217   2.842  14.355  0.0714 -0.4512  0.2261
   11MPD2    H713977   3.239   2.935  14.386  0.1949  0.6274 -3.0938
    1MPD1     C13978   0.801   4.011  16.893  0.3139  0.2564  0.4168
    1MPD1    C113979   0.805   3.981  16.759 -0.6318 -0.1087 -0.1754
    1MPD1    C213980   0.931   3.963  16.706  0.1087  0.7996  0.6635
    1MPD1    C313981   1.050   3.975  16.774 -0.4398 -0.3915 -0.1660
    1MPD1    C413982   1.043   4.013  16.911 -0.0677  0.1478 -0.6119
    1MPD1    C513983   0.916   4.031  16.959  0.2396 -0.8216 -0.1496
    1MPD1     H13984   0.930   3.928  16.604 -0.6441  0.8033  0.6662
    1MPD1    H113985   1.130   4.028  16.975  0.3564 -0.3836 -1.0590
    1MPD1    H213986   0.709   4.014  16.950 -0.6744  1.8012 -1.2357
    1MPD1    H313987   0.900   4.045  17.066 -3.1106 -3.3084 -0.2931
    1MPD1     N13988   1.180   3.962  16.720  0.3277  0.0207  0.1161
    1MPD1    H513989   1.256   3.979  16.785 -0.2815 -1.6592  1.2792
    1MPD1    N113990   0.687   3.958  16.690 -0.4761 -0.0272 -0.3764
    1MPD1    H613991   0.699   3.989  16.593  0.6492  0.1096 -0.1969
    1MPD1    H713992   0.608   4.005  16.734 -0.9686 -1.0143 -0.2151
    2MPD1     C13993   2.071   4.399  16.635  0.4656  0.3237  0.4485
    2MPD1    C113994   2.113   4.268  16.640 -0.6924 -0.2624 -0.3288
    2MPD1    C213995   2.010   4.170  16.622  0.6218 -0.2711 -0.2071
    2MPD1    C313996   1.878   4.204  16.593  0.3725  0.4494 -0.8268
    2MPD1    C413997   1.845   4.341  16.596  0.1341 -0.2857 -0.1892
    2MPD1    C513998   1.942   4.430  16.607 -0.4436 -0.0822 -0.2473
    2MPD1     H13999   2.030   4.066  16.643  0.5908 -0.3177 -0.4101
    2MPD1    H114000   1.744   4.370  16.567  0.2183  1.0901  0.9029
    2MPD1    H214001   2.149   4.473  16.642 -1.4877  2.5372 -1.1729
    2MPD1    H314002   1.924   4.535  16.585  0.7478  0.2231  0.2340
    2MPD1     N14003   1.782   4.106  16.581 -0.4895 -0.4888 -0.1860
    2MPD1    H514004   1.827   4.017  16.561  1.8747  1.1328 -2.0817
    2MPD1    N114005   2.249   4.239  16.657 -0.2866 -0.6017 -0.1069
    2MPD1    H614006   2.274   4.158  16.600 -1.2874 -0.4315 -0.7789
    2MPD1    H714007   2.306   4.317  16.627 -0.2457 -1.4715 -2.2465
    3TMC3    C114008   1.571   4.005  16.583  0.6059 -0.3699 -0.2509
    3TMC3    C214009   1.609   3.925  16.483 -0.6239 -0.2806  0.6181
    3TMC3    C314010   1.522   3.843  16.423 -0.0841  0.1145  0.4187
    3TMC3    C414011   1.434   4.010  16.617  0.1231  0.1302 -0.2474
    3TMC3    C514012   1.348   3.926  16.554 -0.5941  0.3544  0.2047
    3TMC3    C614013   1.390   3.846  16.453 -0.1283  0.7450 -0.3784
    3TMC3     C14014   1.649   4.123  16.617 -0.1543  0.1844  0.6019
    3TMC3     O14015   1.599   4.216  16.677 -0.5038  0.4214  0.7795
    3TMC3     H14016   1.714   3.913  16.461 -0.6731 -0.6242  0.5759
    3TMC3    H114017   1.407   4.077  16.698  0.0723  0.4692 -0.5481
    3TMC3    H214018   1.314   3.786  16.405 -1.5282  2.1839  0.0454
    3TMC3    C714019   1.211   3.903  16.600 -0.4035 -0.4449  0.1693
    3TMC3    C814020   1.572   3.779  16.306 -0.2416  0.2610  0.0386
    3TMC3    O114021   1.133   3.851  16.520  0.7550 -0.2304  0.6303
    3TMC3    O214022   1.693   3.770  16.295 -0.0982  0.0142  0.0625
    4MPD1     C14023   1.482   3.513  15.864 -0.7893  0.3995 -1.4328
    4MPD1    C114024   1.359   3.543  15.934 -0.7376  0.5245 -0.0999
    4MPD1    C214025   1.368   3.604  16.055 -0.3410 -0.1338  0.0344
    4MPD1    C314026   1.483   3.652  16.105  0.5081 -0.3335  0.0064
    4MPD1    C414027   1.602   3.631  16.035 -0.5233 -0.5447  0.1128
    4MPD1    C514028   1.600   3.560  15.919  0.2961 -0.2389  0.0364
    4MPD1     H14029   1.279   3.608  16.117  1.2418  0.6952  2.2298
    4MPD1    H114030   1.702   3.659  16.064 -0.0149 -3.3030  0.9581
    4MPD1    H214031   1.494   3.450  15.776 -0.3451 -1.4421 -0.0652
    4MPD1    H314032   1.692   3.542  15.865 -1.2224  1.0862 -2.9543
    4MPD1     N14033   1.470   3.732  16.226 -0.3970  0.4366  0.2621
    4MPD1    H514034   1.383   3.748  16.275  0.0538 -0.5370  1.3853
    4MPD1    N114035   1.238   3.472  15.902  0.4250 -0.0654  0.2875
    4MPD1    H614036   1.231   3.431  15.809 -0.5626  1.8221 -0.4880
    4MPD1    H714037   1.160   3.538  15.903 -0.3817 -1.0307  0.7536
    1TCq1    O114038   2.591   2.619  12.447 -0.3318 -0.7411 -0.6662
    1TCq1    C114039   2.600   2.694  12.339  0.0550 -0.5683  0.2517
    1TCq1    O214040   2.564   2.666  12.224  0.2323  0.6482 -0.1368
    1TCq1    C214041   2.653   2.825  12.370 -0.0076  0.3941 -0.2840
    1TCq1    C314042   2.637   2.917  12.274 -0.5754  0.1117 -0.9528
    1TCq1    C414043   2.685   3.044  12.290  0.0774  0.1333 -0.0288
    1TCq1    C514044   2.756   3.079  12.403 -0.1118 -0.3162  0.1941
    1TCq1    C614045   2.775   2.984  12.499 -0.0440 -0.6273 -0.5804
    1TCq1    C714046   2.718   2.862  12.487 -0.3948 -0.3233 -0.3468
    1TCq1    C814047   2.867   3.017  12.610  0.8475  0.5676  0.2354
    1TCq1    O414048   2.852   2.959  12.715 -0.3662 -0.0811  0.2178
    1TCq1    C914049   2.715   3.128  12.172  0.5087  0.1313 -0.3040
    1TCq1    O514050   2.656   3.109  12.063  0.0860 -0.1178 -0.0916
    1TCq1    O614051   2.788   3.226  12.196  0.0123 -0.6605  0.1838
    1TCq1    H114052   2.616   2.670  12.527 -1.6643 -1.7533  0.4064
    1TCq1    H214053   2.593   2.879  12.182  0.1752 -1.2612 -0.7555
    1TCq1    H314054   2.799   3.178  12.403  2.7948 -1.5903 -2.7176
    1TCq1    H414055   2.737   2.792  12.568  1.5860  0.8353  0.1858
    2MPD1     C14056   3.355   3.138  12.739 -0.4889 -0.5023 -0.0032
    2MPD1    C114057   3.331   3.175  12.607 -0.6592 -0.1392 -0.0990
    2MPD1    C214058   3.207   3.159  12.554 -0.4312  0.0134 -0.4323
    2MPD1    C314059   3.099   3.094  12.621  0.0137  0.6734  0.2970
    2MPD1    C414060   3.133   3.042  12.745  0.7533  0.0863 -0.2763
    2MPD1    C514061   3.258   3.067  12.808  0.6293  0.3720 -0.1642
    2MPD1     H14062   3.182   3.207  12.460 -0.2061 -1.5779 -1.3033
    2MPD1    H114063   3.058   2.993  12.806 -0.5124 -2.4741 -3.8624
    2MPD1    H214064   3.451   3.161  12.785  0.4327 -1.8187 -1.2317
    2MPD1    H314065   3.273   3.019  12.904 -2.0185 -0.9717 -0.4134
    2MPD1     N14066   2.973   3.087  12.560  0.4939  0.6362  0.0568
    2MPD1    H514067   2.971   3.114  12.462  3.4187  1.4925  0.2030
    2MPD1    N114068   3.422   3.259  12.538  0.4654  0.0148 -0.2924
    2MPD1    H614069   3.513   3.284  12.574  0.1242  1.3284 -0.3652
    2MPD1    H714070   3.436   3.217  12.446  1.7247 -0.7783  0.2695
    1TCq1    O114071   2.890   4.358   9.820  0.5520 -0.1178 -0.1611
    1TCq1    C114072   2.886   4.221   9.821 -0.0078 -0.1029  0.7564
    1TCq1    O214073   2.982   4.146   9.821 -0.1465 -0.4401  0.1757
    1TCq1    C214074   2.778   4.194   9.732 -0.3854 -0.0098 -0.0781
    1TCq1    C314075   2.786   4.088   9.649  0.1505 -0.0607 -0.0387
    1TCq1    C414076   2.671   4.043   9.588 -0.2972  0.5938  1.0407
    1TCq1    C514077   2.552   4.112   9.603  0.3089 -0.2716  0.4903
    1TCq1    C614078   2.538   4.206   9.700  0.0328  1.0950  0.3111
    1TCq1    C714079   2.652   4.248   9.757  0.1053  0.1000 -0.8096
    1TCq1    C814080   2.420   4.299   9.697  0.5010  0.6525 -0.4270
    1TCq1    O414081   2.423   4.391   9.776 -0.5688  0.2992  0.7289
    1TCq1    C914082   2.682   3.960   9.468 -0.6865  0.9069  0.1601
    1TCq1    O514083   2.798   3.935   9.425 -0.4735 -0.5074  0.4477
    1TCq1    O614084   2.576   3.936   9.409  0.2533 -0.0748 -0.4987
    1TCq1    H114085   2.802   4.399   9.807  0.1479  0.1547  3.3286
    1TCq1    H214086   2.884   4.048   9.628  0.4400  0.0249  1.1466
    1TCq1    H314087   2.468   4.077   9.543  1.1413 -1.5019  0.0345
    1TCq1    H414088   2.650   4.325   9.833  0.1617 -0.1600 -0.5433
    2MPD1     C14089   2.031   4.506   9.439 -0.2420 -0.6446 -0.3830
    2MPD1    C114090   2.018   4.371   9.420  0.1024  0.1172 -0.8955
    2MPD1    C214091   2.115   4.290   9.470  0.7614  0.1561  0.0423
    2MPD1    C314092   2.224   4.344   9.549 -0.1778 -0.8045 -0.0091
    2MPD1    C414093   2.213   4.475   9.585 -0.2048 -0.1094  0.0810
    2MPD1    C514094   2.133   4.553   9.516 -0.5624 -0.0887  0.3485
    2MPD1     H14095   2.105   4.183   9.459  2.4751  0.1068 -1.1072
    2MPD1    H114096   2.291   4.520   9.645 -0.5373  0.0926  0.3623
    2MPD1    H214097   1.968   4.575   9.385  3.4011  0.8677 -2.6752
    2MPD1    H314098   2.138   4.662   9.521  1.1054 -0.1346 -0.3173
    2MPD1     N14099   2.329   4.261   9.607  0.2227 -0.1400  0.5314
    2MPD1    H514100   2.333   4.163   9.579 -1.2384 -0.8015  2.6594
    2MPD1    N114101   1.933   4.307   9.326 -0.5931  0.9111  0.0121
    2MPD1    H614102   1.920   4.206   9.333 -0.1543  0.8983  0.6425
    2MPD1    H714103   1.844   4.355   9.319 -0.6390  0.9274  0.7183
    1MPD1     C14104   3.782   2.855  12.392  0.0331  0.3143  0.2430
    1MPD1    C114105   3.816   2.914  12.272  0.2071  0.2078  0.6820
    1MPD1    C214106   3.825   3.050  12.278 -0.1684 -0.2169  0.0093
    1MPD1    C314107   3.773   3.129  12.388  0.0388  0.3950  1.0805
    1MPD1    C414108   3.692   3.063  12.479 -0.6927  0.5663  0.1448
    1MPD1    C514109   3.711   2.927  12.483  0.1740 -0.6613  0.2080
    1MPD1     H14110   3.863   3.104  12.192  0.4756 -1.2745 -0.3603
    1MPD1    H114111   3.644   3.117  12.560 -0.6159  3.2447 -1.5776
    1MPD1    H214112   3.810   2.753  12.417  1.1397  0.9035  1.4043
    1MPD1    H314113   3.669   2.877  12.570 -3.4911  0.4981 -0.8837
    1MPD1     N14114   3.793   3.270  12.383  0.1337  0.4382 -0.2424
    1MPD1    H514115   3.831   3.315  12.300  0.7942 -1.7965 -1.1342
    1MPD1    N114116   3.876   2.843  12.169 -0.3580 -0.1397  0.3072
    1MPD1    H614117   3.844   2.747  12.156  1.0589 -0.7491  1.3454
    1MPD1    H714118   3.869   2.892  12.080 -2.3584 -0.4532  0.2920
    2MPD1     C14119   3.070   0.024  10.497 -0.7775 -0.1174  0.2164
    2MPD1    C114120   3.150   4.671  10.422  0.1875  0.2808 -0.2297
    2MPD1    C214121   3.207   4.557  10.482  0.2742  0.1392 -0.6760
    2MPD1    C314122   3.169   4.512  10.602  0.1935  0.0798  0.0757
    2MPD1    C414123   3.081   4.589  10.676  0.4628  0.2184 -0.3952
    2MPD1    C514124   3.034   4.707  10.625 -0.3737 -0.5887 -0.1666
    2MPD1     H14125   3.270   4.495  10.418  3.3471  2.3552  0.1915
    2MPD1    H114126   3.023   4.561  10.764  0.0822  0.4080 -0.5884
    2MPD1    H214127   3.025   0.118  10.468 -0.8682  0.3212  1.7711
    2MPD1    H314128   2.960   0.039  10.683  0.8377 -0.0699  0.8888
    2MPD1     N14129   3.199   4.382  10.652 -0.0220  0.0854 -0.2750
    2MPD1    H514130   3.167   4.352  10.744  0.5774 -1.0980 -0.4578
    2MPD1    N114131   3.200   4.715  10.297  0.7142  0.3909  0.2681
    2MPD1    H614132   3.135   0.054  10.247 -0.1730 -0.5850  0.2226
    2MPD1    H714133   3.232   4.640  10.237  2.8054  1.5364 -0.0395
    3MPD1     C14134   3.010   3.499  10.427  0.1257  0.6545 -0.9801
    3MPD1    C114135   3.008   3.616  10.356 -0.8852  0.1491  0.5801
    3MPD1    C214136   3.113   3.706  10.381  0.1749  0.4622 -0.8960
    3MPD1    C314137   3.195   3.688  10.484 -0.1275  0.3739  0.4061
    3MPD1    C414138   3.198   3.570  10.551  0.4375 -0.2670 -0.6475
    3MPD1    C514139   3.113   3.472  10.512 -0.3057  0.2892 -0.1552
    3MPD1     H14140   3.119   3.797  10.323  0.2976  1.4061  0.6329
    3MPD1    H114141   3.266   3.550  10.633  0.1830  1.6661  0.0452
    3MPD1    H214142   2.929   3.426  10.423 -0.6318  1.3319  1.4852
    3MPD1    H314143   3.110   3.382  10.572 -2.5521  0.0095 -0.7077
    3MPD1     N14144   3.268   3.802  10.524 -0.4704 -0.2635 -0.3303
    3MPD1    H514145   3.254   3.886  10.469 -0.9449  1.4913  2.4817
    3MPD1    N114146   2.906   3.645  10.266 -0.5586 -0.1283  0.2211
    3MPD1    H614147   2.839   3.573  10.241 -0.5974 -0.6664  1.8709
    3MPD1    H714148   2.929   3.711  10.192 -1.9963 -2.0290 -1.9174
    4MPD2     C14149   3.474   4.013  12.321  0.1645 -0.0160  0.1940
    4MPD2    C114150   3.604   3.972  12.284  0.2705  0.3909  0.0084
    4MPD2    C214151   3.662   4.017  12.170 -0.1748  0.0083 -0.7190
    4MPD2    C314152   3.605   4.123  12.097 -0.7529 -0.2683  0.1024
    4MPD2    C414153   3.472   4.150  12.126  0.5299 -0.6549 -0.4185
    4MPD2    C514154   3.406   4.098  12.234 -0.2735  0.2139  0.2363
    4MPD2     H14155   3.764   3.986  12.151 -1.6990 -4.1778 -2.0767
    4MPD2    H114156   3.414   4.216  12.061  0.2605  0.4051  0.8914
    4MPD2    H214157   3.430   3.980  12.415  1.5685 -0.6979  0.6175
    4MPD2    H314158   3.303   4.129  12.241 -0.2435  1.1343 -3.3483
    4MPD2     N14159   3.656   4.184  11.983 -0.3877 -0.1029 -0.1232
    4MPD2    H514160   3.584   4.235  11.931  0.2609  0.6630 -0.2733
    4MPD2    N114161   3.686   3.880  12.359  0.0932  0.2967  0.6831
    4MPD2    H714162   3.783   3.872  12.332 -0.3470  0.0517 -0.8690
    5TMC3    C114163   3.742   3.717  12.504 -0.3438 -1.0289 -0.2966
    5TMC3    C214164   3.694   3.583  12.502  1.1338  0.0821 -0.0437
    5TMC3    C314165   3.780   3.498  12.440  0.0154  0.7041 -0.0308
    5TMC3    C414166   3.871   3.751  12.468  0.3402  0.5988  0.1504
    5TMC3    C514167   3.952   3.661  12.408  0.4095 -0.1333 -1.0276
    5TMC3    C614168   3.907   3.532  12.395  0.2663  0.2337 -0.5133
    5TMC3     C14169   3.645   3.821  12.477 -0.6088  0.4464  0.0476
    5TMC3     O14170   3.531   3.813  12.525  0.3326  0.5101  0.3352
    5TMC3     H14171   3.596   3.552  12.537  1.1788  0.7125  0.6473
    5TMC3    H114172   3.911   3.851  12.478  2.9323 -0.7167  2.9691
    5TMC3    H214173   3.973   3.450  12.367 -0.8146 -1.0623  0.7452
    5TMC3    C714174   3.973   3.718  12.276  0.1303 -0.2724 -0.3249
    5TMC3    C814175   3.760   3.363  12.480  0.8441 -0.2578  0.2251
    5TMC3    O114176   3.957   3.838  12.267 -0.7637 -0.4264 -0.5577
    5TMC3    O214177   3.692   3.341  12.582 -0.4321 -0.0313 -0.2908
    6TMC3    C114178   3.312   4.169  10.657  0.0044  0.1562  1.7200
    6TMC3    C214179   3.337   4.052  10.587  0.6965  1.1901 -0.6747
    6TMC3    C314180   3.387   3.948  10.671 -0.4877  0.6377 -0.2087
    6TMC3    C414181   3.332   4.185  10.790  0.6670  0.7999 -0.6152
    6TMC3    C514182   3.361   4.079  10.865 -0.5220  0.4920 -0.3403
    6TMC3    C614183   3.399   3.962  10.803  0.3838  0.2619 -0.3747
    6TMC3     C14184   3.266   4.282  10.583  1.1597  0.5633  0.0692
    6TMC3     O14185   3.297   4.282  10.464 -0.8936  0.0683  0.3779
    6TMC3     H14186   3.316   4.041  10.482  2.8055 -0.4387 -0.9483
    6TMC3    H114187   3.338   4.285  10.829 -0.1871 -0.6041  3.1068
    6TMC3    H214188   3.427   3.888  10.877 -0.8334  1.1046  0.9319
    6TMC3    C714189   3.407   4.104  11.001 -0.2471 -0.0134  0.1465
    6TMC3    C814190   3.338   3.811  10.639  0.3638 -0.2347 -0.6839
    6TMC3    O114191   3.505   4.043  11.040 -0.3935  0.2696 -0.2160
    6TMC3    O214192   3.354   3.732  10.729 -0.1771 -0.0693 -0.1804
    7MPD2     C14193   4.158   3.708  11.800 -0.5643 -0.2384 -0.5399
    7MPD2    C114194   4.065   3.790  11.859  0.5442 -0.0208  0.3391
    7MPD2    C214195   4.024   3.763  11.985  0.5546  0.6186  0.0536
    7MPD2    C314196   4.081   3.657  12.058  0.8103  0.5683 -0.9435
    7MPD2    C414197   4.169   3.570  11.999  0.7572  0.2775 -0.2463
    7MPD2    C514198   4.200   3.595  11.871 -0.3827 -0.4038  0.4316
    7MPD2     H14199   3.951   3.828  12.031  2.1964  0.6228  2.6958
    7MPD2    H114200   4.198   3.476  12.043 -0.6884  0.4266  1.0120
    7MPD2    H214201   4.195   3.724  11.699  0.5108  1.2371  0.0917
    7MPD2    H314202   4.248   3.522  11.808 -1.2940 -1.3155  0.7874
    7MPD2     N14203   4.045   3.631  12.195  0.0555  0.3137  0.2734
    7MPD2    H514204   4.078   3.546  12.240  0.1548 -0.7417 -1.7596
    7MPD2    N114205   4.026   3.915  11.807  0.3731 -0.0660 -0.0046
    7MPD2    H714206   3.967   3.981  11.857  0.1574  0.5269 -1.0297
    8TMC3    C114207   3.958   4.072  11.663 -0.3332  0.3298 -0.2633
    8TMC3    C214208   3.862   4.080  11.569  0.7367 -0.4417 -0.8701
    8TMC3    C314209   3.745   4.138  11.600  0.4655 -0.1555  0.1931
    8TMC3    C414210   3.943   4.152  11.774  0.1249  0.1092  0.0511
    8TMC3    C514211   3.821   4.209  11.807  0.6027 -0.3944  0.1955
    8TMC3    C614212   3.718   4.198  11.719 -0.4905 -0.6294  0.5662
    8TMC3     C14213   4.035   3.953  11.678 -0.0756  0.3096 -0.3075
    8TMC3     O14214   4.092   3.900  11.584  0.7077 -0.2832  0.1930
    8TMC3     H14215   3.877   4.020  11.480 -2.1276 -1.2877 -0.7767
    8TMC3    H114216   4.023   4.162  11.847  0.0592  0.2429  0.1055
    8TMC3    H214217   3.623   4.245  11.743  0.4418  0.6162  1.7631
    8TMC3    C714218   3.788   4.173  11.946 -0.0122  0.1052 -0.2747
    8TMC3    C814219   3.667   4.163  11.480 -0.5380 -0.7145  0.3503
    8TMC3    O114220   3.875   4.112  11.999 -0.5494 -0.3194  0.2543
    8TMC3    O214221   3.712   4.120  11.377 -0.5325  0.0963 -0.2230
    9MPD2     C14222   3.383   4.399  11.429 -0.7590 -0.7799 -0.2435
    9MPD2    C114223   3.476   4.299  11.399 -0.3554  0.4942  0.5102
    9MPD2    C214224   3.465   4.237  11.271  0.1316 -0.1457 -0.4896
    9MPD2    C314225   3.361   4.269  11.185 -0.2469  0.8714  0.4775
    9MPD2    C414226   3.269   4.368  11.223  0.2771  0.1117 -0.3904
    9MPD2    C514227   3.278   4.431  11.344  0.4671  0.6332 -0.1713
    9MPD2     H14228   3.539   4.163  11.241  0.1516 -0.9500  1.5207
    9MPD2    H114229   3.186   4.392  11.157  1.1821  2.9590 -0.4754
    9MPD2    H214230   3.386   4.446  11.527 -2.4835 -0.5000 -0.3149
    9MPD2    H314231   3.207   4.511  11.363  0.8301  1.3839 -1.9566
    9MPD2     N14232   3.341   4.216  11.057 -0.0850 -1.3037  0.3397
    9MPD2    H514233   3.262   4.261  11.012  0.2794 -1.0217 -0.0213
    9MPD2    N114234   3.564   4.255  11.503 -0.0833  0.4331 -0.3268
    9MPD2    H714235   3.542   4.298  11.593 -0.8666  1.0228 -0.8027
    1MPD1     C14236   2.894   4.451  16.809 -0.1068 -0.0295  0.2232
    1MPD1    C114237   2.852   4.385  16.692 -0.3599  0.2567  1.0993
    1MPD1    C214238   2.835   4.241  16.698 -0.5136 -0.5648  0.1799
    1MPD1    C314239   2.860   4.173  16.817  0.1821  0.0763  0.2893
    1MPD1    C414240   2.916   4.238  16.924  0.1492 -0.8134 -0.5759
    1MPD1    C514241   2.932   4.379  16.918 -0.2028  0.5754  0.0103
    1MPD1     H14242   2.797   4.185  16.613  1.4207 -1.1079 -0.3295
    1MPD1    H114243   2.937   4.186  17.017  1.9288  0.7860 -0.1043
    1MPD1    H214244   2.905   4.559  16.803 -0.4029 -0.0474 -0.6629
    1MPD1    H314245   2.977   4.424  17.006  0.2293  0.4978 -0.1700
    1MPD1     N14246   2.833   4.037  16.843 -0.1837 -0.4105  0.6413
    1MPD1    H514247   2.847   4.009  16.940  0.3436 -1.5380  0.2372
    1MPD1    N114248   2.817   4.459  16.579 -0.0008 -0.1717 -0.2170
    1MPD1    H614249   2.858   4.552  16.577 -2.6380  0.9898 -0.4211
    1MPD1    H714250   2.840   4.408  16.495  1.1587 -0.9835  0.6095
    2MPD1     C14251   2.223   3.162  16.565  0.2159  0.8351 -0.8862
    2MPD1    C114252   2.157   3.243  16.646 -0.2195 -0.4552  0.3172
    2MPD1    C214253   2.228   3.351  16.695  0.1464 -0.9111  0.5917
    2MPD1    C314254   2.358   3.387  16.660  0.6232 -0.2055  0.9921
    2MPD1    C414255   2.413   3.302  16.566  0.3097 -0.3195 -0.5181
    2MPD1    C514256   2.345   3.194  16.521 -0.1737  0.0129 -0.3916
    2MPD1     H14257   2.166   3.409  16.762  0.8109  0.6670 -0.1700
    2MPD1    H114258   2.509   3.313  16.517  0.3000 -1.7201 -0.8433
    2MPD1    H214259   2.187   3.071  16.518  0.0281 -0.0811  1.0156
    2MPD1    H314260   2.392   3.142  16.438 -0.6970  0.9518 -1.2804
    2MPD1     N14261   2.421   3.501  16.724  0.0684 -0.4380  0.1837
    2MPD1    H514262   2.363   3.555  16.787 -0.5587  0.7640 -1.4247
    2MPD1    N114263   2.037   3.201  16.712 -0.0415 -0.2930  0.3343
    2MPD1    H614264   1.961   3.162  16.656 -0.1625  0.4377 -0.0078
    2MPD1    H714265   1.989   3.288  16.735 -0.5116 -0.2480 -0.7980
    3TCq2    C114266   2.548   3.538  16.698  0.1144 -0.0037 -0.8136
    3TCq2    O214267   2.616   3.510  16.603 -0.0315 -0.4163 -0.1375
    3TCq2    C214268   2.593   3.644  16.788  0.6902  0.1942 -0.1457
    3TCq2    C314269   2.528   3.662  16.910 -0.6295  0.2635 -0.5893
    3TCq2    C414270   2.564   3.770  16.986 -0.0110 -0.6253  0.9444
    3TCq2    C514271   2.658   3.856  16.945  0.1137  0.1129 -0.3155
    3TCq2    C614272   2.721   3.835  16.821 -0.2183  0.1799 -0.4087
    3TCq2    C714273   2.685   3.734  16.739 -0.4009  0.4942 -0.5475
    3TCq2    C814274   2.768   3.957  16.756  0.8202  0.3591  0.1805
    3TCq2    O414275   2.761   3.959  16.636  0.2430  0.2437 -0.1665
    3TCq2    C914276   2.499   3.787  17.110  0.2389 -0.8296 -0.8713
    3TCq2    O514277   2.521   3.898  17.169 -0.3816  0.2570  0.2960
    3TCq2    O614278   2.425   3.697  17.152  0.3830 -0.1147  0.1040
    3TCq2    H214279   2.460   3.588  16.951 -0.6993  1.0669  0.7457
    3TCq2    H314280   2.681   3.943  17.006 -2.0497 -0.2392  1.0197
    3TCq2    H414281   2.740   3.726  16.646 -0.2019  1.7017 -0.5344
    1TCq1    O114282   2.014   1.603  12.770  0.3137 -0.4016 -0.5245
    1TCq1    C114283   1.888   1.612  12.811 -0.2679  0.2483  0.5988
    1TCq1    O214284   1.807   1.526  12.821 -0.3097  0.5960  0.2293
    1TCq1    C214285   1.848   1.752  12.804  0.1040  0.0646  0.6555
    1TCq1    C314286   1.716   1.772  12.772  0.2066  0.3726  0.2959
    1TCq1    C414287   1.683   1.903  12.742 -0.4191  0.0754 -0.8604
    1TCq1    C514288   1.776   2.004  12.749 -0.2024 -1.0415  0.0661
    1TCq1    C614289   1.904   1.973  12.791 -0.1319  0.0283  0.4059
    1TCq1    C714290   1.946   1.845  12.815 -0.1697 -0.1377 -0.5065
    1TCq1    C814291   1.996   2.087  12.815  0.5393  0.0982  0.1874
    1TCq1    O414292   1.951   2.195  12.793 -0.1976  0.0608 -0.1744
    1TCq1    C914293   1.549   1.943  12.712  0.4438  0.6053 -0.2775
    1TCq1    O514294   1.460   1.850  12.709 -0.1902 -0.1158  0.2265
    1TCq1    O614295   1.525   2.066  12.695  0.0572 -0.0296  0.3457
    1TCq1    H114296   2.044   1.688  12.732  1.2499 -0.4559  0.1030
    1TCq1    H214297   1.648   1.688  12.774  0.9259 -0.1697  2.0586
    1TCq1    H314298   1.751   2.106  12.723  1.0359 -0.8617 -0.4379
    1TCq1    H414299   2.043   1.813  12.850  0.6970  0.4282 -2.4130
    2MPD2     C14300   2.215   2.276  12.866 -0.4369  0.4484 -0.8157
    2MPD2    C114301   2.227   2.137  12.868  0.6108 -0.6688  0.1989
    2MPD2    C214302   2.351   2.083  12.911 -0.3434  0.2418  0.7597
    2MPD2    C314303   2.452   2.162  12.966 -0.5559 -0.1282 -0.3024
    2MPD2    C414304   2.424   2.296  12.986 -0.6716 -0.3584  0.1546
    2MPD2    C514305   2.309   2.344  12.937 -0.4688 -0.5442 -0.0774
    2MPD2     H14306   2.369   1.976  12.911  0.9034  0.4421  0.0743
    2MPD2    H114307   2.488   2.367  13.038  0.4273 -2.0036  1.0532
    2MPD2    H214308   2.124   2.331  12.846 -0.0862  0.6015 -2.0222
    2MPD2    H314309   2.292   2.449  12.958  0.7042 -0.3785  0.0466
    2MPD2     N14310   2.572   2.102  13.024  0.1398  0.1897  0.0305
    2MPD2    H514311   2.574   2.000  13.030  0.2117  0.1991  0.1648
    2MPD2    N114312   2.123   2.047  12.829 -0.1847 -0.5826 -0.0337
    2MPD2    H714313   2.145   1.948  12.822 -2.8907 -1.2302  0.6451
    3TCq1    O114314   3.211   2.025  13.288 -0.2155  0.1177  0.2954
    3TCq1    C114315   3.113   2.117  13.283  0.2735 -0.3068  0.2859
    3TCq1    O214316   3.139   2.237  13.266 -0.5104 -0.6320  0.2439
    3TCq1    C214317   2.988   2.060  13.239  0.7170  0.7812  0.0560
    3TCq1    C314318   2.971   1.926  13.257  0.1467 -0.0033  0.3577
    3TCq1    C414319   2.856   1.873  13.199  0.0932  0.1368 -0.5667
    3TCq1    C514320   2.769   1.947  13.124  0.2295  0.3852 -0.1981
    3TCq1    C614321   2.794   2.081  13.116  0.5103 -0.1692  0.5845
    3TCq1    C714322   2.902   2.143  13.174  0.4551  0.2267  0.1629
    3TCq1    C814323   2.687   2.168  13.069  0.4334  0.3897  0.5155
    3TCq1    O414324   2.708   2.287  13.077  0.4103 -0.1458 -0.1681
    3TCq1    C914325   2.843   1.733  13.200  0.0647  0.4808 -0.2441
    3TCq1    O514326   2.729   1.688  13.165  0.0430  0.3124  0.2386
    3TCq1    O614327   2.928   1.664  13.257  0.4239 -0.4848 -0.1130
    3TCq1    H114328   3.165   1.938  13.287  1.7117 -0.9055  0.5189
    3TCq1    H214329   3.032   1.861  13.319  0.3090  0.7617  0.9990
    3TCq1    H314330   2.692   1.893  13.071 -0.5606  0.1080  1.2679
    3TCq1    H414331   2.925   2.247  13.158  2.1697 -0.2894 -0.7927
    1MPD2     C14332   1.210   2.643  15.242  0.3098 -0.1368 -0.9730
    1MPD2    C114333   1.211   2.571  15.120 -0.3290 -0.3273  0.3921
    1MPD2    C214334   1.337   2.542  15.067 -0.4073 -0.7705 -0.0505
    1MPD2    C314335   1.449   2.607  15.108 -0.0332 -0.4441  0.3960
    1MPD2    C414336   1.444   2.679  15.222 -0.5445  0.1673 -0.1569
    1MPD2    C514337   1.326   2.700  15.292  0.5458  0.3916 -0.0943
    1MPD2     H14338   1.351   2.479  14.979  0.2582 -0.7311  0.0287
    1MPD2    H114339   1.534   2.728  15.259  0.0124 -0.9297 -0.0713
    1MPD2    H214340   1.120   2.659  15.301  0.0017  0.8503 -1.7091
    1MPD2    H314341   1.332   2.751  15.388  0.0722 -0.6170  0.4738
    1MPD2     N14342   1.572   2.581  15.035  0.7325 -0.3880  0.1929
    1MPD2    H514343   1.556   2.516  14.958  0.4939 -0.3066  0.1763
    1MPD2    N114344   1.093   2.510  15.063  0.1967 -0.4768 -0.3868
    1MPD2    H714345   1.010   2.515  15.122 -0.3992 -1.0813 -1.1826
    2TMC3    C114346   0.954   2.392  14.913  0.1943  0.3429 -0.0691
    2TMC3    C214347   0.973   2.299  14.815 -0.5065  0.1940  0.2245
    2TMC3    C314348   0.897   2.302  14.698 -0.0974 -0.5163  0.7376
    2TMC3    C414349   0.861   2.487  14.899 -0.1272 -0.2333 -0.5926
    2TMC3    C514350   0.784   2.483  14.790 -0.0206 -0.4382 -0.5736
    2TMC3    C614351   0.787   2.386  14.691 -0.2133  0.1510  0.2690
    2TMC3     C14352   1.090   2.429  14.949  0.7182  0.4756  0.7234
    2TMC3     O14353   1.171   2.418  14.857 -0.6501 -0.4343 -0.6092
    2TMC3     H14354   1.045   2.218  14.823 -1.4548 -0.6746 -0.1032
    2TMC3    H114355   0.831   2.554  14.979  2.0126 -0.1822  0.1590
    2TMC3    H214356   0.731   2.400  14.599  2.6974  1.6182 -1.3020
    2TMC3    C714357   0.662   2.554  14.798 -0.1333 -0.5164 -0.2102
    2TMC3    C814358   0.974   2.267  14.583  0.3028  0.0836  0.8236
    2TMC3    O114359   0.560   2.504  14.750  0.0907 -0.0172 -0.4073
    2TMC3    O214360   0.918   2.218  14.487 -0.4862 -0.7371  0.0369
    3TCq1    O114361   0.463   3.703  15.047  0.1729  0.1503 -0.3472
    3TCq1    C114362   0.506   3.649  14.930  0.1784  0.4885  0.4323
    3TCq1    O214363   0.514   3.709  14.821  0.6210  0.1056  0.7290
    3TCq1    C214364   0.588   3.532  14.972 -0.2200  0.0839 -0.4668
    3TCq1    C314365   0.714   3.515  14.915  0.1953  0.7466 -0.0554
    3TCq1    C414366   0.791   3.408  14.952  0.1321 -0.1966  0.6476
    3TCq1    C514367   0.730   3.311  15.030  0.4350  0.1311 -0.0560
    3TCq1    C614368   0.598   3.326  15.073  0.3519  0.1855  0.2885
    3TCq1    C714369   0.524   3.437  15.042 -0.4591  0.0194 -0.5353
    3TCq1    C814370   0.508   3.206  15.076  0.2183  0.2146 -0.2981
    3TCq1    O414371   0.389   3.217  15.082  0.6076 -0.0165 -0.0313
    3TCq1    C914372   0.919   3.391  14.888  0.2819  0.1075 -0.1119
    3TCq1    O514373   0.948   3.487  14.814  0.3919  0.4617  0.4783
    3TCq1    O614374   1.000   3.301  14.935  0.3118 -0.6850 -0.5737
    3TCq1    H114375   0.511   3.664  15.123 -2.4955 -1.3856  0.5662
    3TCq1    H214376   0.754   3.596  14.856  1.7892  0.7061  0.9690
    3TCq1    H314377   0.794   3.229  15.062 -1.0501 -1.2367 -0.5835
    3TCq1    H414378   0.424   3.455  15.078 -0.6486 -1.8332 -0.1225
    4MPD2     C14379   0.387   2.933  15.017  0.4352 -0.0854 -0.4924
    4MPD2    C114380   0.522   2.968  15.007  0.0142  0.3878  0.3815
    4MPD2    C214381   0.612   2.875  14.956 -0.1631 -0.1685 -0.0974
    4MPD2    C314382   0.574   2.753  14.909 -0.5582 -0.1025  0.4119
    4MPD2    C414383   0.436   2.723  14.915 -0.6509  0.4829  0.3285
    4MPD2    C514384   0.351   2.813  14.974 -0.2000 -0.2718  0.0424
    4MPD2     H14385   0.716   2.903  14.946 -0.5446  0.2196 -2.9615
    4MPD2    H114386   0.407   2.629  14.870  1.0823 -0.6734  1.6220
    4MPD2    H214387   0.307   2.998  15.051 -0.4911 -1.8570  0.7452
    4MPD2    H314388   0.246   2.788  14.989 -0.0150  0.2547  2.2041
    4MPD2     N14389   0.675   2.676  14.851  0.0820  0.1375 -0.5409
    4MPD2    H514390   0.769   2.714  14.855 -0.3076  1.1203 -0.7030
    4MPD2    N114391   0.583   3.095  15.039  0.4410 -0.5624  0.1672
    4MPD2    H714392   0.683   3.095  15.024  0.3316  1.1812 -0.5481
    5TMC2    C114393   1.678   2.532  14.740 -0.2540 -0.2725  0.7003
    5TMC2    C214394   1.696   2.637  14.661  0.0623 -0.3126  0.2061
    5TMC2    C314395   1.750   2.745  14.713 -1.2277  0.4229  0.0358
    5TMC2    C414396   1.725   2.522  14.868 -0.2028 -0.2856  0.4816
    5TMC2    C514397   1.767   2.637  14.930 -0.0652 -0.6138  0.6733
    5TMC2    C614398   1.788   2.749  14.849 -0.5264 -0.2294 -0.1161
    5TMC2     C14399   1.572   2.440  14.700  0.1937 -1.3270 -0.4161
    5TMC2     O14400   1.521   2.381  14.796  0.1360  0.1456  0.0695
    5TMC2     H14401   1.666   2.643  14.557  1.1159 -1.2516 -0.1375
    5TMC2    H114402   1.715   2.427  14.919  0.0961 -2.0021 -2.6694
    5TMC2    H214403   1.818   2.844  14.893 -1.0845  0.2209 -0.7095
    5TMC2    C714404   1.680   2.663  15.039  0.8552 -0.2552  1.0842
    5TMC2    C814405   1.736   2.861  14.624 -1.0172  0.3047 -0.5588
    5TMC2    O114406   1.703   2.752  15.116 -0.9975 -0.2577 -0.0262
    5TMC2    O214407   1.747   2.855  14.504 -0.6869 -0.5072  0.1184
    5TMC2    O514408   1.742   2.973  14.696  0.4350  0.1402  0.3769
    5TMC2    H514409   1.708   2.967  14.788  0.3192 -2.0603  0.1816
    6MPD2     C14410   1.221   2.240  14.398 -0.3938  0.5545  0.1471
    6MPD2    C114411   1.226   2.275  14.529  0.2031 -0.1287 -1.1100
    6MPD2    C214412   1.339   2.316  14.589 -0.5404 -0.3531  0.6966
    6MPD2    C314413   1.455   2.341  14.517  0.2683  0.2150  0.4787
    6MPD2    C414414   1.452   2.296  14.390  0.3513  0.1515  0.0938
    6MPD2    C514415   1.339   2.248  14.334  0.3605 -0.2830  0.8636
    6MPD2     H14416   1.330   2.341  14.694 -1.5950 -0.4383  0.6306
    6MPD2    H114417   1.538   2.307  14.325  0.3779 -0.8232 -0.0300
    6MPD2    H214418   1.137   2.197  14.345 -2.3596  3.2203  1.1148
    6MPD2    H314419   1.346   2.216  14.230 -2.1029  1.7852  0.0399
    6MPD2     N14420   1.567   2.405  14.570  0.2806  0.2117  0.5498
    6MPD2    H514421   1.649   2.438  14.521 -0.2952  0.7821 -0.0232
    6MPD2    N114422   1.110   2.290  14.609 -0.6189  0.2338 -0.3239
    6MPD2    H714423   1.137   2.326  14.699  0.8806  0.7337 -0.9651
  945NH3     N114424   4.595   1.328   8.299  0.4960 -0.2748  0.2525
  945NH3     H214425   4.513   1.376   8.263  1.9821  0.9648 -1.4772
  945NH3     H314426   4.601   1.235   8.259 -4.8425 -0.6282  0.2497
  945NH3     H414427   4.566   1.324   8.397 -0.6634  1.2385 -0.0160
  946SOD     NA14428   0.190   0.970  15.018  0.4322 -0.1798  0.1920
  947SOD     NA14429   3.019   2.938  15.786 -0.6259 -0.0331 -0.1465
  948SOD     NA14430   4.478   1.350   1.210 -0.1631 -0.0983 -0.7758
  949SOD     NA14431   3.651   2.039   3.680  0.5645 -0.3038  0.3242
  950SOD     NA14432   2.147   2.806  15.428 -0.4529 -0.1901  0.2475
  951SOD     NA14433   3.855   3.820  11.129 -0.2385 -0.2571  0.2502
  952SOD     NA14434   1.370   3.822   0.346  0.8136  0.0555 -0.3826
  953SOD     NA14435   1.699   2.228  11.837 -0.1986  0.4345 -0.2501
  954SOD     NA14436   3.899   3.230  14.655 -0.2626  0.4796 -0.4897
  955SOD     NA14437   4.447   3.292  16.112  0.2134 -0.4424 -0.0144
  956SOD     NA14438   0.923   1.106   9.605  0.4059  0.4094  0.4910
  957SOD     NA14439   0.873   0.821  13.930  0.1741  0.0530 -0.5207
  958SOD     NA14440   2.174   1.298   9.385 -0.2581 -0.0140 -0.0315
  959SOD     NA14441   3.804   0.635  13.936 -0.0915  0.3850  0.3215
  960SOD     NA14442   2.809   1.466  13.210 -0.0327  0.4404 -0.1427
  961SOD     NA14443   0.727   1.222   9.926  0.0569  0.4105 -0.2901
  962SOD     NA14444   3.800   0.354   1.237  0.2321 -0.0989  0.2406
  963SOD     NA14445   1.728   1.598   8.733 -0.1464 -0.4722  0.2321
  964SOD     NA14446   1.851   2.167  10.815  0.0433  0.0132  0.0616
  965SOD     NA14447   4.188   1.352  16.740 -0.0483 -0.1228 -0.3776
  966SOD     NA14448   3.206   3.261  14.794  0.3617  0.3869 -0.2048
  967SOD     NA14449   0.719   0.963   9.798  0.3093  0.3066  0.5884
  968SOD     NA14450   2.032   4.204  17.127  0.0340  0.1468  0.0891
  969SOD     NA14451   1.378   3.913  11.055 -0.2468 -0.7549  0.2211
  970SOD     NA14452   3.015   1.060   7.471  0.0619  0.3924 -0.0161
  971SOD     NA14453   4.470   3.592  13.096 -0.4230 -0.1506 -0.1770
  972SOD     NA14454   2.322   2.122  12.019  0.2464 -0.2624 -0.5746
  973SOD     NA14455   1.707   2.897  11.009  0.1307 -0.0210 -0.0207
  974SOD     NA14456   4.306   2.662  13.298  0.4687 -0.4067 -0.0846
  975SOD     NA14457   1.643   4.542   3.890 -0.3603 -0.5084 -0.3783
  976SOD     NA14458   4.217   4.335  13.254  0.2380  0.0340 -0.1474
  977SOD     NA14459   3.377   0.983   0.852  0.2438 -0.0982  0.5236
  978SOD     NA14460   4.375   1.489   3.269  0.1395  0.1005  0.0134
  979SOD     NA14461   1.099   1.770  12.544  0.0089  0.2437  0.5115
  980SOD     NA14462   3.137   1.552  13.281 -0.1863 -0.0258 -0.2238
  981SOD     NA14463   4.717   2.044   9.862 -0.2952 -0.2567  0.1309
  982SOD     NA14464   1.706   4.168  17.179 -0.1512  0.3170 -0.1140
  983SOD     NA14465   0.429   2.367   9.586 -0.1806 -0.2286 -0.2823
  984SOD     NA14466   4.490   4.128  11.453  0.6769 -0.0543  0.0771
  985SOD     NA14467   3.360   0.477   0.692 -0.2849 -0.2983  0.4943
  986SOD     NA14468   1.164   1.457   9.439  0.4571 -0.0409 -0.5025
  987SOD     NA14469   1.607   3.618  11.529  0.4964 -0.1886  0.2285
  988SOD     NA14470   2.789   0.712   9.692  0.3826  0.3484  0.0863
  989SOD     NA14471   3.471   2.472  13.907  0.8300 -0.5404 -0.0748
  990SOD     NA14472   3.224   0.926   1.376 -0.5385 -0.3875  0.4990
  991SOD     NA14473   3.138   2.220  14.312 -0.3822  0.0911 -0.0625
  992SOD     NA14474   1.207   3.362  14.960 -0.0710 -0.0598  0.2424
  993SOD     NA14475   0.366   4.610   8.546 -0.3907 -0.7271 -0.0348
  994SOD     NA14476   2.175   1.350  12.426 -0.3426  0.4269  0.1708
  995SOD     NA14477   2.612   2.227  13.786 -0.0321  0.5178 -0.3460
  996SOD     NA14478   3.454   4.099   0.873  0.1218 -0.8478  0.7125
  997SOD     NA14479   3.467   1.901   4.959  0.0263  0.3563 -0.8143
  998SOD     NA14480   2.651   0.667   5.121 -0.0864 -0.4112  0.1839
  999SOD     NA14481   4.407   2.010  10.700 -0.1491  0.2177 -0.6659
 1000SOD     NA14482   3.242   1.175   1.109 -0.0068  0.4465 -0.4965
 1001SOD     NA14483   0.040   1.835   1.310  0.0759  0.3579  0.4478
 1002SOD     NA14484   4.621   1.520  11.250 -0.0307 -0.2561 -0.1349
 1003SOD     NA14485   2.459   3.741  11.860 -0.0942  0.1857  0.1157
 1004SOD     NA14486   1.913   1.268  12.209 -0.4178  0.0770 -0.0391
 1005SOD     NA14487   4.659   0.972  13.124  0.1662 -0.0966  0.3672
 1006SOD     NA14488   0.474   1.168   3.272 -0.1974  0.1117  0.0198
 1007SOD     NA14489   3.064   2.122   1.697  0.3043 -0.7227 -0.5620
 1008SOD     NA14490   2.550   2.242  15.029 -0.2410 -0.1840  0.0060
 1009SOD     NA14491   0.938   1.448   9.746 -0.0970 -0.5540 -0.4068
 1010SOD     NA14492   0.231   2.257   9.900 -0.4845  0.1344 -0.0072
 1011SOD     NA14493   2.564   0.161  16.315  0.3935 -0.2324 -0.6545
 1012SOL     OW14494   4.123   4.357   5.612 -0.4125  0.1478 -0.9145
 1012SOL    HW114495   4.182   4.373   5.538  0.5666 -0.8945 -0.3657
 1012SOL    HW214496   4.045   4.333   5.561  0.2930  1.1435 -2.4672
 1013SOL     OW14497   0.268   0.538   3.873 -0.1631 -0.2574  0.0526
 1013SOL    HW114498   0.328   0.612   3.876  1.2534 -1.4768  2.9258
 1013SOL    HW214499   0.244   0.537   3.781 -2.4732 -0.1690  0.6555
 1014SOL     OW14500   2.650   2.472   0.901 -0.3666  0.1223  0.0939
 1014SOL    HW114501   2.612   2.453   0.987 -0.3076 -1.2664 -0.1929
 1014SOL    HW214502   2.664   2.383   0.869  1.9094  0.2490  0.7549
 1015SOL     OW14503   4.454   3.997   0.843 -0.4363 -0.0162  0.3823
 1015SOL    HW114504   4.396   4.028   0.912  1.5079 -0.6217  2.3079
 1015SOL    HW214505   4.540   3.998   0.884 -1.7483 -1.8908  3.1896
 1016SOL     OW14506   1.801   3.383   2.842 -0.1006 -0.2759 -0.4380
 1016SOL    HW114507   1.727   3.340   2.885 -0.4180  0.7929  0.0887
 1016SOL    HW214508   1.744   3.439   2.789 -0.8947  0.6298  1.3695
 1017SOL     OW14509   3.260   4.050   3.572  0.1489 -0.3181  0.7418
 1017SOL    HW114510   3.300   4.132   3.602  1.8235 -0.4115 -1.2303
 1017SOL    HW214511   3.276   4.048   3.478 -1.2386  0.4164  0.4963
 1018SOL     OW14512   0.213   0.353   2.779  0.4037 -0.4561 -0.3434
 1018SOL    HW114513   0.235   0.307   2.860 -0.0408  0.9180  0.5546
 1018SOL    HW214514   0.128   0.311   2.768  0.2198 -0.1315 -0.1482
 1019SOL     OW14515   1.723   0.698   3.118  0.0971 -0.3338  0.1245
 1019SOL    HW114516   1.674   0.781   3.121 -0.5741 -0.7072 -0.6495
 1019SOL    HW214517   1.811   0.736   3.120 -0.1866  0.3822 -1.1934
 1020SOL     OW14518   1.960   1.783   5.302 -0.6122 -0.0223  0.0300
 1020SOL    HW114519   1.911   1.855   5.342  1.0456  0.8263  0.5298
 1020SOL    HW214520   1.956   1.717   5.371 -0.5118  1.3548  1.3587
 1021SOL     OW14521   2.572   0.247   0.781  0.3731 -0.3163 -0.1403
 1021SOL    HW114522   2.509   0.189   0.823  0.3901 -0.3750 -0.1946
 1021SOL    HW214523   2.574   0.198   0.698 -0.2286 -1.1856  0.3495
 1022SOL     OW14524   0.544   0.793   2.844 -0.5127  0.3155 -0.2254
 1022SOL    HW114525   0.481   0.810   2.774 -0.8726 -3.3224 -0.7973
 1022SOL    HW214526   0.519   0.870   2.895  0.4685  1.2217 -1.1129
 1023SOL     OW14527   0.095   3.527  13.969  0.1613  0.0119 -0.1135
 1023SOL    HW114528   0.151   3.576  14.030 -0.7233 -2.7689  2.9658
 1023SOL    HW214529   0.109   3.443  14.014  2.5395  0.4624 -0.0024
 1024SOL     OW14530   2.250   1.808  16.101  0.2751  0.4666 -0.3399
 1024SOL    HW114531   2.233   1.714  16.093  0.3140  0.3355  1.0872
 1024SOL    HW214532   2.341   1.817  16.073  0.3812 -0.5126 -0.3253
 1025SOL     OW14533   1.742   0.687   5.150 -0.6749  0.3166  0.8383
 1025SOL    HW114534   1.688   0.643   5.083  1.0183  0.5566 -0.6828
 1025SOL    HW214535   1.690   0.647   5.220  0.6249  0.2475  1.7615
 1026SOL     OW14536   4.610   4.437   6.552 -0.2983  0.0177 -0.0414
 1026SOL    HW114537   4.646   4.503   6.612  0.5332  0.8765 -1.4712
 1026SOL    HW214538   4.694   4.400   6.524 -0.2748 -0.0674  0.1431
 1027SOL     OW14539   1.176   1.968  12.086 -0.3843  0.2851 -0.5420
 1027SOL    HW114540   1.267   1.945  12.070 -0.4370 -2.9154  3.9902
 1027SOL    HW214541   1.176   2.056  12.123  1.7006  0.3561 -0.7562
 1028SOL     OW14542   0.826   2.959   5.255 -0.0272 -0.0407 -0.5893
 1028SOL    HW114543   0.822   2.866   5.230 -1.1640  0.0964 -0.8843
 1028SOL    HW214544   0.800   2.996   5.171  0.0447  1.2809 -0.0225
 1029SOL     OW14545   0.766   2.121   3.167 -0.2088  0.1815  0.3483
 1029SOL    HW114546   0.776   2.174   3.246 -0.5169  0.2733  0.3277
 1029SOL    HW214547   0.757   2.196   3.108 -1.1292  0.6360  1.0737
 1030SOL     OW14548   2.025   3.364   3.074  0.3873 -0.0902  0.1003
 1030SOL    HW114549   2.081   3.419   3.019  1.8327  1.0013  2.6221
 1030SOL    HW214550   1.937   3.385   3.045 -0.5026 -1.7924  1.5774
 1031SOL     OW14551   0.093   1.499  12.446  0.2247 -0.3349  0.2303
 1031SOL    HW114552   0.031   1.467  12.381 -2.5540 -1.4186  3.4065
 1031SOL    HW214553   0.167   1.446  12.416  1.0442  0.5553  0.6808
 1032SOL     OW14554   0.589   3.824   8.229  0.5393  0.3625  0.3863
 1032SOL    HW114555   0.603   3.821   8.135 -0.3572  0.9408  0.2406
 1032SOL    HW214556   0.643   3.898   8.259 -1.2100  1.7219  0.1392
 1033SOL     OW14557   2.621   1.221   7.293 -0.2203  0.4059  0.2913
 1033SOL    HW114558   2.677   1.170   7.351  1.3523  1.0078 -0.6963
 1033SOL    HW214559   2.561   1.155   7.260 -0.2497  0.6591 -0.1691
 1034SOL     OW14560   1.095   2.047   1.325  0.3602  0.0164 -0.0963
 1034SOL    HW114561   1.140   2.109   1.269  0.2142 -0.9614 -1.3003
 1034SOL    HW214562   1.117   2.074   1.414 -0.5725  0.3040  0.0484
 1035SOL     OW14563   0.743   1.564   5.674 -0.0214  0.2147  0.0139
 1035SOL    HW114564   0.727   1.497   5.741  0.7942  0.9742  0.9532
 1035SOL    HW214565   0.689   1.632   5.713  2.4850  1.1363  1.7996
 1036SOL     OW14566   3.217   3.069   3.145  0.1026 -0.3798  0.0420
 1036SOL    HW114567   3.260   2.986   3.123  0.1081 -0.4037  0.1404
 1036SOL    HW214568   3.289   3.130   3.129 -0.2834 -0.2595 -1.1734
 1037SOL     OW14569   1.156   0.323  12.514 -0.0873  0.2540 -0.4986
 1037SOL    HW114570   1.183   0.353  12.601 -0.7772  1.0590 -0.5614
 1037SOL    HW214571   1.091   0.254  12.526 -0.8382  0.4267 -3.5002
 1038SOL     OW14572   1.409   4.022   1.440 -0.0171  0.1268 -1.0900
 1038SOL    HW114573   1.426   4.105   1.395 -0.0918  0.1817 -1.0167
 1038SOL    HW214574   1.352   4.051   1.511  1.4905  2.5471 -0.8750
 1039SOL     OW14575   4.190   2.041  11.170 -0.5169 -0.3836  0.1330
 1039SOL    HW114576   4.236   2.113  11.212  0.0934 -0.7339  0.0742
 1039SOL    HW214577   4.123   2.087  11.120  1.2726  0.7864 -1.1964
 1040SOL     OW14578   3.323   2.432  12.810  0.2096  0.2729  0.8572
 1040SOL    HW114579   3.229   2.433  12.794  0.3675 -1.5554 -0.0649
 1040SOL    HW214580   3.359   2.419  12.723 -1.6836  0.7908 -0.0043
 1041SOL     OW14581   2.515   0.628  16.484  0.4079  0.0931  0.5452
 1041SOL    HW114582   2.603   0.661  16.504  1.9916 -2.3390 -2.4007
 1041SOL    HW214583   2.515   0.637  16.389  0.7175  1.4934  0.6647
 1042SOL     OW14584   1.036   1.502  14.736 -0.2854  0.2419  0.1006
 1042SOL    HW114585   0.980   1.484  14.660  0.0154  0.2103 -0.1153
 1042SOL    HW214586   0.973   1.527  14.803 -0.5470 -0.1876  0.0128
 1043SOL     OW14587   4.463   0.329   6.714  0.2744 -0.1589  0.3149
 1043SOL    HW114588   4.372   0.330   6.685  0.1842 -3.7220  0.5240
 1043SOL    HW214589   4.461   0.398   6.781  2.8132 -1.0865  1.3445
 1044SOL     OW14590   0.305   3.316   4.919 -0.8680 -0.5703  0.0686
 1044SOL    HW114591   0.320   3.359   4.835 -1.2606  0.5471  0.5779
 1044SOL    HW214592   0.387   3.345   4.958 -1.1140  1.3176 -0.8412
 1045SOL     OW14593   1.191   1.188   4.814  0.1559  0.0016  0.8336
 1045SOL    HW114594   1.099   1.163   4.808  0.6936 -1.6027 -0.7046
 1045SOL    HW214595   1.209   1.196   4.720  0.7451  0.4164  0.9809
 1046SOL     OW14596   3.658   1.671   5.424 -0.3790 -0.1199 -0.9224
 1046SOL    HW114597   3.605   1.623   5.360  0.7118 -1.3908 -0.8772
 1046SOL    HW214598   3.641   1.622   5.504  1.1441 -0.0657 -0.5718
 1047SOL     OW14599   0.060   1.273   2.303  0.1716 -0.2989 -0.1859
 1047SOL    HW114600   0.010   1.192   2.299  0.9279 -0.7218 -0.8398
 1047SOL    HW214601   0.067   1.287   2.209 -0.9547 -0.5611 -0.3037
 1048SOL     OW14602   4.592   3.949   1.116  0.0902  0.2234  0.1995
 1048SOL    HW114603   4.646   3.942   1.195 -1.1350 -0.8207  0.9408
 1048SOL    HW214604   4.645   4.002   1.056  1.5963  0.4939  1.7743
 1049SOL     OW14605   2.141   4.602   6.888 -0.3958 -0.4183  0.5382
 1049SOL    HW114606   2.062   4.656   6.895  0.6002  1.2148 -0.6187
 1049SOL    HW214607   2.214   4.663   6.875 -2.9484  3.0492  2.3587
 1050SOL     OW14608   0.824   4.533   7.943  0.5304  0.8635  0.2238
 1050SOL    HW114609   0.783   4.454   7.976  2.4940 -0.7391 -1.1686
 1050SOL    HW214610   0.826   4.583   8.025 -0.9391 -0.3272  0.9829
 1051SOL     OW14611   2.752   1.700  12.750 -0.0313 -0.5622  0.0836
 1051SOL    HW114612   2.837   1.659  12.733  0.2275  0.4640 -1.0622
 1051SOL    HW214613   2.775   1.792  12.760 -1.6678 -0.2813  1.2254
 1052SOL     OW14614   0.008   3.960   4.099 -0.0777  0.4516 -0.0247
 1052SOL    HW114615   4.689   3.882   4.136  1.8318  0.1087  1.3638
 1052SOL    HW214616   0.001   3.939   4.005 -0.5287 -1.2078  0.3683
 1053SOL     OW14617   3.598   3.163   0.173  0.2660  0.4511  0.5194
 1053SOL    HW114618   3.625   3.242   0.126 -0.4120  0.3578 -0.0294
 1053SOL    HW214619   3.629   3.099   0.109  2.3062  0.7848  1.1441
 1054SOL     OW14620   4.148   4.390   2.774 -0.0083 -0.1373  0.2794
 1054SOL    HW114621   4.101   4.432   2.701 -0.5969  0.5379  1.0421
 1054SOL    HW214622   4.198   4.469   2.797  0.1960 -0.8161  2.1268
 1055SOL     OW14623   3.453   2.193   7.000  0.1606 -0.2385 -0.2574
 1055SOL    HW114624   3.507   2.260   6.958  1.0821 -0.5408  0.4409
 1055SOL    HW214625   3.517   2.122   7.011  0.6431  0.1120 -0.7850
 1056SOL     OW14626   2.672   4.307   8.518 -0.0711 -0.0685  0.0044
 1056SOL    HW114627   2.606   4.368   8.486  2.2355  0.8464 -2.9611
 1056SOL    HW214628   2.702   4.347   8.600 -0.4167  2.4721 -1.1368
 1057SOL     OW14629   1.718   2.223   6.086 -0.4123 -1.0856 -0.6524
 1057SOL    HW114630   1.746   2.293   6.145 -1.7845  0.1506 -1.4660
 1057SOL    HW214631   1.628   2.253   6.072  0.5199  0.4269 -3.2080
 1058SOL     OW14632   0.163   0.790   7.269 -0.4390  0.2791 -0.7767
 1058SOL    HW114633   0.102   0.716   7.273 -2.7653  2.0479 -3.2878
 1058SOL    HW214634   0.138   0.839   7.347  1.8518 -1.7861  1.2067
 1059SOL     OW14635   2.916   4.140   2.993 -0.2660  0.2781 -0.0018
 1059SOL    HW114636   2.848   4.167   3.055 -0.8037 -0.2947 -0.3357
 1059SOL    HW214637   2.963   4.083   3.053  0.4882  0.6412 -0.2512
 1060SOL     OW14638   3.883   1.996  15.920  0.1312 -0.0407 -0.1581
 1060SOL    HW114639   3.921   2.080  15.947 -2.4879  1.0707  0.0280
 1060SOL    HW214640   3.917   1.982  15.832  0.3808  0.1775 -0.0960
 1061SOL     OW14641   3.460   1.759  11.185 -0.4107  0.3711 -0.5190
 1061SOL    HW114642   3.428   1.836  11.234  1.7621 -0.3222  1.9967
 1061SOL    HW214643   3.480   1.684  11.241 -1.7329 -1.4165 -2.4731
 1062SOL     OW14644   3.719   3.736   0.645 -0.8583  0.1678  0.4845
 1062SOL    HW114645   3.770   3.655   0.641 -0.4362  0.3449  2.3187
 1062SOL    HW214646   3.765   3.796   0.703 -1.7895  0.8998  0.4570
 1063SOL     OW14647   1.136   2.248   8.139 -0.6547 -0.1772  0.4680
 1063SOL    HW114648   1.152   2.336   8.105 -0.0945 -0.0606  1.0092
 1063SOL    HW214649   1.225   2.212   8.130 -1.2497 -0.9738 -2.0661
 1064SOL     OW14650   0.969   0.391   6.807  0.3237  1.1066  0.2149
 1064SOL    HW114651   0.994   0.393   6.714 -0.1674 -0.0236  0.0585
 1064SOL    HW214652   0.911   0.467   6.804 -1.7613 -0.4620  1.2551
 1065SOL     OW14653   2.788   4.415   3.806  0.2090  0.3892 -0.1678
 1065SOL    HW114654   2.768   4.507   3.820 -0.6267  0.3285 -0.9875
 1065SOL    HW214655   2.786   4.409   3.711 -1.9439  0.1531 -0.1248
 1066SOL     OW14656   2.421   2.120   8.766 -0.4770 -0.3668 -0.5784
 1066SOL    HW114657   2.361   2.046   8.779  0.2949 -1.0210 -0.7830
 1066SOL    HW214658   2.352   2.181   8.794 -2.2264 -1.6770 -2.0063
 1067SOL     OW14659   1.466   1.638   9.239 -0.0933  0.1093 -0.4550
 1067SOL    HW114660   1.500   1.726   9.256 -1.2301  0.3561  0.5209
 1067SOL    HW214661   1.501   1.625   9.151  1.3545  0.2313  0.1023
 1068SOL     OW14662   3.016   3.502  12.694  0.2908 -0.2254 -0.5101
 1068SOL    HW114663   2.928   3.466  12.710  0.2239  0.6659  1.1235
 1068SOL    HW214664   3.017   3.555  12.615 -1.4702  0.3304 -0.1632
 1069SOL     OW14665   0.251   3.028   9.570  0.1298 -0.5993  1.0775
 1069SOL    HW114666   0.320   2.963   9.563  0.3648 -0.4484  1.9152
 1069SOL    HW214667   0.300   3.110   9.577 -0.5880  0.0492 -1.5476
 1070SOL     OW14668   3.449   0.652   7.057  0.0981  0.0144  0.2490
 1070SOL    HW114669   3.386   0.627   7.125 -0.2049  1.5738  0.5590
 1070SOL    HW214670   3.492   0.571   7.032  1.3940  0.7287  0.1571
 1071SOL     OW14671   0.386   2.412   3.807 -0.1130 -0.3944  0.4326
 1071SOL    HW114672   0.434   2.494   3.802 -0.4347 -0.1761  0.9287
 1071SOL    HW214673   0.356   2.397   3.717 -1.0038  2.3616  0.2826
 1072SOL     OW14674   1.503   2.450  16.366 -0.6453  0.2650 -0.4480
 1072SOL    HW114675   1.426   2.493  16.329 -1.6955 -0.6950  0.6150
 1072SOL    HW214676   1.493   2.363  16.328 -0.1130  1.3916 -3.1724
 1073SOL     OW14677   0.820   2.571   7.115 -0.3220 -0.2121 -0.6507
 1073SOL    HW114678   0.773   2.609   7.041 -1.7313  1.1250  0.9433
 1073SOL    HW214679   0.898   2.541   7.068 -1.2260  0.9534 -2.8978
 1074SOL     OW14680   2.448   4.285   5.585  0.2807 -0.7006 -0.1256
 1074SOL    HW114681   2.353   4.276   5.583  0.0708  1.0003  2.7134
 1074SOL    HW214682   2.472   4.203   5.542 -0.2658 -0.1146 -1.5699
 1075SOL     OW14683   0.270   3.961  17.422  0.0079 -0.5078 -0.1954
 1075SOL    HW114684   0.271   3.955  17.326 -2.1061 -1.6964 -0.1454
 1075SOL    HW214685   0.236   3.879  17.458  0.9413 -0.2304  1.3219
 1076SOL     OW14686   0.063   4.217  10.354 -0.7693  0.0325  0.1913
 1076SOL    HW114687   0.035   4.180  10.438 -2.0458  0.7886  0.0888
 1076SOL    HW214688   0.116   4.149  10.313 -0.9221  0.2068 -0.2884
 1077SOL     OW14689   1.800   3.105  16.548  0.3473  0.5134 -0.1339
 1077SOL    HW114690   1.801   3.018  16.506 -0.1733 -0.5666  2.1090
 1077SOL    HW214691   1.732   3.089  16.613  0.4567 -1.2786 -0.4663
 1078SOL     OW14692   0.080   0.780   4.140  0.0905 -0.6417  0.1657
 1078SOL    HW114693   0.172   0.768   4.165  0.4623 -0.7127 -1.2316
 1078SOL    HW214694   0.030   0.769   4.221  1.8878  4.0004  1.9464
 1079SOL     OW14695   2.648   3.783  15.627 -0.0960 -0.4130  0.0583
 1079SOL    HW114696   2.556   3.804  15.641 -0.5347 -1.7862 -0.7378
 1079SOL    HW214697   2.654   3.775  15.532  0.9656  2.1870 -0.0828
 1080SOL     OW14698   4.707   4.719   0.765  0.0914  0.2869 -0.0872
 1080SOL    HW114699   4.614   0.018   0.760  0.4110  1.6855  0.1926
 1080SOL    HW214700   4.721   0.029   0.853 -0.3111 -0.1147  0.1252
 1081SOL     OW14701   3.596   3.414   2.472  0.1478  0.0454  0.4575
 1081SOL    HW114702   3.569   3.487   2.528  2.0610  1.2128 -0.1164
 1081SOL    HW214703   3.627   3.459   2.393  1.3634 -2.4639 -0.4705
 1082SOL     OW14704   3.019   0.712   0.052  0.4162 -0.6019 -0.1650
 1082SOL    HW114705   3.066   0.747   0.127  1.0967 -0.5241 -0.6206
 1082SOL    HW214706   3.093   0.691  17.687  0.7425 -0.5606  0.2456
 1083SOL     OW14707   1.643   3.779   3.611  0.5695  0.1991  0.2041
 1083SOL    HW114708   1.717   3.825   3.652 -0.6943  2.0239  0.4168
 1083SOL    HW214709   1.669   3.693   3.644  0.0133  0.1580  0.5196
 1084SOL     OW14710   2.867   0.302  16.489  0.1756  0.6203 -0.4058
 1084SOL    HW114711   2.943   0.359  16.476 -0.4173  1.3826 -0.5166
 1084SOL    HW214712   2.828   0.295  16.402  1.8617 -0.2140 -1.0973
 1085SOL     OW14713   3.072   2.964  16.610  0.2456  0.0102  0.5888
 1085SOL    HW114714   2.986   2.984  16.574  0.8278 -3.3597 -2.7176
 1085SOL    HW214715   3.095   2.881  16.569 -2.3820 -0.8373  0.8387
 1086SOL     OW14716   4.403   3.964   4.472  0.0477 -0.2785 -0.1966
 1086SOL    HW114717   4.453   3.965   4.391 -0.2339  1.6982 -0.3453
 1086SOL    HW214718   4.324   3.988   4.423 -1.5483  1.2328  3.0829
 1087SOL     OW14719   4.222   0.292  14.739  0.0870 -0.1503  0.0091
 1087SOL    HW114720   4.252   0.251  14.821 -2.7025  1.8157  2.0071
 1087SOL    HW214721   4.137   0.247  14.738 -1.2447  2.4509 -2.0624
 1088SOL     OW14722   3.444   0.109   2.994 -0.2866  0.1189 -0.0359
 1088SOL    HW114723   3.353   0.093   3.020 -0.0408  0.7865  1.2501
 1088SOL    HW214724   3.439   0.139   2.903 -1.5535 -1.4503 -0.4820
 1089SOL     OW14725   1.101   4.092  11.161  0.1848 -0.6512 -0.2149
 1089SOL    HW114726   1.019   4.119  11.119 -0.0024 -0.4414  0.2903
 1089SOL    HW214727   1.129   4.014  11.113 -2.6913 -0.2239 -2.6155
 1090SOL     OW14728   1.451   3.213   6.296  0.2473  0.5031  0.1187
 1090SOL    HW114729   1.396   3.158   6.351 -0.5603 -2.2702 -3.5411
 1090SOL    HW214730   1.538   3.212   6.337 -1.0376 -2.5450  2.7811
 1091SOL     OW14731   0.282   2.431   0.460 -0.1291  0.6412  0.2887
 1091SOL    HW114732   0.341   2.475   0.399 -0.6599  1.2490  0.2040
 1091SOL    HW214733   0.305   2.468   0.545 -1.6897 -1.1256  1.4691
 1092SOL     OW14734   2.950   4.095   6.348 -0.2176 -0.5863  0.0357
 1092SOL    HW114735   2.973   4.096   6.255 -1.8511  2.1857 -0.3422
 1092SOL    HW214736   2.918   4.185   6.354 -1.8564 -1.0129 -2.3089
 1093SOL     OW14737   4.085   4.588   9.889 -0.7805 -0.0826  0.1012
 1093SOL    HW114738   4.177   4.567   9.874 -1.0133 -2.0204  1.3430
 1093SOL    HW214739   4.087   4.683   9.897  0.6999 -0.2113  1.1576
 1094SOL     OW14740   1.197   0.249   6.373  0.2117  0.0646 -0.0327
 1094SOL    HW114741   1.246   0.296   6.306 -3.6262  1.2180 -2.0263
 1094SOL    HW214742   1.197   0.161   6.337 -1.9948  0.4654 -1.0506
 1095SOL     OW14743   4.230   2.410   2.337  0.0724  0.2364  0.0553
 1095SOL    HW114744   4.234   2.495   2.380  1.6872 -1.1974  2.7593
 1095SOL    HW214745   4.155   2.375   2.385 -0.1991  0.1806 -0.4060
 1096SOL     OW14746   3.715   0.775   5.922 -1.0484 -0.4085  0.2693
 1096SOL    HW114747   3.761   0.691   5.921  2.3832  1.4511  1.3762
 1096SOL    HW214748   3.726   0.795   5.829 -3.0887  1.0861  0.3803
 1097SOL     OW14749   2.796   3.487   2.483 -0.5695 -0.2413  0.3288
 1097SOL    HW114750   2.759   3.537   2.555 -1.8941 -0.3780 -0.2480
 1097SOL    HW214751   2.886   3.480   2.516 -0.3076  0.3933 -0.2417
 1098SOL     OW14752   0.705   1.832   8.999  0.3478  0.0019  0.0472
 1098SOL    HW114753   0.639   1.902   9.000  1.7786  1.3124  2.4462
 1098SOL    HW214754   0.729   1.821   8.907 -2.1789  1.8610 -0.8466
 1099SOL     OW14755   3.284   2.096   5.735 -0.2454  0.4144 -0.3410
 1099SOL    HW114756   3.198   2.104   5.776  0.1255  0.7506  0.3727
 1099SOL    HW214757   3.288   2.002   5.716  0.1556  0.5145 -0.7387
 1100SOL     OW14758   0.980   2.839   5.660 -0.0583  0.1475 -0.2349
 1100SOL    HW114759   1.061   2.878   5.691  0.8891 -1.6295 -0.4654
 1100SOL    HW214760   1.021   2.780   5.596 -0.5666 -1.3620  0.8166
 1101SOL     OW14761   4.203   1.810  15.748 -0.2270  0.2242  0.1365
 1101SOL    HW114762   4.267   1.845  15.686  0.1939 -0.7170  0.0405
 1101SOL    HW214763   4.129   1.864  15.721  0.3139  0.9735  0.1568
 1102SOL     OW14764   1.280   0.725  13.695 -0.6367  0.2347 -0.6148
 1102SOL    HW114765   1.317   0.663  13.632  0.1481 -0.9476  1.0468
 1102SOL    HW214766   1.278   0.685  13.781 -1.9981  1.6996  0.0374
 1103SOL     OW14767   2.444   2.183   0.355  0.2218 -0.3975  0.1008
 1103SOL    HW114768   2.470   2.255   0.412  2.1911 -1.2155  0.2347
 1103SOL    HW214769   2.381   2.135   0.409  1.9089 -1.6541  0.9540
 1104SOL     OW14770   1.505   2.473   5.136  0.1608  0.1288 -0.3434
 1104SOL    HW114771   1.435   2.536   5.115  1.6734  2.0050  0.2325
 1104SOL    HW214772   1.489   2.484   5.230 -2.3061 -1.1718 -0.5991
 1105SOL     OW14773   1.817   0.835   6.064 -0.1377 -0.2563 -0.4687
 1105SOL    HW114774   1.742   0.779   6.045  1.1927 -1.4902 -2.0746
 1105SOL    HW214775   1.892   0.785   6.032  0.9229 -0.2053  1.9691
 1106SOL     OW14776   2.251   0.765  16.490 -0.3415 -0.8792  0.3269
 1106SOL    HW114777   2.290   0.853  16.486  2.2060 -1.9090  2.6262
 1106SOL    HW214778   2.321   0.706  16.465 -2.0861 -1.9493 -2.0575
 1107SOL     OW14779   2.322   3.676  10.938 -0.5939  0.6335  0.2873
 1107SOL    HW114780   2.351   3.766  10.923 -0.4784  0.5183 -0.1799
 1107SOL    HW214781   2.284   3.652  10.854 -1.2335 -2.1706  1.3656
 1108SOL     OW14782   1.693   0.349   2.752 -0.1945 -1.0057  0.3420
 1108SOL    HW114783   1.638   0.386   2.683  1.6484  1.3999  0.1585
 1108SOL    HW214784   1.725   0.270   2.709 -3.4849  0.1332 -4.1888
 1109SOL     OW14785   4.419   3.211   4.444  0.4446  1.0457 -0.5764
 1109SOL    HW114786   4.475   3.272   4.492  0.7266  0.0579  0.3286
 1109SOL    HW214787   4.477   3.183   4.373  0.0879  2.5559 -1.4733
 1110SOL     OW14788   4.589   4.275  14.262  0.3603  0.2049 -0.0538
 1110SOL    HW114789   4.550   4.304  14.345 -3.4991 -1.3555 -1.2944
 1110SOL    HW214790   4.516   4.218  14.237  0.4858 -0.1536  0.3923
 1111SOL     OW14791   1.371   4.032   0.399  0.0311 -0.2232  0.1602
 1111SOL    HW114792   1.314   4.110   0.397  1.0896  0.5564  0.5353
 1111SOL    HW214793   1.403   4.044   0.488 -3.4686 -1.9806  1.6659
 1112SOL     OW14794   1.749   3.131   1.211  0.4340  0.2327  0.3177
 1112SOL    HW114795   1.664   3.157   1.247 -0.3379 -1.2933 -0.4033
 1112SOL    HW214796   1.727   3.119   1.118 -4.1497  2.2973  1.1449
 1113SOL     OW14797   3.505   3.398   9.266 -0.4053 -0.0607  0.0809
 1113SOL    HW114798   3.444   3.326   9.253 -0.4681  0.3526 -1.8283
 1113SOL    HW214799   3.557   3.363   9.338  3.6386  3.2720 -1.2215
 1114SOL     OW14800   0.490   1.237   1.663 -0.1868  0.0584 -0.5497
 1114SOL    HW114801   0.559   1.184   1.704  0.6226 -0.4508 -2.5619
 1114SOL    HW214802   0.452   1.170   1.606  1.3162 -1.4355  0.1905
 1115SOL     OW14803   0.030   4.675   4.861 -0.3035 -1.2249  0.1410
 1115SOL    HW114804   0.091   0.023   4.839  1.1426 -2.3561  0.5635
 1115SOL    HW214805   0.016   4.695   4.954 -0.6834 -0.6968 -0.0304
 1116SOL     OW14806   1.577   2.629   2.986  0.3292 -0.3654  0.3840
 1116SOL    HW114807   1.552   2.688   2.915 -0.0211 -0.8563  0.0995
 1116SOL    HW214808   1.568   2.685   3.062  1.5149 -0.9548  0.9620
 1117SOL     OW14809   3.200   3.593   2.979  0.5940  0.5925  0.2635
 1117SOL    HW114810   3.108   3.612   2.998  0.0846 -2.9463  1.4100
 1117SOL    HW214811   3.191   3.567   2.888  1.7134 -0.1116  0.3489
 1118SOL     OW14812   0.762   0.650   7.113  0.0757  0.5374  0.3576
 1118SOL    HW114813   0.753   0.610   7.200  1.0828 -3.3691 -1.3205
 1118SOL    HW214814   0.725   0.586   7.052 -2.1458  1.6394  0.5415
 1119SOL     OW14815   0.223   0.160   7.993 -0.4858 -0.7003 -0.5641
 1119SOL    HW114816   0.232   0.233   7.931 -1.4630 -0.1195 -0.0192
 1119SOL    HW214817   0.129   0.141   7.996 -0.8482  0.8495 -1.9942
 1120SOL     OW14818   4.102   2.587   5.581  0.3247 -0.3814 -0.0922
 1120SOL    HW114819   4.151   2.609   5.660 -1.6712  1.7683  0.5441
 1120SOL    HW214820   4.169   2.594   5.514  1.5330 -0.7260  1.0852
 1121SOL     OW14821   1.456   1.926   3.562 -0.3520 -0.4655 -0.0546
 1121SOL    HW114822   1.453   1.854   3.625  1.0859 -1.3438 -0.9827
 1121SOL    HW214823   1.546   1.924   3.528 -1.2512  0.3879 -2.4958
 1122SOL     OW14824   0.235   1.735   3.081  0.0180 -0.5125 -0.6744
 1122SOL    HW114825   0.318   1.686   3.079  1.2765  1.7008 -2.8828
 1122SOL    HW214826   0.180   1.657   3.069 -1.9089  0.7485  0.0446
 1123SOL     OW14827   2.146   1.042  11.598 -0.2547  0.1192 -0.0672
 1123SOL    HW114828   2.182   1.012  11.515  1.6083  0.0797  0.7498
 1123SOL    HW214829   2.133   1.133  11.574 -0.3245  1.0128  3.2503
 1124SOL     OW14830   0.099   2.596   1.704 -0.7939 -1.0662 -0.4358
 1124SOL    HW114831   0.123   2.582   1.612  0.9900  0.2017 -0.1693
 1124SOL    HW214832   0.176   2.565   1.752 -0.2539 -0.7297 -1.0811
 1125SOL     OW14833   1.289   2.750   3.003 -0.3876 -0.2088 -0.1112
 1125SOL    HW114834   1.216   2.811   3.014  0.4066  0.8024 -0.4658
 1125SOL    HW214835   1.351   2.775   3.071  1.3717  1.2593 -2.2618
 1126SOL     OW14836   4.122   3.869   8.534  0.1461  0.1215 -0.0766
 1126SOL    HW114837   4.120   3.964   8.530  1.1309  0.2044  1.6516
 1126SOL    HW214838   4.205   3.862   8.581 -0.1295  2.5919  0.7577
 1127SOL     OW14839   0.289   1.191   2.447 -0.2093 -0.0195  0.1927
 1127SOL    HW114840   0.208   1.233   2.421  1.5460  1.9325 -2.1254
 1127SOL    HW214841   0.277   1.101   2.414  0.9690  0.3533 -1.2824
 1128SOL     OW14842   0.696   2.200   6.174  0.0426 -0.3565 -0.0944
 1128SOL    HW114843   0.776   2.246   6.197 -0.8397  1.0918  0.0900
 1128SOL    HW214844   0.706   2.162   6.086  0.5829  0.1410 -0.2428
 1129SOL     OW14845   0.592   0.774   6.925  0.6558 -0.4388  0.3503
 1129SOL    HW114846   0.666   0.736   6.973 -0.4579 -1.8462  0.9502
 1129SOL    HW214847   0.526   0.709   6.950 -0.7344  0.6673 -0.5025
 1130SOL     OW14848   1.793   4.321  12.330 -0.1901 -0.0946  0.5156
 1130SOL    HW114849   1.821   4.409  12.355  0.8479 -0.5779  1.0442
 1130SOL    HW214850   1.724   4.314  12.395  0.7592  0.8017  1.6206
 1131SOL     OW14851   0.770   0.036   7.785  0.3664 -0.1708  0.0521
 1131SOL    HW114852   0.832   0.103   7.812 -1.9566  1.1136  2.1958
 1131SOL    HW214853   0.808   4.681   7.827 -0.2264 -0.3497  0.2733
 1132SOL     OW14854   3.985   3.432   2.202  0.0466  0.1349  0.7631
 1132SOL    HW114855   3.986   3.337   2.207  0.6171  0.2312  2.5482
 1132SOL    HW214856   3.903   3.433   2.154  0.3090 -0.0224  0.3073
 1133SOL     OW14857   0.109   4.314   6.441  0.2721  0.3291  0.0872
 1133SOL    HW114858   0.172   4.326   6.512  1.3864 -0.9365 -0.6780
 1133SOL    HW214859   0.165   4.260   6.385  1.8280  1.3629  0.6427
 1134SOL     OW14860   2.702   1.306   3.408  0.3641  0.1973  0.0289
 1134SOL    HW114861   2.673   1.226   3.364  1.0081  0.5609 -1.0577
 1134SOL    HW214862   2.758   1.270   3.477 -1.0283 -1.0899  0.4793
 1135SOL     OW14863   1.504   2.835   5.065  0.6328  0.0736  0.2429
 1135SOL    HW114864   1.420   2.822   5.109  0.9036  0.0557  0.7483
 1135SOL    HW214865   1.475   2.819   4.975 -1.9119  2.2139  0.6837
 1136SOL     OW14866   2.104   2.422   3.250 -0.0944  0.3581  0.2787
 1136SOL    HW114867   2.176   2.374   3.208  0.6564  1.0933  0.7185
 1136SOL    HW214868   2.030   2.362   3.245 -0.5200  0.9179 -0.1262
 1137SOL     OW14869   2.204   1.331   8.277  0.4129  0.0043 -0.3707
 1137SOL    HW114870   2.230   1.266   8.342  4.3101  1.8159 -0.1760
 1137SOL    HW214871   2.266   1.323   8.205  0.6245 -0.8442 -0.0887
 1138SOL     OW14872   1.429   3.861  16.883 -0.3807  0.5809  0.3442
 1138SOL    HW114873   1.365   3.792  16.901 -0.8529  1.2617  1.2820
 1138SOL    HW214874   1.433   3.908  16.966  0.2749  0.3858  0.4243
 1139SOL     OW14875   1.792   4.206   7.859 -0.1602  0.1067 -0.2007
 1139SOL    HW114876   1.720   4.144   7.851 -0.2408  0.1241  0.4269
 1139SOL    HW214877   1.790   4.240   7.948 -0.2057  0.2121 -0.2426
 1140SOL     OW14878   3.061   3.151   9.591  0.3473 -0.2499 -0.4535
 1140SOL    HW114879   2.984   3.115   9.635 -0.1496  0.9228 -0.3621
 1140SOL    HW214880   3.076   3.224   9.651  2.1728  0.7019 -2.0973
 1141SOL     OW14881   1.359   2.667   2.733 -0.6604  0.0300 -0.1706
 1141SOL    HW114882   1.349   2.613   2.812  1.5121  0.8251  0.6370
 1141SOL    HW214883   1.287   2.637   2.678  0.4091 -0.7255 -1.1510
 1142SOL     OW14884   0.026   4.290  11.932 -0.7121 -0.4497  0.3208
 1142SOL    HW114885   0.070   4.253  12.009  0.4836 -0.0393 -0.1677
 1142SOL    HW214886   0.074   4.260  11.854 -0.5653  0.6368  0.0011
 1143SOL     OW14887   2.264   4.043   5.788 -0.4069 -0.1400  0.1500
 1143SOL    HW114888   2.324   4.080   5.853  1.2684 -0.8916 -0.9972
 1143SOL    HW214889   2.263   3.953   5.818  2.8005  0.2663  1.4150
 1144SOL     OW14890   4.119   4.651   8.372 -0.7148 -0.2741  0.3371
 1144SOL    HW114891   4.050   4.710   8.402 -0.6946 -1.0941  1.9745
 1144SOL    HW214892   4.122   4.599   8.452 -0.4099 -1.3266 -0.3470
 1145SOL     OW14893   0.095   3.103  10.702  0.2868  0.3671  0.0283
 1145SOL    HW114894   0.017   3.140  10.743 -0.6383 -2.0095  0.4128
 1145SOL    HW214895   0.091   3.008  10.717 -0.8778  0.5649  0.9589
 1146SOL     OW14896   0.448   4.267   1.782 -0.4692 -0.4967 -0.0217
 1146SOL    HW114897   0.436   4.301   1.693  0.3023 -1.5318 -0.5115
 1146SOL    HW214898   0.491   4.184   1.763 -0.8685 -0.6239 -0.3896
 1147SOL     OW14899   2.995   3.168  15.891  0.0057 -0.1441 -0.6693
 1147SOL    HW114900   3.062   3.211  15.838 -0.4994  0.7727 -0.5520
 1147SOL    HW214901   2.938   3.244  15.896 -0.7010 -0.7539  0.6379
 1148SOL     OW14902   3.131   3.403  12.313  0.4572 -0.3205  0.5281
 1148SOL    HW114903   3.171   3.436  12.393 -0.3415  1.9954 -0.0066
 1148SOL    HW214904   3.038   3.424  12.324  0.4065  0.2179 -0.8777
 1149SOL     OW14905   0.372   1.988  14.944  0.0597 -0.7390  0.8267
 1149SOL    HW114906   0.296   1.965  14.998 -0.6896 -0.6766 -0.2081
 1149SOL    HW214907   0.330   1.998  14.859 -0.9370  2.3731  1.6666
 1150SOL     OW14908   0.063   1.927  13.567 -0.0855  0.6322 -0.3866
 1150SOL    HW114909   0.020   2.010  13.544  0.6055  1.5538  1.7010
 1150SOL    HW214910   0.150   1.952  13.597  0.8851 -0.8426 -1.9535
 1151SOL     OW14911   1.843   1.820  15.883 -0.1242  0.2822 -0.3398
 1151SOL    HW114912   1.889   1.816  15.967  1.0034 -2.3570 -1.0863
 1151SOL    HW214913   1.897   1.879  15.831 -1.8220  0.9576 -1.3338
 1152SOL     OW14914   0.094   4.512   0.645 -0.0832  0.0278 -0.0085
 1152SOL    HW114915   0.049   4.573   0.703 -1.9512 -1.9209  0.6041
 1152SOL    HW214916   0.042   4.522   0.565 -0.5268  1.7577  0.4967
 1153SOL     OW14917   4.113   0.842   1.965  0.0658 -0.5938 -0.6024
 1153SOL    HW114918   4.092   0.805   1.879 -0.5674 -0.5742 -0.4568
 1153SOL    HW214919   4.104   0.765   2.021 -0.8006  1.5996  2.2312
 1154SOL     OW14920   0.959   1.678   6.903 -0.0451  0.2510  0.9713
 1154SOL    HW114921   0.958   1.707   6.994 -0.2317 -1.5440  1.5362
 1154SOL    HW214922   1.047   1.689   6.865 -0.1554 -1.7277  0.1628
 1155SOL     OW14923   2.139   2.727  11.575 -0.3152  0.1056 -0.1685
 1155SOL    HW114924   2.180   2.710  11.659 -0.0699 -2.8020 -0.8787
 1155SOL    HW214925   2.217   2.731  11.520 -1.9666  0.7179 -2.4830
 1156SOL     OW14926   4.556   0.589   4.428  0.2745  0.0356  0.3367
 1156SOL    HW114927   4.556   0.524   4.499 -1.3017 -0.5936 -0.2367
 1156SOL    HW214928   4.581   0.535   4.353  0.3801 -3.0006  2.5634
 1157SOL     OW14929   2.250   1.448  11.256  0.1567  0.1144  0.2634
 1157SOL    HW114930   2.174   1.485  11.212  0.3427 -0.9943 -1.0028
 1157SOL    HW214931   2.264   1.368  11.204  0.6741 -1.2497  2.4958
 1158SOL     OW14932   1.572   0.720  11.833 -0.7455  0.2084  0.0719
 1158SOL    HW114933   1.666   0.723  11.850 -0.4787  2.0824 -1.5810
 1158SOL    HW214934   1.568   0.720  11.737  0.8630  1.4572  0.0087
 1159SOL     OW14935   1.001   2.177  13.577 -0.1081 -0.0142  0.0146
 1159SOL    HW114936   0.981   2.234  13.651 -0.5538  0.7231 -0.6724
 1159SOL    HW214937   1.051   2.234  13.517  0.8132 -0.9569 -0.1132
 1160SOL     OW14938   2.398   1.765   9.058  0.1251 -0.0749 -0.2985
 1160SOL    HW114939   2.438   1.839   9.012  1.6033  0.0522  1.2177
 1160SOL    HW214940   2.351   1.813   9.126 -0.6525  0.0454 -0.9106
 1161SOL     OW14941   2.993   2.031   0.624  0.0499  0.2647 -0.2508
 1161SOL    HW114942   2.912   1.981   0.635  0.6536 -0.7602 -0.4398
 1161SOL    HW214943   3.058   1.984   0.571  0.9950  0.5273  0.6836
 1162SOL     OW14944   0.968   1.970  10.974 -0.5899 -0.9561 -0.7938
 1162SOL    HW114945   0.887   1.936  11.012 -0.8186  0.0481 -0.3968
 1162SOL    HW214946   0.939   2.061  10.972  0.3162 -0.6469  0.5260
 1163SOL     OW14947   2.727   4.012   4.686  0.0457 -0.0213  0.0026
 1163SOL    HW114948   2.793   3.949   4.712 -1.8835 -1.3021  1.7710
 1163SOL    HW214949   2.678   3.964   4.619 -2.8597 -1.0325  2.8772
 1164SOL     OW14950   0.926   2.188   8.535  0.3562  0.0743 -0.0414
 1164SOL    HW114951   0.843   2.169   8.579  0.3348  0.5689  0.1300
 1164SOL    HW214952   0.894   2.186   8.444  0.9366  0.4631 -0.2491
 1165SOL     OW14953   4.179   4.507   3.907  0.1106 -0.2979 -0.6923
 1165SOL    HW114954   4.213   4.549   3.986  0.2720 -4.4378  1.4469
 1165SOL    HW214955   4.218   4.420   3.915  1.0597  0.1835 -0.0725
 1166SOL     OW14956   4.558   3.859  10.657  0.2775  0.0229  0.0055
 1166SOL    HW114957   4.531   3.881  10.746  1.4932  1.1734  0.0884
 1166SOL    HW214958   4.581   3.941  10.612 -1.8158 -0.1323 -1.3433
 1167SOL     OW14959   1.531   2.142  12.245 -0.3162 -0.0488  0.0172
 1167SOL    HW114960   1.600   2.107  12.301  0.9167  1.5363 -0.5155
 1167SOL    HW214961   1.465   2.169  12.309  1.5836  0.2790  1.8158
 1168SOL     OW14962   2.161   2.233   0.742 -0.0569 -0.0742  0.7781
 1168SOL    HW114963   2.069   2.257   0.752  1.0502  3.8165  1.5137
 1168SOL    HW214964   2.171   2.163   0.807  1.0013  0.6846  1.4483
 1169SOL     OW14965   1.417   3.331  10.201 -0.4331  0.3143 -0.3151
 1169SOL    HW114966   1.477   3.386  10.151  1.7445 -0.5111  1.4356
 1169SOL    HW214967   1.459   3.246  10.194 -2.6431 -0.9508  1.6572
 1170SOL     OW14968   2.284   2.284  13.345 -0.0959 -0.3655  0.0531
 1170SOL    HW114969   2.374   2.300  13.318  0.5020 -1.4153  1.4146
 1170SOL    HW214970   2.285   2.315  13.436  0.6401 -0.8415  0.2078
 1171SOL     OW14971   2.924   2.003   3.098  0.3171 -0.0104 -0.7275
 1171SOL    HW114972   2.980   1.982   3.024  1.0322 -1.2179  0.1509
 1171SOL    HW214973   2.957   2.091   3.118  1.1701 -0.0474 -2.0110
 1172SOL     OW14974   3.274   3.768   5.552 -0.0840  0.3668  0.2865
 1172SOL    HW114975   3.273   3.690   5.607 -1.6439  1.0585  1.2263
 1172SOL    HW214976   3.186   3.761   5.514 -0.4907  0.6122  1.1866
 1173SOL     OW14977   1.323   1.357   7.126 -0.0031  0.3944  0.4031
 1173SOL    HW114978   1.241   1.314   7.149 -1.7381  2.7435 -1.4149
 1173SOL    HW214979   1.289   1.443   7.149 -0.6481 -0.0087  0.9674
 1174SOL     OW14980   4.692   3.081   7.257  0.5513 -0.0197 -0.7520
 1174SOL    HW114981   0.062   3.064   7.239  0.4199 -0.6365 -0.8682
 1174SOL    HW214982   4.653   3.027   7.187 -0.7999 -0.9431  0.7127
 1175SOL     OW14983   2.008   2.912   6.058 -0.0551 -0.3021 -0.0082
 1175SOL    HW114984   2.097   2.891   6.029 -0.8111 -2.3922 -0.7817
 1175SOL    HW214985   1.953   2.840   6.027  1.3220 -0.7550 -1.4320
 1176SOL     OW14986   2.187   2.165   8.062  0.0641 -0.1689  0.3711
 1176SOL    HW114987   2.116   2.123   8.013 -0.4673 -0.0168  1.0106
 1176SOL    HW214988   2.241   2.219   8.005  0.5737 -0.1369  0.8806
 1177SOL     OW14989   4.451   1.093   3.068  0.8185 -0.0448 -0.8682
 1177SOL    HW114990   4.492   1.054   2.991  2.5199 -0.0733  0.0555
 1177SOL    HW214991   4.482   1.029   3.133 -1.3569 -0.9412 -0.6844
 1178SOL     OW14992   4.565   2.199   7.267 -0.5715 -0.1980  0.4655
 1178SOL    HW114993   4.631   2.224   7.203  0.1597  0.8208  1.6239
 1178SOL    HW214994   4.559   2.277   7.321 -2.1467  0.2919 -0.4021
 1179SOL     OW14995   2.884   2.564   1.084 -0.5829  0.6081 -0.2193
 1179SOL    HW114996   2.854   2.556   1.174  0.6757 -1.2598  0.0300
 1179SOL    HW214997   2.803   2.565   1.032 -2.1916 -0.0067  2.3170
 1180SOL     OW14998   3.125   2.813   2.098 -0.2888  0.4502 -0.0225
 1180SOL    HW114999   3.176   2.882   2.056  0.7005  0.2043  0.7767
 1180SOL    HW215000   3.135   2.831   2.192 -1.1328  0.0612  0.1483
 1181SOL     OW15001   3.544   3.699   3.377  0.1515 -0.4785  0.1169
 1181SOL    HW115002   3.452   3.709   3.399 -0.0606 -2.8461  0.3249
 1181SOL    HW215003   3.585   3.661   3.455  0.0584  2.2712  1.5067
 1182SOL     OW15004   3.996   4.476  15.622  0.5213 -0.3634 -0.3992
 1182SOL    HW115005   3.942   4.453  15.697  0.6419 -0.5386 -0.3651
 1182SOL    HW215006   3.993   4.571  15.610  0.2460 -0.6721 -2.7227
 1183SOL     OW15007   4.502   2.351  13.508  0.8839 -0.5086  0.6891
 1183SOL    HW115008   4.415   2.340  13.546  1.1985  1.7789  2.1079
 1183SOL    HW215009   4.486   2.415  13.438  0.4212 -0.8190  0.5091
 1184SOL     OW15010   4.414   1.690   5.723 -0.3937 -0.1204  0.6873
 1184SOL    HW115011   4.430   1.601   5.693 -0.5827  0.0063  0.2116
 1184SOL    HW215012   4.506   1.716   5.726 -0.7355  1.2161 -0.5121
 1185SOL     OW15013   3.125   0.253   5.340 -0.1606  0.7011 -0.6049
 1185SOL    HW115014   3.123   0.159   5.327  1.8500  0.7216 -1.0364
 1185SOL    HW215015   3.042   0.278   5.298 -0.7837 -1.0559 -0.4004
 1186SOL     OW15016   2.954   3.396   4.195 -0.4603 -0.5734 -0.4833
 1186SOL    HW115017   2.949   3.370   4.103  0.6192  0.2812 -0.7812
 1186SOL    HW215018   2.900   3.327   4.234 -2.8959  2.1094  0.8785
 1187SOL     OW15019   0.475   3.395  13.053 -0.1165  0.3951 -0.3262
 1187SOL    HW115020   0.534   3.320  13.042 -1.1581 -0.1287 -2.3048
 1187SOL    HW215021   0.511   3.439  13.130 -2.5518  1.0544  0.4141
 1188SOL     OW15022   3.645   1.115  15.166 -0.1019 -0.4778 -0.3436
 1188SOL    HW115023   3.702   1.039  15.159  0.4770  0.1643 -2.4815
 1188SOL    HW215024   3.663   1.159  15.249  0.4604  1.5910 -1.5508
 1189SOL     OW15025   0.864   3.045   2.807 -0.1566  0.6343 -0.1488
 1189SOL    HW115026   0.794   3.093   2.763  0.9859 -0.5868 -3.3117
 1189SOL    HW215027   0.812   2.995   2.869 -1.5168  0.7766 -1.1835
 1190SOL     OW15028   1.808   3.645   2.508  0.2000 -0.3084 -1.1128
 1190SOL    HW115029   1.786   3.727   2.551  2.3119 -0.7395  0.8004
 1190SOL    HW215030   1.762   3.646   2.424  0.7770  0.4832 -1.4202
 1191SOL     OW15031   2.023   3.413   7.616 -0.3911 -0.2682  0.2333
 1191SOL    HW115032   2.035   3.359   7.694  1.2607  0.2130  0.3119
 1191SOL    HW215033   2.037   3.362   7.536  0.7850 -2.4994  1.8714
 1192SOL     OW15034   4.349   3.473  10.622 -0.5425 -0.0387 -0.0010
 1192SOL    HW115035   4.301   3.549  10.590  1.0406  0.2794 -1.6296
 1192SOL    HW215036   4.439   3.503  10.613  0.6445 -3.5308  0.1800
 1193SOL     OW15037   0.495   0.427   3.363 -0.5947  0.1004  0.1610
 1193SOL    HW115038   0.524   0.368   3.293 -1.5409  1.8613 -1.7309
 1193SOL    HW215039   0.401   0.411   3.363 -0.3746 -1.2128  0.0522
 1194SOL     OW15040   3.508   4.534   4.623  0.5076  0.4218 -0.2563
 1194SOL    HW115041   3.557   4.617   4.620  3.4190 -1.3213 -0.6477
 1194SOL    HW215042   3.491   4.521   4.530  2.0636  1.7353 -0.7363
 1195SOL     OW15043   0.788   3.536  14.425  0.3837  0.7916  0.9389
 1195SOL    HW115044   0.810   3.443  14.434 -0.7222  0.3618 -0.7090
 1195SOL    HW215045   0.862   3.570  14.475  0.1244 -0.2227  2.0122
 1196SOL     OW15046   0.866   2.079  10.556  0.1658 -0.1857  0.0845
 1196SOL    HW115047   0.930   2.142  10.588  1.9930 -1.6159 -0.7672
 1196SOL    HW215048   0.877   2.086  10.461 -0.6799 -0.2290 -0.0183
 1197SOL     OW15049   0.239   2.241   1.818  0.2549  0.5493  0.0383
 1197SOL    HW115050   0.303   2.249   1.747  1.3521 -2.6009  0.6493
 1197SOL    HW215051   0.151   2.244   1.780  0.2152  1.3169  0.1930
 1198SOL     OW15052   3.020   4.058   3.378 -0.2687 -0.3353 -0.2753
 1198SOL    HW115053   3.078   4.045   3.303 -1.2435  2.9199 -1.5910
 1198SOL    HW215054   3.025   4.153   3.374 -2.5299 -0.2134 -0.6746
 1199SOL     OW15055   0.524   1.496   7.776  0.2251  0.6496 -0.3902
 1199SOL    HW115056   0.598   1.556   7.763  0.2016  0.6071 -0.7339
 1199SOL    HW215057   0.555   1.443   7.849  0.6463  2.1840  0.5377
 1200SOL     OW15058   3.111   3.686   2.396  0.3476  0.6719  0.6168
 1200SOL    HW115059   3.205   3.696   2.381  0.5685  0.0767  1.6588
 1200SOL    HW215060   3.073   3.726   2.318  0.7683  0.4361  0.2903
 1201SOL     OW15061   2.576   1.868  13.751 -0.0775 -0.0353  0.5635
 1201SOL    HW115062   2.595   1.795  13.693 -3.4742  0.2637 -0.9210
 1201SOL    HW215063   2.515   1.910  13.690  1.1104 -0.3804 -0.8653
 1202SOL     OW15064   2.604   1.543   3.090  0.5895 -0.4393  0.0122
 1202SOL    HW115065   2.691   1.551   3.130  0.4129  1.1357  0.0850
 1202SOL    HW215066   2.633   1.560   3.001 -2.7861  0.9520 -0.8270
 1203SOL     OW15067   0.581   4.642   9.225  1.0022 -0.0592  0.0314
 1203SOL    HW115068   0.487   4.661   9.221  1.2981  1.3436 -0.4353
 1203SOL    HW215069   0.618   0.004   9.250  1.6169  0.3131 -2.1570
 1204SOL     OW15070   1.795   4.300  14.887  0.5725  0.0402 -0.8860
 1204SOL    HW115071   1.826   4.241  14.956  0.7788  0.7067 -0.4092
 1204SOL    HW215072   1.872   4.338  14.845  2.0958 -0.9344  0.9966
 1205SOL     OW15073   1.411   1.233   4.020  0.2615  0.6217  0.2188
 1205SOL    HW115074   1.359   1.162   3.984  1.4429 -0.3284  0.4234
 1205SOL    HW215075   1.415   1.212   4.113 -2.4677 -1.2692 -0.0914
 1206SOL     OW15076   0.406   1.019   1.520 -0.1914 -0.0428 -0.1504
 1206SOL    HW115077   0.330   1.010   1.463 -1.0850  1.7403  0.7391
 1206SOL    HW215078   0.395   0.933   1.561 -0.9234  0.2425  0.2685
 1207SOL     OW15079   1.726   4.676   5.240 -0.4001  0.3557  0.4924
 1207SOL    HW115080   1.783   4.698   5.166 -1.3204 -0.2795 -0.4184
 1207SOL    HW215081   1.687   4.593   5.213  1.4387 -0.0582 -0.8389
 1208SOL     OW15082   2.169   3.528   2.923  0.0096 -0.1048  0.2241
 1208SOL    HW115083   2.138   3.603   2.973  2.4886  0.8186  0.3375
 1208SOL    HW215084   2.260   3.554   2.912 -0.4194  1.0038 -0.6617
 1209SOL     OW15085   1.383   3.134   3.021 -0.4739  0.1314 -0.3904
 1209SOL    HW115086   1.396   3.171   2.934  0.0463  1.1223  0.1139
 1209SOL    HW215087   1.288   3.147   3.023 -0.5497 -0.8070  1.5626
 1210SOL     OW15088   2.003   2.415   7.467 -0.3121 -0.3584  0.7079
 1210SOL    HW115089   1.952   2.353   7.518  0.1803 -0.8519  0.5947
 1210SOL    HW215090   2.089   2.382   7.494  0.7401  1.7987  0.0794
 1211SOL     OW15091   2.613   2.259   4.033  0.0624 -0.8988 -0.1529
 1211SOL    HW115092   2.621   2.259   4.129  2.9341 -1.4041 -0.4130
 1211SOL    HW215093   2.599   2.172   3.996  2.7876 -1.1582 -0.5476
 1212SOL     OW15094   0.357   4.481   8.751  0.2419  0.5887 -0.1170
 1212SOL    HW115095   0.407   4.431   8.816  0.9013 -0.1602 -1.2102
 1212SOL    HW215096   0.358   4.565   8.798  0.4608  1.2743 -1.3665
 1213SOL     OW15097   3.014   3.417  13.291  0.2195  0.3676 -0.0921
 1213SOL    HW115098   2.951   3.380  13.352 -0.0063 -0.5900 -0.9037
 1213SOL    HW215099   3.033   3.495  13.343  0.0896  0.5818 -0.3606
 1214SOL     OW15100   3.720   1.685   4.592  0.3375  0.4349 -0.1941
 1214SOL    HW115101   3.658   1.755   4.610 -1.5181 -1.1676 -0.3404
 1214SOL    HW215102   3.736   1.660   4.682 -0.2248 -0.3964 -0.3220
 1215SOL     OW15103   2.759   3.854   7.394 -0.2933 -0.2180  0.0871
 1215SOL    HW115104   2.761   3.765   7.430 -1.5609  0.1282  0.9932
 1215SOL    HW215105   2.848   3.877   7.420 -0.2919 -0.0626 -0.0533
 1216SOL     OW15106   3.717   2.908   2.879 -0.0163 -0.1307  0.0745
 1216SOL    HW115107   3.741   2.943   2.793 -1.8231 -0.0587 -0.3830
 1216SOL    HW215108   3.625   2.931   2.877  0.7734  3.0055  0.0216
 1217SOL     OW15109   3.359   3.576   9.574  0.0869 -0.6150 -0.8088
 1217SOL    HW115110   3.406   3.633   9.634  0.7533 -0.9963 -0.9749
 1217SOL    HW215111   3.426   3.509   9.562 -0.6670 -1.3379 -1.0506
 1218SOL     OW15112   4.015   1.805   5.035  0.2997 -0.0484 -0.1594
 1218SOL    HW115113   4.035   1.739   5.102 -0.3446 -1.5154 -1.4195
 1218SOL    HW215114   3.953   1.754   4.983 -0.4683 -1.1789  1.8750
 1219SOL     OW15115   0.292   3.579   8.990 -0.2870  0.1245 -0.0223
 1219SOL    HW115116   0.311   3.486   8.976  2.4465  0.3926  1.7631
 1219SOL    HW215117   0.319   3.594   9.081  0.0402 -0.3345 -0.0441
 1220SOL     OW15118   2.567   3.873   4.524  0.7388 -0.7748 -0.1617
 1220SOL    HW115119   2.505   3.837   4.588  0.6501  1.1071  0.7990
 1220SOL    HW215120   2.516   3.952   4.504  1.2674 -1.1224 -2.9417
 1221SOL     OW15121   4.406   0.186   3.960  0.5451 -0.2352 -0.0516
 1221SOL    HW115122   4.310   0.178   3.955  0.4662 -1.2935  3.0349
 1221SOL    HW215123   4.420   0.203   4.053 -0.9997 -0.3051  0.1999
 1222SOL     OW15124   4.335   2.896   8.337 -0.2110 -0.0029  0.1990
 1222SOL    HW115125   4.383   2.851   8.267  0.8745 -0.2624  1.1043
 1222SOL    HW215126   4.396   2.971   8.336  0.7774 -0.8388 -1.3346
 1223SOL     OW15127   4.167   2.812   8.075 -0.1233  0.2323  0.1166
 1223SOL    HW115128   4.232   2.875   8.107 -1.0396  1.2556 -0.0274
 1223SOL    HW215129   4.194   2.733   8.122 -2.3888 -0.7952 -0.3302
 1224SOL     OW15130   2.235   2.409  13.585  0.1403 -0.3683 -0.2777
 1224SOL    HW115131   2.168   2.466  13.623  0.2148 -0.9488  0.7335
 1224SOL    HW215132   2.301   2.473  13.561 -0.8755  0.6408 -0.4077
 1225SOL     OW15133   3.760   4.506   6.267  0.7693 -0.4175 -0.5330
 1225SOL    HW115134   3.699   4.433   6.257  2.0441 -1.6875  0.9363
 1225SOL    HW215135   3.705   4.585   6.273  1.3636  0.0515 -1.2746
 1226SOL     OW15136   1.557   2.323   1.579  0.1026  0.1076  0.2814
 1226SOL    HW115137   1.483   2.383   1.567  0.4302 -0.0064 -2.3470
 1226SOL    HW215138   1.591   2.305   1.491 -0.7773 -2.0019  0.3805
 1227SOL     OW15139   2.119   1.627   8.953  0.1399 -0.1169 -0.6264
 1227SOL    HW115140   2.182   1.691   8.985  0.8075 -1.2108  0.2671
 1227SOL    HW215141   2.132   1.639   8.859 -0.4147  1.9493 -0.4407
 1228SOL     OW15142   4.637   0.135   3.204  0.1345  0.0755 -0.6578
 1228SOL    HW115143   4.671   0.045   3.202 -1.8208 -0.6068 -2.6926
 1228SOL    HW215144   4.545   0.110   3.198  0.2382 -0.5540  0.3669
 1229SOL     OW15145   4.549   4.229   7.447  1.0165  0.4311 -0.0780
 1229SOL    HW115146   4.580   4.155   7.396 -0.0232 -0.5005  0.6423
 1229SOL    HW215147   4.523   4.194   7.533  0.5880  1.3349  0.1621
 1230SOL     OW15148   4.432   4.601   2.310  0.1466 -0.1829 -0.2473
 1230SOL    HW115149   4.340   4.601   2.282 -0.2805 -0.7284  1.1824
 1230SOL    HW215150   4.421   4.594   2.405  1.4508  1.6179  0.0153
 1231SOL     OW15151   2.195   2.682   8.347 -0.1365  0.0837  0.0563
 1231SOL    HW115152   2.201   2.777   8.361 -1.8896  0.3181 -0.7427
 1231SOL    HW215153   2.126   2.664   8.410 -0.8838  0.4750 -0.6456
 1232SOL     OW15154   0.624   1.875   6.805 -0.2835  0.2711  0.1804
 1232SOL    HW115155   0.540   1.912   6.831 -0.8435  0.9754 -2.6449
 1232SOL    HW215156   0.625   1.791   6.852 -1.0144  0.5073  0.6138
 1233SOL     OW15157   4.435   4.154  15.149 -0.6875 -0.5423 -0.0113
 1233SOL    HW115158   4.466   4.193  15.231 -1.1004 -0.7983  0.2661
 1233SOL    HW215159   4.511   4.158  15.091  0.3157 -0.5319  1.3043
 1234SOL     OW15160   3.986   3.024  12.636  0.1945 -0.2889  0.1265
 1234SOL    HW115161   3.969   3.019  12.542 -0.3933 -3.1270  0.3849
 1234SOL    HW215162   4.070   3.068  12.643  1.3961 -2.3820 -0.9892
 1235SOL     OW15163   1.407   3.831   6.353 -0.1944 -0.5941  0.1533
 1235SOL    HW115164   1.488   3.872   6.325  1.6739 -2.4655  2.8647
 1235SOL    HW215165   1.348   3.906   6.350  1.3429  0.6895  1.7803
 1236SOL     OW15166   3.630   1.531   7.728 -0.3368 -0.5049 -1.0496
 1236SOL    HW115167   3.712   1.534   7.677  0.8927  3.0189  1.0545
 1236SOL    HW215168   3.581   1.456   7.696 -1.5968  0.2682 -0.9026
 1237SOL     OW15169   3.138   1.564   9.227 -0.0776 -0.0249  0.1034
 1237SOL    HW115170   3.232   1.545   9.220  0.2087  0.2237  3.0914
 1237SOL    HW215171   3.122   1.607   9.311  0.1587 -0.3479  0.3147
 1238SOL     OW15172   3.399   1.514   4.620 -0.0498  0.0856  0.7303
 1238SOL    HW115173   3.349   1.476   4.548  1.2281  3.2134 -1.7985
 1238SOL    HW215174   3.458   1.446   4.650 -2.1475 -2.1175 -0.1715
 1239SOL     OW15175   0.691   0.740   9.863  0.0108 -0.1377 -0.5143
 1239SOL    HW115176   0.630   0.704   9.798 -1.1048  1.9899 -0.6435
 1239SOL    HW215177   0.710   0.670   9.925 -0.6174 -0.6327 -0.8743
 1240SOL     OW15178   0.722   0.460   4.817 -0.6033  0.0775 -0.6003
 1240SOL    HW115179   0.746   0.553   4.813  0.0368 -0.0534  0.3081
 1240SOL    HW215180   0.636   0.453   4.858  0.8723 -2.2281  2.0305
 1241SOL     OW15181   2.936   2.368   3.356 -0.4695 -0.4262 -0.0947
 1241SOL    HW115182   2.932   2.303   3.286  0.4763  1.6983 -2.1228
 1241SOL    HW215183   2.888   2.333   3.430  0.3592 -0.1208  0.5795
 1242SOL     OW15184   0.174   2.370  12.497  0.2575  0.3241 -0.2086
 1242SOL    HW115185   0.233   2.443  12.479  0.1784 -0.0280 -1.9106
 1242SOL    HW215186   0.092   2.418  12.508 -0.0599 -0.3870  0.5859
 1243SOL     OW15187   0.348   2.359   4.968 -0.1961  0.4883 -0.6207
 1243SOL    HW115188   0.370   2.364   5.061 -1.9553 -0.2052 -0.1651
 1243SOL    HW215189   0.266   2.310   4.969  0.2913 -0.3240 -0.2342
 1244SOL     OW15190   1.218   2.449  10.006 -0.1727  0.2502  0.1284
 1244SOL    HW115191   1.229   2.542   9.989 -1.8700  0.7371  1.6716
 1244SOL    HW215192   1.171   2.449  10.090  1.1743 -0.2228  0.8938
 1245SOL     OW15193   0.975   4.506   2.368  0.0059  0.0646  0.6875
 1245SOL    HW115194   0.979   4.411   2.356 -2.9699 -0.1825  1.4653
 1245SOL    HW215195   1.062   4.516   2.406 -0.9429 -0.2704  3.0144
 1246SOL     OW15196   1.215   0.616   3.398 -0.4859  0.3885 -0.1328
 1246SOL    HW115197   1.225   0.675   3.323  0.5482  2.4124  1.5815
 1246SOL    HW215198   1.121   0.603   3.389 -0.7193  0.5815  2.0667
 1247SOL     OW15199   1.460   0.637   6.718 -0.1059  0.2870 -0.4752
 1247SOL    HW115200   1.454   0.542   6.730  0.0563  0.4826  1.2587
 1247SOL    HW215201   1.380   0.670   6.759  0.0709  1.2456 -0.9194
 1248SOL     OW15202   4.097   1.699  15.967  0.7749  0.0549  0.6765
 1248SOL    HW115203   4.121   1.781  15.923 -0.0169 -0.7907 -1.3391
 1248SOL    HW215204   4.118   1.728  16.056 -1.9985  0.7969  1.0973
 1249SOL     OW15205   2.095   2.026   0.916 -0.5803  0.3815  0.2210
 1249SOL    HW115206   2.082   1.940   0.875  1.9326 -0.2909  0.8293
 1249SOL    HW215207   2.107   1.991   1.005 -3.4722  0.1134  0.5070
 1250SOL     OW15208   0.759   0.896   8.528  0.0743 -0.3203 -0.1225
 1250SOL    HW115209   0.806   0.832   8.474 -1.3364 -1.5521  0.1089
 1250SOL    HW215210   0.724   0.965   8.473 -2.1785  0.8448  2.8258
 1251SOL     OW15211   4.307   1.509   8.345  0.0038 -0.1908  0.0929
 1251SOL    HW115212   4.320   1.417   8.369  1.2487 -0.1226 -0.3318
 1251SOL    HW215213   4.262   1.529   8.427  1.8450  0.9227  0.8134
 1252SOL     OW15214   2.307   1.139   6.370  0.0835  0.0723  0.2402
 1252SOL    HW115215   2.368   1.204   6.335 -0.1436 -0.0732 -0.4147
 1252SOL    HW215216   2.336   1.136   6.461  2.3616 -1.7102 -0.5587
 1253SOL     OW15217   1.293   0.777   4.346  0.7112 -0.4980 -0.5591
 1253SOL    HW115218   1.239   0.851   4.372 -0.1184 -1.0754 -0.6533
 1253SOL    HW215219   1.381   0.789   4.382 -0.0550 -1.4727  1.6395
 1254SOL     OW15220   3.080   1.735   4.994  0.3976  0.0311 -0.0936
 1254SOL    HW115221   3.103   1.645   4.968 -1.4416 -0.2339 -0.8512
 1254SOL    HW215222   2.989   1.736   4.965  0.5544 -0.5623 -0.6168
 1255SOL     OW15223   0.677   3.280   5.889 -0.1030  0.5382 -0.3702
 1255SOL    HW115224   0.650   3.248   5.976  1.0399  1.1024  0.1855
 1255SOL    HW215225   0.728   3.358   5.912  1.9219 -1.3999  1.7174
 1256SOL     OW15226   4.685   1.811   1.097 -0.0456 -0.3636  0.5694
 1256SOL    HW115227   4.595   1.838   1.076  1.4269  1.8051 -2.9311
 1256SOL    HW215228   0.014   1.826   1.017  0.1591 -2.0528  0.3893
 1257SOL     OW15229   1.570   3.688   1.921 -0.6031  0.2349 -0.1430
 1257SOL    HW115230   1.487   3.655   1.955  0.1478 -0.6976  0.7796
 1257SOL    HW215231   1.532   3.732   1.845  1.6242  0.2519 -1.2549
 1258SOL     OW15232   1.950   1.227   9.378  0.0180  0.0742  0.1434
 1258SOL    HW115233   1.936   1.137   9.410  1.1847 -0.5745 -1.2040
 1258SOL    HW215234   1.865   1.261   9.350 -0.0007 -1.7849 -2.0659
 1259SOL     OW15235   0.571   2.428  10.058 -0.1437 -0.2183 -0.5303
 1259SOL    HW115236   0.598   2.520  10.052 -1.1330 -0.0486 -2.5312
 1259SOL    HW215237   0.654   2.387  10.080 -0.2021 -0.8280 -1.4723
 1260SOL     OW15238   2.214   4.612  15.597 -0.7474  0.5987  0.0382
 1260SOL    HW115239   2.125   4.610  15.562  0.2476 -0.8987 -2.3446
 1260SOL    HW215240   2.190   4.599  15.689 -0.1684 -0.1188  0.0884
 1261SOL     OW15241   4.156   0.326  14.467 -0.0713  0.3298  0.0230
 1261SOL    HW115242   4.192   0.324  14.556 -2.1954  0.5981  0.9010
 1261SOL    HW215243   4.067   0.360  14.482 -0.1783 -0.2616  0.7611
 1262SOL     OW15244   1.174   0.792   7.348  0.2056 -0.2206 -0.3633
 1262SOL    HW115245   1.262   0.786   7.310  0.3928  3.0319 -0.4131
 1262SOL    HW215246   1.201   0.803   7.439  0.4191  0.6512 -0.5370
 1263SOL     OW15247   3.630   0.897   3.355 -0.4355  0.3487  0.7657
 1263SOL    HW115248   3.540   0.885   3.383 -0.3396  2.8473  2.1229
 1263SOL    HW215249   3.642   0.976   3.303 -1.1301 -1.2416 -1.8421
 1264SOL     OW15250   3.978   2.499   6.914  0.0227  0.4333  0.2162
 1264SOL    HW115251   3.919   2.563   6.875 -0.7842  1.7448  3.6246
 1264SOL    HW215252   3.957   2.417   6.868 -1.7052  1.7166 -1.2534
 1265SOL     OW15253   2.301   3.176  11.382  0.4086  0.1940 -0.3293
 1265SOL    HW115254   2.303   3.257  11.434 -1.0811 -1.6605  2.6102
 1265SOL    HW215255   2.365   3.202  11.316  0.7265  0.9120  0.2487
 1266SOL     OW15256   2.690   1.901   0.095  0.4122 -0.6425  0.6655
 1266SOL    HW115257   2.783   1.917   0.083  0.1629  0.0136 -0.4474
 1266SOL    HW215258   2.646   1.972   0.047 -1.0810 -2.4025 -0.5941
 1267SOL     OW15259   4.347   0.540  14.310 -0.4514 -0.0636  0.2708
 1267SOL    HW115260   4.316   0.611  14.367 -4.1836 -0.8158 -0.8334
 1267SOL    HW215261   4.279   0.473  14.314 -1.5968  1.0824  0.0499
 1268SOL     OW15262   3.893   3.826   4.472  0.0805 -0.0697  0.2505
 1268SOL    HW115263   3.890   3.897   4.537 -4.5583  1.0255 -1.1068
 1268SOL    HW215264   3.986   3.808   4.473  0.0821  0.0217  3.9335
 1269SOL     OW15265   4.176   1.974  12.926  0.3094  0.2747 -0.0647
 1269SOL    HW115266   4.251   2.021  12.963  2.1167 -1.5417 -1.4295
 1269SOL    HW215267   4.126   2.039  12.878 -2.2464 -1.6256  0.0282
 1270SOL     OW15268   0.851   4.069   3.276  0.0306  0.0551 -1.3213
 1270SOL    HW115269   0.771   4.021   3.255 -0.3067  1.0087 -2.1793
 1270SOL    HW215270   0.819   4.159   3.282  0.0160 -0.1314  1.6189
 1271SOL     OW15271   1.256   3.423   3.658 -0.6433  0.6179 -0.0268
 1271SOL    HW115272   1.337   3.447   3.703 -1.1163  2.8335 -0.3786
 1271SOL    HW215273   1.235   3.336   3.692  2.0141  0.2270  0.6159
 1272SOL     OW15274   0.966   4.321   8.294  0.3606  0.4298  0.0871
 1272SOL    HW115275   1.051   4.290   8.324 -0.6523 -1.4648  1.0083
 1272SOL    HW215276   0.949   4.256   8.227  0.1418  0.8382 -0.2540
 1273SOL     OW15277   2.905   3.892  15.489  0.4339  0.0728  0.0623
 1273SOL    HW115278   2.866   3.928  15.569  0.5939  1.0273 -0.2881
 1273SOL    HW215279   2.926   3.972  15.440 -1.0248  1.2198  1.3159
 1274SOL     OW15280   1.659   3.421  10.024  0.0708 -0.5355  0.2341
 1274SOL    HW115281   1.705   3.345   9.989  0.0163  0.3740 -1.8274
 1274SOL    HW215282   1.638   3.466   9.942  2.4543 -0.3735 -0.2684
 1275SOL     OW15283   3.215   0.240   9.054 -0.1533 -0.1963  0.1325
 1275SOL    HW115284   3.178   0.230   8.966 -0.5173 -1.9860  0.4964
 1275SOL    HW215285   3.150   0.195   9.107  1.2309 -4.7482 -2.0457
 1276SOL     OW15286   0.846   3.425   3.362 -0.3055  0.2001 -0.3448
 1276SOL    HW115287   0.864   3.514   3.393  1.8574 -0.2788 -0.2239
 1276SOL    HW215288   0.786   3.403   3.433  2.1359  0.6532  1.8850
 1277SOL     OW15289   3.731   1.747  13.784 -0.1103  0.2792 -0.2616
 1277SOL    HW115290   3.770   1.688  13.848  0.3341  2.8981  1.8928
 1277SOL    HW215291   3.715   1.828  13.833 -0.8803  0.9693 -1.6409
 1278SOL     OW15292   2.396   0.844   3.954 -0.1027 -0.3781  0.6088
 1278SOL    HW115293   2.331   0.777   3.933 -0.1013 -0.2884  0.3075
 1278SOL    HW215294   2.339   0.917   3.979  2.4823  1.9961 -0.4183
 1279SOL     OW15295   2.549   0.262   6.487  0.2430  0.2949  0.4587
 1279SOL    HW115296   2.629   0.250   6.539  0.8941  0.7483 -0.4410
 1279SOL    HW215297   2.489   0.306   6.548 -3.4396  1.0116 -3.7352
 1280SOL     OW15298   1.871   2.985   0.478  0.2894  0.4907 -0.6210
 1280SOL    HW115299   1.782   2.983   0.511  0.2455 -0.8018 -0.8153
 1280SOL    HW215300   1.879   3.063   0.423  3.1882  1.3993  1.0490
 1281SOL     OW15301   3.123   1.779   6.527  0.1578 -0.5525 -0.1896
 1281SOL    HW115302   3.216   1.772   6.507  0.2000 -1.9711  0.4871
 1281SOL    HW215303   3.088   1.751   6.442 -0.5785 -1.0244  0.2667
 1282SOL     OW15304   3.863   1.167  10.139  0.0094 -0.3962 -0.2454
 1282SOL    HW115305   3.803   1.101  10.172 -1.3747  1.0692  0.1560
 1282SOL    HW215306   3.838   1.167  10.047  1.7343  2.9280 -0.7300
 1283SOL     OW15307   3.819   3.906   0.865 -0.4316  0.4152  0.0238
 1283SOL    HW115308   3.745   3.965   0.879 -0.8793 -0.4733  1.3954
 1283SOL    HW215309   3.846   3.895   0.956 -2.0093 -0.8888  0.3313
 1284SOL     OW15310   0.443   3.857   5.227 -0.1132  0.0423 -0.1961
 1284SOL    HW115311   0.371   3.838   5.167  0.4879  2.9741 -1.8547
 1284SOL    HW215312   0.505   3.884   5.159 -0.0475  0.5890  0.0805
 1285SOL     OW15313   0.060   4.149   3.361  0.2222  0.3243  0.4891
 1285SOL    HW115314   0.113   4.214   3.408  0.5283 -0.8677  1.7889
 1285SOL    HW215315   0.049   4.070   3.413 -0.6568 -0.3404 -0.6975
 1286SOL     OW15316   0.944   4.258   4.503  0.1420 -0.2012 -0.3874
 1286SOL    HW115317   0.930   4.352   4.494 -2.2056 -0.4309  0.7770
 1286SOL    HW215318   0.979   4.247   4.591  0.8249  3.7057 -0.1518
 1287SOL     OW15319   3.987   3.801  11.317 -0.0868 -0.1674  0.1164
 1287SOL    HW115320   4.061   3.843  11.361 -0.2303  0.3758 -0.1524
 1287SOL    HW215321   3.945   3.752  11.387 -0.9771  1.4572  0.7340
 1288SOL     OW15322   4.433   2.079   3.068  0.4425 -0.0632  0.0781
 1288SOL    HW115323   4.499   2.102   3.133  1.1440 -2.6625  0.2713
 1288SOL    HW215324   4.492   2.010   3.037 -0.6501  0.0866 -2.3839
 1289SOL     OW15325   0.792   3.906  10.289 -0.3974 -1.2011 -0.0390
 1289SOL    HW115326   0.761   3.980  10.236  0.9848 -0.0283  0.8105
 1289SOL    HW215327   0.887   3.908  10.278 -0.0565  1.7799  3.4367
 1290SOL     OW15328   1.012   3.383  12.862  0.0544  0.3673 -0.2161
 1290SOL    HW115329   1.097   3.413  12.830  0.9955 -0.9448  1.1056
 1290SOL    HW215330   1.016   3.293  12.831 -0.2904  1.1430 -2.4970
 1291SOL     OW15331   3.739   3.050   5.612 -0.4247 -0.0335 -1.1525
 1291SOL    HW115332   3.806   3.105   5.652 -0.0390 -2.8480  2.1222
 1291SOL    HW215333   3.774   2.967   5.643 -4.0526 -1.9893 -2.2782
 1292SOL     OW15334   0.866   3.504   4.833  0.3145 -0.5308 -0.5620
 1292SOL    HW115335   0.887   3.468   4.748  1.4698 -0.6167 -0.2397
 1292SOL    HW215336   0.843   3.431   4.890  0.1528  0.6579  0.9275
 1293SOL     OW15337   3.328   3.230   4.575 -0.0781  0.4871  0.1635
 1293SOL    HW115338   3.353   3.146   4.538 -0.8888  1.0213 -1.5528
 1293SOL    HW215339   3.373   3.232   4.660  0.7822  1.6563 -0.3285
 1294SOL     OW15340   1.516   2.599   3.509  0.3070 -0.4637  0.2558
 1294SOL    HW115341   1.526   2.524   3.567 -1.7014 -0.0541  1.1541
 1294SOL    HW215342   1.605   2.631   3.525 -0.4497  0.7285  2.2471
 1295SOL     OW15343   1.319   2.645  13.625  0.2026  0.5820 -0.5252
 1295SOL    HW115344   1.380   2.672  13.556  1.6095  2.9938  1.6502
 1295SOL    HW215345   1.348   2.560  13.655  0.7766  1.3390  1.0451
 1296SOL     OW15346   2.620   0.458   3.483 -0.3325 -0.0776 -0.2269
 1296SOL    HW115347   2.698   0.417   3.444 -0.8717  0.2502 -1.6434
 1296SOL    HW215348   2.658   0.518   3.546 -3.6641 -0.6391  2.2939
 1297SOL     OW15349   1.896   3.348   6.538  0.1443 -0.5539  0.1871
 1297SOL    HW115350   1.849   3.428   6.563 -0.4591 -0.5378 -1.0440
 1297SOL    HW215351   1.982   3.390   6.525 -2.1939  3.7075 -1.5905
 1298SOL     OW15352   2.219   4.618   3.877  0.5412 -0.5279 -0.3655
 1298SOL    HW115353   2.198   4.584   3.964 -0.7393  0.4915 -0.2807
 1298SOL    HW215354   2.162   4.567   3.819 -0.8371  0.4804  0.0869
 1299SOL     OW15355   3.318   1.991   4.810 -0.0008  0.1934 -0.7760
 1299SOL    HW115356   3.272   2.075   4.821 -1.2847 -1.0020  3.0040
 1299SOL    HW215357   3.247   1.929   4.796  0.5203  0.0136 -2.6079
 1300SOL     OW15358   3.770   2.656   6.170  0.3169 -0.4579 -0.0034
 1300SOL    HW115359   3.800   2.648   6.260  1.9848 -1.8916 -0.6941
 1300SOL    HW215360   3.677   2.661   6.194 -0.0843 -1.8514 -1.2743
 1301SOL     OW15361   2.310   2.081  17.423 -0.1573  0.0065  0.1825
 1301SOL    HW115362   2.334   2.069  17.331 -2.3540  2.4971 -0.7084
 1301SOL    HW215363   2.310   1.987  17.444  1.5682  0.1027  0.6146
 1302SOL     OW15364   3.154   1.618   9.488  0.0671  0.3546  0.2559
 1302SOL    HW115365   3.212   1.610   9.564  0.2431 -0.5455  0.0327
 1302SOL    HW215366   3.083   1.665   9.531 -0.5193 -0.7985  0.5493
 1303SOL     OW15367   1.811   1.793  11.705 -0.5107 -0.3533 -0.7879
 1303SOL    HW115368   1.892   1.841  11.718 -0.4328 -0.8621  0.5665
 1303SOL    HW215369   1.833   1.745  11.625  3.2827  1.7909 -1.0230
 1304SOL     OW15370   0.416   1.298   2.662 -0.0854 -0.5112  0.6355
 1304SOL    HW115371   0.352   1.264   2.599 -2.3582  0.1956  2.5664
 1304SOL    HW215372   0.491   1.307   2.602 -0.4525  0.5188  0.3258
 1305SOL     OW15373   2.302   0.611   6.765 -0.2422  0.1027 -0.3557
 1305SOL    HW115374   2.255   0.568   6.837  1.1777 -1.7943 -0.5514
 1305SOL    HW215375   2.266   0.699   6.756  0.8050  0.6007  0.4599
 1306SOL     OW15376   2.089   0.980   1.344  0.2374  0.0971 -0.4873
 1306SOL    HW115377   2.138   0.902   1.316 -1.4182 -1.2433  0.3499
 1306SOL    HW215378   2.064   0.979   1.436 -0.6302  0.8909 -0.7205
 1307SOL     OW15379   0.935   0.732   3.503  0.2495 -1.2283  0.3906
 1307SOL    HW115380   0.844   0.723   3.477  0.1078 -2.6944  1.4050
 1307SOL    HW215381   0.974   0.767   3.423 -2.9120  0.4635 -0.3964
 1308SOL     OW15382   4.161   2.241   4.795  0.4092 -0.5731  0.1294
 1308SOL    HW115383   4.137   2.329   4.824  0.6471 -0.3576 -0.3305
 1308SOL    HW215384   4.115   2.192   4.863 -1.4874  1.4322  0.2693
 1309SOL     OW15385   2.572   2.971   4.168  0.2233  0.4111 -0.4289
 1309SOL    HW115386   2.597   2.965   4.260 -2.2102  0.4278  0.2373
 1309SOL    HW215387   2.620   2.894   4.137  1.3337  1.4941 -1.3520
 1310SOL     OW15388   4.473   1.741   5.302  0.2787 -0.0447  0.3082
 1310SOL    HW115389   4.408   1.740   5.232  0.5045 -1.0247  0.1151
 1310SOL    HW215390   4.427   1.806   5.355 -0.6866 -1.2026  0.8917
 1311SOL     OW15391   1.048   0.028   3.228 -0.0605 -0.0504  0.3875
 1311SOL    HW115392   1.113   0.094   3.254  1.0537 -1.6939  1.7939
 1311SOL    HW215393   1.052   0.042   3.134  0.6615  1.8121  0.7012
 1312SOL     OW15394   2.596   1.490  10.415 -0.1623  0.6793 -0.0340
 1312SOL    HW115395   2.679   1.498  10.367 -0.6691 -1.3218 -1.2349
 1312SOL    HW215396   2.629   1.466  10.502  0.2615  0.3456 -0.2862
 1313SOL     OW15397   0.709   2.949   2.394 -0.5842  0.0656  0.1492
 1313SOL    HW115398   0.789   2.928   2.442 -1.0839  0.1422  1.0323
 1313SOL    HW215399   0.700   2.866   2.346 -0.5260  0.0432  0.1764
 1314SOL     OW15400   1.282   2.400   7.388  0.5450 -0.1784 -0.0336
 1314SOL    HW115401   1.322   2.459   7.451 -1.4335  0.3905  0.7073
 1314SOL    HW215402   1.305   2.320   7.436 -1.3052 -1.0736 -0.6361
 1315SOL     OW15403   2.354   3.315   3.503 -0.6873  0.7751 -0.2573
 1315SOL    HW115404   2.357   3.228   3.542 -4.3288  0.2893 -1.0198
 1315SOL    HW215405   2.281   3.356   3.550  0.0099  1.9782 -0.2153
 1316SOL     OW15406   0.414   2.534   5.686 -0.2310 -0.2287 -0.1413
 1316SOL    HW115407   0.343   2.591   5.656  0.2519 -0.5954 -1.9806
 1316SOL    HW215408   0.373   2.472   5.745  0.0770 -1.9420 -1.7313
 1317SOL     OW15409   4.527   3.293   8.673 -0.6595 -0.1139  0.0207
 1317SOL    HW115410   4.492   3.327   8.755  1.3167 -0.0156  0.8235
 1317SOL    HW215411   4.561   3.370   8.626 -0.5571 -0.2321 -0.0976
 1318SOL     OW15412   2.285   2.711  11.802 -0.2857  0.0212  0.1661
 1318SOL    HW115413   2.237   2.757  11.871 -0.6282  0.9033 -0.6540
 1318SOL    HW215414   2.376   2.736  11.815 -0.7363  1.3094  0.8323
 1319SOL     OW15415   3.330   3.047   9.586  0.1310  0.6514  0.4700
 1319SOL    HW115416   3.373   3.089   9.660  2.4972  0.5723 -0.8536
 1319SOL    HW215417   3.241   3.082   9.592  0.1953  1.1322 -1.3743
 1320SOL     OW15418   0.531   3.230  15.819  0.4207 -0.0279  0.3648
 1320SOL    HW115419   0.535   3.324  15.801  0.0478  0.0705  0.8036
 1320SOL    HW215420   0.594   3.195  15.757 -1.0424 -1.0781 -0.5172
 1321SOL     OW15421   0.971   2.812   0.190 -0.8048 -0.4130 -0.4857
 1321SOL    HW115422   0.976   2.836   0.283 -2.5311  1.1682 -0.8193
 1321SOL    HW215423   0.934   2.893   0.157 -1.2163 -1.0236 -1.5112
 1322SOL     OW15424   2.611   1.598   4.308 -0.1684  0.2907  0.2084
 1322SOL    HW115425   2.572   1.598   4.396  0.8044  2.6518  0.6530
 1322SOL    HW215426   2.593   1.690   4.287  0.7192  0.5460  0.5599
 1323SOL     OW15427   2.443   1.338   6.811 -0.1652 -0.8393  0.3321
 1323SOL    HW115428   2.523   1.304   6.851  0.6859  1.9109  0.9519
 1323SOL    HW215429   2.387   1.353   6.887 -1.4411 -1.2912 -0.5305
 1324SOL     OW15430   1.594   2.883   8.976 -0.4753  0.3236 -0.5011
 1324SOL    HW115431   1.511   2.836   8.982  0.3867 -1.1168  0.3026
 1324SOL    HW215432   1.608   2.902   8.883 -0.4535  0.0464 -0.5565
 1325SOL     OW15433   1.853   4.110  16.978  0.6669  0.4786 -0.0536
 1325SOL    HW115434   1.820   4.021  16.975  3.2415 -0.4705 -0.6032
 1325SOL    HW215435   1.808   4.147  16.902 -2.1234  0.1319  1.4549
 1326SOL     OW15436   4.269   4.163  11.497 -0.2074  0.4167 -0.5488
 1326SOL    HW115437   4.206   4.131  11.431  1.8263 -0.9468 -1.8343
 1326SOL    HW215438   4.251   4.255  11.513  4.3348  0.7944  2.3943
 1327SOL     OW15439   3.391   4.168  11.773  0.0848  1.0684  1.0056
 1327SOL    HW115440   3.424   4.083  11.745 -1.6971  0.5216  0.5612
 1327SOL    HW215441   3.325   4.140  11.837 -0.3457  1.5079  0.7559
 1328SOL     OW15442   4.297   3.297  16.902 -0.7455 -0.1241 -0.2973
 1328SOL    HW115443   4.344   3.320  16.983 -0.1161 -2.1189 -0.0839
 1328SOL    HW215444   4.346   3.222  16.868 -0.5379  0.5566 -1.4792
 1329SOL     OW15445   4.485   0.446  14.569  0.1145 -0.2724 -0.2300
 1329SOL    HW115446   4.458   0.483  14.485 -4.1542 -3.5057 -0.2948
 1329SOL    HW215447   4.539   0.371  14.543  0.9643  0.0301  0.6623
 1330SOL     OW15448   1.151   2.493   1.039  0.8879 -0.3348 -0.5375
 1330SOL    HW115449   1.110   2.576   1.065  3.6744  1.1454 -0.9221
 1330SOL    HW215450   1.075   2.434   1.044 -0.1613  1.0446 -0.2301
 1331SOL     OW15451   0.491   3.161  13.634 -0.4050 -0.0112 -0.3078
 1331SOL    HW115452   0.436   3.096  13.590 -0.6171 -0.7752  1.0782
 1331SOL    HW215453   0.546   3.200  13.566  0.2929 -0.8934 -0.2548
 1332SOL     OW15454   0.814   3.645   5.621 -0.1622  0.2258 -0.1134
 1332SOL    HW115455   0.859   3.715   5.575  1.6275 -0.2439  0.9055
 1332SOL    HW215456   0.845   3.569   5.572 -0.3933  0.4881 -0.6615
 1333SOL     OW15457   1.616   3.676   2.305  0.3410 -0.1627  0.2725
 1333SOL    HW115458   1.583   3.587   2.296  0.3534 -0.4822  3.5820
 1333SOL    HW215459   1.535   3.726   2.294  0.7933  0.6952  0.8462
 1334SOL     OW15460   0.073   1.051   3.546  0.1860 -0.0418 -0.4787
 1334SOL    HW115461   0.032   1.111   3.608  0.7283 -0.5536  0.3791
 1334SOL    HW215462   0.009   0.981   3.535 -0.8847  0.4164  2.7112
 1335SOL     OW15463   4.097   3.632   7.445 -0.6561  0.0194  0.0138
 1335SOL    HW115464   4.189   3.624   7.417 -0.2405 -0.1264  1.4196
 1335SOL    HW215465   4.089   3.573   7.520 -0.0283  0.8797  0.7592
 1336SOL     OW15466   1.209   2.927   6.889  0.8670  0.8998  0.3695
 1336SOL    HW115467   1.170   2.876   6.959  0.7647  0.8914  0.3055
 1336SOL    HW215468   1.145   2.911   6.820  1.9032 -1.1381 -0.1470
 1337SOL     OW15469   2.919   2.574  16.632 -0.2686  0.5410  0.7379
 1337SOL    HW115470   2.984   2.521  16.679 -0.2446 -0.2338 -0.1756
 1337SOL    HW215471   2.978   2.615  16.570  0.6231 -1.2317  0.4340
 1338SOL     OW15472   3.151   3.808  15.500 -0.5173  0.1633  0.2743
 1338SOL    HW115473   3.064   3.828  15.535 -1.9496 -0.7117 -2.8006
 1338SOL    HW215474   3.147   3.845  15.412 -1.9201  1.8189  1.0497
 1339SOL     OW15475   3.488   3.182   8.777 -0.6767 -0.3568  0.2280
 1339SOL    HW115476   3.541   3.170   8.856 -0.1785  0.3307  0.0028
 1339SOL    HW215477   3.499   3.277   8.769  0.1063 -0.3514  1.4014
 1340SOL     OW15478   1.284   1.006   7.094 -0.2142  0.3744 -0.1762
 1340SOL    HW115479   1.206   1.052   7.128 -0.7925  0.0246 -1.0385
 1340SOL    HW215480   1.294   0.931   7.153  1.1058 -0.9753 -2.1317
 1341SOL     OW15481   1.471   2.258  17.457 -0.2595  0.0115  0.3681
 1341SOL    HW115482   1.413   2.315  17.407  0.3331  0.4731  0.2036
 1341SOL    HW215483   1.495   2.318  17.527  0.5309 -1.1696  1.1088
 1342SOL     OW15484   4.199   3.096   6.618 -0.0426  0.2525 -0.1345
 1342SOL    HW115485   4.142   3.061   6.687  1.7426  1.4726  1.9483
 1342SOL    HW215486   4.190   3.191   6.627  0.8145  0.5376 -2.3770
 1343SOL     OW15487   1.550   3.159   0.073 -0.0790  0.1826  0.8734
 1343SOL    HW115488   1.607   3.161  17.689 -1.4530  1.3740 -0.1249
 1343SOL    HW215489   1.521   3.068   0.076  2.5778 -0.6587  0.9925
 1344SOL     OW15490   0.869   4.297   8.970 -0.3447  0.0386  0.5549
 1344SOL    HW115491   0.837   4.298   9.061  0.1189  0.7753  0.7076
 1344SOL    HW215492   0.956   4.259   8.986 -0.0409  0.6062  0.2169
 1345SOL     OW15493   0.271   2.948   3.788  0.4279 -0.3272 -0.5005
 1345SOL    HW115494   0.309   2.949   3.700  1.4358  1.2269 -0.0424
 1345SOL    HW215495   0.328   2.881   3.826 -0.0055 -0.0497  0.6227
 1346SOL     OW15496   4.682   1.739  11.982  0.3798  0.2964  0.2232
 1346SOL    HW115497   4.657   1.830  11.999 -0.1460  0.1294  0.3352
 1346SOL    HW215498   0.053   1.742  11.963 -0.1612  0.3058 -2.4004
 1347SOL     OW15499   2.783   2.344   4.724  0.1749 -0.5642  0.4455
 1347SOL    HW115500   2.834   2.421   4.745  1.1098 -1.9063  3.0701
 1347SOL    HW215501   2.702   2.394   4.718 -0.2402 -1.1279  1.3088
 1348SOL     OW15502   1.407   1.666   7.508  0.1359  0.2299 -0.4549
 1348SOL    HW115503   1.424   1.732   7.575 -1.1007  1.3849 -1.2825
 1348SOL    HW215504   1.366   1.725   7.445 -2.4741 -2.0613 -0.9426
 1349SOL     OW15505   1.178   0.606   5.474  0.2353  0.1382 -0.2315
 1349SOL    HW115506   1.219   0.520   5.460  0.5734  0.5680 -1.7713
 1349SOL    HW215507   1.182   0.640   5.385 -1.4185  1.7986  0.3163
 1350SOL     OW15508   0.565   2.535  11.341  0.1043  0.0392 -0.2783
 1350SOL    HW115509   0.606   2.510  11.258 -2.1300  3.2056 -2.3370
 1350SOL    HW215510   0.520   2.452  11.359  1.7889 -0.8237 -0.0284
 1351SOL     OW15511   3.467   4.654  14.108 -0.0578 -0.0382  0.0744
 1351SOL    HW115512   3.426   4.643  14.022 -0.8250 -0.6194  0.5161
 1351SOL    HW215513   3.416   4.594  14.162 -2.9827  0.1782 -2.4561
 1352SOL     OW15514   3.405   0.226   5.252  0.0239 -0.0402  0.1696
 1352SOL    HW115515   3.498   0.207   5.261  0.0411  0.4525  0.9800
 1352SOL    HW215516   3.365   0.144   5.283 -3.1462  1.2092 -0.5874
 1353SOL     OW15517   1.157   4.243   2.375  0.1806 -0.6905  0.5961
 1353SOL    HW115518   1.109   4.275   2.299  2.7821 -0.6378 -1.0208
 1353SOL    HW215519   1.237   4.295   2.370 -0.0876 -0.4182 -0.9164
 1354SOL     OW15520   3.785   1.982  10.437  0.1561 -0.4811 -0.1167
 1354SOL    HW115521   3.827   2.061  10.402 -0.4309 -1.6849 -3.4719
 1354SOL    HW215522   3.731   1.965  10.360 -1.2872 -0.2492  0.8408
 1355SOL     OW15523   0.411   3.132  16.055 -0.0811 -0.2202  0.1725
 1355SOL    HW115524   0.352   3.089  15.993 -0.7453  0.2475  0.4884
 1355SOL    HW215525   0.423   3.212  16.003  0.0064 -0.1045  0.3728
 1356SOL     OW15526   2.642   0.624   4.526 -0.4482 -0.8340  0.0114
 1356SOL    HW115527   2.598   0.685   4.466 -0.4037 -0.8796 -0.0671
 1356SOL    HW215528   2.733   0.631   4.498 -0.0751 -1.2835  1.1002
 1357SOL     OW15529   1.629   0.494   8.066 -0.3151 -0.0589 -0.3393
 1357SOL    HW115530   1.609   0.470   8.157 -0.1921 -0.5135 -0.4373
 1357SOL    HW215531   1.676   0.422   8.026 -1.8801 -0.8610 -0.7325
 1358SOL     OW15532   0.721   0.378  16.760  0.0579  0.0702  0.2476
 1358SOL    HW115533   0.638   0.330  16.760  0.4933 -0.6839 -1.8545
 1358SOL    HW215534   0.712   0.450  16.822  3.1890  1.2883 -0.7079
 1359SOL     OW15535   4.052   0.392   1.245 -0.5273 -0.5530  0.5801
 1359SOL    HW115536   4.097   0.407   1.328  0.1884  0.6370 -0.0134
 1359SOL    HW215537   4.123   0.354   1.194  0.8330  1.6987  0.7876
 1360SOL     OW15538   4.298   3.503   1.461 -0.0645  0.1799  0.1789
 1360SOL    HW115539   4.314   3.409   1.447 -0.8845 -0.1444  1.4390
 1360SOL    HW215540   4.387   3.537   1.447  0.1146 -0.4902 -0.3911
 1361SOL     OW15541   4.682   4.416   9.356  0.1919 -0.0125 -0.2326
 1361SOL    HW115542   0.009   4.334   9.353 -1.3832 -1.0652  3.3880
 1361SOL    HW215543   0.028   4.470   9.396 -1.4870  0.8042  1.5083
 1362SOL     OW15544   0.162   2.624   8.260  0.0470 -0.1123  0.5853
 1362SOL    HW115545   0.157   2.568   8.182  0.5153 -0.3666  0.7422
 1362SOL    HW215546   0.083   2.587   8.300  0.1039  0.0336  0.8296
 1363SOL     OW15547   0.761   0.134  10.345  0.3636 -0.0053  0.3031
 1363SOL    HW115548   0.844   0.111  10.387  0.3613 -0.5708  0.0066
 1363SOL    HW215549   0.700   0.108  10.414 -0.2959  0.1157 -0.2277
 1364SOL     OW15550   1.482   1.924   7.305 -0.2892 -0.3502 -0.3869
 1364SOL    HW115551   1.546   1.907   7.236 -1.1941 -1.2471 -1.0104
 1364SOL    HW215552   1.532   1.883   7.375  0.0583 -0.0137 -0.4391
 1365SOL     OW15553   0.255   1.459   1.349  0.4238  0.2055  0.2035
 1365SOL    HW115554   0.340   1.437   1.389 -1.5078 -3.7991  2.1510
 1365SOL    HW215555   0.202   1.384   1.376 -1.9150  1.9375  0.3780
 1366SOL     OW15556   2.196   4.520   6.053  0.4356 -0.3876 -0.3054
 1366SOL    HW115557   2.271   4.566   6.016  1.6795 -1.5430  0.7538
 1366SOL    HW215558   2.152   4.584   6.108 -0.6777 -0.4127 -1.1680
 1367SOL     OW15559   2.718   0.693   0.541 -0.2660 -0.5683 -0.3068
 1367SOL    HW115560   2.725   0.708   0.635 -1.9492 -0.2949 -0.2197
 1367SOL    HW215561   2.624   0.677   0.534 -0.4818  0.8799 -0.7202
 1368SOL     OW15562   2.819   2.495   2.216 -0.1391 -0.0217  0.5702
 1368SOL    HW115563   2.827   2.584   2.180 -0.8735 -0.4892 -0.7194
 1368SOL    HW215564   2.893   2.452   2.174 -2.9910 -0.5347 -3.8612
 1369SOL     OW15565   4.700   3.252  16.194 -0.1627  0.0862  0.9841
 1369SOL    HW115566   4.702   3.334  16.145 -0.1132  0.1303  1.0609
 1369SOL    HW215567   0.018   3.286  16.274  0.7098 -0.1592  0.6409
 1370SOL     OW15568   0.401   1.853   6.987  0.4713 -0.1729 -0.4201
 1370SOL    HW115569   0.460   1.829   7.059 -0.0316  2.5544  0.8938
 1370SOL    HW215570   0.365   1.770   6.958  0.1657 -0.9218  2.0818
 1371SOL     OW15571   3.170   1.539   6.070 -0.0187  0.1386 -0.3304
 1371SOL    HW115572   3.262   1.541   6.044  0.1918  0.1696  0.4155
 1371SOL    HW215573   3.172   1.597   6.146 -1.6466 -0.1388 -0.0622
 1372SOL     OW15574   2.792   0.967  12.605 -0.2725 -0.1452  0.9860
 1372SOL    HW115575   2.717   0.910  12.620  0.8510 -2.3304 -1.7409
 1372SOL    HW215576   2.830   0.975  12.693 -0.2247  0.0640  0.9462
 1373SOL     OW15577   2.406   0.036   0.853  0.5025 -0.5582  0.2942
 1373SOL    HW115578   2.454   4.681   0.824 -0.1215 -0.8887  0.1212
 1373SOL    HW215579   2.318   4.721   0.852 -0.3219  1.3600  0.6837
 1374SOL     OW15580   2.770   2.052  17.112 -0.5141  0.1344  0.3380
 1374SOL    HW115581   2.859   2.086  17.106 -1.1445  2.1244  2.4370
 1374SOL    HW215582   2.788   1.974  17.058 -2.4468 -1.1116  1.4914
 1375SOL     OW15583   1.449   2.693   4.524 -0.3941 -0.3945  0.0239
 1375SOL    HW115584   1.478   2.656   4.441 -0.6642 -2.3390  0.7926
 1375SOL    HW215585   1.364   2.734   4.508  0.9511  2.0316 -0.9939
 1376SOL     OW15586   2.569   4.714  15.023 -0.3061  0.2422 -0.2272
 1376SOL    HW115587   2.493   0.000  14.966 -0.7366  0.3224  0.3691
 1376SOL    HW215588   2.644   4.708  14.963  0.5629  0.3060  0.8572
 1377SOL     OW15589   4.516   4.322   5.530 -0.7631  0.1892  0.4283
 1377SOL    HW115590   4.453   4.266   5.574 -0.0169 -1.8368 -1.0749
 1377SOL    HW215591   4.516   4.285   5.442 -2.3046  2.6809 -0.6440
 1378SOL     OW15592   0.316   1.974   8.290 -0.7589  0.5079 -0.4831
 1378SOL    HW115593   0.392   1.959   8.234 -1.1128  1.0981 -1.1217
 1378SOL    HW215594   0.343   1.989   8.381 -1.2663  0.6847 -0.3596
 1379SOL     OW15595   3.380   4.247   9.529  0.5200 -0.0078  0.0422
 1379SOL    HW115596   3.454   4.264   9.471  1.4950 -0.7671  1.0786
 1379SOL    HW215597   3.408   4.160   9.558  2.1396 -0.2668 -2.2723
 1380SOL     OW15598   2.330   0.141   9.731  0.5669  0.3085  0.2954
 1380SOL    HW115599   2.248   0.091   9.732  0.7731 -0.0947 -1.9056
 1380SOL    HW215600   2.392   0.073   9.757  0.3311 -0.9461 -2.3788
 1381SOL     OW15601   4.067   2.739   1.593 -0.5322  0.4305  0.1690
 1381SOL    HW115602   4.132   2.803   1.623  0.7325 -1.1647  0.7889
 1381SOL    HW215603   4.043   2.688   1.670  1.6214  0.1945  0.6753
 1382SOL     OW15604   3.530   1.345   5.417 -0.0131 -0.7460  0.5459
 1382SOL    HW115605   3.473   1.302   5.480 -0.0820 -0.1315  0.9068
 1382SOL    HW215606   3.580   1.272   5.383  0.9479  0.0732  0.2029
 1383SOL     OW15607   4.080   1.093   8.155 -0.3586 -0.1240  0.5087
 1383SOL    HW115608   4.067   1.100   8.249  1.1629 -0.4945  0.7593
 1383SOL    HW215609   4.043   1.007   8.132  1.1160 -0.9085  1.0381
 1384SOL     OW15610   3.734   0.480   9.663  1.2571 -0.6514 -0.3886
 1384SOL    HW115611   3.773   0.560   9.628  1.2663  0.1693  1.5071
 1384SOL    HW215612   3.675   0.471   9.588 -0.5873 -3.7935  1.4284
 1385SOL     OW15613   4.318   0.971   4.071 -0.5086 -0.1519 -0.0800
 1385SOL    HW115614   4.402   0.929   4.052  0.9932  2.6106  0.5466
 1385SOL    HW215615   4.323   1.063   4.047  1.4371 -0.5652 -1.2350
 1386SOL     OW15616   0.472   2.421   4.620 -0.0184 -0.0102  0.1128
 1386SOL    HW115617   0.413   2.427   4.545  0.3653  0.1430 -0.1787
 1386SOL    HW215618   0.465   2.328   4.641  0.4608 -0.2435 -0.7612
 1387SOL     OW15619   0.260   0.566  17.625 -0.0775  0.0081  0.0802
 1387SOL    HW115620   0.265   0.647  17.677 -0.9655  0.6136 -0.8002
 1387SOL    HW215621   0.278   0.498  17.690  1.4656  1.1777  0.9012
 1388SOL     OW15622   0.630   2.483   4.046  0.7033 -0.3950 -0.0407
 1388SOL    HW115623   0.640   2.578   4.059  0.3904 -0.4925  0.9065
 1388SOL    HW215624   0.676   2.484   3.962  0.9271 -2.1023  0.0744
 1389SOL     OW15625   1.193   3.205   4.955 -0.5784  0.2915  0.0197
 1389SOL    HW115626   1.217   3.261   4.881 -0.0173  0.9826  0.7210
 1389SOL    HW215627   1.246   3.233   5.029  0.9921 -1.8032 -0.3028
 1390SOL     OW15628   1.987   3.812   2.154  0.4130 -0.4102 -0.4913
 1390SOL    HW115629   1.895   3.836   2.139  0.2498  0.4314  1.8277
 1390SOL    HW215630   2.011   3.761   2.077 -1.0215  0.5715 -1.5933
 1391SOL     OW15631   0.688   0.304   5.746 -0.1462  0.0096 -0.3990
 1391SOL    HW115632   0.614   0.310   5.686 -0.5679  0.6869  0.1830
 1391SOL    HW215633   0.703   0.397   5.765  0.1257 -0.3960  1.3882
 1392SOL     OW15634   2.465   2.718   5.425  0.2987 -0.1781 -0.2410
 1392SOL    HW115635   2.386   2.679   5.389  0.1474  0.7867 -0.9458
 1392SOL    HW215636   2.469   2.689   5.517 -0.9093 -2.9892 -1.0592
 1393SOL     OW15637   3.359   1.015   3.621 -0.1342  0.1070 -0.5651
 1393SOL    HW115638   3.287   0.953   3.608 -0.2062  0.3005 -1.0978
 1393SOL    HW215639   3.328   1.086   3.566 -0.3379 -1.0043 -1.8812
 1394SOL     OW15640   0.765   4.576   1.572 -0.3030  0.0088  0.2727
 1394SOL    HW115641   0.842   4.569   1.516 -1.4488 -1.6256 -1.1190
 1394SOL    HW215642   0.798   4.549   1.658  1.9140 -2.8494 -1.4540
 1395SOL     OW15643   0.065   2.306   4.415 -0.0617  0.9106  0.0342
 1395SOL    HW115644   0.065   2.260   4.499 -0.7808  0.8340 -0.0113
 1395SOL    HW215645   4.694   2.306   4.393  0.2325  0.0645 -1.2446
 1396SOL     OW15646   2.962   0.880   9.666  0.3485  0.3358 -0.3370
 1396SOL    HW115647   3.056   0.894   9.667  0.2917  0.5623  1.9766
 1396SOL    HW215648   2.933   0.971   9.668  0.0612  0.2142  1.9211
 1397SOL     OW15649   2.846   1.177   3.600 -0.6121 -0.3854 -0.3338
 1397SOL    HW115650   2.789   1.101   3.587 -0.2976 -0.6458 -0.1896
 1397SOL    HW215651   2.906   1.136   3.662  0.2370 -1.1085 -1.6373
 1398SOL     OW15652   2.052   3.656   9.086 -0.6171 -0.8060  0.6772
 1398SOL    HW115653   1.967   3.655   9.130  0.1776 -0.1384  2.2348
 1398SOL    HW215654   2.032   3.680   8.996  0.1966  0.4245  0.8179
 1399SOL     OW15655   0.279   2.617   3.092  0.3767 -0.5085  0.0804
 1399SOL    HW115656   0.228   2.614   3.174 -1.5362  1.7517 -1.0330
 1399SOL    HW215657   0.365   2.622   3.133  0.1763  1.7890  0.1997
 1400SOL     OW15658   4.196   1.516  16.589 -0.0883 -0.1961 -0.2335
 1400SOL    HW115659   4.253   1.591  16.573  2.1347 -1.9692 -0.6693
 1400SOL    HW215660   4.118   1.561  16.559 -0.7805 -1.8382 -0.9047
 1401SOL     OW15661   0.581   3.131   2.856  0.1742  0.0446 -0.0027
 1401SOL    HW115662   0.558   3.152   2.765  1.2628 -0.2473 -0.3444
 1401SOL    HW215663   0.499   3.135   2.905  0.6810 -1.5307  0.9592
 1402SOL     OW15664   3.953   2.626  13.491 -0.0845  0.7317  0.2076
 1402SOL    HW115665   4.026   2.657  13.439 -2.7032  0.3111 -3.7327
 1402SOL    HW215666   3.973   2.678  13.569  0.8804 -1.2773  1.3108
 1403SOL     OW15667   1.853   1.807   8.736 -0.0819 -0.0661  0.6907
 1403SOL    HW115668   1.797   1.854   8.673 -0.4021 -0.0290  1.0055
 1403SOL    HW215669   1.937   1.842   8.707  0.3599 -0.0418  2.0195
 1404SOL     OW15670   3.478   4.394   9.999 -0.3256 -0.1973 -0.0539
 1404SOL    HW115671   3.471   4.359   9.910 -0.1762  1.6400 -0.7798
 1404SOL    HW215672   3.520   4.322  10.046 -0.0202  1.4435  2.1802
 1405SOL     OW15673   1.451   3.371   0.178  0.1112 -0.2658  0.1810
 1405SOL    HW115674   1.494   3.299   0.133  0.6421  0.1237  0.0594
 1405SOL    HW215675   1.480   3.345   0.265 -3.0046 -0.6896  1.1087
 1406SOL     OW15676   3.456   0.170   0.697  0.4296  0.5721 -0.1791
 1406SOL    HW115677   3.410   0.143   0.617  0.1238 -0.1934  0.2481
 1406SOL    HW215678   3.419   0.110   0.762 -1.9114  1.8095 -0.3842
 1407SOL     OW15679   1.873   3.990  15.270 -0.2442  0.3307  0.1887
 1407SOL    HW115680   1.955   4.029  15.302  0.9960 -0.2527 -2.2761
 1407SOL    HW215681   1.822   4.067  15.295  0.3932 -0.1264  2.9230
 1408SOL     OW15682   1.365   2.200  12.480 -0.2822 -0.1986  0.3913
 1408SOL    HW115683   1.405   2.163  12.558 -0.8144 -1.2048  0.1842
 1408SOL    HW215684   1.361   2.293  12.501 -1.1307 -0.1625  0.0862
 1409SOL     OW15685   2.199   2.843   0.069 -0.2587 -0.5581  0.3833
 1409SOL    HW115686   2.206   2.930   0.110  0.7316 -1.5364  2.2767
 1409SOL    HW215687   2.288   2.809   0.082  0.0393 -0.1011 -0.4642
 1410SOL     OW15688   0.681   1.868   5.464 -0.5087  0.0980  0.2629
 1410SOL    HW115689   0.689   1.791   5.520 -0.1336  1.4797  2.0811
 1410SOL    HW215690   0.774   1.886   5.447  0.0384 -2.2622  0.7905
 1411SOL     OW15691   0.031   4.572   7.627 -0.4482  0.3562  0.1247
 1411SOL    HW115692   0.022   4.535   7.540 -0.3624  2.8579 -0.9429
 1411SOL    HW215693   4.681   4.635   7.627 -0.3865  0.4254 -0.7742
 1412SOL     OW15694   1.901   0.023   6.935  0.4936  0.1839  0.2841
 1412SOL    HW115695   1.858   4.694   6.867 -1.5470  1.6583  0.4559
 1412SOL    HW215696   1.895   0.111   6.898 -1.0682  0.7876  1.9948
 1413SOL     OW15697   0.669   1.407   2.897 -0.1327 -0.4971 -0.2102
 1413SOL    HW115698   0.685   1.498   2.922 -0.7616 -0.3509 -0.3431
 1413SOL    HW215699   0.711   1.408   2.811 -1.3661 -0.6879 -0.8157
 1414SOL     OW15700   1.390   4.121   5.015 -0.0469 -0.1576  0.5346
 1414SOL    HW115701   1.380   4.198   4.960  1.5592  0.9369  1.7619
 1414SOL    HW215702   1.484   4.113   4.996 -0.4454 -0.5832 -1.2275
 1415SOL     OW15703   1.801   0.359   8.438 -0.2431  0.4624 -0.4645
 1415SOL    HW115704   1.830   0.359   8.347 -0.4779  0.7109 -0.5417
 1415SOL    HW215705   1.888   0.364   8.477 -0.4205  0.0458 -0.0144
 1416SOL     OW15706   2.316   2.064   2.251 -0.0392 -0.0546 -0.3179
 1416SOL    HW115707   2.223   2.079   2.230  0.3450  3.0795  0.1783
 1416SOL    HW215708   2.326   2.121   2.327 -1.1063 -1.1624  0.6422
 1417SOL     OW15709   0.206   1.966   1.684 -0.0168  0.2788  0.2541
 1417SOL    HW115710   0.206   1.987   1.591  3.5721 -1.4691 -0.1260
 1417SOL    HW215711   0.115   1.969   1.714 -0.0281 -1.8111  0.4482
 1418SOL     OW15712   4.188   2.067   3.749  0.3958  0.1144  0.1770
 1418SOL    HW115713   4.246   2.113   3.687 -1.8881  0.6529 -1.5609
 1418SOL    HW215714   4.255   2.018   3.798  0.5891  1.8310  1.6371
 1419SOL     OW15715   3.387   4.008   5.681  0.1404  0.1477 -0.4369
 1419SOL    HW115716   3.378   4.005   5.776 -0.2151 -3.8973 -0.6152
 1419SOL    HW215717   3.371   3.914   5.671  0.1485 -0.1932  2.8935
 1420SOL     OW15718   0.144   0.339  16.944  0.4572 -0.0733  0.1489
 1420SOL    HW115719   0.151   0.350  17.038  3.2572 -0.9950  0.0438
 1420SOL    HW215720   0.099   0.419  16.914  2.0260  0.7679  0.0313
 1421SOL     OW15721   0.792   3.054   5.504  0.2881  0.0370 -0.0769
 1421SOL    HW115722   0.810   3.011   5.421 -2.9781 -3.0534  0.8307
 1421SOL    HW215723   0.863   3.026   5.563 -0.0996  3.3675  1.9795
 1422SOL     OW15724   4.497   4.354   0.733 -0.5895 -0.0866  0.0942
 1422SOL    HW115725   4.410   4.321   0.758 -0.7609 -0.0720 -0.4764
 1422SOL    HW215726   4.494   4.382   0.642  3.4977  1.6221  0.5137
 1423SOL     OW15727   1.045   2.211  10.724  0.1203 -0.3012  0.0114
 1423SOL    HW115728   1.095   2.177  10.798 -0.7486  1.6976  1.5221
 1423SOL    HW215729   1.107   2.273  10.687 -1.5201  0.5099 -1.3709
 1424SOL     OW15730   2.363   2.828   6.635 -0.7320  0.0852  0.8666
 1424SOL    HW115731   2.305   2.843   6.710 -1.1686 -2.3704  1.0398
 1424SOL    HW215732   2.379   2.915   6.601  1.2020 -0.2868  0.8470
 1425SOL     OW15733   2.373   0.062  10.918 -0.2593  0.4901 -0.0380
 1425SOL    HW115734   2.286   0.100  10.902  0.3353  0.8332 -2.5016
 1425SOL    HW215735   2.400   0.039  10.829 -0.1281 -0.4024  0.2422
 1426SOL     OW15736   0.870   0.490   8.062  0.3238  0.0635  0.2266
 1426SOL    HW115737   0.937   0.476   8.128  0.7612 -0.3162 -0.2986
 1426SOL    HW215738   0.793   0.487   8.119 -0.9533 -0.9313 -1.5444
 1427SOL     OW15739   1.959   0.137  13.703 -0.5081  0.1309  0.5342
 1427SOL    HW115740   1.951   0.042  13.706  0.3133  0.1146  2.0227
 1427SOL    HW215741   2.051   0.143  13.727 -0.6656 -0.1649  1.2219
 1428SOL     OW15742   4.109   1.434   6.591 -0.0863 -0.2288  0.2094
 1428SOL    HW115743   4.029   1.482   6.570  1.5102  0.4622 -4.1465
 1428SOL    HW215744   4.092   1.404   6.680 -2.3375  0.1961 -0.0865
 1429SOL     OW15745   0.893   4.555   8.866  0.2510  0.0772 -0.4219
 1429SOL    HW115746   0.961   4.589   8.924 -0.8874  2.5611 -0.5476
 1429SOL    HW215747   0.885   4.465   8.898 -0.1713  0.3508  0.2415
 1430SOL     OW15748   0.250   3.038   4.940 -0.3710 -0.1019  0.6116
 1430SOL    HW115749   0.285   3.122   4.911  1.5476 -1.7143 -1.7473
 1430SOL    HW215750   0.281   3.042   5.031 -0.1661 -0.5366  0.5594
 1431SOL     OW15751   0.178   3.356  13.147 -0.3790  0.0886  0.7085
 1431SOL    HW115752   0.245   3.313  13.201 -0.4287  0.2975  0.9370
 1431SOL    HW215753   0.188   3.305  13.067 -3.1428 -0.1344  0.5335
 1432SOL     OW15754   3.283   1.838   2.478 -0.3058 -0.3382  0.5309
 1432SOL    HW115755   3.354   1.896   2.505 -1.9933  2.6874 -1.5241
 1432SOL    HW215756   3.247   1.887   2.403 -0.5294 -0.4260  0.5831
 1433SOL     OW15757   3.550   2.325  16.618  0.1882 -0.2670 -0.3842
 1433SOL    HW115758   3.626   2.292  16.666 -0.4017 -1.0095  0.0476
 1433SOL    HW215759   3.593   2.394  16.568 -0.8808 -0.2607 -1.2875
 1434SOL     OW15760   0.724   1.435  15.012  0.1463  0.1448 -0.2243
 1434SOL    HW115761   0.780   1.509  14.990 -0.6207  0.4402 -1.2181
 1434SOL    HW215762   0.790   1.379  15.053  1.8277 -0.6275 -3.9879
 1435SOL     OW15763   3.795   1.602   7.041  0.0431  0.1040  0.2091
 1435SOL    HW115764   3.853   1.543   6.992  1.4499  0.4442  1.4644
 1435SOL    HW215765   3.857   1.667   7.073  1.0703 -0.2512 -1.0730
 1436SOL     OW15766   3.079   0.825   7.393 -0.5911 -0.7863 -0.7181
 1436SOL    HW115767   3.122   0.747   7.429 -1.0426 -0.8024 -0.2275
 1436SOL    HW215768   3.026   0.793   7.320 -0.3691  0.6434 -1.5151
 1437SOL     OW15769   3.183   4.700   9.368 -0.8462  0.3636  0.6345
 1437SOL    HW115770   3.204   4.616   9.327  1.6182  0.5993  1.4260
 1437SOL    HW215771   3.216   4.693   9.458 -1.7412 -0.9449  0.8656
 1438SOL     OW15772   4.507   0.053   5.515  0.9131 -0.1202  0.2286
 1438SOL    HW115773   4.574   4.707   5.519  0.1416 -0.7906  1.8593
 1438SOL    HW215774   4.477   0.061   5.606  5.5733 -0.0466  1.7668
 1439SOL     OW15775   2.416   1.071   9.789 -0.5585 -0.6141  0.2260
 1439SOL    HW115776   2.381   1.088   9.876  0.6536 -0.5979  0.7082
 1439SOL    HW215777   2.334   1.059   9.742 -0.5841  1.3430 -0.2094
 1440SOL     OW15778   4.257   0.597   7.305  0.0845 -0.6698 -0.1781
 1440SOL    HW115779   4.331   0.561   7.256  1.8623 -0.6875  2.5481
 1440SOL    HW215780   4.288   0.646   7.381 -2.0496 -0.8785  0.8070
 1441SOL     OW15781   1.331   1.810  11.088  0.1073 -0.0290 -0.1285
 1441SOL    HW115782   1.292   1.814  11.001  1.5674  0.1105 -0.7786
 1441SOL    HW215783   1.259   1.858  11.129  0.7568  0.7723  0.0817
 1442SOL     OW15784   4.077   4.580   1.245  0.2311 -0.3418  0.6482
 1442SOL    HW115785   4.089   4.520   1.172  0.9308 -1.1631  1.4408
 1442SOL    HW215786   4.147   4.641   1.224  0.2230 -0.6476 -0.2523
 1443SOL     OW15787   4.344   3.640   8.452 -0.0463 -0.4155  0.4051
 1443SOL    HW115788   4.403   3.708   8.485 -1.9174  0.7928  1.2912
 1443SOL    HW215789   4.399   3.581   8.402  2.7183  1.6548  1.0021
 1444SOL     OW15790   0.139   3.536   7.088  0.2134  0.3834 -0.2774
 1444SOL    HW115791   0.194   3.611   7.067  0.2680  0.7648  1.1893
 1444SOL    HW215792   0.133   3.537   7.184 -2.6288 -1.0211 -0.4281
 1445SOL     OW15793   4.215   3.323  16.072 -0.4006 -0.2799 -0.4125
 1445SOL    HW115794   4.213   3.405  16.122  1.0963 -0.3292 -0.2787
 1445SOL    HW215795   4.119   3.315  16.073 -0.4105 -0.1587 -0.3934
 1446SOL     OW15796   0.624   3.477  13.322  0.4946  0.0566 -0.5210
 1446SOL    HW115797   0.717   3.501  13.321  0.7599 -1.0265 -2.1660
 1446SOL    HW215798   0.593   3.563  13.352  0.1717 -0.5153  0.7621
 1447SOL     OW15799   1.628   3.877   7.009  0.3091 -0.7085  0.7161
 1447SOL    HW115800   1.568   3.913   6.944 -0.2799 -0.9334  1.1408
 1447SOL    HW215801   1.569   3.875   7.084  0.0750 -1.4552  0.5064
 1448SOL     OW15802   4.248   3.834   4.700 -0.2765  0.2890  0.0446
 1448SOL    HW115803   4.295   3.917   4.691  0.3320 -0.0096  0.4374
 1448SOL    HW215804   4.218   3.832   4.609 -0.8397 -2.4815  0.2943
 1449SOL     OW15805   3.080   0.885   7.068  0.3707  0.0445  0.0559
 1449SOL    HW115806   3.056   0.858   6.979 -0.7608  0.6582  0.1713
 1449SOL    HW215807   3.042   0.816   7.123 -1.4677  0.2026 -1.0151
 1450SOL     OW15808   2.406   3.863   6.280 -0.1028  0.5362 -0.1621
 1450SOL    HW115809   2.460   3.791   6.311 -0.3903  1.8525  3.4052
 1450SOL    HW215810   2.437   3.944   6.320  1.1786  0.4532 -0.9846
 1451SOL     OW15811   0.569   0.103   5.958  0.1753 -0.5041  0.6759
 1451SOL    HW115812   0.581   0.183   6.009 -0.7153 -0.4615  0.8149
 1451SOL    HW215813   0.474   0.098   5.968  0.0178  1.5348  0.1124
 1452SOL     OW15814   1.443   3.937   7.200  0.1494  0.0738  0.3490
 1452SOL    HW115815   1.513   3.940   7.265  1.4641  0.5808 -1.0986
 1452SOL    HW215816   1.400   4.022   7.208 -0.4634 -0.3762  1.8827
 1453SOL     OW15817   3.510   4.252   3.612  0.0734  0.7076  0.2609
 1453SOL    HW115818   3.563   4.318   3.657  1.9118 -1.4236  1.2309
 1453SOL    HW215819   3.566   4.177   3.631 -0.1343 -0.1683 -2.6644
 1454SOL     OW15820   4.080   4.125  11.328 -0.0778 -0.1328 -0.0144
 1454SOL    HW115821   4.040   4.212  11.336  2.0324  0.9114 -0.8738
 1454SOL    HW215822   4.043   4.101  11.243  1.0937 -0.5225 -0.4133
 1455SOL     OW15823   1.097   3.524   2.798  0.0276  0.5878  0.4104
 1455SOL    HW115824   1.033   3.514   2.868 -1.4087  1.8040 -0.7370
 1455SOL    HW215825   1.042   3.542   2.722  0.2706  0.1419  0.1248
 1456SOL     OW15826   3.175   2.393   6.644 -0.6416  0.2364  0.3490
 1456SOL    HW115827   3.230   2.315   6.633  0.3543  0.8234  1.0747
 1456SOL    HW215828   3.139   2.407   6.557 -1.4807  0.3283  0.7140
 1457SOL     OW15829   0.066   3.809   9.294  0.0266 -0.1026 -0.3916
 1457SOL    HW115830   0.083   3.874   9.227  3.4136 -0.2875  0.2523
 1457SOL    HW215831   0.033   3.731   9.249 -2.0414  1.4876 -1.5972
 1458SOL     OW15832   0.378   4.310   3.450  0.3257  0.2730 -0.4602
 1458SOL    HW115833   0.350   4.333   3.362 -0.2180  0.3368 -0.2728
 1458SOL    HW215834   0.446   4.376   3.461 -1.1777  1.9149 -1.0767
 1459SOL     OW15835   0.624   3.905   5.009  0.4934 -0.3191  0.1463
 1459SOL    HW115836   0.582   3.914   4.924  0.1803 -1.2296  0.2118
 1459SOL    HW215837   0.653   3.993   5.036 -0.5223  0.5857 -1.6941
 1460SOL     OW15838   0.080   0.824   8.187  0.2352 -0.2468  0.4288
 1460SOL    HW115839   0.030   0.903   8.204 -1.3678 -1.0580 -0.4322
 1460SOL    HW215840   0.160   0.843   8.236  0.0227 -0.1762  0.7470
 1461SOL     OW15841   4.052   4.074  12.194  0.0205  0.1500  0.0423
 1461SOL    HW115842   3.985   4.113  12.137 -0.0889  0.0057  0.0710
 1461SOL    HW215843   4.006   3.991  12.205 -0.8870  0.5431 -0.7451
 1462SOL     OW15844   0.568   2.065  14.106 -0.0663  0.5458  0.5388
 1462SOL    HW115845   0.579   2.094  14.197  1.6449  1.8822 -0.1108
 1462SOL    HW215846   0.559   2.147  14.058 -1.3716  0.9795  1.4968
 1463SOL     OW15847   4.511   0.409   2.120 -0.1303  0.4205  0.7012
 1463SOL    HW115848   4.458   0.476   2.162  1.0425  0.9250  1.3941
 1463SOL    HW215849   4.553   0.374   2.199  1.9107 -0.4925 -0.7974
 1464SOL     OW15850   3.558   3.378   9.626  0.0161  0.6218  0.3506
 1464SOL    HW115851   3.523   3.302   9.673 -0.0429 -0.2627 -1.1611
 1464SOL    HW215852   3.600   3.332   9.554 -0.0770  1.7062 -0.3919
 1465SOL     OW15853   0.773   1.167   0.759  0.2271  0.5925 -0.2009
 1465SOL    HW115854   0.775   1.254   0.720  0.1370 -0.0886 -1.7445
 1465SOL    HW215855   0.789   1.201   0.846 -0.9246  1.5915 -0.3779
 1466SOL     OW15856   3.354   1.812  14.370 -0.8922  0.3379 -0.0359
 1466SOL    HW115857   3.332   1.842  14.458  1.0166  1.9717 -0.1037
 1466SOL    HW215858   3.346   1.894  14.322  0.6037 -0.4595 -1.6524
 1467SOL     OW15859   2.443   3.302   3.257  0.3290 -0.0951  0.0583
 1467SOL    HW115860   2.411   3.219   3.223  0.0289  1.8002 -4.2725
 1467SOL    HW215861   2.380   3.308   3.329  0.3254 -0.7661  0.1105
 1468SOL     OW15862   4.290   0.733  14.548 -0.1573  0.0917  0.1247
 1468SOL    HW115863   4.262   0.662  14.605 -0.0405 -0.7159 -0.8127
 1468SOL    HW215864   4.224   0.800  14.563  0.9639  1.7112 -2.0781
 1469SOL     OW15865   0.792   2.581   2.835  0.0337 -0.1965 -0.5264
 1469SOL    HW115866   0.885   2.564   2.847 -0.0802  0.4189  1.1714
 1469SOL    HW215867   0.768   2.556   2.924  0.8424  0.0084 -0.2591
 1470SOL     OW15868   1.327   4.005   8.443 -0.2338 -0.1091  0.5602
 1470SOL    HW115869   1.316   3.912   8.459 -0.3229 -0.3933 -1.1971
 1470SOL    HW215870   1.373   3.998   8.360  2.3944  2.8399  1.7413
 1471SOL     OW15871   4.010   2.936   6.069 -0.3181 -0.2246  0.5478
 1471SOL    HW115872   3.958   2.993   6.126 -0.9778  1.0348 -1.2755
 1471SOL    HW215873   4.008   2.853   6.116 -1.2335  0.9572  2.6180
 1472SOL     OW15874   3.680   2.044   8.074  0.0638  0.5571 -0.7376
 1472SOL    HW115875   3.604   2.064   8.129 -0.9338 -1.2217 -1.4838
 1472SOL    HW215876   3.726   1.969   8.111 -1.3987 -0.1881 -0.4295
 1473SOL     OW15877   0.934   1.150   4.767 -0.1632 -0.0826 -0.3400
 1473SOL    HW115878   0.844   1.176   4.745 -0.3459  0.8429  1.5293
 1473SOL    HW215879   0.931   1.058   4.741 -3.8605 -0.3760  1.1213
 1474SOL     OW15880   0.900   3.320   6.872 -0.2822 -0.3282 -0.2556
 1474SOL    HW115881   0.853   3.239   6.849  0.5649 -1.7338  2.8735
 1474SOL    HW215882   0.975   3.278   6.914  0.9280 -0.3383 -2.4631
 1475SOL     OW15883   3.931   0.557   3.813  0.6879  0.0770  0.1889
 1475SOL    HW115884   4.020   0.548   3.849  1.4583  2.2715 -1.1275
 1475SOL    HW215885   3.902   0.467   3.798  0.6708  0.3359 -1.2985
 1476SOL     OW15886   0.344   4.034  12.053 -0.3176 -0.1407  0.6030
 1476SOL    HW115887   0.348   4.032  11.957  2.5160 -1.1561  0.7574
 1476SOL    HW215888   0.277   4.102  12.059 -2.0076 -1.8942  1.3636
 1477SOL     OW15889   1.275   0.060   5.054 -0.1723 -0.2101 -0.2786
 1477SOL    HW115890   1.214   0.080   5.125  0.7755  3.2329 -0.4371
 1477SOL    HW215891   1.311   4.702   5.091 -0.0552 -0.1006 -0.1553
 1478SOL     OW15892   2.357   3.166   4.219  0.5018  0.5015 -0.0324
 1478SOL    HW115893   2.413   3.091   4.199  0.1477  0.1969  0.1186
 1478SOL    HW215894   2.398   3.241   4.177  1.2032  1.6460  2.6869
 1479SOL     OW15895   1.224   1.864   3.092  0.0348  0.4212 -0.1813
 1479SOL    HW115896   1.197   1.839   3.004  1.0530  0.8816 -0.6263
 1479SOL    HW215897   1.157   1.930   3.112  0.7455  0.6582  1.4318
 1480SOL     OW15898   2.902   0.802  10.557 -0.2776 -0.8220  0.2324
 1480SOL    HW115899   2.817   0.778  10.594 -0.8740  1.8248  0.5858
 1480SOL    HW215900   2.877   0.806  10.465 -1.3698 -1.2971  0.4999
 1481SOL     OW15901   1.255   1.235  11.909 -0.0925 -0.3576  0.4031
 1481SOL    HW115902   1.273   1.306  11.848 -0.0420  1.6004  2.6525
 1481SOL    HW215903   1.246   1.279  11.994 -0.4219  0.3897 -0.0169
 1482SOL     OW15904   0.489   4.668   0.171  0.3747 -0.0992  0.2811
 1482SOL    HW115905   0.447   4.582   0.159  1.0815 -0.3168 -0.7022
 1482SOL    HW215906   0.428   4.701   0.236  2.3485  2.1397  0.9685
 1483SOL     OW15907   0.889   2.358   9.099  0.3843 -0.4211 -0.0089
 1483SOL    HW115908   0.955   2.289   9.091 -0.4404 -1.0269 -1.5367
 1483SOL    HW215909   0.925   2.421   9.036 -2.0497  0.9250 -0.0598
 1484SOL     OW15910   4.059   4.359   3.538 -0.4034  0.1515 -0.3711
 1484SOL    HW115911   4.024   4.431   3.485  1.0088  0.7687 -0.4552
 1484SOL    HW215912   4.141   4.402   3.560 -0.4021  0.1996 -0.4710
 1485SOL     OW15913   3.255   0.396   2.905 -0.2653  0.1707  0.2309
 1485SOL    HW115914   3.215   0.329   2.849 -0.1348 -0.5160  0.9759
 1485SOL    HW215915   3.279   0.457   2.835 -0.8498  0.6155  0.4209
 1486SOL     OW15916   1.064   2.146   9.090  0.3723  0.4212 -1.0133
 1486SOL    HW115917   1.092   2.055   9.097 -0.2165  0.1344 -2.3124
 1486SOL    HW215918   1.006   2.138   9.014 -0.4315 -0.0516 -0.3536
 1487SOL     OW15919   4.167   2.380   3.924  0.1935  0.6782 -0.2088
 1487SOL    HW115920   4.125   2.461   3.951  1.8391  1.9960 -1.6569
 1487SOL    HW215921   4.098   2.316   3.945  0.1707  0.3795 -1.2345
 1488SOL     OW15922   4.661   1.416   2.927  0.0392 -0.5144  0.1571
 1488SOL    HW115923   4.668   1.509   2.948 -0.9132 -0.5470  0.5896
 1488SOL    HW215924   4.642   1.391   3.017  0.2667  0.0997  0.3742
 1489SOL     OW15925   1.483   1.719  15.997  0.0764  0.4861 -0.2132
 1489SOL    HW115926   1.511   1.716  16.089  1.2416  0.7845 -0.5531
 1489SOL    HW215927   1.558   1.683  15.950 -2.1883  0.6384 -3.9533
 1490SOL     OW15928   0.009   4.357   8.622 -0.1699 -0.2769  0.1607
 1490SOL    HW115929   0.063   4.281   8.645  1.0489  1.0379  1.5576
 1490SOL    HW215930   4.652   4.316   8.657  0.0463 -1.2906 -0.5147
 1491SOL     OW15931   1.279   1.657   3.270 -0.7066  0.2825  0.2248
 1491SOL    HW115932   1.265   1.709   3.349 -0.0179 -1.0457  1.2190
 1491SOL    HW215933   1.237   1.717   3.207  1.3263  0.3454 -1.0452
 1492SOL     OW15934   1.288   0.049   4.381  0.3966  0.1889 -0.0027
 1492SOL    HW115935   1.242   0.041   4.465 -0.7628 -1.1565 -0.7770
 1492SOL    HW215936   1.222   0.088   4.325 -1.7851  0.3413  2.6623
 1493SOL     OW15937   1.906   1.699  14.480 -0.3064 -0.0490 -0.5200
 1493SOL    HW115938   1.909   1.603  14.489 -0.2036 -0.0942 -1.0473
 1493SOL    HW215939   1.896   1.723  14.572 -1.8225 -2.1378 -0.1347
 1494SOL     OW15940   3.839   3.007   3.451 -0.8158  0.4201 -0.2624
 1494SOL    HW115941   3.766   3.068   3.463 -2.9783 -2.3084  0.3731
 1494SOL    HW215942   3.842   2.965   3.537 -0.5397  0.8799 -0.0393
 1495SOL     OW15943   1.195   3.709   7.734  0.4187 -0.2208 -0.7875
 1495SOL    HW115944   1.174   3.679   7.822 -0.6254  0.1113 -0.9168
 1495SOL    HW215945   1.123   3.669   7.684  0.5151 -0.2855 -0.8727
 1496SOL     OW15946   3.997   2.492   5.199 -0.7121  0.4138 -0.5693
 1496SOL    HW115947   4.083   2.535   5.200 -0.9172  0.8135  0.2870
 1496SOL    HW215948   3.978   2.473   5.291  0.3092  2.7118  0.1282
 1497SOL     OW15949   1.335   2.359   1.798  0.1161  0.0909 -0.0337
 1497SOL    HW115950   1.299   2.412   1.727 -1.4504  2.2811  2.3962
 1497SOL    HW215951   1.367   2.282   1.751  0.7128  0.1779  0.2449
 1498SOL     OW15952   2.197   3.696  10.713 -0.0297  0.1199 -0.2828
 1498SOL    HW115953   2.194   3.616  10.660 -0.5383  0.3028 -0.5333
 1498SOL    HW215954   2.105   3.722  10.721  1.3587  4.5409  0.8067
 1499SOL     OW15955   4.267   1.473   2.577 -0.0485  0.6297  0.6526
 1499SOL    HW115956   4.322   1.417   2.523  2.0006  0.5760  2.8138
 1499SOL    HW215957   4.184   1.461   2.530 -0.9575  0.0810  2.4164
 1500SOL     OW15958   4.171   4.095   6.377 -0.5297 -0.0068  0.1836
 1500SOL    HW115959   4.168   4.152   6.301 -0.5140 -0.2815 -0.0245
 1500SOL    HW215960   4.263   4.067   6.380 -0.0267  1.5812 -0.5580
 1501SOL     OW15961   3.818   0.183   7.654  0.1454 -0.3376  0.1798
 1501SOL    HW115962   3.912   0.173   7.668  0.2520  0.0251 -0.2568
 1501SOL    HW215963   3.806   0.124   7.579  1.6288 -2.9204  1.9784
 1502SOL     OW15964   1.408   0.443   4.202  0.3763  0.5525 -0.7304
 1502SOL    HW115965   1.328   0.466   4.155 -0.8460 -0.7878  0.7017
 1502SOL    HW215966   1.465   0.519   4.191  1.7649 -0.1567  1.6122
 1503SOL     OW15967   2.282   3.667  12.842  0.0852  0.0207  0.0807
 1503SOL    HW115968   2.288   3.763  12.839 -1.8305  0.1231 -0.6638
 1503SOL    HW215969   2.219   3.666  12.914  0.1246 -4.2119  0.0199
 1504SOL     OW15970   0.156   2.079  15.113 -0.0056 -0.5672 -0.8091
 1504SOL    HW115971   0.181   2.132  15.189 -1.2326  1.7489 -2.0170
 1504SOL    HW215972   0.118   2.142  15.051  1.3683  0.5170 -0.5454
 1505SOL     OW15973   2.221   0.659   4.250 -0.7288  0.1515 -0.4121
 1505SOL    HW115974   2.271   0.602   4.307 -2.7129 -2.0207 -0.8752
 1505SOL    HW215975   2.248   0.642   4.160 -2.4269 -0.3385 -0.8271
 1506SOL     OW15976   1.827   3.821   4.970  0.0647 -0.2469  0.2589
 1506SOL    HW115977   1.920   3.832   4.989 -0.1794  1.9463  0.1083
 1506SOL    HW215978   1.834   3.830   4.875 -0.2571 -0.6997  0.1902
 1507SOL     OW15979   0.846   4.107   7.038 -0.2456 -0.0612 -0.0951
 1507SOL    HW115980   0.847   4.150   7.124  1.2831 -0.3793  0.0469
 1507SOL    HW215981   0.892   4.026   7.061  0.2821  0.3586  0.3235
 1508SOL     OW15982   3.021   2.694  15.698  0.4422  0.1883 -0.0279
 1508SOL    HW115983   3.028   2.620  15.759  1.5440  0.4524  0.1612
 1508SOL    HW215984   3.027   2.654  15.612 -0.4649 -0.8503  0.3855
 1509SOL     OW15985   3.828   1.018   6.382  0.1111  0.0787  0.2827
 1509SOL    HW115986   3.891   0.964   6.430  1.7592  0.2249 -1.7473
 1509SOL    HW215987   3.828   0.971   6.299  2.3941 -0.8986  0.8328
 1510SOL     OW15988   3.380   0.575   1.106  0.0783  0.3531 -0.5370
 1510SOL    HW115989   3.374   0.480   1.115 -1.1000  0.4012 -0.7194
 1510SOL    HW215990   3.412   0.596   1.193  1.3162 -0.5676 -0.7750
 1511SOL     OW15991   1.526   2.903   2.972 -0.3477  0.1157 -0.0575
 1511SOL    HW115992   1.554   2.955   2.897  2.7321  0.6661  1.4694
 1511SOL    HW215993   1.452   2.963   2.984 -1.8136 -1.0430 -3.4153
 1512SOL     OW15994   3.254   3.220  13.479 -0.0024 -0.4082  0.0105
 1512SOL    HW115995   3.172   3.177  13.505 -1.2293  0.8301 -1.7639
 1512SOL    HW215996   3.251   3.212  13.384  1.5167 -1.1630  0.0288
 1513SOL     OW15997   2.555   2.760  11.958  0.1307 -0.3177 -0.4912
 1513SOL    HW115998   2.571   2.727  12.047 -0.8439  3.6638  1.1696
 1513SOL    HW215999   2.613   2.695  11.919 -0.3248 -1.6276  0.9948
 1514SOL     OW16000   1.117   2.196   7.016  0.4945  0.6330 -0.4473
 1514SOL    HW116001   1.058   2.135   7.060  0.7477  1.2641  0.7575
 1514SOL    HW216002   1.196   2.190   7.070  0.9105 -1.3260 -1.2503
 1515SOL     OW16003   4.442   4.422   8.541  0.4551 -0.6462  0.0419
 1515SOL    HW116004   4.386   4.352   8.508  1.1660 -0.6824 -1.1140
 1515SOL    HW216005   4.434   4.406   8.635 -1.9831  0.4528  0.0339
 1516SOL     OW16006   0.014   3.099  14.233  0.1206  0.1631  0.1255
 1516SOL    HW116007   0.034   3.043  14.158  0.2616 -0.2890  0.4971
 1516SOL    HW216008   0.076   3.060  14.296 -1.1951 -2.7400 -0.3758
 1517SOL     OW16009   3.536   1.391  16.495 -0.0877  0.6436  0.4030
 1517SOL    HW116010   3.526   1.396  16.590 -2.9459 -0.3317  0.1525
 1517SOL    HW216011   3.473   1.460  16.471 -0.7090 -0.4800 -1.1897
 1518SOL     OW16012   1.991   2.218   3.593 -0.2100 -0.0372 -0.0182
 1518SOL    HW116013   2.025   2.145   3.541  0.2849  0.3669 -0.2601
 1518SOL    HW216014   1.957   2.275   3.524  1.6927 -1.6571 -2.2956
 1519SOL     OW16015   2.627   2.557  11.634 -0.4059 -0.1269  0.1149
 1519SOL    HW116016   2.702   2.605  11.600 -2.7331  2.4722 -1.3693
 1519SOL    HW216017   2.651   2.469  11.605  0.4311  0.0966  0.1454
 1520SOL     OW16018   0.897   1.854   9.192 -0.1491 -0.1448 -0.3564
 1520SOL    HW116019   0.962   1.800   9.149  0.3546  0.9941 -1.0344
 1520SOL    HW216020   0.846   1.890   9.120  1.3070  0.3880 -1.1183
 1521SOL     OW16021   1.994   2.353   4.942 -0.2964 -0.7420 -0.2406
 1521SOL    HW116022   1.983   2.262   4.970  0.9316 -1.0198 -0.6792
 1521SOL    HW216023   2.061   2.375   5.007 -1.2471 -0.1742  0.5503
 1522SOL     OW16024   0.320   0.833   2.701  0.1909 -0.4052  0.6768
 1522SOL    HW116025   0.281   0.920   2.698  0.5556 -0.2995 -1.1488
 1522SOL    HW216026   0.279   0.793   2.623  0.7989 -1.5405  0.9426
 1523SOL     OW16027   2.917   0.418   5.302  0.2865 -0.1358  0.4593
 1523SOL    HW116028   2.890   0.508   5.321 -2.2546 -0.6123 -1.0038
 1523SOL    HW216029   2.873   0.372   5.374  1.1366 -1.8230 -0.1201
 1524SOL     OW16030   2.647   2.962   4.845  0.0898  0.0062  0.2332
 1524SOL    HW116031   2.727   2.912   4.827 -1.4682 -2.0303 -0.9601
 1524SOL    HW216032   2.611   2.898   4.906 -0.8586 -1.5378 -1.9427
 1525SOL     OW16033   4.583   1.741   0.097  0.4038  0.1823 -0.0006
 1525SOL    HW116034   4.660   1.730   0.154  0.3120  0.5262  0.1887
 1525SOL    HW216035   4.617   1.792   0.023  2.7408 -1.1849  0.1148
 1526SOL     OW16036   4.631   3.756   1.942  0.4087 -0.7520  0.0790
 1526SOL    HW116037   4.540   3.788   1.947  0.0540 -2.0636  2.1006
 1526SOL    HW216038   4.659   3.802   2.022 -0.1987 -0.1678 -0.0395
 1527SOL     OW16039   0.232   0.670  13.128  0.3183 -0.0111 -0.4253
 1527SOL    HW116040   0.228   0.616  13.207 -1.4727 -1.1239 -1.2963
 1527SOL    HW216041   0.318   0.658  13.086  1.3989  0.8947  1.4969
 1528SOL     OW16042   0.727   3.139  16.792 -0.0983  0.2818  0.0541
 1528SOL    HW116043   0.741   3.229  16.762  1.5614  0.2449  0.7187
 1528SOL    HW216044   0.719   3.151  16.886  1.6449 -1.6624  0.4471
 1529SOL     OW16045   3.104   4.661   2.091  0.5977  1.1732 -0.4185
 1529SOL    HW116046   3.118   0.033   2.100 -0.6743  1.0327  3.0564
 1529SOL    HW216047   3.011   4.660   2.066  0.7240 -0.9947 -0.7722
 1530SOL     OW16048   1.937   2.170  17.260 -0.4777  0.3936  0.2579
 1530SOL    HW116049   1.973   2.102  17.204 -2.6067  0.0550 -0.7143
 1530SOL    HW216050   1.970   2.133  17.342 -0.7839 -1.0359 -0.2765
 1531SOL     OW16051   1.178   0.470  15.861 -0.6301  0.1466 -0.6337
 1531SOL    HW116052   1.107   0.406  15.851  2.0147 -2.5959 -1.7948
 1531SOL    HW216053   1.176   0.489  15.955 -1.4971  0.1383 -0.6531
 1532SOL     OW16054   0.686   2.790   4.057 -0.5822 -0.1239  0.3095
 1532SOL    HW116055   0.593   2.813   4.063 -0.3463  0.7646  0.5020
 1532SOL    HW216056   0.695   2.761   4.147  1.3387  0.0449  0.1722
 1533SOL     OW16057   1.452   4.542  15.560  0.2430  0.0106  0.2690
 1533SOL    HW116058   1.391   4.545  15.486  0.3701  0.3674  0.1785
 1533SOL    HW216059   1.435   4.457  15.600 -0.7435  0.0196 -0.1238
 1534SOL     OW16060   0.385   4.259   4.464  0.5219 -0.3772  0.2082
 1534SOL    HW116061   0.452   4.236   4.400 -1.0375  2.5345 -2.4730
 1534SOL    HW216062   0.312   4.272   4.403 -0.7620  1.3051  2.1163
 1535SOL     OW16063   3.332   2.251   9.382  0.0242  0.3581 -0.0037
 1535SOL    HW116064   3.427   2.245   9.390  0.0832 -1.1728 -1.7454
 1535SOL    HW216065   3.304   2.161   9.363 -0.2174  0.6578 -1.1077
 1536SOL     OW16066   1.251   1.074   6.556 -0.3496 -0.1271  0.5254
 1536SOL    HW116067   1.222   1.099   6.644 -2.4756  1.1241 -0.5418
 1536SOL    HW216068   1.315   1.004   6.572 -0.2029  0.0431  0.6801
 1537SOL     OW16069   2.143   3.384   8.414 -0.4251  0.3626 -0.3750
 1537SOL    HW116070   2.183   3.471   8.410 -3.5201  1.8018  0.0548
 1537SOL    HW216071   2.061   3.405   8.369  0.1313 -1.0738 -2.0522
 1538SOL     OW16072   2.477   1.585  11.375 -0.1365  0.0737  0.0713
 1538SOL    HW116073   2.425   1.516  11.333 -1.1524  1.1532 -0.4383
 1538SOL    HW216074   2.486   1.647  11.302  0.3310  0.0943  0.1452
 1539SOL     OW16075   1.680   2.687  17.113 -0.3909 -0.1791  0.1515
 1539SOL    HW116076   1.625   2.610  17.109  0.4720 -0.8195  0.5523
 1539SOL    HW216077   1.769   2.652  17.119 -0.5577 -0.4944  0.7843
 1540SOL     OW16078   1.063   0.502  16.128 -0.2070  0.1589 -0.4367
 1540SOL    HW116079   1.094   0.526  16.216 -0.4846  1.0221 -0.5761
 1540SOL    HW216080   0.985   0.455  16.159  1.2107 -0.4400  2.2494
 1541SOL     OW16081   3.353   1.328  12.803 -0.5893 -0.1489  0.0412
 1541SOL    HW116082   3.430   1.368  12.763 -0.8577 -1.4324 -1.7125
 1541SOL    HW216083   3.284   1.390  12.781  1.2432  2.3203  1.2178
 1542SOL     OW16084   3.428   1.104  14.656  0.4622 -0.3732  0.3899
 1542SOL    HW116085   3.497   1.095  14.722  1.6937 -0.5019 -0.9041
 1542SOL    HW216086   3.394   1.192  14.671  0.9562  0.1063 -1.3036
 1543SOL     OW16087   2.990   3.326   5.710  0.4045  0.1324 -0.1302
 1543SOL    HW116088   3.005   3.263   5.780  0.0058  0.5056  0.2847
 1543SOL    HW216089   2.969   3.268   5.637  0.1694  1.9320 -1.5029
 1544SOL     OW16090   3.840   3.599  16.480 -0.1167  0.1567 -0.2896
 1544SOL    HW116091   3.907   3.636  16.537 -0.1924 -3.2776  2.0215
 1544SOL    HW216092   3.883   3.520  16.449  3.4658  2.0589 -0.1608
 1545SOL     OW16093   0.709   2.723  11.453  0.0053 -0.1553  0.0712
 1545SOL    HW116094   0.696   2.764  11.367  0.6248  1.2993  0.6875
 1545SOL    HW216095   0.661   2.640  11.448  0.6558 -0.5671  0.5820
 1546SOL     OW16096   1.859   1.416  15.877 -0.0365  0.2313 -0.4512
 1546SOL    HW116097   1.873   1.349  15.810 -1.0185  0.6586 -1.0797
 1546SOL    HW216098   1.889   1.372  15.957 -1.9383  0.9499  0.6572
 1547SOL     OW16099   3.244   0.502   6.144  0.2478  0.0233  0.1411
 1547SOL    HW116100   3.318   0.445   6.166  0.8250  0.3864 -0.8883
 1547SOL    HW216101   3.190   0.444   6.089 -0.7465 -0.4498  1.5912
 1548SOL     OW16102   2.134   3.308   5.810 -0.3627  0.0178 -0.0803
 1548SOL    HW116103   2.087   3.237   5.854 -1.6838  1.8145  1.4153
 1548SOL    HW216104   2.163   3.366   5.880 -2.0020  0.2723  0.4097
 1549SOL     OW16105   0.082   3.477   6.818 -0.7021  0.1494  0.1543
 1549SOL    HW116106   0.170   3.505   6.796  0.1337 -2.1102  0.5791
 1549SOL    HW216107   0.097   3.448   6.908  0.4722 -3.1004 -1.0833
 1550SOL     OW16108   3.592   3.008  12.027  0.1329 -0.2696 -0.2012
 1550SOL    HW116109   3.560   3.098  12.033 -1.8072 -1.0358  0.9265
 1550SOL    HW216110   3.686   3.017  12.012 -0.0377 -0.6871 -1.5766
 1551SOL     OW16111   4.595   1.818   4.513 -0.1458 -0.6079 -0.3126
 1551SOL    HW116112   4.578   1.907   4.545 -1.3836 -0.7278 -0.6236
 1551SOL    HW216113   4.505   1.785   4.507 -0.3789 -0.1524  0.5209
 1552SOL     OW16114   2.454   2.597   8.390  0.6027 -0.1787  0.2652
 1552SOL    HW116115   2.431   2.504   8.389  1.6827 -0.4584  2.1643
 1552SOL    HW216116   2.369   2.640   8.399  1.7785  2.2215 -0.0799
 1553SOL     OW16117   1.866   0.809  12.228  0.2978 -0.2056  0.2735
 1553SOL    HW116118   1.937   0.747  12.215  0.3189 -0.5672  2.0778
 1553SOL    HW216119   1.837   0.827  12.139  0.2997 -0.5772  0.2005
 1554SOL     OW16120   0.565   4.615  12.602  1.0382  0.1273  0.5055
 1554SOL    HW116121   0.515   4.656  12.532  1.0185 -0.7659 -0.0125
 1554SOL    HW216122   0.609   4.690  12.643  3.0869 -0.0626 -1.3577
 1555SOL     OW16123   0.423   2.704   4.277 -0.0865  0.3719  0.2807
 1555SOL    HW116124   0.401   2.789   4.241  0.5951 -0.1773 -1.4200
 1555SOL    HW216125   0.364   2.650   4.225  2.6304 -0.7424 -1.6377
 1556SOL     OW16126   4.052   1.503   4.023 -0.9766  0.1679 -0.5967
 1556SOL    HW116127   4.074   1.411   4.004 -0.9201  0.1804 -0.5903
 1556SOL    HW216128   4.048   1.535   3.933  1.1224  0.6671 -0.5011
 1557SOL     OW16129   0.061   1.679  16.833  0.1335  0.3640 -0.1725
 1557SOL    HW116130   0.111   1.666  16.914 -0.5898  0.0906  0.2350
 1557SOL    HW216131   0.109   1.625  16.771  0.0617  1.2875 -1.0235
 1558SOL     OW16132   0.527   4.494   6.146 -0.0679  0.5283 -0.2435
 1558SOL    HW116133   0.539   4.555   6.218  3.2857 -3.0783  2.2873
 1558SOL    HW216134   0.567   4.421   6.194  2.3481  1.4297 -0.8883
 1559SOL     OW16135   2.774   0.012  17.089  0.4930 -0.0960  0.1738
 1559SOL    HW116136   2.735   0.060  17.162  1.6924  3.3131 -1.3979
 1559SOL    HW216137   2.715   4.664  17.063 -2.9643  2.8217  0.0491
 1560SOL     OW16138   4.366   0.837  16.606 -0.6407  0.1231 -0.1960
 1560SOL    HW116139   4.426   0.792  16.666 -0.0080 -0.4207 -1.2367
 1560SOL    HW216140   4.405   0.925  16.608 -0.0626 -0.1427  0.1558
 1561SOL     OW16141   0.621   0.546   4.536 -0.5902  0.3524 -0.2774
 1561SOL    HW116142   0.648   0.635   4.514 -0.1852  0.4493  0.6177
 1561SOL    HW216143   0.681   0.501   4.475  0.6090  0.2277  1.0003
 1562SOL     OW16144   1.930   0.884   3.289  0.3551  0.7045 -0.5523
 1562SOL    HW116145   1.970   0.960   3.332 -1.6611  0.6128  1.4620
 1562SOL    HW216146   1.855   0.921   3.242 -1.1527  1.4287  2.4177
 1563SOL     OW16147   2.800   1.435   3.734 -0.1334 -0.2020 -0.2152
 1563SOL    HW116148   2.785   1.341   3.739  0.0237 -0.2884 -1.2992
 1563SOL    HW216149   2.831   1.452   3.823 -1.4855  0.8691  0.0657
 1564SOL     OW16150   3.110   1.560  13.055 -0.4656 -0.5234  0.0594
 1564SOL    HW116151   3.161   1.557  12.974  0.0940 -2.3690  0.4793
 1564SOL    HW216152   3.030   1.515  13.028 -0.8657  0.0589  0.2709
 1565SOL     OW16153   4.435   0.549   5.478  0.7623 -0.3451 -0.2623
 1565SOL    HW116154   4.473   0.498   5.406  2.2838 -0.3230  0.5479
 1565SOL    HW216155   4.512   0.568   5.530  0.8050 -1.3043  0.0332
 1566SOL     OW16156   0.961   0.706   1.329  0.1661  0.2060 -0.6100
 1566SOL    HW116157   0.972   0.777   1.393 -1.0283  1.1124 -1.4016
 1566SOL    HW216158   1.009   0.637   1.376 -3.1627 -0.6624  1.5534
 1567SOL     OW16159   4.666   2.020   8.192  0.2387  0.2316 -0.3844
 1567SOL    HW116160   4.684   2.080   8.264 -0.6016  1.4367 -1.1878
 1567SOL    HW216161   4.701   1.942   8.235 -1.6896 -0.4695 -0.0540
 1568SOL     OW16162   2.104   2.982  15.591  0.0385 -0.0702 -0.5754
 1568SOL    HW116163   2.085   2.985  15.685 -0.1114  2.5059 -0.6927
 1568SOL    HW216164   2.135   3.069  15.565  1.8667  0.0033  1.7921
 1569SOL     OW16165   0.276   4.320   5.139 -0.0373  0.1349  0.5245
 1569SOL    HW116166   0.229   4.400   5.160  3.0695  2.0109  0.2111
 1569SOL    HW216167   0.323   4.349   5.061 -0.0596  0.1553  0.5187
 1570SOL     OW16168   3.357   1.955   8.394  0.2327  0.5243 -0.0548
 1570SOL    HW116169   3.276   1.938   8.441  1.3877  0.7856  2.0075
 1570SOL    HW216170   3.334   2.047   8.380  0.1777  0.4858 -0.2169
 1571SOL     OW16171   2.753   3.054   6.298 -0.3655 -0.1281  0.4722
 1571SOL    HW116172   2.665   3.044   6.263 -0.1511 -2.6691  0.6146
 1571SOL    HW216173   2.791   2.966   6.292  0.1791  0.1770 -0.5949
 1572SOL     OW16174   1.862   2.849   8.612  0.5257  0.0196 -0.2949
 1572SOL    HW116175   1.849   2.755   8.622  3.0523 -0.3800 -0.6004
 1572SOL    HW216176   1.955   2.860   8.590  0.6166  0.3002  0.2114
 1573SOL     OW16177   2.176   3.207   6.135  0.0675  0.5779  0.2575
 1573SOL    HW116178   2.235   3.135   6.113  1.5688  1.4457  1.4570
 1573SOL    HW216179   2.242   3.264   6.175  1.4598 -0.0825 -1.1513
 1574SOL     OW16180   2.008   1.640   5.533 -0.6948  0.3484 -0.2703
 1574SOL    HW116181   2.061   1.716   5.556  0.1044  0.1393 -1.4344
 1574SOL    HW216182   1.954   1.627   5.611 -0.4699 -0.4673 -0.2517
 1575SOL     OW16183   2.055   4.310   0.877 -0.4234 -0.1736 -0.3974
 1575SOL    HW116184   2.128   4.332   0.820  0.6146 -0.8887  0.6642
 1575SOL    HW216185   2.079   4.344   0.963  1.9600 -1.7456 -0.4420
 1576SOL     OW16186   2.028   1.141   3.400 -0.4066 -0.2897 -0.1408
 1576SOL    HW116187   2.060   1.175   3.317 -0.5442  1.9625  0.7185
 1576SOL    HW216188   1.962   1.207   3.422 -2.1356 -1.3435 -2.1710
 1577SOL     OW16189   0.533   3.089   6.913  0.8132 -0.4263 -1.0663
 1577SOL    HW116190   0.554   3.019   6.852  2.2714 -0.4507 -0.5528
 1577SOL    HW216191   0.488   3.047   6.987  1.7077 -0.9990 -0.8469
 1578SOL     OW16192   0.566   0.659  13.433 -0.3458  0.1278  0.5785
 1578SOL    HW116193   0.502   0.724  13.462 -1.8604 -1.5948  1.1661
 1578SOL    HW216194   0.645   0.712  13.443 -0.7686  0.9555 -0.5418
 1579SOL     OW16195   3.556   1.741   7.074 -0.2617 -0.3643  0.6185
 1579SOL    HW116196   3.507   1.662   7.051  1.6210 -1.7386  1.3387
 1579SOL    HW216197   3.644   1.706   7.057  0.1755  0.1392  1.8686
 1580SOL     OW16198   0.792   0.580   6.790  0.1236 -0.3234  0.2733
 1580SOL    HW116199   0.838   0.623   6.718 -0.1723  0.0794  0.3277
 1580SOL    HW216200   0.709   0.556   6.748 -1.1522  2.0328  1.4707
 1581SOL     OW16201   3.534   1.027   5.903  0.6332  0.1932  0.1428
 1581SOL    HW116202   3.535   1.030   5.807 -0.5266 -3.7268  0.0059
 1581SOL    HW216203   3.575   0.943   5.921 -0.2074 -0.2008  0.2383
 1582SOL     OW16204   2.062   3.186   4.192  0.3272  0.2887  0.5125
 1582SOL    HW116205   2.054   3.168   4.098 -0.7843 -0.8229  0.8152
 1582SOL    HW216206   2.149   3.149   4.203  0.7242  1.4380  1.2260
 1583SOL     OW16207   1.098   1.600   5.835  0.1768  0.4168 -0.1733
 1583SOL    HW116208   1.021   1.585   5.889  0.4046 -0.7564 -0.1801
 1583SOL    HW216209   1.093   1.685   5.790 -1.5038 -1.7072 -4.0343
 1584SOL     OW16210   0.004   4.391  14.050 -0.1593  0.0731 -0.0467
 1584SOL    HW116211   4.681   4.343  14.119  1.1997  0.4291  1.1040
 1584SOL    HW216212   0.061   4.322  14.015  1.4814  0.2455  2.2721
 1585SOL     OW16213   2.766   4.583  12.983 -0.0505 -0.1268  0.5781
 1585SOL    HW116214   2.776   4.672  12.947  1.1907  1.4505  4.7584
 1585SOL    HW216215   2.681   4.584  13.026 -0.5173  0.0298 -0.3556
 1586SOL     OW16216   0.052   0.311   8.654  0.4482  0.4167 -0.3329
 1586SOL    HW116217   0.129   0.307   8.596  1.7259  2.0659  1.2606
 1586SOL    HW216218   4.701   0.299   8.594 -0.0744  0.7339  0.2611
 1587SOL     OW16219   1.131   2.481   7.186 -0.2462  0.9473  0.1001
 1587SOL    HW116220   1.198   2.455   7.249 -0.4282  1.3285  0.4552
 1587SOL    HW216221   1.077   2.403   7.197  0.5569  0.7136  2.4957
 1588SOL     OW16222   1.596   2.948   2.287 -0.1804 -0.2678  0.3744
 1588SOL    HW116223   1.644   2.867   2.270 -0.9958 -0.7759  0.4841
 1588SOL    HW216224   1.514   2.910   2.319 -1.5876  2.1200 -0.3796
 1589SOL     OW16225   2.181   2.629   8.823  0.0483  0.6112 -0.5523
 1589SOL    HW116226   2.261   2.641   8.875 -0.7461  3.0294  0.1320
 1589SOL    HW216227   2.114   2.674   8.875  0.3843  0.9003 -0.3635
 1590SOL     OW16228   0.859   1.872   4.499  0.0465  0.8041 -0.2428
 1590SOL    HW116229   0.814   1.922   4.567 -1.9093 -1.4474  0.1270
 1590SOL    HW216230   0.823   1.911   4.419 -1.1980  0.0468 -0.0448
 1591SOL     OW16231   4.064   0.846  10.825 -0.6823 -0.3780  0.0895
 1591SOL    HW116232   4.144   0.820  10.780  0.9495  0.4939  2.5435
 1591SOL    HW216233   4.109   0.911  10.877 -2.0553  0.5827  0.0818
 1592SOL     OW16234   4.173   1.704   2.335  0.5592  0.5620  0.0618
 1592SOL    HW116235   4.138   1.619   2.363 -0.7983  0.8414 -0.8015
 1592SOL    HW216236   4.252   1.680   2.286  1.2042 -1.4620  2.0813
 1593SOL     OW16237   0.538   3.585   6.047 -0.0404  0.1687  0.4223
 1593SOL    HW116238   0.604   3.581   5.978 -1.5701 -0.1665 -1.0125
 1593SOL    HW216239   0.556   3.509   6.103  1.3209  1.2569  1.4861
 1594SOL     OW16240   0.405   1.802  15.400  0.0114  0.5234 -0.1152
 1594SOL    HW116241   0.402   1.717  15.444 -1.0046  0.8898  0.5478
 1594SOL    HW216242   0.427   1.865  15.468  1.4180  0.1702 -0.2527
 1595SOL     OW16243   4.280   4.688   4.106 -0.5211  0.4154 -0.0424
 1595SOL    HW116244   4.335   0.032   4.148  0.6114 -1.4681  1.4843
 1595SOL    HW216245   4.194   0.006   4.108 -0.3766  0.7438 -0.5613
 1596SOL     OW16246   1.509   2.996  10.930  0.0542 -0.6836 -0.0096
 1596SOL    HW116247   1.455   2.980  10.853  0.0289 -3.0205  0.5071
 1596SOL    HW216248   1.491   3.088  10.948 -0.6193 -0.5009 -1.5929
 1597SOL     OW16249   2.800   0.747   4.004  0.1753  0.0935 -0.0827
 1597SOL    HW116250   2.719   0.730   3.955 -1.0922 -1.2806  2.5125
 1597SOL    HW216251   2.841   0.825   3.966  0.5045  0.3310  0.7544
 1598SOL     OW16252   0.255   1.124   6.656 -0.3065  0.1676  0.4622
 1598SOL    HW116253   0.261   1.038   6.615 -0.3369  1.0307 -1.3280
 1598SOL    HW216254   0.349   1.141   6.656 -0.3137  0.2187  1.3646
 1599SOL     OW16255   3.538   0.835   7.483  0.1237 -0.0419 -0.8450
 1599SOL    HW116256   3.564   0.841   7.391  2.5308  1.4201 -0.0718
 1599SOL    HW216257   3.625   0.851   7.519  0.3320 -0.2037 -1.2784
 1600SOL     OW16258   2.124   1.320  11.797 -1.1643  0.5095 -0.0230
 1600SOL    HW116259   2.184   1.392  11.780 -1.8483  1.1642  0.3281
 1600SOL    HW216260   2.051   1.329  11.737 -0.7975 -0.3235 -0.5937
 1601SOL     OW16261   2.755   0.733  12.323 -0.1705  0.5058 -0.2291
 1601SOL    HW116262   2.829   0.793  12.333 -0.2628  0.3847  1.1434
 1601SOL    HW216263   2.778   0.699  12.236 -1.8316 -2.7546  0.6258
 1602SOL     OW16264   2.466   4.041   3.092  0.0099  0.1800  0.6242
 1602SOL    HW116265   2.522   4.116   3.076  0.4185 -0.3394 -0.3957
 1602SOL    HW216266   2.485   4.012   3.181 -0.1395 -1.1751  0.2246
 1603SOL     OW16267   0.747   1.764  11.912  0.2584 -0.4070  0.3785
 1603SOL    HW116268   0.765   1.844  11.960  0.5632  0.0642 -0.5268
 1603SOL    HW216269   0.824   1.759  11.856 -0.3070 -0.5668 -0.3823
 1604SOL     OW16270   0.169   2.969   4.049  0.7047 -0.2696 -0.0417
 1604SOL    HW116271   0.098   2.906   4.051  1.5240 -1.2029 -0.4281
 1604SOL    HW216272   0.184   2.981   3.955 -0.3270 -1.5043 -0.3499
 1605SOL     OW16273   2.850   0.852  12.945  0.5801 -0.0099  0.4257
 1605SOL    HW116274   2.803   0.933  12.966 -0.2208  0.1840 -2.1538
 1605SOL    HW216275   2.934   0.884  12.912  0.8907 -0.0665  1.1719
 1606SOL     OW16276   3.305   0.762  15.626 -0.2067 -0.4226 -0.2668
 1606SOL    HW116277   3.226   0.809  15.599 -1.8505 -2.6993  0.5630
 1606SOL    HW216278   3.369   0.819  15.584 -0.0506  0.8970  1.7705
 1607SOL     OW16279   0.112   1.417  11.357  0.6236  0.8602 -0.1645
 1607SOL    HW116280   0.188   1.399  11.302  0.9543  0.8076  0.3136
 1607SOL    HW216281   0.134   1.502  11.396 -0.9579  0.6153  1.2873
 1608SOL     OW16282   1.165   2.725   4.816  0.6699 -0.0548 -0.3985
 1608SOL    HW116283   1.125   2.803   4.855  0.1482  0.0477 -1.1308
 1608SOL    HW216284   1.085   2.689   4.779 -0.7141  0.5905  1.9512
 1609SOL     OW16285   2.868   2.330  17.333 -0.7994 -0.1108 -0.3991
 1609SOL    HW116286   2.839   2.378  17.410  0.1728  2.7533 -1.8079
 1609SOL    HW216287   2.883   2.239  17.359  1.0473  0.3045 -0.0544
 1610SOL     OW16288   4.581   3.132   1.494 -0.5991  0.1510 -0.2126
 1610SOL    HW116289   4.664   3.087   1.507 -1.1701 -1.2705 -1.4267
 1610SOL    HW216290   4.565   3.115   1.401 -2.1678 -1.5312  0.3674
 1611SOL     OW16291   1.616   0.510  13.623 -0.2602 -0.6284 -0.8687
 1611SOL    HW116292   1.679   0.438  13.634 -0.4332 -0.5120  0.8213
 1611SOL    HW216293   1.677   0.579  13.596 -0.0749 -0.3436  0.2867
 1612SOL     OW16294   0.080   0.053   5.628 -0.0956  0.1943 -0.3225
 1612SOL    HW116295   0.123   0.040   5.713  1.1069 -0.2804 -1.0093
 1612SOL    HW216296   0.024   4.699   5.623  2.8451 -1.9475 -0.4704
 1613SOL     OW16297   1.137   2.218   6.167 -0.3713  0.2832 -0.6828
 1613SOL    HW116298   1.180   2.215   6.081  1.9480  0.3191  0.4828
 1613SOL    HW216299   1.056   2.171   6.146  0.7536 -0.7526 -2.7642
 1614SOL     OW16300   0.726   3.593   7.034 -0.5289 -0.1515 -0.6125
 1614SOL    HW116301   0.772   3.599   6.950  1.0241  1.5690  0.3569
 1614SOL    HW216302   0.646   3.551   7.003 -1.2709  0.5810  0.3198
 1615SOL     OW16303   3.498   1.202   4.116  0.1882 -0.8723  0.6998
 1615SOL    HW116304   3.508   1.293   4.146  1.7357 -0.1150 -2.1170
 1615SOL    HW216305   3.437   1.208   4.042  0.2714  1.1023  0.7738
 1616SOL     OW16306   3.380   0.043   7.105 -0.0005  0.3389  0.0166
 1616SOL    HW116307   3.414   0.002   7.025  0.7645  1.2940 -0.1567
 1616SOL    HW216308   3.429   4.713   7.169 -0.6517  0.1056  0.3245
 1617SOL     OW16309   4.024   3.588   5.074  0.5179  0.2693  0.1983
 1617SOL    HW116310   4.065   3.647   5.011 -1.7769  0.2221 -1.2953
 1617SOL    HW216311   4.020   3.512   5.016  1.2911 -0.4754  1.1001
 1618SOL     OW16312   3.880   1.306   3.295  0.2200 -0.5398 -0.1646
 1618SOL    HW116313   3.895   1.255   3.215  1.2698 -1.6809  0.7418
 1618SOL    HW216314   3.848   1.387   3.256  1.9269  0.9398  1.4829
 1619SOL     OW16315   3.522   3.891   3.159 -0.6250 -0.2542 -0.3252
 1619SOL    HW116316   3.528   3.834   3.082 -0.2969 -1.2509  0.4398
 1619SOL    HW216317   3.541   3.837   3.235 -1.0333  0.4968  0.3155
 1620SOL     OW16318   3.448   0.711   8.350 -0.2521 -0.4242  0.1313
 1620SOL    HW116319   3.514   0.692   8.417 -1.1008 -1.6881  0.6194
 1620SOL    HW216320   3.387   0.760   8.404 -1.1343  1.8674 -2.9163
 1621SOL     OW16321   2.926   4.179   7.387  0.1372 -0.3429  0.3960
 1621SOL    HW116322   2.885   4.255   7.429  0.1995  2.4064 -4.5457
 1621SOL    HW216323   2.889   4.111   7.443  1.3351 -0.6292  0.8415
 1622SOL     OW16324   2.434   0.683   1.064  0.1661 -0.2349  0.3940
 1622SOL    HW116325   2.505   0.632   1.025  0.3587  1.3733 -1.3165
 1622SOL    HW216326   2.402   0.622   1.131  2.1387 -0.9896  0.6486
 1623SOL     OW16327   4.000   4.373   7.463 -0.7017 -0.2260 -0.4699
 1623SOL    HW116328   4.032   4.284   7.448  1.7135  0.3604  1.1530
 1623SOL    HW216329   4.040   4.417   7.388  2.0268  2.3821  2.5364
 1624SOL     OW16330   1.849   2.490   0.107 -0.4054  0.3329 -0.0781
 1624SOL    HW116331   1.878   2.463   0.020  0.9089  0.8751  0.1869
 1624SOL    HW216332   1.931   2.511   0.152  0.7126 -1.1711 -1.4448
 1625SOL     OW16333   0.959   3.016  15.415 -0.2243 -0.1047 -0.3282
 1625SOL    HW116334   0.946   2.922  15.406 -0.8254  0.1222 -1.7512
 1625SOL    HW216335   1.051   3.032  15.394  0.5906 -2.7933  1.3079
 1626SOL     OW16336   3.946   2.745  15.820  0.0754 -0.1397  0.1516
 1626SOL    HW116337   3.981   2.833  15.805 -0.1407  0.0668  0.8524
 1626SOL    HW216338   3.948   2.713  15.730 -0.2814 -1.9839  0.7941
 1627SOL     OW16339   2.055   1.255   6.249 -0.3281 -0.4918  0.0878
 1627SOL    HW116340   2.143   1.235   6.281 -0.4023 -1.4777 -0.3346
 1627SOL    HW216341   2.057   1.208   6.166 -1.3228 -2.7922  1.3380
 1628SOL     OW16342   3.356   2.759  15.683 -0.6942  0.0932 -0.0153
 1628SOL    HW116343   3.283   2.821  15.681 -0.5697  0.2430  0.0895
 1628SOL    HW216344   3.324   2.673  15.657 -2.0695  0.8430 -0.8661
 1629SOL     OW16345   2.475   2.269  11.443  0.2373 -0.0868 -0.0571
 1629SOL    HW116346   2.433   2.289  11.527  1.1456 -1.5812  0.7617
 1629SOL    HW216347   2.563   2.274  11.480  0.7148 -3.1577 -0.7434
 1630SOL     OW16348   2.650   1.128   9.001 -0.4529 -0.0820 -0.4639
 1630SOL    HW116349   2.679   1.165   9.085  0.8297  1.4923 -1.6172
 1630SOL    HW216350   2.710   1.151   8.930  0.9848  2.1075  1.4775
 1631SOL     OW16351   4.020   1.641  13.753 -0.1605 -0.1168  0.0461
 1631SOL    HW116352   4.029   1.716  13.812 -0.1754  0.3235 -0.5030
 1631SOL    HW216353   4.002   1.681  13.668 -0.9987 -0.1649  0.2028
 1632SOL     OW16354   2.182   2.675   4.519 -0.1116  0.2059 -0.2228
 1632SOL    HW116355   2.170   2.768   4.499 -0.8743 -0.1049 -1.2131
 1632SOL    HW216356   2.200   2.668   4.613  0.6097 -3.2157 -0.6310
 1633SOL     OW16357   3.865   0.279   7.320  0.0016 -0.0218  0.3382
 1633SOL    HW116358   3.941   0.224   7.299  0.4357  1.1458 -1.2205
 1633SOL    HW216359   3.844   0.291   7.227  0.8798 -2.1774 -0.1513
 1634SOL     OW16360   0.521   0.083   7.883  0.4683  0.3446  0.1454
 1634SOL    HW116361   0.458   0.128   7.827 -1.0953 -1.1802  0.7007
 1634SOL    HW216362   0.602   0.092   7.832  2.1634 -1.1588  2.5745
 1635SOL     OW16363   4.543   3.455   2.135 -0.4823  0.7420  0.3140
 1635SOL    HW116364   4.628   3.414   2.117 -1.7946 -1.7285 -0.2703
 1635SOL    HW216365   4.570   3.546   2.147 -1.7771  1.2940 -1.0552
 1636SOL     OW16366   2.301   2.658  14.349  0.1341  0.3416  0.1179
 1636SOL    HW116367   2.270   2.748  14.336  0.4256  0.8830  3.0754
 1636SOL    HW216368   2.387   2.676  14.386  0.2400  1.1229 -0.5151
 1637SOL     OW16369   3.695   0.204   5.269  0.0826 -0.0961  0.2334
 1637SOL    HW116370   3.754   0.159   5.331  0.8015  2.0937  1.1415
 1637SOL    HW216371   3.754   0.211   5.194  0.4917 -0.0412  0.5619
 1638SOL     OW16372   3.756   1.701  14.717  0.5560  0.0377 -0.1025
 1638SOL    HW116373   3.811   1.630  14.749  2.1013  1.2674 -0.0788
 1638SOL    HW216374   3.777   1.769  14.780 -1.4817  0.1595  0.4526
 1639SOL     OW16375   0.154   0.345   3.129  0.7026 -0.3452  0.3127
 1639SOL    HW116376   0.199   0.263   3.106  0.6688  0.1074 -1.2928
 1639SOL    HW216377   0.174   0.341   3.223 -0.3011 -0.8686  0.4994
 1640SOL     OW16378   2.059   0.271   4.418 -0.0162  0.1576  0.3670
 1640SOL    HW116379   2.028   0.361   4.423  1.3397  0.7632 -2.3246
 1640SOL    HW216380   1.991   0.218   4.460 -1.2335 -0.4227 -2.3314
 1641SOL     OW16381   2.463   4.682  16.359  0.4985 -0.7256 -0.3300
 1641SOL    HW116382   2.505   4.630  16.427  2.4859 -0.0941 -1.0801
 1641SOL    HW216383   2.423   4.619  16.298  1.1573  0.2666 -1.8012
 1642SOL     OW16384   3.527   4.473   8.240 -1.4898  0.2757 -0.2984
 1642SOL    HW116385   3.510   4.380   8.228  0.7812 -0.3851  1.5969
 1642SOL    HW216386   3.615   4.476   8.201 -1.4017  3.1365  0.1380
 1643SOL     OW16387   0.715   4.032   1.709  0.2400  0.0142 -0.4720
 1643SOL    HW116388   0.792   3.977   1.696  0.4852  0.0949  0.6711
 1643SOL    HW216389   0.711   4.084   1.629 -1.4176  2.4624  1.1872
 1644SOL     OW16390   4.465   4.247   1.091 -0.0849 -0.5310 -0.3863
 1644SOL    HW116391   4.526   4.296   1.035 -0.0403  0.1739  0.2705
 1644SOL    HW216392   4.517   4.257   1.171 -0.0046  2.3273 -0.8055
 1645SOL     OW16393   1.158   0.826   6.349 -0.3572  0.3430  0.4873
 1645SOL    HW116394   1.075   0.808   6.305  0.2306 -0.0350 -0.4474
 1645SOL    HW216395   1.151   0.920   6.363  2.5733  0.8137 -1.2016
 1646SOL     OW16396   1.086   4.314  17.595 -0.1554 -0.9557  0.0052
 1646SOL    HW116397   1.109   4.280  17.681 -0.7202 -2.0448 -0.2850
 1646SOL    HW216398   1.090   4.409  17.607  1.2028 -1.3530  2.5546
 1647SOL     OW16399   3.697   0.981   2.720 -0.2506  0.2733 -0.2141
 1647SOL    HW116400   3.623   0.972   2.779 -0.8101  0.3462 -0.9024
 1647SOL    HW216401   3.670   1.060   2.674 -1.3566 -1.6531 -2.9069
 1648SOL     OW16402   3.458   2.168  13.277  0.1748 -0.1606  0.3116
 1648SOL    HW116403   3.381   2.111  13.275 -2.1004  2.8929  1.6262
 1648SOL    HW216404   3.520   2.096  13.290  2.7825  2.1066  0.3897
 1649SOL     OW16405   3.739   4.301   2.572  0.6055  0.2003  0.0398
 1649SOL    HW116406   3.759   4.279   2.663  1.6980  0.6597 -0.0841
 1649SOL    HW216407   3.644   4.299   2.564  0.6860  0.6390 -1.0064
 1650SOL     OW16408   1.163   3.785   6.824  0.5725 -0.4052 -0.2759
 1650SOL    HW116409   1.255   3.762   6.810  0.4063 -0.8911 -0.5829
 1650SOL    HW216410   1.157   3.817   6.914  1.9861 -0.6356 -0.0969
 1651SOL     OW16411   0.109   3.269  12.885 -0.6350 -0.1527 -0.3078
 1651SOL    HW116412   0.093   3.259  12.791 -1.5861 -0.9180 -0.0588
 1651SOL    HW216413   0.034   3.217  12.914 -0.2292 -0.1967  0.6638
 1652SOL     OW16414   1.205   1.081   6.821 -0.0753 -0.1938  0.6592
 1652SOL    HW116415   1.139   1.051   6.885 -1.2827  1.0530 -0.0018
 1652SOL    HW216416   1.281   1.067   6.878  1.4667 -3.7647 -2.2506
 1653SOL     OW16417   1.921   3.144   5.912  0.0354  0.5211  0.2850
 1653SOL    HW116418   1.836   3.119   5.877  0.2022  0.4823 -0.0910
 1653SOL    HW216419   1.929   3.080   5.982  0.6622 -0.0314 -0.2863
 1654SOL     OW16420   0.351   4.024   3.441 -0.4698  0.4035  0.1253
 1654SOL    HW116421   0.427   4.003   3.388  0.2754  0.4557  1.1620
 1654SOL    HW216422   0.353   4.118   3.456  0.4430  0.4499 -0.3111
 1655SOL     OW16423   4.196   0.444   0.296  0.1360 -0.2263 -0.2203
 1655SOL    HW116424   4.230   0.444   0.206 -4.0180  4.4236 -1.7804
 1655SOL    HW216425   4.153   0.529   0.301  1.5113  0.3311  1.9977
 1656SOL     OW16426   3.873   4.310   8.446 -0.7260 -0.2042  0.2541
 1656SOL    HW116427   3.939   4.308   8.377 -2.4718 -0.7601 -1.4000
 1656SOL    HW216428   3.919   4.345   8.522 -1.5587  1.0838  0.1641
 1657SOL     OW16429   3.657   3.939  16.810  0.0379  0.3904  0.2367
 1657SOL    HW116430   3.621   4.020  16.774 -1.1674 -1.2278 -2.1495
 1657SOL    HW216431   3.722   3.975  16.871  1.2140  0.2212 -0.9105
 1658SOL     OW16432   3.234   3.173   2.365  0.1275 -0.4236 -1.0027
 1658SOL    HW116433   3.273   3.233   2.428 -1.5513  1.5946 -1.8732
 1658SOL    HW216434   3.212   3.245   2.306  0.2874  0.4660  0.0381
 1659SOL     OW16435   3.330   2.099  15.820  0.0832 -0.5186  0.5734
 1659SOL    HW116436   3.238   2.124  15.817  0.1102 -0.6292 -1.1602
 1659SOL    HW216437   3.363   2.189  15.822 -2.0773  0.3048 -1.1219
 1660SOL     OW16438   4.040   0.257   0.434  0.0632  0.1035 -0.3624
 1660SOL    HW116439   4.011   0.313   0.506  0.6057 -1.1028  0.7901
 1660SOL    HW216440   4.100   0.315   0.388 -0.5185  1.3789  0.4643
 1661SOL     OW16441   0.805   3.921   2.624 -0.3404  0.2805  0.2131
 1661SOL    HW116442   0.759   3.841   2.597  0.3584 -0.3341  0.8593
 1661SOL    HW216443   0.821   3.968   2.543 -1.7508 -0.0868 -0.2881
 1662SOL     OW16444   0.765   4.110   2.099 -0.2476 -0.0334  0.0497
 1662SOL    HW116445   0.715   4.072   2.171  0.6622  1.7686  1.6372
 1662SOL    HW216446   0.770   4.039   2.036  0.2573 -0.8030  0.9719
 1663SOL     OW16447   3.666   3.723  10.673  0.0083 -0.5863 -0.5031
 1663SOL    HW116448   3.610   3.719  10.595 -1.9904  1.0858  0.8279
 1663SOL    HW216449   3.673   3.818  10.680  0.9788 -0.9094  3.1779
 1664SOL     OW16450   1.665   3.108  13.355  0.0530  0.1539  0.2194
 1664SOL    HW116451   1.751   3.147  13.366  0.6563 -1.5881  1.7938
 1664SOL    HW216452   1.600   3.171  13.324 -0.0846 -0.7725 -1.4052
 1665SOL     OW16453   3.165   2.496   6.881  0.0521  0.7919 -0.3444
 1665SOL    HW116454   3.138   2.443   6.806  0.3353  0.6147 -0.3219
 1665SOL    HW216455   3.083   2.540   6.904 -0.4950 -0.1779 -0.4411
 1666SOL     OW16456   3.947   2.373   5.465 -0.7334 -0.8621 -0.0318
 1666SOL    HW116457   4.018   2.336   5.517  1.3475  1.1428 -1.4752
 1666SOL    HW216458   3.920   2.437   5.531 -1.4511 -0.8831 -0.3083
 1667SOL     OW16459   1.389   4.297   7.794 -0.0110 -0.1320  0.2649
 1667SOL    HW116460   1.444   4.250   7.732  0.0648  0.3071  0.0012
 1667SOL    HW216461   1.451   4.347   7.847 -0.2698 -0.1298  0.5696
 1668SOL     OW16462   2.581   0.017   7.249 -0.2676 -0.2880 -0.4941
 1668SOL    HW116463   2.555   0.026   7.158 -0.1156  1.4365 -0.3709
 1668SOL    HW216464   2.503   4.711   7.297 -0.2670  0.7125  0.1220
 1669SOL     OW16465   0.743   3.113   7.847  0.2651 -0.0001 -0.4975
 1669SOL    HW116466   0.654   3.146   7.854  1.2245  2.5819 -0.3001
 1669SOL    HW216467   0.757   3.089   7.939  1.0149  0.9046 -0.3721
 1670SOL     OW16468   1.184   2.559   2.548  0.3673 -0.0826  0.0199
 1670SOL    HW116469   1.154   2.489   2.489  0.1164  0.2391 -0.2300
 1670SOL    HW216470   1.130   2.635   2.527 -0.1102 -0.1550  0.9778
 1671SOL     OW16471   1.705   1.854   7.463  0.2553  0.3425 -0.0902
 1671SOL    HW116472   1.763   1.877   7.535  1.6530  0.2688 -1.1882
 1671SOL    HW216473   1.724   1.762   7.447 -3.6202 -0.6448  0.9451
 1672SOL     OW16474   0.322   2.573   6.350 -0.5853 -0.6028  0.2018
 1672SOL    HW116475   0.415   2.597   6.346 -0.8404  0.7056  2.4572
 1672SOL    HW216476   0.326   2.508   6.419  2.5601 -2.1771 -1.4581
 1673SOL     OW16477   1.115   0.161   8.623  0.5204  0.4763  0.5123
 1673SOL    HW116478   1.075   0.180   8.708  2.0068  1.2202  1.0605
 1673SOL    HW216479   1.183   0.098   8.648 -0.5932 -1.5482 -1.6142
 1674SOL     OW16480   1.581   2.404   3.981  0.1082 -0.0992 -0.4543
 1674SOL    HW116481   1.632   2.333   4.020 -0.1122 -1.0776 -1.9334
 1674SOL    HW216482   1.636   2.477   4.010  1.3447 -0.9868 -0.5757
 1675SOL     OW16483   0.154   1.004   6.264  0.2460 -0.6127 -0.4410
 1675SOL    HW116484   0.181   0.913   6.252  0.3272 -0.3977 -1.8356
 1675SOL    HW216485   0.102   0.988   6.343 -1.1196 -1.3750 -1.5111
 1676SOL     OW16486   0.353   3.918   6.769 -0.3993  0.2465 -0.4203
 1676SOL    HW116487   0.330   3.971   6.693  0.0873 -0.8186 -1.3187
 1676SOL    HW216488   0.436   3.881   6.737 -0.2161  1.1259 -0.9670
 1677SOL     OW16489   2.872   1.736   2.432 -0.4486 -0.0577 -0.3040
 1677SOL    HW116490   2.903   1.667   2.374 -0.0406 -1.4475  1.5633
 1677SOL    HW216491   2.777   1.740   2.421 -0.6439 -1.3559  0.8883
 1678SOL     OW16492   1.353   2.978   1.348  0.2021  0.0823  0.0177
 1678SOL    HW116493   1.328   2.916   1.417 -0.0915 -0.6984 -0.7836
 1678SOL    HW216494   1.394   2.927   1.278 -0.4680 -0.1516 -0.2045
 1679SOL     OW16495   3.523   2.522  16.397 -0.0558  0.2289  0.1791
 1679SOL    HW116496   3.443   2.570  16.375 -1.8165 -1.7309  2.3018
 1679SOL    HW216497   3.580   2.536  16.322  1.9468  0.8868  1.8215
 1680SOL     OW16498   3.279   2.488   7.252 -0.0303 -0.4325 -0.6198
 1680SOL    HW116499   3.351   2.427   7.270 -0.6648 -1.1058 -0.3722
 1680SOL    HW216500   3.309   2.519   7.167 -0.9422 -0.9481 -1.1264
 1681SOL     OW16501   4.686   1.403   8.650  0.2800 -0.3584 -0.2924
 1681SOL    HW116502   4.632   1.335   8.692  0.6543 -0.2521  0.3641
 1681SOL    HW216503   4.644   1.479   8.690  0.2274 -0.7795  0.4755
 1682SOL     OW16504   2.382   1.706   8.382  0.4840 -0.2274  0.4107
 1682SOL    HW116505   2.425   1.623   8.400  0.3997 -0.5253 -0.7824
 1682SOL    HW216506   2.456   1.752   8.342  1.2177 -0.5025  1.4406
 1683SOL     OW16507   3.319   2.084  13.651  0.9601 -0.2082 -0.6643
 1683SOL    HW116508   3.241   2.029  13.636  0.5460  0.5380 -1.2670
 1683SOL    HW216509   3.396   2.027  13.647  2.1548  1.5940 -3.5802
 1684SOL     OW16510   2.389   3.694   2.853  0.2029 -0.1862  0.0899
 1684SOL    HW116511   2.362   3.783   2.877 -0.9160 -0.5339  0.1300
 1684SOL    HW216512   2.472   3.694   2.901  0.8016 -0.8539 -0.9328
 1685SOL     OW16513   3.580   0.304   0.128 -0.4671 -0.6014  0.1510
 1685SOL    HW116514   3.588   0.256   0.210  0.2725  0.4333  0.6781
 1685SOL    HW216515   3.489   0.330   0.126 -0.3677 -0.2657  0.0447
 1686SOL     OW16516   0.017   3.107  11.872  0.0160  0.0517 -0.2070
 1686SOL    HW116517   4.722   3.128  11.780 -1.1394 -1.1170 -0.2471
 1686SOL    HW216518   0.107   3.075  11.862 -0.4126 -1.5266  1.1382
 1687SOL     OW16519   2.916   0.713   7.635 -0.1191  0.7712  0.0970
 1687SOL    HW116520   2.966   0.718   7.717  0.3687  2.4238 -0.2981
 1687SOL    HW216521   2.981   0.661   7.588 -1.0014  0.8628 -1.2301
 1688SOL     OW16522   2.598   1.035   3.288 -0.0704  0.3746 -0.2240
 1688SOL    HW116523   2.635   0.947   3.297 -0.6346  0.1179 -0.4577
 1688SOL    HW216524   2.524   1.028   3.349 -0.0754 -0.3928 -0.3216
 1689SOL     OW16525   3.595   2.215   9.360  0.1966  0.1910  0.5323
 1689SOL    HW116526   3.641   2.131   9.362 -0.5930 -0.2929 -0.8822
 1689SOL    HW216527   3.646   2.273   9.415  1.0405  0.8576 -0.9784
 1690SOL     OW16528   4.469   3.984   8.000  0.5160  0.3174 -0.2762
 1690SOL    HW116529   4.508   4.034   8.071 -0.7874 -0.0395  0.6882
 1690SOL    HW216530   4.541   3.928   7.972 -1.6119 -1.2234 -2.7216
 1691SOL     OW16531   0.820   0.759   2.823 -0.1640  0.4734 -0.1323
 1691SOL    HW116532   0.725   0.767   2.823 -0.3465 -1.8158  0.3101
 1691SOL    HW216533   0.835   0.789   2.733 -0.6637 -0.8042 -0.6314
 1692SOL     OW16534   2.915   3.074   4.523 -0.0833  0.2025 -0.3307
 1692SOL    HW116535   2.934   3.013   4.594 -1.4834 -1.4660 -1.3917
 1692SOL    HW216536   2.961   3.150   4.558 -1.8066  0.7897  0.6132
 1693SOL     OW16537   1.468   1.590  12.640 -0.2948  0.3786  0.1599
 1693SOL    HW116538   1.380   1.566  12.611 -0.2405  0.0146  0.2899
 1693SOL    HW216539   1.453   1.684  12.652  1.1273  0.6344 -0.1086
 1694SOL     OW16540   1.236   1.164   8.086 -0.0624  0.2508  0.3062
 1694SOL    HW116541   1.237   1.068   8.088 -0.4790  0.2681  1.3490
 1694SOL    HW216542   1.320   1.181   8.129  0.7323  0.8307 -1.5007
 1695SOL     OW16543   2.714   1.091  12.961  0.3706 -0.1187 -0.3843
 1695SOL    HW116544   2.753   1.130  12.883 -0.5025 -1.0487 -1.2938
 1695SOL    HW216545   2.629   1.135  12.959  1.1040  1.3129 -0.0771
 1696SOL     OW16546   3.774   1.650   4.911  0.4534 -0.0616 -0.0844
 1696SOL    HW116547   3.728   1.571   4.941 -0.0754  0.8875  1.5598
 1696SOL    HW216548   3.729   1.724   4.951 -0.9535 -0.7184 -0.4448
 1697SOL     OW16549   3.732   2.205   2.531 -0.2498 -0.0663  0.3953
 1697SOL    HW116550   3.701   2.226   2.442 -2.4613 -1.9108  0.7153
 1697SOL    HW216551   3.711   2.286   2.577 -2.0875 -0.1570 -0.2797
 1698SOL     OW16552   2.246   0.776  10.436 -0.2302  0.1678  0.5817
 1698SOL    HW116553   2.313   0.812  10.379 -0.4931  0.0946  0.2280
 1698SOL    HW216554   2.273   0.686  10.452 -2.1199 -0.3023  1.2093
 1699SOL     OW16555   1.350   2.462   2.954 -0.1819  0.5262 -0.0116
 1699SOL    HW116556   1.419   2.528   2.967 -1.1735  2.1774 -3.0411
 1699SOL    HW216557   1.302   2.478   3.035 -0.2962 -1.7996  0.3812
 1700SOL     OW16558   3.159   3.047  10.963  0.1707 -0.6961  1.0480
 1700SOL    HW116559   3.195   2.967  10.924 -1.3248 -1.3508  1.0046
 1700SOL    HW216560   3.065   3.035  10.952  0.1706  0.7128 -0.4943
 1701SOL     OW16561   1.481   0.182   7.695 -0.5930  0.2170  0.1579
 1701SOL    HW116562   1.425   0.165   7.771  0.9792 -0.3132  1.1903
 1701SOL    HW216563   1.564   0.142   7.722  0.2880  0.6818 -1.8268
 1702SOL     OW16564   3.500   2.182   0.469  0.4595  0.8436 -0.5693
 1702SOL    HW116565   3.509   2.090   0.443 -0.5453 -0.0449  2.2475
 1702SOL    HW216566   3.543   2.181   0.554  1.0801  1.3802 -0.8795
 1703SOL     OW16567   0.763   0.328  15.918 -0.6155  0.4480  0.3100
 1703SOL    HW116568   0.728   0.392  15.856 -2.0946 -0.3134  0.3595
 1703SOL    HW216569   0.852   0.309  15.888 -1.2416  3.0915 -3.1852
 1704SOL     OW16570   2.951   3.257   6.888  0.0628  0.1445  0.2103
 1704SOL    HW116571   2.878   3.293   6.939  0.2622  1.9365 -0.7884
 1704SOL    HW216572   2.937   3.163   6.897  0.9613  0.0105  0.2898
 1705SOL     OW16573   3.344   0.330   8.393  0.6986  0.2836  0.5188
 1705SOL    HW116574   3.287   0.388   8.443  0.6947  1.2803 -0.6576
 1705SOL    HW216575   3.342   0.371   8.307  1.4388 -0.2461  0.2481
 1706SOL     OW16576   4.632   3.590  11.391  0.6493  0.0441 -0.6614
 1706SOL    HW116577   4.640   3.508  11.342  0.1800 -0.3067 -0.1587
 1706SOL    HW216578   4.634   3.655  11.321  0.5497 -2.0667 -2.6002
 1707SOL     OW16579   4.527   1.076  16.601  0.5303  0.2111 -0.8571
 1707SOL    HW116580   4.476   1.102  16.525 -1.1887 -2.0642 -0.5025
 1707SOL    HW216581   4.591   1.019  16.558  1.1057  0.5024 -0.3942
 1708SOL     OW16582   0.120   0.513   4.732 -0.4888  0.2255 -0.6647
 1708SOL    HW116583   0.128   0.588   4.673 -0.9196  1.2659  0.5889
 1708SOL    HW216584   0.212   0.510   4.758 -0.9797 -1.5550  0.8770
 1709SOL     OW16585   2.732   3.930   5.831 -0.3286 -0.3523  0.5588
 1709SOL    HW116586   2.808   3.981   5.804 -0.3822 -0.4732  0.1800
 1709SOL    HW216587   2.773   3.849   5.862 -0.1397 -0.2096  0.6807
 1710SOL     OW16588   1.593   2.040   2.036  0.4724 -0.4623  0.4002
 1710SOL    HW116589   1.601   2.095   1.958  2.7787 -0.9278  0.2827
 1710SOL    HW216590   1.648   2.094   2.093 -0.9079  0.5606  0.7383
 1711SOL     OW16591   1.933   0.905   6.884 -0.2213 -0.0517 -0.1948
 1711SOL    HW116592   1.917   0.838   6.951  1.6382 -1.3381 -1.0268
 1711SOL    HW216593   1.941   0.978   6.945 -1.7564  1.4047 -1.7448
 1712SOL     OW16594   3.069   3.578   4.404  0.2625 -0.4176 -0.6437
 1712SOL    HW116595   3.022   3.526   4.339  1.2967 -2.4229  0.2289
 1712SOL    HW216596   3.156   3.539   4.415 -0.6317 -1.8365  1.3912
 1713SOL     OW16597   3.102   2.882  15.356  0.5354  0.0236  0.3792
 1713SOL    HW116598   3.043   2.815  15.320  3.4511 -1.6321 -1.2695
 1713SOL    HW216599   3.188   2.841  15.361  0.8244  0.7820  1.3470
 1714SOL     OW16600   0.048   1.359   9.014 -0.1029  0.0321 -0.3028
 1714SOL    HW116601   4.706   1.364   9.085  2.1937  2.1493  1.6325
 1714SOL    HW216602   0.014   1.418   8.947 -2.9419 -0.9235  0.2957
 1715SOL     OW16603   1.216   2.082   9.757 -0.0801  0.4882  0.4934
 1715SOL    HW116604   1.252   1.996   9.781 -0.7247  0.0723 -0.0399
 1715SOL    HW216605   1.174   2.057   9.675  1.6480 -1.4544  0.1967
 1716SOL     OW16606   0.440   1.247   7.099  0.0584 -0.5092  0.1501
 1716SOL    HW116607   0.423   1.323   7.155  0.4458  1.1482 -1.9958
 1716SOL    HW216608   0.422   1.178   7.163  0.3712  0.3058  1.1265
 1717SOL     OW16609   1.078   1.989   0.913  0.6259 -0.1863  0.5299
 1717SOL    HW116610   1.034   1.980   0.829  1.6748  3.6674 -0.4493
 1717SOL    HW216611   1.134   2.064   0.895  1.0670 -0.0460  2.4481
 1718SOL     OW16612   2.710   2.210  16.238 -0.3044  0.2945  0.1564
 1718SOL    HW116613   2.633   2.170  16.197 -0.8575  1.8976 -0.3498
 1718SOL    HW216614   2.719   2.154  16.315 -2.2021  0.7378  0.6810
 1719SOL     OW16615   4.689   1.737   8.572  0.1981 -0.5578 -0.4311
 1719SOL    HW116616   4.620   1.761   8.511 -1.1866 -2.0070  0.5232
 1719SOL    HW216617   4.685   1.644   8.547 -0.0179 -1.1724  1.8278
 1720SOL     OW16618   3.543   4.580   3.138 -0.7213 -0.1922 -0.0694
 1720SOL    HW116619   3.560   4.669   3.107 -0.5133 -0.8397 -1.8027
 1720SOL    HW216620   3.617   4.577   3.199  0.3870 -0.9487 -1.4466
 1721SOL     OW16621   3.721   0.231   4.471 -0.8664 -0.4531 -0.1420
 1721SOL    HW116622   3.687   0.288   4.402  1.2846  0.6213 -0.3158
 1721SOL    HW216623   3.793   0.190   4.424 -0.3719  2.4529 -1.9519
 1722SOL     OW16624   1.161   0.095  12.333 -0.6681 -0.2639  0.6271
 1722SOL    HW116625   1.232   0.051  12.380  0.5788 -0.2444 -1.2173
 1722SOL    HW216626   1.170   0.183  12.370 -2.7345  0.3171 -0.2519
 1723SOL     OW16627   2.367   4.578  16.756  0.1086  0.1228 -0.2011
 1723SOL    HW116628   2.388   4.499  16.805  0.3346  0.3914  0.1329
 1723SOL    HW216629   2.417   4.561  16.676  0.8155  1.5819 -0.0682
 1724SOL     OW16630   0.616   2.176   8.902  0.1322  0.6085  0.3289
 1724SOL    HW116631   0.685   2.216   8.955 -1.1768  1.5733  1.3027
 1724SOL    HW216632   0.672   2.140   8.833  1.5655  0.5386  1.5392
 1725SOL     OW16633   2.429   1.564   6.141 -0.0692  0.3537  0.7837
 1725SOL    HW116634   2.336   1.554   6.162 -0.4074  1.0990 -0.4021
 1725SOL    HW216635   2.426   1.659   6.131 -0.3891  0.1835 -0.6430
 1726SOL     OW16636   1.852   1.720   0.331  0.0246 -0.1723 -0.5134
 1726SOL    HW116637   1.845   1.810   0.363 -2.4844 -0.0052 -1.5393
 1726SOL    HW216638   1.825   1.739   0.241  1.4462 -1.4757 -1.2248
 1727SOL     OW16639   2.236   0.028   8.416 -0.2283 -0.5047  0.2758
 1727SOL    HW116640   2.209   4.697   8.491 -1.3468  0.5959  0.6564
 1727SOL    HW216641   2.215   0.118   8.441  0.8230 -0.0294 -0.5511
 1728SOL     OW16642   2.090   2.561   8.580 -0.0618  0.3794  0.2876
 1728SOL    HW116643   2.136   2.605   8.651  2.4115  0.4566 -1.3802
 1728SOL    HW216644   2.104   2.471   8.609 -1.9131  0.3964  1.2895
 1729SOL     OW16645   4.452   0.120   1.671  0.1466 -0.7112 -0.1476
 1729SOL    HW116646   4.450   0.182   1.743  0.9624 -2.8633  1.7134
 1729SOL    HW216647   4.360   0.094   1.669 -0.0840  0.0506  0.6140
 1730SOL     OW16648   0.569   3.607  15.289  0.2842  0.3877  0.2014
 1730SOL    HW116649   0.614   3.579  15.368 -1.4910 -0.7796  0.7861
 1730SOL    HW216650   0.484   3.627  15.328 -0.1407  0.9666 -1.0034
 1731SOL     OW16651   3.827   2.133   2.210  0.4562  0.2503 -0.1880
 1731SOL    HW116652   3.823   2.172   2.122  1.6885  0.7652 -0.0204
 1731SOL    HW216653   3.735   2.144   2.235  0.0308 -2.5898 -0.4819
 1732SOL     OW16654   1.382   0.481  15.663  0.0038  0.1063 -0.1435
 1732SOL    HW116655   1.312   0.486  15.728 -1.4648 -1.8071 -1.5658
 1732SOL    HW216656   1.336   0.450  15.586  2.6130  1.6088 -2.3332
 1733SOL     OW16657   1.592   4.271  11.240  0.4240  0.2307 -0.2972
 1733SOL    HW116658   1.623   4.264  11.330 -0.4153 -0.6275 -0.0701
 1733SOL    HW216659   1.574   4.365  11.238  3.1365  0.7607  1.7937
 1734SOL     OW16660   1.604   1.022   9.288 -0.2682  0.0433 -0.1303
 1734SOL    HW116661   1.619   0.962   9.215  2.4767 -0.4880  0.8835
 1734SOL    HW216662   1.630   0.966   9.361 -0.0959  0.3086  0.0096
 1735SOL     OW16663   0.979   1.496   8.861  0.0548 -0.1198  0.0173
 1735SOL    HW116664   0.960   1.421   8.917  0.2297  1.6298  2.3985
 1735SOL    HW216665   0.896   1.540   8.846  0.7040  0.9197 -0.5614
 1736SOL     OW16666   2.231   2.334   6.047  0.0946 -0.4457  0.5065
 1736SOL    HW116667   2.318   2.373   6.039  0.2263 -1.3078 -2.2766
 1736SOL    HW216668   2.234   2.256   5.992  1.4546  0.1095 -0.2107
 1737SOL     OW16669   3.119   2.082  16.673 -0.4479 -0.3360 -0.0946
 1737SOL    HW116670   3.192   2.109  16.729 -0.6300 -0.2507  0.1001
 1737SOL    HW216671   3.097   2.156  16.617  0.9209  1.2959  1.5087
 1738SOL     OW16672   0.186   2.333   3.126  1.0071 -0.4203 -0.2809
 1738SOL    HW116673   0.266   2.385   3.125  2.3772 -2.5370 -1.2930
 1738SOL    HW216674   0.229   2.260   3.080 -1.9057 -2.8997  0.8717
 1739SOL     OW16675   1.504   1.949  14.261  0.1944  0.7089 -0.1833
 1739SOL    HW116676   1.537   2.008  14.329  0.2186 -1.2824  1.5499
 1739SOL    HW216677   1.547   1.867  14.286  1.0612  0.3782 -2.7657
 1740SOL     OW16678   4.575   1.670  11.428 -1.0702  0.6368  0.2481
 1740SOL    HW116679   4.604   1.758  11.403 -0.1779  0.3078  0.1349
 1740SOL    HW216680   4.597   1.674  11.521 -0.7050 -1.0280  0.2202
 1741SOL     OW16681   3.337   2.432   2.445 -0.5275 -0.0099 -0.3902
 1741SOL    HW116682   3.289   2.478   2.376  1.6077 -0.6015 -2.3060
 1741SOL    HW216683   3.264   2.386   2.487 -1.0083  1.5051  0.4364
 1742SOL     OW16684   0.290   1.931   4.179  0.6506  0.1678  0.6040
 1742SOL    HW116685   0.235   2.009   4.187 -0.4273 -0.5335 -0.0386
 1742SOL    HW216686   0.228   1.868   4.215 -2.3616  1.3056 -2.6207
 1743SOL     OW16687   4.168   0.446   2.623  0.6064 -0.1551  0.6033
 1743SOL    HW116688   4.150   0.526   2.671 -1.7897 -0.0930 -0.4348
 1743SOL    HW216689   4.108   0.457   2.550  1.8175  1.5729 -0.1155
 1744SOL     OW16690   1.020   3.420  11.023  0.5096 -0.9378 -0.0372
 1744SOL    HW116691   1.058   3.376  11.098  0.1773  1.1186  1.3474
 1744SOL    HW216692   1.078   3.496  11.022 -1.0492  0.2273 -2.9078
 1745SOL     OW16693   0.166   4.591  16.055  0.1283 -0.2643 -0.7269
 1745SOL    HW116694   0.128   4.535  16.122  0.5129  0.1315 -0.1823
 1745SOL    HW216695   0.248   4.615  16.098 -0.2716 -1.6913  0.8019
 1746SOL     OW16696   0.948   2.153  16.169 -0.2699 -0.5595 -0.3080
 1746SOL    HW116697   0.936   2.248  16.168  0.6025 -0.4296  1.6179
 1746SOL    HW216698   1.036   2.147  16.132  0.0559  0.9887  0.2066
 1747SOL     OW16699   1.210   0.778   7.920  0.0027 -0.0980  0.4585
 1747SOL    HW116700   1.272   0.804   7.988 -0.5350  1.3542  0.3839
 1747SOL    HW216701   1.233   0.839   7.851  2.0547 -0.6577  0.6529
 1748SOL     OW16702   4.590   2.386   3.293  0.7390 -0.4772  0.3570
 1748SOL    HW116703   4.674   2.416   3.258 -0.0725  0.6570 -0.6255
 1748SOL    HW216704   4.532   2.460   3.277  1.4016 -0.3180 -1.3039
 1749SOL     OW16705   3.324   0.019  10.968 -0.4533  0.5270  0.0545
 1749SOL    HW116706   3.376   4.690  11.029 -0.5222 -0.1805 -0.4966
 1749SOL    HW216707   3.303   0.085  11.035  1.5032  1.6443 -0.4373
 1750SOL     OW16708   2.785   1.956   5.585 -0.1286  0.0294  0.2771
 1750SOL    HW116709   2.726   1.996   5.648 -1.9675 -1.8257 -0.2472
 1750SOL    HW216710   2.839   1.907   5.648 -1.3603  1.1874  2.2277
 1751SOL     OW16711   0.244   2.450   5.913 -0.3917  0.2474 -0.4140
 1751SOL    HW116712   0.216   2.514   5.979  0.9070 -0.9657  1.3044
 1751SOL    HW216713   0.310   2.398   5.959 -1.1775  0.4530  0.9743
 1752SOL     OW16714   3.367   4.357   2.084 -0.0333 -1.1434  0.0554
 1752SOL    HW116715   3.361   4.275   2.033 -1.4909 -0.6691 -0.5625
 1752SOL    HW216716   3.441   4.356   2.144  0.6024  0.8683 -0.7222
 1753SOL     OW16717   0.200   4.163   8.689  0.2958  0.5130  0.2679
 1753SOL    HW116718   0.203   4.102   8.615 -0.7602  1.6116 -0.6922
 1753SOL    HW216719   0.293   4.182   8.699  0.3688  0.0199  0.5100
 1754SOL     OW16720   3.281   0.010   0.559  0.1162  0.5605 -0.1032
 1754SOL    HW116721   3.311   4.645   0.538  1.9131  0.9672  0.7629
 1754SOL    HW216722   3.221   4.712   0.631 -0.5490 -3.0061 -1.6874
 1755SOL     OW16723   2.151   3.145   5.580 -0.3588  0.1811  0.0945
 1755SOL    HW116724   2.095   3.183   5.512 -0.4185  0.2939  0.2059
 1755SOL    HW216725   2.135   3.216   5.642  0.0971  0.5140 -0.1701
 1756SOL     OW16726   2.285   1.372  12.853 -0.3269 -0.1486 -0.3234
 1756SOL    HW116727   2.225   1.338  12.787 -0.0493 -1.7714  0.2611
 1756SOL    HW216728   2.347   1.420  12.797  0.5301  0.3300  1.0376
 1757SOL     OW16729   2.713   2.019   7.166 -0.1206  0.5098 -0.2081
 1757SOL    HW116730   2.698   1.944   7.109 -0.5150 -0.4258  1.1449
 1757SOL    HW216731   2.806   2.006   7.184 -0.0582 -2.6279 -2.7303
 1758SOL     OW16732   3.340   1.794   3.979  0.6447 -0.0111 -0.0192
 1758SOL    HW116733   3.347   1.885   4.008  0.7091  0.8560 -2.7077
 1758SOL    HW216734   3.297   1.755   4.055  3.2382 -3.3582 -0.3167
 1759SOL     OW16735   2.958   0.938  12.378 -0.9028  0.3333 -0.7637
 1759SOL    HW116736   2.900   0.968  12.448  1.5748 -0.8498  1.8003
 1759SOL    HW216737   3.044   0.944  12.421 -1.1233  0.1973 -0.3042
 1760SOL     OW16738   2.701   4.206   3.186 -0.0511 -0.1342 -0.0962
 1760SOL    HW116739   2.665   4.283   3.143  0.8816  1.0037  1.1609
 1760SOL    HW216740   2.681   4.226   3.277 -0.1875 -0.7647  0.0167
 1761SOL     OW16741   1.392   3.621   5.497 -0.3380  0.3304  0.2868
 1761SOL    HW116742   1.301   3.620   5.525 -0.5569  2.5510 -0.3702
 1761SOL    HW216743   1.440   3.582   5.571  0.6926 -2.1327 -1.6831
 1762SOL     OW16744   3.754   3.875   9.355  0.0902 -0.0190 -0.0395
 1762SOL    HW116745   3.849   3.872   9.344  0.3064 -0.5461  1.9964
 1762SOL    HW216746   3.749   3.952   9.411  1.5009 -0.8966  1.2795
 1763SOL     OW16747   2.828   0.742   4.991 -0.1946  0.3729 -0.3271
 1763SOL    HW116748   2.833   0.814   4.928  0.0586  1.1853  0.6134
 1763SOL    HW216749   2.874   0.670   4.949 -0.2619  0.2658 -0.2168
 1764SOL     OW16750   2.111   2.749  11.202  0.1997  0.1446  0.2197
 1764SOL    HW116751   2.021   2.761  11.171  0.4172  0.8123 -0.1559
 1764SOL    HW216752   2.149   2.830  11.169  2.4741  0.0049  2.5288
 1765SOL     OW16753   3.816   2.854   5.417 -0.4586  0.0429 -0.5875
 1765SOL    HW116754   3.911   2.851   5.422 -0.4048  0.2976 -1.5644
 1765SOL    HW216755   3.802   2.936   5.465  1.6324  1.9296 -3.2513
 1766SOL     OW16756   4.287   4.650   7.235  0.4185  0.2770  0.1577
 1766SOL    HW116757   4.349   4.628   7.166 -2.8508 -3.4169 -1.6065
 1766SOL    HW216758   4.314   4.585   7.300  0.2945 -0.7001 -0.7685
 1767SOL     OW16759   1.097   2.329   2.718  0.3271  0.3482 -0.6832
 1767SOL    HW116760   1.110   2.403   2.658 -1.0869 -0.6775 -2.2625
 1767SOL    HW216761   1.165   2.274   2.678  0.9027  0.2213  0.4760
 1768SOL     OW16762   1.976   1.118   7.063  0.0882 -0.2314 -0.0652
 1768SOL    HW116763   2.065   1.132   7.095 -0.5217  1.2623  1.0055
 1768SOL    HW216764   1.929   1.103   7.145 -2.5936  0.5883 -1.4731
 1769SOL     OW16765   2.606   3.697   3.006 -1.0182 -0.2937  0.4385
 1769SOL    HW116766   2.609   3.619   3.062  0.7891  0.4800  1.4137
 1769SOL    HW216767   2.665   3.755   3.054 -0.8988 -0.0900  0.0472
 1770SOL     OW16768   0.385   0.082  12.886 -0.3924 -0.0102  0.0892
 1770SOL    HW116769   0.373   4.713  12.863  0.7360  0.4675 -2.3917
 1770SOL    HW216770   0.410   0.121  12.802 -1.3300  1.8886  0.6809
 1771SOL     OW16771   2.107   4.652  12.997 -0.1352  0.0519 -0.1492
 1771SOL    HW116772   2.107   0.025  13.002 -0.7038  0.1880 -2.4529
 1771SOL    HW216773   2.059   4.643  13.079  0.6151  0.1703  0.2976
 1772SOL     OW16774   4.117   2.629   2.956 -0.5008  0.2211 -0.3181
 1772SOL    HW116775   4.071   2.643   3.039 -0.0578 -0.1987 -0.0041
 1772SOL    HW216776   4.209   2.633   2.981 -0.4614 -1.0836 -0.2359
 1773SOL     OW16777   0.532   1.261   9.093  0.2808 -0.0441 -0.2837
 1773SOL    HW116778   0.514   1.346   9.053 -0.7230 -0.5464 -0.8942
 1773SOL    HW216779   0.446   1.220   9.100  0.8707 -1.4776 -1.3732
 1774SOL     OW16780   1.157   3.110   0.194  0.3808 -0.2356 -0.5860
 1774SOL    HW116781   1.197   3.072   0.271 -2.3284 -1.7181  0.0907
 1774SOL    HW216782   1.239   3.133   0.150  0.6785  0.4789  0.3445
 1775SOL     OW16783   3.769   3.282  14.832 -0.3034 -0.2170 -0.2773
 1775SOL    HW116784   3.739   3.351  14.891  0.1689  1.6382 -2.2293
 1775SOL    HW216785   3.743   3.203  14.880 -0.3138 -0.8254 -1.2950
 1776SOL     OW16786   3.962   3.991  13.132  0.3296 -0.5709 -0.3624
 1776SOL    HW116787   3.924   3.911  13.096 -1.5395  0.6278 -1.0589
 1776SOL    HW216788   3.884   4.028  13.173 -0.0463 -0.9806 -0.7041
 1777SOL     OW16789   1.514   3.429   2.208 -0.0216 -0.0173  0.0693
 1777SOL    HW116790   1.443   3.490   2.188 -1.3644 -0.9046  2.2214
 1777SOL    HW216791   1.474   3.343   2.222  0.1270 -0.2978 -1.1825
 1778SOL     OW16792   0.026   0.173   8.396  0.1002  0.2377  0.2228
 1778SOL    HW116793   4.678   0.208   8.450  0.7183  0.8183  0.6542
 1778SOL    HW216794   0.001   0.089   8.358 -1.2573  0.3947  0.7867
 1779SOL     OW16795   3.272   0.997   0.651  0.2125  0.1256  0.0252
 1779SOL    HW116796   3.180   1.012   0.674  0.7453  2.2885  0.7141
 1779SOL    HW216797   3.278   1.004   0.556 -0.3722 -0.7170 -0.0754
 1780SOL     OW16798   4.497   0.096   4.998  0.1583 -0.1660 -0.3516
 1780SOL    HW116799   4.451   0.173   5.031 -0.4040 -0.5179 -0.3168
 1780SOL    HW216800   4.488   0.032   5.069 -0.6947 -0.7220 -0.9529
 1781SOL     OW16801   4.086   0.075   3.466  0.1883 -0.0950  0.4068
 1781SOL    HW116802   4.086   0.171   3.468 -2.4559 -0.1520  2.6653
 1781SOL    HW216803   4.174   0.064   3.428 -1.2311 -2.2796 -2.1945
 1782SOL     OW16804   1.878   1.514   2.821 -0.0454 -0.1519  0.3592
 1782SOL    HW116805   1.916   1.427   2.833  2.9312  0.8906 -1.4814
 1782SOL    HW216806   1.931   1.549   2.750  0.3488 -0.8038  0.3322
 1783SOL     OW16807   1.199   0.475   9.133  0.6338 -0.0481 -0.0693
 1783SOL    HW116808   1.138   0.514   9.196 -0.2363  1.1956 -1.7077
 1783SOL    HW216809   1.173   0.383   9.134  1.2169 -0.1927  2.0485
 1784SOL     OW16810   1.917   2.039   6.512  0.3341  0.1223 -0.7581
 1784SOL    HW116811   1.970   2.078   6.581  1.4039 -0.7657 -1.0884
 1784SOL    HW216812   1.978   2.011   6.444  1.1123  2.8551 -1.1974
 1785SOL     OW16813   0.076   2.407   5.686  0.4528  0.2864  0.1217
 1785SOL    HW116814   0.137   2.414   5.760  2.8228  0.9259 -1.8730
 1785SOL    HW216815   0.006   2.349   5.712  0.3528  0.9088  1.2289
 1786SOL     OW16816   0.729   0.832   1.024 -0.2904 -0.0324 -0.4345
 1786SOL    HW116817   0.641   0.827   1.062 -0.6810  1.4794 -1.1460
 1786SOL    HW216818   0.766   0.745   1.040 -1.0203 -0.3590 -0.5160
 1787SOL     OW16819   0.322   1.931  15.680  0.2219  0.2415 -0.3621
 1787SOL    HW116820   0.297   1.839  15.677 -1.6034  0.7464 -0.9714
 1787SOL    HW216821   0.237   1.968  15.705  1.5928  2.2330  1.3604
 1788SOL     OW16822   3.909   4.072   6.184  0.2343 -0.0481  0.5400
 1788SOL    HW116823   4.002   4.052   6.187  0.5562  1.1637 -1.1365
 1788SOL    HW216824   3.901   4.111   6.271  0.3732  0.7034  0.2160
 1789SOL     OW16825   2.897   2.084   7.711  0.2948 -0.2543  0.4951
 1789SOL    HW116826   2.820   2.030   7.694  0.8250 -0.9956  0.4444
 1789SOL    HW216827   2.877   2.149   7.643  2.5729 -0.0757  0.0149
 1790SOL     OW16828   2.841   0.459   6.474 -0.8020 -0.1779 -0.2563
 1790SOL    HW116829   2.907   0.527   6.465 -0.6141 -0.4226 -0.7623
 1790SOL    HW216830   2.784   0.474   6.399 -0.4169  2.4516 -0.0068
 1791SOL     OW16831   4.275   2.281   6.776  0.1274  0.2454 -0.0377
 1791SOL    HW116832   4.315   2.225   6.709 -0.4825  0.1756 -0.3484
 1791SOL    HW216833   4.201   2.232   6.811  1.5936 -1.2087  0.9991
 1792SOL     OW16834   2.122   2.625  10.387 -0.0501 -0.3827  0.4484
 1792SOL    HW116835   2.073   2.592  10.312 -0.4307 -1.4645  1.1713
 1792SOL    HW216836   2.066   2.699  10.410 -0.1787 -0.7939  1.4442
 1793SOL     OW16837   1.537   1.484  14.108  0.3798 -0.6144 -0.2360
 1793SOL    HW116838   1.610   1.539  14.079 -0.8911  0.3824 -1.5476
 1793SOL    HW216839   1.547   1.469  14.202 -0.7447  0.1804  0.0130
 1794SOL     OW16840   3.566   0.436  14.628 -0.5370  0.7888  0.1784
 1794SOL    HW116841   3.541   0.391  14.548  0.2651  0.1754  0.2695
 1794SOL    HW216842   3.532   0.525  14.616 -1.4915  0.4370  0.2790
 1795SOL     OW16843   3.946   3.337  17.447 -0.2913  0.5694 -0.0016
 1795SOL    HW116844   3.908   3.278  17.382  2.8989 -1.0237 -0.4009
 1795SOL    HW216845   3.955   3.280  17.524  2.2486  2.9921  1.5021
 1796SOL     OW16846   0.930   0.031   5.846 -0.3923  0.5556  0.7071
 1796SOL    HW116847   0.857   0.071   5.894 -1.5917  0.5109 -1.0540
 1796SOL    HW216848   0.982   0.109   5.824  0.7571  0.2341  2.3204
 1797SOL     OW16849   2.277   3.473   0.091 -0.3491  0.3161  0.1796
 1797SOL    HW116850   2.307   3.514   0.172 -0.4310 -0.9380  0.8457
 1797SOL    HW216851   2.326   3.518   0.022 -3.4502  2.5213 -0.5539
 1798SOL     OW16852   1.056   4.583   2.803  0.1587 -0.1200  0.5730
 1798SOL    HW116853   0.968   4.556   2.775  0.7191 -2.2294  0.8308
 1798SOL    HW216854   1.089   4.494   2.818  1.6921  0.3019 -0.3460
 1799SOL     OW16855   0.883   3.426   1.198 -0.1420 -0.0721 -0.0766
 1799SOL    HW116856   0.923   3.426   1.285 -0.0736 -0.5596 -0.1046
 1799SOL    HW216857   0.854   3.517   1.198  2.3559  0.7088  2.5695
 1800SOL     OW16858   1.591   3.343   7.694  0.4060  0.4893 -0.1023
 1800SOL    HW116859   1.534   3.420   7.691  1.5158  1.3095 -0.0661
 1800SOL    HW216860   1.585   3.324   7.601  2.4424 -0.4374 -0.0630
 1801SOL     OW16861   4.553   0.892  10.684 -0.2985  0.5011 -0.1623
 1801SOL    HW116862   4.642   0.927  10.672 -0.1554  0.0958 -0.2764
 1801SOL    HW216863   4.525   0.931  10.767  2.0410 -1.3479  1.5029
 1802SOL     OW16864   0.686   4.412   1.996 -0.0221  0.4973 -0.0636
 1802SOL    HW116865   0.696   4.322   1.966  1.9610  0.5244  0.5043
 1802SOL    HW216866   0.591   4.415   1.992  0.0022 -0.7273 -1.7621
 1803SOL     OW16867   0.823   4.009  16.109  0.3075  0.1493  0.7846
 1803SOL    HW116868   0.846   4.009  16.202  0.0738 -1.4072  0.8385
 1803SOL    HW216869   0.885   4.071  16.070  0.0302 -0.7761 -1.1319
 1804SOL     OW16870   2.715   4.460   5.132  0.2207 -0.1971 -0.2879
 1804SOL    HW116871   2.729   4.523   5.203  0.5871  0.0285 -0.5612
 1804SOL    HW216872   2.805   4.435   5.111  0.6541  0.4735  0.7756
 1805SOL     OW16873   2.702   1.815   2.128  0.4822 -0.1026  0.3711
 1805SOL    HW116874   2.764   1.793   2.059 -0.2871 -2.4701  0.4283
 1805SOL    HW216875   2.668   1.728   2.148 -0.1183 -0.3917 -1.9268
 1806SOL     OW16876   0.473   2.823   5.864 -0.0981 -0.2763 -0.7330
 1806SOL    HW116877   0.457   2.763   5.791 -0.7564 -1.8551  0.7242
 1806SOL    HW216878   0.566   2.806   5.882  0.4489  2.6369 -0.6958
 1807SOL     OW16879   3.134   4.359   3.571 -0.5049  0.0590  0.1635
 1807SOL    HW116880   3.062   4.326   3.518 -2.6865  0.1099  3.1442
 1807SOL    HW216881   3.095   4.438   3.608  0.5593  0.8642 -0.4209
 1808SOL     OW16882   0.084   3.651   3.996 -0.1770 -0.4787 -0.0043
 1808SOL    HW116883   0.176   3.640   4.020 -0.1285  1.5773  0.7834
 1808SOL    HW216884   0.095   3.690   3.909  1.3786  2.2263  1.4126
 1809SOL     OW16885   2.352   2.285   3.110 -0.9695  0.2502  0.2803
 1809SOL    HW116886   2.405   2.364   3.116  2.4735 -2.0799  0.2387
 1809SOL    HW216887   2.413   2.228   3.063  0.4347 -0.3356  2.8297
 1810SOL     OW16888   2.870   2.704   2.078  0.4180  0.6393 -0.2315
 1810SOL    HW116889   2.963   2.726   2.084 -0.0803  2.7747 -0.2829
 1810SOL    HW216890   2.832   2.792   2.068 -0.5144  0.0415 -1.9538
 1811SOL     OW16891   1.443   3.637   6.865  0.0624 -0.5308  0.2427
 1811SOL    HW116892   1.424   3.611   6.955 -0.1834  1.9283  0.9022
 1811SOL    HW216893   1.527   3.676   6.890  1.7675 -3.0325 -1.6311
 1812SOL     OW16894   0.956   4.643   8.373  0.3612 -0.4168  0.1725
 1812SOL    HW116895   0.977   4.552   8.352  1.2689  0.3507 -2.2977
 1812SOL    HW216896   0.913   4.670   8.292  1.0654 -2.3539 -0.8450
 1813SOL     OW16897   0.931   4.511   4.422  0.7448 -0.2166  0.0670
 1813SOL    HW116898   0.850   4.492   4.376 -0.8399  2.3962  1.7697
 1813SOL    HW216899   0.903   4.598   4.450 -0.8891  0.0049 -2.2898
 1814SOL     OW16900   0.955   1.782  15.989 -0.1422  0.5879  0.1218
 1814SOL    HW116901   1.032   1.731  16.013  0.8217  2.0830  0.2091
 1814SOL    HW216902   0.906   1.721  15.934 -0.0949  0.9909 -0.3680
 1815SOL     OW16903   0.928   1.609   7.198 -0.8595 -0.1715  0.0966
 1815SOL    HW116904   0.870   1.590   7.272  0.7277 -2.2406  0.8179
 1815SOL    HW216905   0.884   1.563   7.126 -0.0851 -1.9380  0.7617
 1816SOL     OW16906   2.004   4.681   3.610 -0.1437  0.7575 -0.2115
 1816SOL    HW116907   1.933   4.658   3.551 -1.1325  1.7098  0.6203
 1816SOL    HW216908   1.994   4.618   3.681 -1.0306 -0.4979 -1.4418
 1817SOL     OW16909   1.735   2.182   4.070 -0.1332  0.4434  0.3874
 1817SOL    HW116910   1.778   2.156   3.989  3.2066  0.4706  2.1329
 1817SOL    HW216911   1.800   2.168   4.139  0.2404  1.0531  0.1586
 1818SOL     OW16912   1.767   1.226   7.987 -0.4530  0.0180  0.2048
 1818SOL    HW116913   1.731   1.313   8.002 -0.3984  0.2045 -0.7558
 1818SOL    HW216914   1.852   1.246   8.027  0.7173 -1.6676 -1.4344
 1819SOL     OW16915   3.448   4.502   2.869  0.1308  0.1613  0.6636
 1819SOL    HW116916   3.473   4.549   2.948 -2.6533  1.3277  0.8657
 1819SOL    HW216917   3.466   4.565   2.799  0.1348  1.8035  2.1407
 1820SOL     OW16918   1.834   2.720   5.996  0.2198  0.3238  0.1693
 1820SOL    HW116919   1.832   2.700   5.903 -1.4983 -0.7702  0.4376
 1820SOL    HW216920   1.902   2.655   6.017  0.7503  0.9456  0.3556
 1821SOL     OW16921   0.621   3.259   6.742 -0.1395  0.1879 -0.2140
 1821SOL    HW116922   0.629   3.203   6.665 -2.8949 -0.6061  0.0557
 1821SOL    HW216923   0.585   3.198   6.807 -1.5788 -0.2628 -1.4395
 1822SOL     OW16924   0.203   4.500   1.041 -0.7863 -0.0017  0.4567
 1822SOL    HW116925   0.187   4.471   1.131 -3.6871  2.5915  0.7849
 1822SOL    HW216926   0.138   4.569   1.050 -0.4449  0.5879 -1.6557
 1823SOL     OW16927   1.439   2.810   4.803  0.1147  0.1013  0.1125
 1823SOL    HW116928   1.474   2.749   4.738 -1.7217  1.0466 -1.7724
 1823SOL    HW216929   1.345   2.806   4.785  0.1839 -0.3241 -0.1694
 1824SOL     OW16930   1.564   1.031   2.605  0.4183  0.0352 -0.4373
 1824SOL    HW116931   1.593   0.949   2.644  2.3662  0.9079 -0.0611
 1824SOL    HW216932   1.639   1.063   2.556  0.9373 -0.1557  0.2262
 1825SOL     OW16933   1.007   2.034   7.619 -0.1833  0.5755  0.2817
 1825SOL    HW116934   1.066   2.093   7.666 -1.2058  0.3585  1.8320
 1825SOL    HW216935   0.924   2.080   7.633 -1.0279 -1.3131  1.5856
 1826SOL     OW16936   1.602   2.491   5.418 -0.4024 -0.0813 -0.1308
 1826SOL    HW116937   1.572   2.582   5.410 -2.3826 -0.5164  2.1062
 1826SOL    HW216938   1.697   2.496   5.416 -0.3291 -1.4079  0.2374
 1827SOL     OW16939   0.760   2.166   0.902 -0.7345 -0.1914  0.0133
 1827SOL    HW116940   0.799   2.080   0.916 -1.2054 -0.4799 -0.4551
 1827SOL    HW216941   0.817   2.191   0.829  0.4286  0.4486  1.1247
 1828SOL     OW16942   1.799   1.052   5.323  0.2068 -0.6982 -0.0656
 1828SOL    HW116943   1.762   1.134   5.357 -0.5415 -0.2450 -1.9737
 1828SOL    HW216944   1.712   1.012   5.320  0.7492 -1.9084  0.4801
 1829SOL     OW16945   1.828   1.316   3.485 -0.0605  0.2662  0.5396
 1829SOL    HW116946   1.762   1.384   3.471  1.0136  1.3161  0.5322
 1829SOL    HW216947   1.777   1.238   3.506 -0.2586  0.4026  0.5637
 1830SOL     OW16948   1.886   0.800   4.086  0.1167 -0.3425 -1.3038
 1830SOL    HW116949   1.930   0.820   4.004  1.0351  2.1669 -0.2202
 1830SOL    HW216950   1.945   0.852   4.142 -0.9972 -0.9242  0.4102
 1831SOL     OW16951   2.808   1.783   4.903  0.3027 -0.3670  0.3915
 1831SOL    HW116952   2.826   1.873   4.873  0.5453 -0.7205 -0.5282
 1831SOL    HW216953   2.718   1.791   4.935  0.4255 -0.4443  0.7560
 1832SOL     OW16954   0.732   2.296   3.366  0.3420 -0.0327  0.6290
 1832SOL    HW116955   0.764   2.362   3.426 -0.5900  0.6462  0.3854
 1832SOL    HW216956   0.687   2.241   3.429 -0.7108  2.1220  1.7531
 1833SOL     OW16957   4.386   0.643   3.259  0.3436 -0.4210  0.5336
 1833SOL    HW116958   4.311   0.587   3.278 -0.1277 -0.6462 -1.9877
 1833SOL    HW216959   4.383   0.631   3.164 -0.7435  1.5920  0.3133
 1834SOL     OW16960   0.365   4.664   8.082  0.0954  0.0109 -0.2685
 1834SOL    HW116961   0.297   0.007   8.065  0.0073 -0.1119 -0.3854
 1834SOL    HW216962   0.441   4.714   8.051  0.3295 -1.2908 -1.7303
 1835SOL     OW16963   2.641   0.247   8.373 -0.3191 -0.7083  0.8404
 1835SOL    HW116964   2.731   0.215   8.383 -0.7309 -1.1448  3.1100
 1835SOL    HW216965   2.590   0.166   8.370  0.7420 -1.3615  0.2632
 1836SOL     OW16966   3.077   4.628   4.589  0.0845  0.2380  0.2371
 1836SOL    HW116967   3.004   4.595   4.536 -0.2338 -0.5899  1.1966
 1836SOL    HW216968   3.025   4.634   4.669 -0.4204 -4.4668  0.2784
 1837SOL     OW16969   4.468   1.345   2.428  0.6701 -0.1210  0.5702
 1837SOL    HW116970   4.449   1.319   2.338  0.1431  1.1962  0.2917
 1837SOL    HW216971   4.525   1.419   2.409  0.4334 -0.4043 -1.2800
 1838SOL     OW16972   3.981   2.425  14.850  0.4841  0.0642 -0.0491
 1838SOL    HW116973   4.033   2.417  14.770 -0.2313 -1.8148 -0.3511
 1838SOL    HW216974   4.031   2.373  14.913  1.3818  1.1096  0.0933
 1839SOL     OW16975   4.051   1.557  11.622 -0.2094  0.4236  0.4751
 1839SOL    HW116976   3.962   1.536  11.595  0.2040  1.4850 -1.6950
 1839SOL    HW216977   4.047   1.652  11.637  2.5378  0.4350  1.1315
 1840SOL     OW16978   1.169   4.009  13.020  0.4733  0.4554  0.3396
 1840SOL    HW116979   1.111   3.980  13.089 -1.7973  0.0222 -1.7346
 1840SOL    HW216980   1.168   4.102  13.043 -1.8370 -0.4858  3.8739
 1841SOL     OW16981   0.283   2.864   6.065  0.3124  0.0354  0.3523
 1841SOL    HW116982   0.325   2.865   5.979 -2.3098 -0.1953 -0.9080
 1841SOL    HW216983   0.221   2.937   6.062 -0.9119 -0.9629  1.4642
 1842SOL     OW16984   0.955   2.323   1.970  0.2332 -0.0983 -0.1836
 1842SOL    HW116985   0.910   2.253   2.018 -0.1040 -0.0626 -0.4461
 1842SOL    HW216986   0.894   2.396   1.978  0.5047  0.0497  0.5235
 1843SOL     OW16987   1.646   1.744   1.165 -0.0038 -0.2278  0.0768
 1843SOL    HW116988   1.596   1.783   1.237 -1.0664  0.1997 -0.8850
 1843SOL    HW216989   1.572   1.716   1.110  2.3267 -2.7721 -1.7980
 1844SOL     OW16990   2.237   1.341   2.250 -0.9186  0.1802 -0.0085
 1844SOL    HW116991   2.193   1.423   2.225 -1.6105 -0.0268  0.5466
 1844SOL    HW216992   2.281   1.326   2.167  0.9053  0.4872  0.9068
 1845SOL     OW16993   4.617   1.675   7.712  0.0454 -0.3364  0.1461
 1845SOL    HW116994   4.647   1.586   7.732  0.9429  0.2525  1.4171
 1845SOL    HW216995   4.681   1.733   7.754 -1.2900 -1.6471  3.9842
 1846SOL     OW16996   1.289   4.593   3.198 -0.2397  0.2756  0.5794
 1846SOL    HW116997   1.264   4.590   3.106 -3.0729 -0.4474  1.3734
 1846SOL    HW216998   1.376   4.632   3.186 -0.4126  1.0329  1.8150
 1847SOL     OW16999   2.837   0.010   5.866  0.1284 -0.1873 -0.4253
 1847SOL    HW117000   2.875   0.087   5.824 -1.8036  2.0805  2.0050
 1847SOL    HW217001   2.897   4.670   5.825  0.4588 -0.4798  0.5125
 1848SOL     OW17002   2.242   2.172   7.152  0.2202 -0.0365  0.3190
 1848SOL    HW117003   2.155   2.141   7.177  0.7410 -0.7709  1.2085
 1848SOL    HW217004   2.259   2.124   7.070 -0.5806 -1.0389  0.7418
 1849SOL     OW17005   3.178   0.421  10.482  0.8840  0.3670  0.2749
 1849SOL    HW117006   3.100   0.384  10.523  0.9627 -0.0206  0.0828
 1849SOL    HW217007   3.251   0.364  10.508  0.0560 -1.0572 -0.5301
 1850SOL     OW17008   1.121   2.462   5.761  0.2391 -0.3668 -0.3589
 1850SOL    HW117009   1.049   2.425   5.709 -0.0081 -1.5140  0.8050
 1850SOL    HW217010   1.177   2.504   5.695  0.6210 -0.9432 -0.4040
 1851SOL     OW17011   2.073   3.453   3.932  0.0864 -0.3876  0.2577
 1851SOL    HW117012   2.061   3.531   3.877  0.2355 -0.9159 -0.5215
 1851SOL    HW217013   2.129   3.492   3.998  0.8914 -0.4224 -0.4036
 1852SOL     OW17014   4.032   1.665   4.775 -0.1818 -0.1269  0.1643
 1852SOL    HW117015   4.034   1.595   4.710  2.1714  1.3170 -1.3001
 1852SOL    HW217016   3.964   1.631   4.834  0.0223 -0.9768 -0.0905
 1853SOL     OW17017   2.650   1.420   4.115 -0.1924  0.3676  0.5563
 1853SOL    HW117018   2.632   1.491   4.176  0.7636 -0.9852  2.4416
 1853SOL    HW217019   2.571   1.427   4.063 -0.4897 -5.1297  0.2314
 1854SOL     OW17020   0.307   2.330   5.231  0.0826 -0.2970  0.0483
 1854SOL    HW117021   0.271   2.417   5.248 -1.3134 -1.1231  1.2567
 1854SOL    HW217022   0.385   2.333   5.286  0.1249 -0.6226  0.0060
 1855SOL     OW17023   4.715   4.381   4.455  0.4731  0.2000  0.0104
 1855SOL    HW117024   4.713   4.316   4.385  0.3435 -0.5916  0.7355
 1855SOL    HW217025   0.070   4.356   4.505  0.6421  1.6740  0.4776
 1856SOL     OW17026   0.361   1.298  14.093  0.0779 -0.1761  0.1134
 1856SOL    HW117027   0.277   1.277  14.135 -0.1242 -0.2914 -0.3514
 1856SOL    HW217028   0.342   1.339  14.009 -2.1394  3.9775  2.5909
 1857SOL     OW17029   1.846   4.579   2.660 -0.3266  0.1243  0.3612
 1857SOL    HW117030   1.901   4.529   2.600 -1.3519  3.1958 -3.1763
 1857SOL    HW217031   1.911   4.608   2.724  0.3680  1.7101 -1.0638
 1858SOL     OW17032   0.320   4.388   4.735  0.1047 -0.3600 -0.0924
 1858SOL    HW117033   0.341   4.353   4.648 -1.1907  0.0619 -0.5718
 1858SOL    HW217034   0.261   4.459   4.712  1.6049  1.4193  1.5594
 1859SOL     OW17035   2.218   3.812  17.290  0.2797 -0.4865  0.5039
 1859SOL    HW117036   2.161   3.736  17.303 -0.0718 -0.4223 -0.6453
 1859SOL    HW217037   2.285   3.770  17.236  1.0389  0.5866  0.6008
 1860SOL     OW17038   3.236   0.357   0.855  0.0138 -0.1629  0.5734
 1860SOL    HW117039   3.155   0.352   0.804 -0.1501 -1.5835  0.9591
 1860SOL    HW217040   3.225   0.302   0.933 -2.4109  0.0473  0.3867
 1861SOL     OW17041   2.654   0.930   9.653 -0.3045 -0.2654 -0.0322
 1861SOL    HW117042   2.694   1.010   9.619 -0.2659 -0.7233 -1.0479
 1861SOL    HW217043   2.570   0.964   9.685 -0.2429 -0.1960  0.0533
 1862SOL     OW17044   2.998   2.562  16.299  0.7758 -0.0340 -0.2463
 1862SOL    HW117045   2.902   2.562  16.299  0.7667 -1.2463  1.8117
 1862SOL    HW217046   3.017   2.479  16.255 -2.0912  0.2409 -1.9586
 1863SOL     OW17047   1.195   4.694  11.868  0.2300 -0.2727  0.7616
 1863SOL    HW117048   1.114   4.669  11.824  0.3872 -1.6666  1.2591
 1863SOL    HW217049   1.234   0.020  11.795  0.9922  0.9452  1.9740
 1864SOL     OW17050   0.448   0.913   5.973  0.6465  0.4918  0.1848
 1864SOL    HW117051   0.368   0.945   5.933  0.2744  0.5217  0.9575
 1864SOL    HW217052   0.439   0.821   5.946 -1.6438  0.5383  0.8353
 1865SOL     OW17053   3.128   0.195   2.169  0.1575  1.1526  0.0903
 1865SOL    HW117054   3.125   0.276   2.118  2.6040  2.0035  1.2844
 1865SOL    HW217055   3.063   0.226   2.232  1.4115  1.0078  1.4563
 1866SOL     OW17056   2.602   2.804   2.195 -0.4164  0.1060  0.3384
 1866SOL    HW117057   2.596   2.729   2.254  0.4108  0.6466  1.1014
 1866SOL    HW217058   2.592   2.880   2.252 -2.2804 -1.4678  2.0891
 1867SOL     OW17059   0.620   3.647   4.792 -0.1880  0.6396  0.4113
 1867SOL    HW117060   0.692   3.670   4.733  0.0048  0.2461  0.4946
 1867SOL    HW217061   0.581   3.734   4.793  0.0231  0.7363  0.0981
 1868SOL     OW17062   3.811   1.530   2.577 -0.0266  0.5012  0.7737
 1868SOL    HW117063   3.837   1.573   2.658  1.4354  0.2099  0.4504
 1868SOL    HW217064   3.717   1.550   2.569  0.1754  1.6529  1.2090
 1869SOL     OW17065   1.978   1.855   7.878  0.7214  0.6017  0.0366
 1869SOL    HW117066   2.045   1.861   7.946 -1.5383 -0.8002  2.4027
 1869SOL    HW217067   2.030   1.878   7.801  3.5886 -0.1908  1.7259
 1870SOL     OW17068   2.719   2.846   5.614  0.1516 -0.3324  0.7500
 1870SOL    HW117069   2.698   2.897   5.536 -0.3158 -0.5404  0.7426
 1870SOL    HW217070   2.804   2.813   5.586 -0.8193 -1.7841 -0.4538
 1871SOL     OW17071   0.172   4.011   8.468  0.5658 -0.2110 -0.1303
 1871SOL    HW117072   0.127   4.077   8.415  1.8489  0.6201 -0.1964
 1871SOL    HW217073   0.262   4.009   8.435 -0.0114  0.8253 -1.7646
 1872SOL     OW17074   2.045   4.253  11.706  0.4350  0.2492  0.2036
 1872SOL    HW117075   2.112   4.313  11.672  0.5354 -0.7822 -1.4577
 1872SOL    HW217076   2.091   4.171  11.722  1.9055  0.7582 -1.3368
 1873SOL     OW17077   4.530   2.842  12.952  0.3257  0.3968 -0.0705
 1873SOL    HW117078   4.439   2.836  12.923  0.1167 -1.4979  0.9557
 1873SOL    HW217079   4.533   2.788  13.031 -0.7183 -0.0355 -0.3357
 1874SOL     OW17080   0.390   2.646  14.600 -0.1453  0.7661  0.4426
 1874SOL    HW117081   0.318   2.584  14.587  1.3156 -0.8018 -0.0729
 1874SOL    HW217082   0.443   2.601  14.666  1.0072  2.0806  0.3976
 1875SOL     OW17083   0.295   3.814   5.012 -0.1474  0.4826  0.3823
 1875SOL    HW117084   0.249   3.898   5.024  2.1218  1.9397 -1.1703
 1875SOL    HW217085   0.265   3.788   4.925 -1.9269 -1.4416  1.5731
 1876SOL     OW17086   3.500   3.395   6.254  0.1719  0.0803  0.3632
 1876SOL    HW117087   3.514   3.483   6.289 -1.5894 -0.4184  2.2375
 1876SOL    HW217088   3.411   3.400   6.218 -0.3328  1.0581  1.7714
 1877SOL     OW17089   2.040   2.911   5.664 -0.1806  0.2586 -0.0006
 1877SOL    HW117090   2.076   2.988   5.619 -0.6972  0.8179  0.5504
 1877SOL    HW217091   1.949   2.923   5.638 -1.1444 -2.6367  1.9891
 1878SOL     OW17092   3.153   2.653  17.407 -1.0748 -0.0374  0.1231
 1878SOL    HW117093   3.160   2.607  17.491  0.0649  1.0319  0.6139
 1878SOL    HW217094   3.111   2.734  17.435 -2.3348  0.3662 -2.9311
 1879SOL     OW17095   1.502   4.606   6.984 -0.1158  0.3197  0.0447
 1879SOL    HW117096   1.497   4.642   7.072  0.5112  1.5030 -0.4068
 1879SOL    HW217097   1.578   4.549   6.997  0.0067  0.3456 -0.5625
 1880SOL     OW17098   0.009   2.616   4.690  0.9716  0.1127  0.2827
 1880SOL    HW117099   0.072   2.663   4.743 -1.7689  4.8270 -0.5933
 1880SOL    HW217100   0.061   2.591   4.613  2.2662 -2.0513  1.8757
 1881SOL     OW17101   3.729   3.526   9.164  0.7803  0.0441  0.4536
 1881SOL    HW117102   3.650   3.487   9.203 -0.8308  1.2663 -1.5698
 1881SOL    HW217103   3.736   3.602   9.222 -1.1593  0.2166  0.4630
 1882SOL     OW17104   1.489   4.573   4.885 -0.0763  0.3018 -0.1581
 1882SOL    HW117105   1.555   4.549   4.819 -0.4218  1.6852 -1.0088
 1882SOL    HW217106   1.453   4.487   4.906 -1.4073  0.9365  0.1929
 1883SOL     OW17107   4.010   2.639   3.543  0.0569 -0.4314  0.3142
 1883SOL    HW117108   3.968   2.576   3.602 -0.8803  0.2845  0.4200
 1883SOL    HW217109   3.940   2.648   3.478  1.3277  2.4063 -0.6218
 1884SOL     OW17110   2.283   0.179   3.934 -0.0266  0.2382  0.1801
 1884SOL    HW117111   2.242   0.094   3.949  1.7406 -0.7872 -0.7932
 1884SOL    HW217112   2.356   0.148   3.880 -0.3628  0.2857 -0.3017
 1885SOL     OW17113   4.069   2.937   3.363 -0.7521  0.8433 -0.2719
 1885SOL    HW117114   4.091   2.919   3.454  1.8108 -1.6758 -1.4003
 1885SOL    HW217115   3.987   2.983   3.385  0.6163  1.5573  3.3697
 1886SOL     OW17116   3.223   1.253   7.928 -0.0921 -0.1182  0.0529
 1886SOL    HW117117   3.147   1.196   7.934 -1.1860  1.5840  2.4172
 1886SOL    HW217118   3.285   1.188   7.963 -2.4429 -2.0764  0.5918
 1887SOL     OW17119   2.551   3.677   4.044 -0.3563  0.0799  0.2628
 1887SOL    HW117120   2.594   3.604   4.088  3.7220  2.6530  0.5754
 1887SOL    HW217121   2.625   3.734   4.023  0.9570 -1.4764  0.6519
 1888SOL     OW17122   4.543   1.442  10.745 -0.3549 -0.5946  0.7323
 1888SOL    HW117123   4.454   1.425  10.714  0.7296 -0.9819 -2.1552
 1888SOL    HW217124   4.575   1.353  10.764  0.2379 -0.7383 -1.0067
 1889SOL     OW17125   2.903   1.948   8.596  0.3894 -0.1516  0.3600
 1889SOL    HW117126   2.908   1.974   8.688 -3.2680 -0.8177  0.7568
 1889SOL    HW217127   2.823   1.896   8.592 -0.1514  0.6246  1.0018
 1890SOL     OW17128   1.144   4.336   3.085  0.3885  0.5509  0.1467
 1890SOL    HW117129   1.197   4.273   3.036 -0.4815 -1.3467  1.5975
 1890SOL    HW217130   1.055   4.310   3.063  0.0738  1.4395  0.3640
 1891SOL     OW17131   1.746   1.828   1.978  0.2580 -0.3128  0.3492
 1891SOL    HW117132   1.688   1.901   1.999 -1.2352 -1.6644  0.9030
 1891SOL    HW217133   1.768   1.798   2.066 -1.7796 -3.8154 -0.3375
 1892SOL     OW17134   3.682   3.492   3.211  0.0751 -0.2924  0.0514
 1892SOL    HW117135   3.657   3.563   3.270 -2.0455 -0.6040 -0.5039
 1892SOL    HW217136   3.601   3.468   3.166 -0.7695  1.8835  0.4098
 1893SOL     OW17137   3.280   3.578   0.850  0.3425  0.7386  0.2681
 1893SOL    HW117138   3.330   3.565   0.770 -1.1760  0.8798 -0.7157
 1893SOL    HW217139   3.237   3.493   0.857 -2.0113  1.9601  0.7504
 1894SOL     OW17140   0.316   3.669   9.246  0.2570 -0.2546  0.5551
 1894SOL    HW117141   0.345   3.760   9.247  3.2463 -1.2008 -0.2627
 1894SOL    HW217142   0.228   3.691   9.277  0.1022 -0.1951  0.0673
 1895SOL     OW17143   2.903   2.569  12.096  0.3046 -0.2837 -0.0496
 1895SOL    HW117144   2.917   2.662  12.078 -0.7124 -0.3488 -1.1392
 1895SOL    HW217145   2.835   2.546  12.033 -0.9006 -2.6117  2.0693
 1896SOL     OW17146   1.373   1.780   9.564  0.0756  0.2467  0.3892
 1896SOL    HW117147   1.351   1.814   9.651 -1.1697 -0.1842  0.2355
 1896SOL    HW217148   1.313   1.824   9.504  0.4440  1.2718  0.7719
 1897SOL     OW17149   2.508   2.994  15.262 -0.0309 -0.6774  0.1425
 1897SOL    HW117150   2.520   2.901  15.280  0.9484 -0.3130  1.3836
 1897SOL    HW217151   2.530   3.003  15.169 -0.1088  1.5244  0.3335
 1898SOL     OW17152   3.212   0.221   4.241 -0.4407  0.4261  0.0173
 1898SOL    HW117153   3.198   0.244   4.333 -1.7684  0.7529 -0.2549
 1898SOL    HW217154   3.281   0.157   4.259  0.3006  0.9838 -0.8518
 1899SOL     OW17155   3.499   1.242   6.235  0.0411  0.3172  0.1703
 1899SOL    HW117156   3.530   1.154   6.216 -2.9616 -0.7035  0.1476
 1899SOL    HW217157   3.479   1.224   6.326 -1.4455  0.1027 -0.1967
 1900SOL     OW17158   4.632   3.896   8.279  0.1779 -0.0128 -0.2262
 1900SOL    HW117159   4.564   3.870   8.216 -0.7654  1.6665  0.0824
 1900SOL    HW217160   4.586   3.956   8.338  0.1240 -1.2531  0.9606
 1901SOL     OW17161   4.234   0.713   3.667  0.5186 -0.5639  0.0511
 1901SOL    HW117162   4.237   0.790   3.609 -1.4239  0.9170  1.9468
 1901SOL    HW217163   4.173   0.652   3.626  1.8238 -1.3266 -0.7791
 1902SOL     OW17164   0.513   3.706  10.538  0.0830  0.3299 -0.2865
 1902SOL    HW117165   0.557   3.705  10.623 -1.3112  1.0717  0.4427
 1902SOL    HW217166   0.454   3.631  10.534  1.6320 -0.8990  0.2879
 1903SOL     OW17167   1.078   3.949   3.946 -0.1881 -0.1323 -0.1668
 1903SOL    HW117168   0.991   3.916   3.921 -0.0200 -0.6905 -0.0031
 1903SOL    HW217169   1.126   3.877   3.907 -0.7367 -2.0269  2.7252
 1904SOL     OW17170   1.473   3.368   8.182  0.4150  0.3289  0.1823
 1904SOL    HW117171   1.390   3.325   8.163  0.2485  1.4583 -1.6515
 1904SOL    HW217172   1.516   3.300   8.130  0.9496  0.6984  0.1415
 1905SOL     OW17173   3.041   1.318   5.794 -0.7242  0.1935 -0.0722
 1905SOL    HW117174   2.993   1.239   5.818  0.0206  0.1333  1.1896
 1905SOL    HW217175   3.130   1.289   5.817 -1.1591 -0.1768  1.1387
 1906SOL     OW17176   4.352   4.259  10.638 -0.1387  0.1797 -0.0335
 1906SOL    HW117177   4.293   4.291  10.569  0.6650  0.1837 -0.7193
 1906SOL    HW217178   4.412   4.331  10.656  2.3583 -1.3356 -2.3351
 1907SOL     OW17179   3.542   1.591   3.201 -0.2416 -0.5075  0.2302
 1907SOL    HW117180   3.525   1.498   3.182  0.2073 -0.2713 -1.3122
 1907SOL    HW217181   3.516   1.618   3.113 -2.6291 -0.3561  0.9857
 1908SOL     OW17182   4.312   0.835   1.640  0.0037 -0.2480  0.0520
 1908SOL    HW117183   4.254   0.789   1.702  0.3869  0.0818  0.6603
 1908SOL    HW217184   4.400   0.803   1.661 -0.2933 -1.1547 -0.0861
 1909SOL     OW17185   3.227   1.930   0.544 -0.0278 -0.1040 -0.3200
 1909SOL    HW117186   3.265   1.853   0.588 -0.6919 -1.1770 -1.6126
 1909SOL    HW217187   3.277   1.941   0.462  0.3429  1.1920  0.0934
 1910SOL     OW17188   1.580   2.230   7.868 -0.0828 -0.2943  0.9344
 1910SOL    HW117189   1.539   2.148   7.840  0.6829 -0.7434  1.1284
 1910SOL    HW217190   1.649   2.195   7.926 -0.7397 -2.0153  0.6887
 1911SOL     OW17191   0.055   1.546   8.374  0.4253  0.7077 -0.0346
 1911SOL    HW117192   0.005   1.607   8.320  1.1405  2.9433  1.8245
 1911SOL    HW217193   0.031   1.458   8.346 -0.1472  0.8541 -0.0078
 1912SOL     OW17194   0.370   1.442  16.393 -0.1831  0.2459  0.0795
 1912SOL    HW117195   0.315   1.421  16.317 -2.6817  0.7044  1.7792
 1912SOL    HW217196   0.443   1.489  16.354  0.7706 -0.8119  0.5659
 1913SOL     OW17197   1.255   2.294   5.922 -0.1426  0.5054 -0.0225
 1913SOL    HW117198   1.212   2.357   5.865  0.5056  0.5247 -0.4952
 1913SOL    HW217199   1.301   2.357   5.977  2.5264 -1.7227  0.3624
 1914SOL     OW17200   3.177   3.833  14.899  0.0171 -0.2786  0.3932
 1914SOL    HW117201   3.137   3.754  14.863  1.6478 -0.8918 -0.0560
 1914SOL    HW217202   3.156   3.903  14.837  1.4798  1.6657  2.0999
 1915SOL     OW17203   0.974   2.370   3.092  0.2556 -0.0781 -0.0129
 1915SOL    HW117204   1.015   2.322   3.020  0.6130  3.9498 -2.5251
 1915SOL    HW217205   1.015   2.329   3.168  2.7103  2.0661 -0.1864
 1916SOL     OW17206   1.444   1.467   6.874  0.4743 -0.1054  0.1347
 1916SOL    HW117207   1.402   1.403   6.931 -2.0189  1.7598  0.4198
 1916SOL    HW217208   1.452   1.549   6.924  0.2322 -0.2752  0.4564
 1917SOL     OW17209   1.782   1.744   6.971  0.4034 -0.5610 -0.0189
 1917SOL    HW117210   1.873   1.773   6.975 -0.2816  1.5430  0.0698
 1917SOL    HW217211   1.788   1.750   6.875 -1.2987 -0.6126 -0.1171
 1918SOL     OW17212   1.601   4.597   7.781 -0.4853 -0.3127 -0.0044
 1918SOL    HW117213   1.520   4.646   7.788  0.1820  0.8611 -0.5646
 1918SOL    HW217214   1.582   4.525   7.842 -1.0042 -0.7422 -0.6687
 1919SOL     OW17215   2.000   2.836   5.225  0.2291 -0.8243 -0.4324
 1919SOL    HW117216   1.914   2.795   5.236 -1.4740  2.4332 -1.4301
 1919SOL    HW217217   1.971   2.925   5.207 -2.6830 -1.5716  0.4632
 1920SOL     OW17218   0.881   1.738  13.855  0.8306 -0.3845  0.4339
 1920SOL    HW117219   0.818   1.702  13.918 -1.8097 -1.5087 -2.8972
 1920SOL    HW217220   0.851   1.829  13.865 -0.2878 -0.8509  1.2903
 1921SOL     OW17221   3.564   2.355   1.955 -0.0741 -0.0998 -0.1334
 1921SOL    HW117222   3.629   2.410   2.000  0.5915  0.1658 -1.4032
 1921SOL    HW217223   3.622   2.283   1.929 -0.2432 -0.8929  1.7424
 1922SOL     OW17224   2.629   1.809   7.015 -0.3716 -0.6945 -0.5742
 1922SOL    HW117225   2.605   1.766   7.097 -2.9076  0.9016 -0.4721
 1922SOL    HW217226   2.673   1.732   6.979  2.5739 -0.4150  2.4529
 1923SOL     OW17227   4.084   2.688   1.997 -0.3576 -0.1268  0.2157
 1923SOL    HW117228   4.147   2.720   2.061  0.3458 -0.0426 -0.5120
 1923SOL    HW217229   4.071   2.770   1.950 -0.2420 -0.5066 -0.4904
 1924SOL     OW17230   2.250   1.100   0.620  0.4475  0.5597  0.0210
 1924SOL    HW117231   2.182   1.062   0.676  0.9344 -1.3183 -0.6271
 1924SOL    HW217232   2.281   1.162   0.685 -0.1801 -0.3492  1.1919
 1925SOL     OW17233   1.547   3.043   5.492  0.1116 -0.7069 -0.5516
 1925SOL    HW117234   1.551   3.016   5.400 -0.6235 -1.2060 -0.4329
 1925SOL    HW217235   1.530   3.137   5.496 -1.8262 -0.9562 -3.0440
 1926SOL     OW17236   0.324   3.560   6.749  0.3349  0.2919  0.6081
 1926SOL    HW117237   0.281   3.607   6.678  0.4991 -1.9930 -1.0075
 1926SOL    HW217238   0.369   3.493   6.697 -0.6587  0.6571 -0.7313
 1927SOL     OW17239   3.840   4.125   8.713  0.2076  0.3478 -0.4196
 1927SOL    HW117240   3.792   4.090   8.638  1.3361  1.0882 -1.4802
 1927SOL    HW217241   3.768   4.121   8.776 -0.1377 -1.9051 -0.9370
 1928SOL     OW17242   1.919   1.269   8.445 -0.0789  0.1682 -0.6224
 1928SOL    HW117243   1.906   1.294   8.536  1.7326 -0.7456 -0.1209
 1928SOL    HW217244   1.946   1.177   8.445 -1.8003 -0.3580 -1.2367
 1929SOL     OW17245   1.575   4.215  16.985 -0.4499 -0.4765  0.1729
 1929SOL    HW117246   1.596   4.299  16.943 -1.4120 -2.2164 -3.7798
 1929SOL    HW217247   1.480   4.211  16.982 -0.3462 -1.2341 -1.9629
 1930SOL     OW17248   3.053   3.339   3.199  0.3249  0.3760 -0.0582
 1930SOL    HW117249   2.966   3.377   3.189 -0.5722 -1.5047  0.5993
 1930SOL    HW217250   3.025   3.253   3.228  0.8482  0.6393  1.2400
 1931SOL     OW17251   2.207   0.909   6.819 -0.2434 -0.4245 -0.2857
 1931SOL    HW117252   2.112   0.903   6.817 -0.2458 -1.0804  1.8422
 1931SOL    HW217253   2.222   0.970   6.747 -1.0358  0.6222  0.4391
 1932SOL     OW17254   4.410   4.338   9.324  0.1509 -0.0278 -0.2374
 1932SOL    HW117255   4.414   4.373   9.235  0.4048  0.9554  0.1682
 1932SOL    HW217256   4.500   4.360   9.348 -0.2529 -1.6557  2.7683
 1933SOL     OW17257   4.441   1.919   3.428 -0.5022 -0.1311 -0.1094
 1933SOL    HW117258   4.428   1.850   3.493  1.7815 -0.6276 -0.1863
 1933SOL    HW217259   4.385   1.883   3.359  1.6581 -1.4877 -1.1564
 1934SOL     OW17260   3.876   2.254   6.810  0.2395  0.4350 -0.4315
 1934SOL    HW117261   3.940   2.183   6.813 -0.1359  0.1403  0.5284
 1934SOL    HW217262   3.819   2.233   6.884 -0.0601  0.2270 -0.7220
 1935SOL     OW17263   0.410   2.291   9.370 -0.0472 -0.1551  0.6530
 1935SOL    HW117264   0.501   2.294   9.341  0.1291 -1.7767  1.0484
 1935SOL    HW217265   0.376   2.243   9.295 -1.0229  0.4056  0.7366
 1936SOL     OW17266   0.064   3.088   6.068  0.2747  0.6224 -0.4690
 1936SOL    HW117267   0.112   3.153   6.018  0.5862  0.1912 -0.7302
 1936SOL    HW217268   0.056   3.128   6.155  0.1824  0.3221 -0.3375
 1937SOL     OW17269   3.133   4.426   1.931 -0.0355 -0.4663 -0.3637
 1937SOL    HW117270   3.222   4.415   1.964  0.3350 -0.2484 -1.2864
 1937SOL    HW217271   3.107   4.509   1.972  0.2779 -0.3097 -0.4810
 1938SOL     OW17272   2.436   0.088  12.637  0.7136  0.1558 -0.3169
 1938SOL    HW117273   2.357   0.090  12.583  0.6314  1.6496 -0.1410
 1938SOL    HW217274   2.388   0.064  12.716 -0.1819 -1.4459 -1.3246
 1939SOL     OW17275   1.404   4.034   0.659  0.1119 -0.3145 -0.0133
 1939SOL    HW117276   1.465   4.024   0.732  1.3972  0.6069 -0.9687
 1939SOL    HW217277   1.321   3.997   0.690 -0.8358  1.5671 -0.3322
 1940SOL     OW17278   2.055   4.428   1.513  0.8231  0.0686  0.5881
 1940SOL    HW117279   1.981   4.430   1.574 -0.6771  0.4372 -1.2211
 1940SOL    HW217280   2.027   4.393   1.428  2.4444 -2.2030  0.9842
 1941SOL     OW17281   3.699   2.924   1.469 -0.4773  0.4625 -0.9739
 1941SOL    HW117282   3.665   2.941   1.557  1.8150  2.4436 -0.4678
 1941SOL    HW217283   3.631   2.860   1.449  1.6519 -1.8712 -0.7864
 1942SOL     OW17284   4.298   0.257   4.791  0.6520 -0.0673  0.4053
 1942SOL    HW117285   4.241   0.184   4.768 -2.3401  2.1432  0.8512
 1942SOL    HW217286   4.381   0.214   4.767  0.1942 -0.0743 -1.1416
 1943SOL     OW17287   3.773   0.963   8.267 -0.1175 -0.1995 -0.4605
 1943SOL    HW117288   3.772   1.050   8.227 -0.8221  0.8608  1.8681
 1943SOL    HW217289   3.685   0.926   8.259 -0.1688 -0.1900  0.0659
 1944SOL     OW17290   1.402   1.197  16.413 -0.2033  0.0407 -0.0712
 1944SOL    HW117291   1.313   1.219  16.442 -0.6865 -0.3910 -1.2213
 1944SOL    HW217292   1.393   1.123  16.353  0.8092 -1.1449  1.2587
 1945SOL     OW17293   1.656   2.500   7.851 -0.2350 -0.0914  0.7599
 1945SOL    HW117294   1.641   2.411   7.884  2.5698 -0.5062  0.8776
 1945SOL    HW217295   1.712   2.484   7.775 -1.6731 -0.6746 -0.1813
 1946SOL     OW17296   0.197   3.226   4.052 -0.0962 -0.5941 -0.2125
 1946SOL    HW117297   0.186   3.132   4.066 -2.2212 -0.5681 -1.5985
 1946SOL    HW217298   0.259   3.228   3.979  0.2939  0.0522  0.1346
 1947SOL     OW17299   3.251   2.715   4.045  0.2059 -0.0330 -0.0370
 1947SOL    HW117300   3.244   2.633   3.996  1.2950  1.3878 -2.5284
 1947SOL    HW217301   3.168   2.755   4.019  0.2544  0.0734 -0.0266
 1948SOL     OW17302   3.474   0.499   3.899  0.5311 -0.0644  0.0374
 1948SOL    HW117303   3.397   0.498   3.956  0.1049  1.8098 -0.5012
 1948SOL    HW217304   3.487   0.405   3.885 -0.5798 -0.0178 -1.4231
 1949SOL     OW17305   1.509   1.466  16.725  0.0915  0.1196  0.2881
 1949SOL    HW117306   1.442   1.526  16.758  0.7615  1.3352 -0.5414
 1949SOL    HW217307   1.578   1.468  16.792 -0.2429 -1.4956  0.6819
 1950SOL     OW17308   1.128   3.182   1.411  0.2594  0.0657 -0.7901
 1950SOL    HW117309   1.109   3.174   1.317 -1.1990  1.4405 -0.6115
 1950SOL    HW217310   1.140   3.092   1.441  1.8235  0.5746  0.1600
 1951SOL     OW17311   0.362   3.265   2.977 -0.5601 -0.1931 -0.2679
 1951SOL    HW117312   0.440   3.319   2.965 -1.0303  0.9766  1.9370
 1951SOL    HW217313   0.312   3.284   2.898  0.2241  1.8166 -0.2777
 1952SOL     OW17314   3.027   3.566   7.905  0.5898 -0.0511  0.2470
 1952SOL    HW117315   2.994   3.519   7.982 -0.5777  1.6642  0.7934
 1952SOL    HW217316   3.032   3.496   7.840 -0.9536 -1.8977  2.1246
 1953SOL     OW17317   0.272   2.177   8.095 -0.3786 -0.4593  0.2415
 1953SOL    HW117318   0.257   2.115   8.167  0.8182  0.0401  0.9282
 1953SOL    HW217319   0.359   2.148   8.067 -0.7667  0.6201 -2.0588
 1954SOL     OW17320   0.033   3.469   7.711  0.0850  0.3591 -0.6515
 1954SOL    HW117321   4.720   3.547   7.669 -2.8674 -1.0013 -0.6894
 1954SOL    HW217322   4.679   3.439   7.761  0.2266 -0.3317 -0.8510
 1955SOL     OW17323   3.869   3.673   1.089  0.4771 -0.2450  0.1919
 1955SOL    HW117324   3.867   3.579   1.108  0.1244 -0.2777 -0.0130
 1955SOL    HW217325   3.953   3.699   1.128 -0.2809 -0.4817  2.0016
 1956SOL     OW17326   4.168   4.011   5.471 -0.1227  0.6262  0.2042
 1956SOL    HW117327   4.158   4.038   5.380 -2.8312 -2.3218 -0.3756
 1956SOL    HW217328   4.079   3.985   5.496 -0.0150  0.5846  0.5550
 1957SOL     OW17329   0.665   1.908   2.245 -0.5506 -0.8048 -0.2267
 1957SOL    HW117330   0.671   1.835   2.306  0.5505  0.1781  0.8498
 1957SOL    HW217331   0.754   1.940   2.258 -0.3480 -1.7803  0.7976
 1958SOL     OW17332   2.884   0.037   4.353  0.3117 -0.1969 -0.8774
 1958SOL    HW117333   2.790   0.053   4.344 -0.0805 -0.3047  2.9146
 1958SOL    HW217334   2.918   0.110   4.301  2.2686 -0.3937  0.1218
 1959SOL     OW17335   0.134   3.403   2.349 -0.3244 -0.2116  0.2182
 1959SOL    HW117336   0.115   3.379   2.258  0.5538 -1.3646  0.3501
 1959SOL    HW217337   0.084   3.485   2.356  2.1673  1.2850  0.3765
 1960SOL     OW17338   2.136   3.859  14.981 -0.2789  1.0000 -0.1689
 1960SOL    HW117339   2.229   3.859  14.957 -0.2813  2.3388 -0.1877
 1960SOL    HW217340   2.095   3.924  14.923 -1.6232 -0.2035 -0.5791
 1961SOL     OW17341   1.589   2.476   9.578 -0.2970  0.2187 -0.6005
 1961SOL    HW117342   1.592   2.399   9.634 -0.6992 -0.0661 -0.9733
 1961SOL    HW217343   1.515   2.519   9.623 -1.6240 -2.2060 -0.4916
 1962SOL     OW17344   0.088   2.300   5.441  0.6682  0.6407  0.2877
 1962SOL    HW117345   0.080   2.349   5.522 -0.9750  2.3069 -0.8881
 1962SOL    HW217346   0.063   2.364   5.375 -1.9665 -0.8363 -0.1516
 1963SOL     OW17347   2.753   2.346  16.556 -0.2975  0.2312  0.1227
 1963SOL    HW117348   2.663   2.375  16.540  0.0515  0.0370 -2.2050
 1963SOL    HW217349   2.786   2.423  16.601 -2.4694  1.2003  0.0492
 1964SOL     OW17350   4.540   1.042  12.525  0.4633 -0.7800 -0.4435
 1964SOL    HW117351   4.512   1.132  12.540 -0.4397 -0.7432 -2.3860
 1964SOL    HW217352   4.548   1.034  12.430 -3.5069  1.9964 -1.0055
 1965SOL     OW17353   4.604   1.149   1.601  0.0735 -0.2047 -0.4074
 1965SOL    HW117354   4.602   1.089   1.675 -1.3321  0.3490 -0.0021
 1965SOL    HW217355   4.667   1.212   1.637 -0.3517 -1.0616  1.8189
 1966SOL     OW17356   1.833   2.418  12.738  0.3481  0.1621 -0.6404
 1966SOL    HW117357   1.842   2.449  12.828  1.5165  1.4928 -1.2196
 1966SOL    HW217358   1.879   2.338  12.762  1.7125  0.0037 -3.7742
 1967SOL     OW17359   0.207   4.564  16.854  0.0895  0.2220  0.1621
 1967SOL    HW117360   0.191   4.624  16.781  0.4038  3.3567  2.6824
 1967SOL    HW217361   0.284   4.603  16.894 -0.6987  1.7262  0.1991
 1968SOL     OW17362   2.663   1.993   8.016 -0.3757  0.2828  0.3771
 1968SOL    HW117363   2.754   1.965   8.011 -0.2586  0.7048  0.0847
 1968SOL    HW217364   2.661   2.089   8.012 -1.0034  0.2719  0.3101
 1969SOL     OW17365   1.306   2.501   1.528 -0.7759  0.6213 -0.3397
 1969SOL    HW117366   1.263   2.561   1.589  1.5053  2.1957 -0.3093
 1969SOL    HW217367   1.291   2.544   1.444  0.2811  1.2854 -0.1788
 1970SOL     OW17368   3.516   2.021   7.241  0.2829 -0.5551 -0.1994
 1970SOL    HW117369   3.574   1.952   7.210 -0.0026 -1.2392  0.7838
 1970SOL    HW217370   3.488   1.989   7.327  3.0136 -0.0751  0.8787
 1971SOL     OW17371   1.375   0.539  16.509  0.0941  0.6331  0.2521
 1971SOL    HW117372   1.320   0.600  16.558  1.7081  3.3808 -1.3492
 1971SOL    HW217373   1.460   0.576  16.528  0.8286 -0.1639 -1.4760
 1972SOL     OW17374   1.718   2.912  16.342  0.1119  1.2652 -0.3687
 1972SOL    HW117375   1.774   2.939  16.269 -0.9157 -0.0258 -1.6369
 1972SOL    HW217376   1.632   2.945  16.319 -0.9197 -0.6859  0.6772
 1973SOL     OW17377   3.522   3.661  11.091 -0.1476 -0.2431 -0.6142
 1973SOL    HW117378   3.516   3.589  11.028  0.1767 -0.2905 -0.5909
 1973SOL    HW217379   3.581   3.719  11.043 -0.4328  1.2832  0.8694
 1974SOL     OW17380   3.939   2.538  17.557  0.0933 -0.4741  0.3362
 1974SOL    HW117381   3.929   2.627  17.525 -3.9023 -0.6301  1.2206
 1974SOL    HW217382   3.848   2.531  17.585 -0.3987 -2.2278 -1.6800
 1975SOL     OW17383   2.286   4.538   8.075 -0.0169 -0.2576  0.1357
 1975SOL    HW117384   2.294   4.482   7.998  0.4066 -0.6663  0.4727
 1975SOL    HW217385   2.319   4.478   8.142 -1.0506 -1.6598 -0.5992
 1976SOL     OW17386   4.371   4.662  12.031  0.5175 -0.0159  0.0286
 1976SOL    HW117387   4.432   4.644  12.102  0.4113 -1.7075 -0.3308
 1976SOL    HW217388   4.312   0.009  12.060 -1.5943 -2.1113  0.7262
 1977SOL     OW17389   3.964   0.206  15.070  0.0978 -0.1063  0.1798
 1977SOL    HW117390   3.873   0.206  15.039  0.4246 -2.9489 -0.7775
 1977SOL    HW217391   4.004   0.185  14.986 -1.8408  2.5010 -1.3901
 1978SOL     OW17392   0.431   3.067   5.159 -0.9492 -0.1233 -0.2462
 1978SOL    HW117393   0.478   2.998   5.206 -1.4512  0.1439  0.6502
 1978SOL    HW217394   0.496   3.136   5.167  1.5044 -2.4062 -0.5407
 1979SOL     OW17395   1.344   3.631  13.245  0.0277  0.2475 -0.3562
 1979SOL    HW117396   1.316   3.579  13.170 -1.0143  0.1997  0.0776
 1979SOL    HW217397   1.258   3.653  13.281 -0.5351 -1.0634 -0.9130
 1980SOL     OW17398   2.103   4.155   2.601 -0.0382 -0.0795 -0.3829
 1980SOL    HW117399   2.069   4.104   2.528  1.4362  1.3687 -2.0841
 1980SOL    HW217400   2.078   4.240   2.566  0.9717  0.9540  1.3683
 1981SOL     OW17401   4.007   2.822   7.063 -0.1609  0.2045 -0.0621
 1981SOL    HW117402   4.092   2.782   7.079 -0.2316  0.4257  0.8393
 1981SOL    HW217403   3.949   2.779   7.126  0.6524 -0.6001  0.1400
 1982SOL     OW17404   3.556   3.986   8.199  0.2753 -0.8798  0.6085
 1982SOL    HW117405   3.644   3.955   8.219  0.9482  1.5894  1.4475
 1982SOL    HW217406   3.560   4.061   8.257  0.5565  0.6658 -1.4080
 1983SOL     OW17407   1.665   4.410   9.621 -0.4522  0.0362 -0.1129
 1983SOL    HW117408   1.622   4.434   9.702 -1.0613  1.6683 -0.9066
 1983SOL    HW217409   1.593   4.419   9.559 -1.3497 -1.7986  0.6939
 1984SOL     OW17410   3.689   2.747   7.530 -0.5467  0.2885 -0.2635
 1984SOL    HW117411   3.684   2.831   7.485  1.9033  0.1052 -0.8476
 1984SOL    HW217412   3.598   2.716   7.524 -0.8192  0.9705  0.3655
 1985SOL     OW17413   2.113   4.506   5.765 -0.7463  0.2800  0.6329
 1985SOL    HW117414   2.141   4.415   5.757 -1.4874  0.0968  0.0923
 1985SOL    HW217415   2.144   4.523   5.854  0.1851 -1.1662  0.5801
 1986SOL     OW17416   4.314   3.187  16.630  0.8572  0.3907 -0.1879
 1986SOL    HW117417   4.407   3.199  16.610  1.0736  0.2362  0.7011
 1986SOL    HW217418   4.319   3.115  16.692  2.7469 -0.5667 -1.4504
 1987SOL     OW17419   2.768   3.387  11.655 -0.8071 -0.1110 -0.2079
 1987SOL    HW117420   2.763   3.316  11.720 -1.2093  0.0233 -0.0929
 1987SOL    HW217421   2.800   3.347  11.574  0.8059  0.5208  0.1264
 1988SOL     OW17422   2.279   2.198   2.501 -0.1172  0.5862 -0.7637
 1988SOL    HW117423   2.366   2.168   2.527 -0.3255 -0.4571 -1.2887
 1988SOL    HW217424   2.289   2.293   2.491 -1.7608  0.9187  0.7644
 1989SOL     OW17425   4.307   2.991   5.239 -0.6269  0.1170  0.2871
 1989SOL    HW117426   4.375   3.042   5.282 -0.6533 -0.3249  0.8467
 1989SOL    HW217427   4.338   2.994   5.148 -1.3098 -4.1256 -0.0647
 1990SOL     OW17428   2.364   3.829   9.504  0.7067  0.0155  0.3012
 1990SOL    HW117429   2.444   3.868   9.469  1.3699 -3.0951 -1.6463
 1990SOL    HW217430   2.307   3.874   9.441  0.5892 -0.0427  0.3640
 1991SOL     OW17431   1.076   0.132  15.388  0.0474 -1.0340 -0.9958
 1991SOL    HW117432   1.166   0.140  15.355  0.5901  1.9661  1.1501
 1991SOL    HW217433   1.033   0.190  15.325  0.3165 -0.2657 -0.4768
 1992SOL     OW17434   0.981   2.036   8.061  0.1981 -0.1202  0.6037
 1992SOL    HW117435   1.052   2.094   8.086  1.6059 -2.0417  1.0885
 1992SOL    HW217436   1.025   1.954   8.039 -0.6565 -0.6562  0.8770
 1993SOL     OW17437   1.581   1.350   1.742 -0.1507  0.4948 -0.1898
 1993SOL    HW117438   1.672   1.322   1.748 -0.4949 -0.8692 -1.2171
 1993SOL    HW217439   1.596   1.442   1.764 -0.6055 -0.0715  2.5684
 1994SOL     OW17440   2.710   1.382  10.621  0.2678 -0.0049 -0.8745
 1994SOL    HW117441   2.786   1.327  10.602 -1.3771 -1.9876 -1.7536
 1994SOL    HW217442   2.747   1.442  10.685 -1.9959 -1.0051  1.4037
 1995SOL     OW17443   2.239   4.636  16.994 -0.0382 -0.0265  0.3354
 1995SOL    HW117444   2.267   4.712  16.943 -1.8584  0.7228  0.4488
 1995SOL    HW217445   2.287   4.561  16.957  1.2030 -0.3119  2.4991
 1996SOL     OW17446   3.434   1.415   2.905 -0.0757  0.4159  0.5604
 1996SOL    HW117447   3.340   1.416   2.922 -0.2020  0.4580 -0.1590
 1996SOL    HW217448   3.442   1.362   2.826  0.5541  2.0136 -0.4502
 1997SOL     OW17449   3.843   1.206   4.066 -0.6194 -0.0280 -0.2122
 1997SOL    HW117450   3.912   1.237   4.008 -1.0056 -2.2022 -1.8326
 1997SOL    HW217451   3.856   1.111   4.072  1.3852  0.2994  0.6963
 1998SOL     OW17452   2.112   3.009   6.711 -0.2050 -0.2134  0.1851
 1998SOL    HW117453   2.093   2.919   6.685  1.7424 -0.4937 -0.2829
 1998SOL    HW217454   2.154   3.028   6.627  1.7269 -0.0951  1.1644
 1999SOL     OW17455   1.309   1.830   9.837  0.0503  0.7327  0.2068
 1999SOL    HW117456   1.323   1.809   9.929  2.1639 -0.1304 -0.3151
 1999SOL    HW217457   1.223   1.791   9.822 -0.2345  1.0012  1.1525
 2000SOL     OW17458   1.867   3.878   3.749 -0.0427  0.0996  0.5938
 2000SOL    HW117459   1.890   3.937   3.821 -1.9504  1.3081  0.2215
 2000SOL    HW217460   1.876   3.941   3.677 -0.9915 -0.6312 -0.1503
 2001SOL     OW17461   1.799   1.441  17.439 -0.4622 -0.1573  0.0090
 2001SOL    HW117462   1.723   1.499  17.441 -0.2224  0.0076  3.6485
 2001SOL    HW217463   1.814   1.416  17.530  1.8891 -1.1203 -0.6508
 2002SOL     OW17464   0.687   0.381   8.747  0.0244 -0.7728  0.1011
 2002SOL    HW117465   0.683   0.287   8.768  3.7787 -0.8893  0.2877
 2002SOL    HW217466   0.777   0.405   8.770  0.3148 -0.1928 -1.6493
 2003SOL     OW17467   2.608   1.204   8.415  0.1133 -0.2137  0.3800
 2003SOL    HW117468   2.597   1.109   8.411  1.0500 -0.3025 -0.0181
 2003SOL    HW217469   2.680   1.212   8.478  2.0085 -1.1774 -1.6559
 2004SOL     OW17470   4.014   3.623   5.431 -0.1809  0.0990  0.2096
 2004SOL    HW117471   4.074   3.658   5.365 -1.3232  1.5488 -0.0640
 2004SOL    HW217472   3.984   3.694   5.487 -0.3611  1.7673 -1.9803
 2005SOL     OW17473   0.810   0.986   5.449  0.4498 -0.5207  0.6362
 2005SOL    HW117474   0.866   1.064   5.450  0.8101 -0.7779 -0.1701
 2005SOL    HW217475   0.832   0.946   5.366  0.6586  0.9738 -0.0350
 2006SOL     OW17476   4.433   4.398   3.070 -0.0607  0.0111 -0.9120
 2006SOL    HW117477   4.498   4.391   3.140 -1.9448  1.6871  0.9886
 2006SOL    HW217478   4.363   4.441   3.119  1.4298 -1.6416  2.7163
 2007SOL     OW17479   0.154   0.986  13.558 -0.1091 -0.1758 -0.5377
 2007SOL    HW117480   0.187   1.065  13.601  0.2442 -0.6147 -0.0086
 2007SOL    HW217481   0.131   0.942  13.640 -3.7632  0.9778 -0.9516
 2008SOL     OW17482   3.936   0.689  15.021  0.1306 -0.0271  0.5572
 2008SOL    HW117483   3.932   0.644  14.936 -2.3584 -1.4850  1.4417
 2008SOL    HW217484   3.926   0.614  15.080  0.8380 -0.0862  0.5963
 2009SOL     OW17485   3.402   0.742   6.083  0.0008  0.3762  0.1399
 2009SOL    HW117486   3.467   0.728   6.014  0.8130  0.1190  0.9543
 2009SOL    HW217487   3.339   0.676   6.056 -0.7244  1.9032 -1.8181
 2010SOL     OW17488   1.613   0.552   3.404  0.2506  0.5901 -0.2655
 2010SOL    HW117489   1.603   0.531   3.311 -1.3919  0.4193 -0.0519
 2010SOL    HW217490   1.693   0.604   3.408 -1.4702  3.2298 -0.8496
 2011SOL     OW17491   1.275   2.106   7.457 -0.4860 -0.5759  1.1515
 2011SOL    HW117492   1.190   2.067   7.438 -0.4745  0.4525 -1.0053
 2011SOL    HW217493   1.340   2.036   7.447 -1.3134 -1.1391 -0.3293
 2012SOL     OW17494   0.803   4.632   3.018 -0.3185 -0.3788 -0.6396
 2012SOL    HW117495   0.802   4.613   2.925 -1.7708  0.5190 -0.8195
 2012SOL    HW217496   0.857   4.711   3.009 -2.2258  1.1473  0.9972
 2013SOL     OW17497   0.101   2.671  14.777 -0.3046 -0.2463  0.4548
 2013SOL    HW117498   0.101   2.759  14.739  2.3614  0.4371  2.0159
 2013SOL    HW217499   0.138   2.614  14.710 -0.4683  0.6173 -0.3679
 2014SOL     OW17500   4.548   3.706   3.060 -0.5706 -0.0801 -0.1125
 2014SOL    HW117501   4.551   3.613   3.035  1.0679 -0.8694  3.0973
 2014SOL    HW217502   4.546   3.705   3.155 -1.7062  2.5115 -0.1208
 2015SOL     OW17503   4.554   0.688   1.705 -0.3459  0.6330  0.2561
 2015SOL    HW117504   4.480   0.653   1.755  0.9554 -0.6184  1.2793
 2015SOL    HW217505   4.613   0.614   1.691 -0.5664  0.5785 -0.4052
 2016SOL     OW17506   3.891   3.995  16.969  0.3446  0.6927  0.0391
 2016SOL    HW117507   3.942   3.916  16.953 -0.0165  0.7665 -1.4664
 2016SOL    HW217508   3.914   4.013  17.060  0.0623  0.9621  0.0570
 2017SOL     OW17509   3.755   1.735   3.268  0.2694 -0.1326 -0.7397
 2017SOL    HW117510   3.667   1.716   3.236 -0.3579 -0.4931  1.1834
 2017SOL    HW217511   3.746   1.712   3.361  2.5095  2.0110 -0.0054
 2018SOL     OW17512   0.257   3.953  17.086  0.0883 -0.1251  0.0316
 2018SOL    HW117513   0.297   3.870  17.062  1.1892  0.8044 -1.3596
 2018SOL    HW217514   0.326   4.016  17.062  0.3528 -0.4874 -0.1500
 2019SOL     OW17515   4.152   0.339   8.832 -0.1525 -0.2853 -0.4615
 2019SOL    HW117516   4.245   0.343   8.810 -0.1917 -2.9066 -1.0157
 2019SOL    HW217517   4.133   0.248   8.854  0.1048  0.0058  1.0051
 2020SOL     OW17518   3.495   0.584   0.257  0.4807  0.2752 -0.2058
 2020SOL    HW117519   3.549   0.561   0.181  1.5984 -1.2498  1.0500
 2020SOL    HW217520   3.412   0.543   0.235  1.0915 -2.0350  1.9205
 2021SOL     OW17521   1.931   3.301   4.400 -0.0233  0.0777  0.0376
 2021SOL    HW117522   1.982   3.277   4.322 -0.7746  2.5284 -1.1923
 2021SOL    HW217523   1.847   3.264   4.375 -0.0096 -0.3595  0.6272
 2022SOL     OW17524   2.474   4.526  15.183 -0.1744 -0.1692 -0.2291
 2022SOL    HW117525   2.496   4.609  15.140 -1.7543 -0.0824 -0.8874
 2022SOL    HW217526   2.488   4.462  15.114 -0.6648 -0.2860 -0.2183
 2023SOL     OW17527   0.491   1.553   7.507 -0.6959  0.4602 -0.1266
 2023SOL    HW117528   0.491   1.512   7.594  2.4141 -1.0099 -0.8617
 2023SOL    HW217529   0.424   1.620   7.525  0.5026  1.5939  0.1171
 2024SOL     OW17530   1.607   3.329   6.936 -0.3827  0.9723  0.1569
 2024SOL    HW117531   1.627   3.240   6.906  0.8986  1.9268 -1.8680
 2024SOL    HW217532   1.511   3.329   6.942 -0.5790  1.3884 -2.9274
 2025SOL     OW17533   0.456   0.761   7.724 -0.1811  0.0260 -0.3574
 2025SOL    HW117534   0.478   0.854   7.720 -0.1662  0.0156 -0.5195
 2025SOL    HW217535   0.496   0.734   7.642  1.1271  0.8610  0.0109
 2026SOL     OW17536   2.323   4.315   1.567 -0.1038 -0.5800 -0.3534
 2026SOL    HW117537   2.228   4.306   1.565 -0.2315  0.4747  1.2312
 2026SOL    HW217538   2.335   4.408   1.589 -0.0961 -0.2648 -1.6811
 2027SOL     OW17539   4.139   2.383  17.493  0.4581  0.2728  0.7504
 2027SOL    HW117540   4.155   2.367  17.586  0.2055  2.1240  1.1232
 2027SOL    HW217541   4.065   2.442  17.504  0.9201  1.1880 -1.1065
 2028SOL     OW17542   0.453   3.850   2.958  0.5327  0.2121  0.1567
 2028SOL    HW117543   0.364   3.841   2.925 -0.3692 -0.0145  2.6094
 2028SOL    HW217544   0.468   3.935   2.917 -0.4971 -0.0530 -0.7540
 2029SOL     OW17545   2.272   0.485   1.188 -0.3353 -0.4415  0.2194
 2029SOL    HW117546   2.326   0.429   1.132 -0.8504  0.3098 -1.0449
 2029SOL    HW217547   2.242   0.429   1.259  2.1241 -2.8144 -0.6492
 2030SOL     OW17548   3.972   3.302   6.965  0.7677  0.1972  0.5228
 2030SOL    HW117549   3.959   3.257   7.048 -2.1367 -1.5230 -0.8539
 2030SOL    HW217550   4.049   3.251   6.940  0.0680 -0.4338 -0.3576
 2031SOL     OW17551   2.528   1.413  13.579  0.1617 -0.5092  0.2745
 2031SOL    HW117552   2.459   1.385  13.519  0.2684 -2.2291  0.9517
 2031SOL    HW217553   2.492   1.413  13.667 -1.2981 -0.2558 -0.3220
 2032SOL     OW17554   4.390   4.047  12.843 -0.4296 -0.0543  0.5757
 2032SOL    HW117555   4.448   4.076  12.913 -0.6867 -0.0792  0.7961
 2032SOL    HW217556   4.320   4.009  12.896  1.2301 -1.1794  1.9311
 2033SOL     OW17557   1.061   2.095  12.670 -0.3514 -0.5072 -0.2024
 2033SOL    HW117558   0.999   2.165  12.691 -1.4563  0.3779 -6.6738
 2033SOL    HW217559   1.034   2.073  12.581 -0.3332 -0.6689 -0.1681
 2034SOL     OW17560   2.828   3.174   0.596  0.3910 -0.4914 -0.0845
 2034SOL    HW117561   2.750   3.136   0.636 -0.8955  1.8445 -0.3530
 2034SOL    HW217562   2.795   3.178   0.506 -3.1458 -0.7080  1.2179
 2035SOL     OW17563   3.722   3.986   8.504  0.4013  0.3712 -0.3535
 2035SOL    HW117564   3.771   3.960   8.426  0.5515 -0.7606  0.1198
 2035SOL    HW217565   3.693   3.896   8.519 -0.7426  0.4399 -2.1765
 2036SOL     OW17566   1.443   3.603   3.860  0.1841 -0.0113  0.5230
 2036SOL    HW117567   1.470   3.559   3.940  1.2320 -0.3077  0.0143
 2036SOL    HW217568   1.498   3.577   3.786  0.5172  0.8559  0.4550
 2037SOL     OW17569   1.526   4.127   5.819 -0.2524  0.4794 -0.0563
 2037SOL    HW117570   1.498   4.163   5.735 -0.2268  0.3430 -0.1239
 2037SOL    HW217571   1.442   4.110   5.860 -0.3434 -0.8512 -0.7582
 2038SOL     OW17572   3.748   2.485   4.248 -0.2967 -0.8999 -0.3994
 2038SOL    HW117573   3.696   2.471   4.168 -0.2900 -2.4125 -0.1423
 2038SOL    HW217574   3.813   2.414   4.247  0.3888 -0.2653  0.3292
 2039SOL     OW17575   3.973   0.467   5.546 -0.9115 -0.0460  0.3317
 2039SOL    HW117576   3.939   0.382   5.574  0.4549 -1.5204 -2.4576
 2039SOL    HW217577   4.009   0.455   5.458  2.2709 -0.6883  1.6872
 2040SOL     OW17578   2.140   2.797   1.630 -0.5549 -0.1977  0.0844
 2040SOL    HW117579   2.226   2.775   1.596 -0.1224  1.5042  0.0743
 2040SOL    HW217580   2.121   2.881   1.590  1.1050 -0.2198 -0.7447
 2041SOL     OW17581   1.715   3.669   8.208  0.4614 -0.0424 -0.1483
 2041SOL    HW117582   1.629   3.652   8.247  0.5710 -0.8134 -0.2495
 2041SOL    HW217583   1.719   3.633   8.119  0.9252  0.3385 -0.2825
 2042SOL     OW17584   2.458   0.858   1.868 -0.1823  1.1489  0.1398
 2042SOL    HW117585   2.395   0.928   1.879  0.7731  2.0320 -0.0171
 2042SOL    HW217586   2.409   0.781   1.895  0.1966  0.0409 -2.3017
 2043SOL     OW17587   0.635   0.379   7.011  0.0187  0.3958  0.2322
 2043SOL    HW117588   0.620   0.354   7.102  0.1812  2.6092  0.8695
 2043SOL    HW217589   0.654   0.291   6.979 -0.1647  1.2969 -2.3831
 2044SOL     OW17590   0.107   0.460   8.966  0.4640  0.3695  0.3179
 2044SOL    HW117591   0.107   0.437   8.873  3.0801 -0.8363  0.6201
 2044SOL    HW217592   0.022   0.504   8.970  1.0140  1.3778  1.0543
 2045SOL     OW17593   3.894   1.847  15.629  0.2610  0.2548 -0.3204
 2045SOL    HW117594   3.822   1.855  15.567 -0.4385  1.0213  0.5743
 2045SOL    HW217595   3.875   1.762  15.668  1.1804 -0.5101 -1.5300
 2046SOL     OW17596   0.775   2.392   8.715  0.2948  0.3613 -0.3221
 2046SOL    HW117597   0.710   2.332   8.678  0.1285 -0.8189  1.8969
 2046SOL    HW217598   0.718   2.469   8.713 -0.1685  0.0050 -0.8179
 2047SOL     OW17599   2.048   0.304   3.882 -0.1220  0.0997  0.3728
 2047SOL    HW117600   2.130   0.259   3.901 -0.7104 -1.6593 -1.2570
 2047SOL    HW217601   2.021   0.320   3.972 -0.5963 -0.4013  0.3131
 2048SOL     OW17602   1.518   1.625  16.251 -0.1638 -0.4028  0.0195
 2048SOL    HW117603   1.507   1.533  16.228  0.9507 -0.9759  1.7549
 2048SOL    HW217604   1.478   1.629  16.338 -0.8802  2.6767 -0.4674
 2049SOL     OW17605   4.631   1.927  11.309  0.0681  0.6719 -0.1248
 2049SOL    HW117606   4.596   1.870  11.240 -0.9968  0.2363  0.7838
 2049SOL    HW217607   4.592   2.011  11.285 -0.0768  0.2278 -1.4809
 2050SOL     OW17608   4.524   2.473   4.814 -0.2491 -0.1022 -0.1639
 2050SOL    HW117609   4.573   2.494   4.893  1.6997 -2.1681 -0.8221
 2050SOL    HW217610   4.581   2.524   4.756 -0.5225 -0.7437 -1.0047
 2051SOL     OW17611   1.104   3.041   0.502  0.0402 -0.2867  0.5959
 2051SOL    HW117612   1.068   2.952   0.506 -0.5218 -0.1421 -1.5108
 2051SOL    HW217613   1.195   3.016   0.485  0.0513  0.0915  0.0970
 2052SOL     OW17614   4.164   2.032   5.988 -0.4449 -0.2029 -0.3200
 2052SOL    HW117615   4.074   2.054   6.011  0.7615  3.8420  0.5443
 2052SOL    HW217616   4.171   2.021   5.893  0.8929 -0.2694 -0.2177
 2053SOL     OW17617   2.999   4.712   5.313 -0.1941  0.9404 -0.0674
 2053SOL    HW117618   2.996   4.662   5.231 -0.4292  2.5088 -1.0115
 2053SOL    HW217619   2.930   4.666   5.361 -0.7434  1.6908 -0.1376
 2054SOL     OW17620   1.627   1.027  12.376  0.3173 -0.1907 -0.1541
 2054SOL    HW117621   1.605   1.024  12.469  0.9322 -1.7980 -0.0585
 2054SOL    HW217622   1.689   0.955  12.363  0.8422  0.3099 -0.4128
 2055SOL     OW17623   1.630   2.223   4.442  0.0511 -0.1935  0.2018
 2055SOL    HW117624   1.567   2.160   4.477 -1.6492  0.8771 -0.9193
 2055SOL    HW217625   1.569   2.290   4.412 -0.8983 -1.9548 -1.8030
 2056SOL     OW17626   2.461   0.890   6.928 -0.2014 -0.3049  0.0757
 2056SOL    HW117627   2.498   0.929   6.850 -0.7074 -3.3861 -1.7214
 2056SOL    HW217628   2.374   0.885   6.890  0.3240  1.3874 -1.3309
 2057SOL     OW17629   3.895   2.611   1.773  0.3833 -0.5038  0.0463
 2057SOL    HW117630   3.908   2.671   1.847 -0.7212 -1.6849  1.1881
 2057SOL    HW217631   3.810   2.570   1.792 -0.1626 -0.8670 -3.2310
 2058SOL     OW17632   3.879   4.329   5.482 -0.4065 -0.0807  0.2544
 2058SOL    HW117633   3.872   4.424   5.491  1.6985  0.0493  0.6083
 2058SOL    HW217634   3.798   4.299   5.441 -0.0961 -1.9558  1.0499
 2059SOL     OW17635   2.155   2.951   8.392 -0.0034  0.2090  0.2638
 2059SOL    HW117636   2.206   3.024   8.428 -0.3162 -0.6415  2.4656
 2059SOL    HW217637   2.136   2.981   8.303 -1.5276 -1.9580 -0.1372
 2060SOL     OW17638   1.587   4.085   8.588 -0.3967 -0.0955 -0.2843
 2060SOL    HW117639   1.617   4.004   8.631  0.3722  0.4186  0.1467
 2060SOL    HW217640   1.505   4.055   8.548  0.1830 -1.0171 -0.7797
 2061SOL     OW17641   0.303   1.659   6.848  0.5481 -0.3600  0.4861
 2061SOL    HW117642   0.301   1.591   6.781 -1.4676  1.2225 -1.0779
 2061SOL    HW217643   0.249   1.615   6.913 -0.3025 -0.3291 -0.1975
 2062SOL     OW17644   3.152   3.846  13.344  0.2555  0.0732  0.3402
 2062SOL    HW117645   3.238   3.844  13.386  0.2559 -1.1987  0.2523
 2062SOL    HW217646   3.173   3.853  13.251 -0.0802  1.2125  0.3402
 2063SOL     OW17647   2.273   3.849   6.628  0.2557  0.2121 -0.4587
 2063SOL    HW117648   2.343   3.789   6.655  1.7279  2.4667  0.7287
 2063SOL    HW217649   2.324   3.930   6.635 -0.8039  0.7340  1.4510
 2064SOL     OW17650   1.459   0.575  14.367  0.1571 -0.0335  0.4230
 2064SOL    HW117651   1.460   0.567  14.463  3.4664  3.0905  0.6394
 2064SOL    HW217652   1.533   0.525  14.333  0.2091  1.1359 -1.1826
 2065SOL     OW17653   2.372   3.544   0.397 -0.5211 -0.6400 -0.5977
 2065SOL    HW117654   2.390   3.614   0.460 -0.9729 -0.2988 -0.8563
 2065SOL    HW217655   2.294   3.502   0.432  0.8617 -1.1995  1.8561
 2066SOL     OW17656   1.573   2.177   8.827 -0.7521 -0.3782 -0.3684
 2066SOL    HW117657   1.536   2.238   8.890  0.7061  0.5825 -0.4380
 2066SOL    HW217658   1.527   2.215   8.752 -0.4236 -0.0150 -0.3907
 2067SOL     OW17659   0.747   2.200  10.890 -0.2362 -0.2136  0.1034
 2067SOL    HW117660   0.833   2.196  10.848 -0.2965 -1.4673  0.1205
 2067SOL    HW217661   0.704   2.270  10.840  0.3674 -0.8202 -1.2797
 2068SOL     OW17662   3.305   1.876   7.014  0.1645  0.6904  0.3225
 2068SOL    HW117663   3.361   1.894   6.938 -0.1248  0.9669  0.1713
 2068SOL    HW217664   3.360   1.880   7.092  1.7224  1.3003 -0.8157
 2069SOL     OW17665   0.761   1.428   3.870 -0.0032 -0.3677  0.0128
 2069SOL    HW117666   0.687   1.479   3.903  2.1348  1.5770  1.7758
 2069SOL    HW217667   0.813   1.418   3.950 -1.3026  1.5310  1.0971
 2070SOL     OW17668   3.868   4.198  10.900 -0.1390 -0.1759  0.0238
 2070SOL    HW117669   3.932   4.202  10.828 -0.6860  1.1160 -0.4032
 2070SOL    HW217670   3.802   4.256  10.862  0.5891 -0.1326 -1.1649
 2071SOL     OW17671   1.724   2.459   2.052 -0.2412 -0.3194  0.0928
 2071SOL    HW117672   1.754   2.372   2.079 -2.5469 -1.5724 -1.3450
 2071SOL    HW217673   1.660   2.475   2.120 -0.4910  1.1381 -0.5027
 2072SOL     OW17674   0.478   3.408   6.561  0.0605  0.3048 -0.2403
 2072SOL    HW117675   0.511   3.365   6.482  0.7727  0.6345 -0.1233
 2072SOL    HW217676   0.541   3.371   6.623  0.4562 -0.5593 -1.1650
 2073SOL     OW17677   3.767   4.018   7.335 -0.6108  0.8822 -0.0643
 2073SOL    HW117678   3.674   4.000   7.327 -0.4496 -0.0848  0.3054
 2073SOL    HW217679   3.768   4.058   7.422  0.7731 -0.6170  0.6030
 2074SOL     OW17680   2.390   0.011   4.983  0.1850 -0.1893 -0.1895
 2074SOL    HW117681   2.462   4.669   4.981  1.5685  1.3339  0.5058
 2074SOL    HW217682   2.441   0.079   5.027  0.5632  0.1211 -1.0999
 2075SOL     OW17683   0.817   3.713   5.011 -0.8757  0.3510 -0.4850
 2075SOL    HW117684   0.729   3.753   5.010 -0.7793  0.5390 -1.2835
 2075SOL    HW217685   0.809   3.642   4.947 -0.2147 -0.4869  0.3758
 2076SOL     OW17686   4.175   1.491   3.192  0.5550  0.0934  0.3678
 2076SOL    HW117687   4.089   1.531   3.183 -0.9356 -3.5640 -1.6680
 2076SOL    HW217688   4.159   1.412   3.141  0.4998 -0.5688  1.4033
 2077SOL     OW17689   3.254   4.116   6.632  0.8849  0.0327  0.1543
 2077SOL    HW117690   3.223   4.197   6.592 -1.4285 -1.0178 -0.1414
 2077SOL    HW217691   3.322   4.146   6.692  0.1924  0.0127  0.9452
 2078SOL     OW17692   2.464   1.307   5.088  0.6917  0.4805 -0.0247
 2078SOL    HW117693   2.393   1.368   5.109 -0.8860 -0.8963 -1.4327
 2078SOL    HW217694   2.437   1.231   5.140  2.0201 -0.0859 -0.1488
 2079SOL     OW17695   2.733   4.225   4.865  0.4872  0.1173 -0.1569
 2079SOL    HW117696   2.734   4.306   4.816 -2.0526  1.3457  1.8142
 2079SOL    HW217697   2.722   4.154   4.801 -3.6268  1.1584 -0.6354
 2080SOL     OW17698   0.714   0.497   2.542 -0.5900  0.5126  0.5427
 2080SOL    HW117699   0.763   0.564   2.495 -0.5533 -0.7151 -1.1693
 2080SOL    HW217700   0.625   0.519   2.514  0.2102  1.2629 -1.4071
 2081SOL     OW17701   2.859   0.941   9.075  0.5781  0.1188  0.4385
 2081SOL    HW117702   2.882   1.033   9.065  1.5029  0.0852  2.2228
 2081SOL    HW217703   2.788   0.945   9.140 -1.1995 -1.2843 -1.4084
 2082SOL     OW17704   1.560   2.402  16.836 -0.0521  0.4979  0.3422
 2082SOL    HW117705   1.548   2.450  16.754 -1.2998 -3.0669 -1.5387
 2082SOL    HW217706   1.655   2.410  16.847  0.2954 -1.2450 -1.4339
 2083SOL     OW17707   1.982   2.484  11.478 -0.1352 -0.4210  0.2647
 2083SOL    HW117708   1.894   2.512  11.503  0.3279  0.8790  0.4248
 2083SOL    HW217709   2.032   2.554  11.520  0.4776  0.1869 -1.4380
 2084SOL     OW17710   4.461   4.251   5.054  0.3524 -0.1397  0.3255
 2084SOL    HW117711   4.494   4.314   5.118  0.8657  1.6297 -1.6487
 2084SOL    HW217712   4.496   4.167   5.083  0.6952 -0.7966 -1.9771
 2085SOL     OW17713   4.702   1.768   7.353  0.0214  0.3936 -0.0955
 2085SOL    HW117714   4.688   1.826   7.428 -1.1933 -0.3644  0.2719
 2085SOL    HW217715   0.065   1.734   7.378  1.0838 -0.4023 -4.7097
 2086SOL     OW17716   0.147   0.310  15.056  0.8824 -0.3477 -0.2247
 2086SOL    HW117717   0.165   0.386  15.002  2.7851 -2.1781 -2.1604
 2086SOL    HW217718   0.060   0.282  15.026  0.0514 -1.7327  3.4575
 2087SOL     OW17719   4.665   1.179   3.324 -0.5753  0.2107 -0.2995
 2087SOL    HW117720   0.003   1.139   3.262  1.7389  2.3785  0.5485
 2087SOL    HW217721   4.642   1.104   3.378 -4.4085  0.1368 -1.9948
 2088SOL     OW17722   1.681   3.313  11.008  1.0574  0.1651  0.1458
 2088SOL    HW117723   1.693   3.407  11.000  1.0129  0.3458  2.2515
 2088SOL    HW217724   1.656   3.292  10.918 -0.1832  1.1046  0.2694
 2089SOL     OW17725   0.793   0.689   2.364 -0.0302  0.4944  0.1301
 2089SOL    HW117726   0.721   0.681   2.302  1.2938 -1.5463 -1.1532
 2089SOL    HW217727   0.815   0.780   2.349 -2.1257  0.8336 -0.8497
 2090SOL     OW17728   2.788   4.721   7.848  0.4452  0.3011 -0.1843
 2090SOL    HW117729   2.879   4.707   7.822  0.6404  1.7586 -0.2595
 2090SOL    HW217730   2.795   0.019   7.941 -0.3929  1.0159 -0.2851
 2091SOL     OW17731   4.311   3.852   6.828 -0.1467  0.2443 -0.5154
 2091SOL    HW117732   4.336   3.928   6.881  0.7376  0.6634 -1.5241
 2091SOL    HW217733   4.396   3.810   6.818 -0.7212 -0.6434 -1.7650
 2092SOL     OW17734   2.148   1.871   8.312 -0.2737 -0.3508  0.2265
 2092SOL    HW117735   2.197   1.789   8.324  1.1768  0.4306 -0.3936
 2092SOL    HW217736   2.134   1.870   8.217 -0.1145 -2.9803  0.2191
 2093SOL     OW17737   1.343   1.128  11.459 -0.2924  0.0863 -0.1997
 2093SOL    HW117738   1.415   1.120  11.396  0.3386  0.4503  0.4765
 2093SOL    HW217739   1.278   1.065  11.427 -1.3722  1.2614 -0.3212
 2094SOL     OW17740   2.907   4.133  14.500  0.0853 -0.4158 -0.0219
 2094SOL    HW117741   2.847   4.067  14.464  0.8337 -0.7324 -0.7122
 2094SOL    HW217742   2.912   4.205  14.438  0.9442  0.8398  1.4996
 2095SOL     OW17743   2.272   0.952  12.894  0.1264  0.1489  0.5516
 2095SOL    HW117744   2.321   0.881  12.854  1.0043 -0.7747  3.2718
 2095SOL    HW217745   2.226   0.991  12.819  0.4842  0.8173  0.6814
 2096SOL     OW17746   0.521   3.888  10.333  0.3968  0.1811 -0.5852
 2096SOL    HW117747   0.527   3.820  10.401  2.1542  0.5868 -0.3335
 2096SOL    HW217748   0.613   3.912  10.319  0.1211 -0.0542 -2.7178
 2097SOL     OW17749   4.116   3.121  16.879  0.4323  0.0584  0.1069
 2097SOL    HW117750   4.038   3.137  16.826  0.5648  2.3002  0.5834
 2097SOL    HW217751   4.165   3.203  16.877 -0.7920  0.7893  0.3595
 2098SOL     OW17752   1.829   4.331   8.139  0.2308 -0.2881  0.2446
 2098SOL    HW117753   1.778   4.301   8.215 -0.0681 -0.6468 -0.1027
 2098SOL    HW217754   1.777   4.400   8.099  1.8237  2.2803  2.5875
 2099SOL     OW17755   2.304   2.007   1.953  0.4758 -0.7146  0.5422
 2099SOL    HW117756   2.256   2.051   1.884 -0.9905 -1.3004  1.1973
 2099SOL    HW217757   2.280   2.047   2.037 -0.9229  1.8816 -1.0729
 2100SOL     OW17758   1.481   1.335   0.037 -0.7434 -0.0341  0.0904
 2100SOL    HW117759   1.475   1.335   0.133  1.5383 -1.2086  0.2396
 2100SOL    HW217760   1.395   1.305   0.008 -1.1480  1.3260 -0.1114
 2101SOL     OW17761   0.438   4.374  15.971 -0.1760  0.1506  0.2816
 2101SOL    HW117762   0.407   4.294  16.013 -2.3743 -0.0737 -1.7667
 2101SOL    HW217763   0.524   4.378  16.012  0.2918  0.7482 -0.7530
 2102SOL     OW17764   0.879   3.063  14.850  0.2085  0.0139  0.0924
 2102SOL    HW117765   0.894   3.089  14.759 -1.4746 -0.7952 -0.4143
 2102SOL    HW217766   0.916   3.138  14.896 -0.1453  0.1067  0.2170
 2103SOL     OW17767   0.848   0.027   2.451 -0.0666 -0.1432  0.3428
 2103SOL    HW117768   0.871   4.665   2.413  0.3833  0.7404 -1.3986
 2103SOL    HW217769   0.755   0.029   2.428 -0.1155  1.2728  0.6598
 2104SOL     OW17770   0.717   3.936   6.131 -0.6966  0.0860  0.1070
 2104SOL    HW117771   0.674   3.929   6.046  0.2187 -1.2469 -0.2348
 2104SOL    HW217772   0.751   3.847   6.137 -1.5501 -0.1693  1.1046
 2105SOL     OW17773   0.143   2.839   8.127 -0.0852 -0.1966 -0.0370
 2105SOL    HW117774   0.163   2.773   8.193 -0.0948  0.4112  0.5684
 2105SOL    HW217775   0.127   2.915   8.183 -1.3482  0.7616 -1.6902
 2106SOL     OW17776   3.072   0.315  14.469  0.2793 -0.2377 -0.3296
 2106SOL    HW117777   3.094   0.374  14.397 -0.3303  2.2427  1.5297
 2106SOL    HW217778   3.134   0.349  14.533 -0.3597  0.5306 -0.1064
 2107SOL     OW17779   0.901   1.878  12.476  0.0142 -0.3371  0.3708
 2107SOL    HW117780   0.865   1.894  12.389 -1.5005 -0.7757  0.9163
 2107SOL    HW217781   0.825   1.882  12.534 -0.8520 -0.8248 -0.7323
 2108SOL     OW17782   0.002   4.421   7.398  0.0688  0.5561  0.5938
 2108SOL    HW117783   0.061   4.347   7.386 -1.9505 -1.1744  1.2394
 2108SOL    HW217784   4.653   4.362   7.421  1.1001 -0.8082  0.2494
 2109SOL     OW17785   3.666   0.534   9.978 -0.0006 -0.4759 -0.1337
 2109SOL    HW117786   3.742   0.478   9.984 -0.8382 -1.7007 -0.8951
 2109SOL    HW217787   3.617   0.522  10.059 -0.6790 -1.9523 -0.7629
 2110SOL     OW17788   2.654   1.212   6.517 -0.2990 -0.2723 -0.4263
 2110SOL    HW117789   2.719   1.279   6.497 -0.7558 -0.0948 -1.3328
 2110SOL    HW217790   2.581   1.239   6.461  0.0006 -0.2312 -0.7992
 2111SOL     OW17791   3.854   4.116   6.452 -0.4392  1.2004 -0.1411
 2111SOL    HW117792   3.900   4.154   6.527 -1.0482  1.3678  0.1502
 2111SOL    HW217793   3.861   4.023   6.472 -0.4313  0.7946 -2.0891
 2112SOL     OW17794   0.832   0.679  17.520 -0.1190 -0.3639 -0.0801
 2112SOL    HW117795   0.859   0.765  17.489  1.5009 -0.7276  0.3130
 2112SOL    HW217796   0.873   0.678  17.606 -1.0823  4.3380  0.4243
 2113SOL     OW17797   1.033   1.232   8.468 -0.2482  0.6176  0.4101
 2113SOL    HW117798   0.975   1.291   8.516 -0.0847  1.1334 -0.0256
 2113SOL    HW217799   1.015   1.155   8.521  0.6738 -0.7803 -1.3062
 2114SOL     OW17800   3.580   2.947  11.595 -0.0721 -0.0435  0.3183
 2114SOL    HW117801   3.658   2.996  11.621  1.4927 -1.3176 -2.0632
 2114SOL    HW217802   3.611   2.902  11.517  2.1204  0.8746  0.6482
 2115SOL     OW17803   3.769   0.559   1.135 -0.0489  0.1297 -0.6763
 2115SOL    HW117804   3.841   0.620   1.118 -0.2855  1.0848  1.8405
 2115SOL    HW217805   3.706   0.599   1.076  0.1342 -0.7678 -1.4883
 2116SOL     OW17806   0.632   2.147  11.795  0.1006  0.7754  0.3006
 2116SOL    HW117807   0.724   2.167  11.777 -0.2501  1.3928 -0.8239
 2116SOL    HW217808   0.644   2.108  11.881 -1.1035 -0.2143  0.0229
 2117SOL     OW17809   3.589   0.869   7.209  0.3133 -0.2394  0.0138
 2117SOL    HW117810   3.564   0.807   7.141  0.6376 -0.6904  0.3035
 2117SOL    HW217811   3.680   0.893   7.192  0.7089 -3.6191 -2.4684
 2118SOL     OW17812   2.033   1.053  12.993 -1.3951 -0.6609 -0.6622
 2118SOL    HW117813   2.103   0.991  12.970  0.5838  0.6985  1.6958
 2118SOL    HW217814   1.975   0.995  13.042 -0.0774  0.6716  2.4718
 2119SOL     OW17815   2.793   1.919  14.360  0.4305  0.0175  0.0090
 2119SOL    HW117816   2.744   1.926  14.278  1.1926 -0.8951 -0.5389
 2119SOL    HW217817   2.766   1.830  14.384 -0.4791  0.6852  1.4044
 2120SOL     OW17818   0.136   0.879  12.480 -0.1137 -0.2651 -0.4051
 2120SOL    HW117819   0.140   0.966  12.439  2.9177  0.3701  1.1820
 2120SOL    HW217820   0.042   0.871  12.492 -0.2676 -2.2566 -2.9364
 2121SOL     OW17821   0.548   2.969  16.657  0.4603  0.3709  0.5426
 2121SOL    HW117822   0.600   2.997  16.732  2.6432  0.9804 -1.2105
 2121SOL    HW217823   0.541   3.051  16.608 -2.1905  0.8122  1.6685
 2122SOL     OW17824   1.681   4.090   2.773  0.6344  0.0154 -0.1121
 2122SOL    HW117825   1.592   4.060   2.794 -0.2505  1.4240 -1.8438
 2122SOL    HW217826   1.679   4.184   2.788 -0.8679 -0.3343  1.8403
 2123SOL     OW17827   1.271   3.111   4.563  0.1564 -0.3329  0.1401
 2123SOL    HW117828   1.292   3.133   4.472  1.0370 -3.0821 -0.3254
 2123SOL    HW217829   1.283   3.194   4.610  2.5784  1.0589 -2.9355
 2124SOL     OW17830   0.628   1.781   7.823  0.3657  0.2470 -0.3704
 2124SOL    HW117831   0.685   1.736   7.760 -2.1423 -0.4615 -2.1162
 2124SOL    HW217832   0.681   1.855   7.854  1.8904 -1.2245  0.5373
 2125SOL     OW17833   4.580   2.811   1.560  0.1740  0.2284 -0.3344
 2125SOL    HW117834   4.559   2.851   1.644 -2.3202  1.6870 -1.6553
 2125SOL    HW217835   4.660   2.857   1.534  0.0692  0.0991 -0.8868
 2126SOL     OW17836   4.222   1.969   6.337 -0.0408 -0.0128 -0.2894
 2126SOL    HW117837   4.272   2.000   6.262 -1.8902 -0.1228 -1.5729
 2126SOL    HW217838   4.159   2.039   6.354 -0.6357 -0.4303 -0.7730
 2127SOL     OW17839   0.597   2.934   9.780 -0.4195 -0.3976  0.4738
 2127SOL    HW117840   0.518   2.895   9.819 -0.4953 -0.1011  0.6112
 2127SOL    HW217841   0.616   3.022   9.811  2.7772 -0.9226 -0.0421
 2128SOL     OW17842   4.641   3.817  13.371 -0.0874  0.2185 -0.2369
 2128SOL    HW117843   4.657   3.911  13.360 -1.5289  0.4363 -0.5053
 2128SOL    HW217844   4.647   3.812  13.466  0.6056 -0.3551 -0.3115
 2129SOL     OW17845   2.426   2.631   0.584  0.3168  0.5653  0.0046
 2129SOL    HW117846   2.354   2.649   0.645 -0.4395  0.7109 -0.9300
 2129SOL    HW217847   2.410   2.538   0.567 -0.4374  0.3177  2.1294
 2130SOL     OW17848   3.993   2.065   0.185 -0.5403 -0.3547 -0.2178
 2130SOL    HW117849   4.085   2.071   0.211  0.0992 -2.9068 -1.9238
 2130SOL    HW217850   3.942   2.124   0.241  0.2165  0.0859  0.0048
 2131SOL     OW17851   0.343   0.942   4.024 -0.3988  0.6789 -0.1997
 2131SOL    HW117852   0.327   0.895   4.105  0.0580 -0.0867 -0.5499
 2131SOL    HW217853   0.261   0.990   4.016 -0.4368  0.3011 -2.2414
 2132SOL     OW17854   4.028   3.844   9.345  0.3434 -0.1348  0.5915
 2132SOL    HW117855   4.075   3.799   9.274 -1.3578 -0.6746 -0.2075
 2132SOL    HW217856   4.039   3.934   9.314 -0.0551 -0.4548 -0.5090
 2133SOL     OW17857   0.729   1.745  15.252 -0.0961  0.3199 -0.0687
 2133SOL    HW117858   0.650   1.769  15.203  1.6181 -0.0517 -3.0039
 2133SOL    HW217859   0.755   1.834  15.273  1.2318 -0.2087  0.4768
 2134SOL     OW17860   4.387   2.796   4.143  0.6938  0.0127 -0.4563
 2134SOL    HW117861   4.347   2.837   4.220  0.3949 -0.4502 -0.3655
 2134SOL    HW217862   4.390   2.702   4.161  1.0821 -0.2427 -1.8156
 2135SOL     OW17863   0.664   3.884   3.709  0.1321  0.2728  0.0869
 2135SOL    HW117864   0.631   3.815   3.651 -1.6337 -1.6523  3.3837
 2135SOL    HW217865   0.701   3.948   3.648 -1.0862 -1.1008 -2.1249
 2136SOL     OW17866   3.379   4.533  16.043  0.0198 -0.8025 -0.2995
 2136SOL    HW117867   3.370   4.603  16.107 -4.4931 -0.6588 -1.1108
 2136SOL    HW217868   3.305   4.560  15.990 -0.8258 -2.4874  0.0176
 2137SOL     OW17869   0.617   1.326   2.417 -0.2440 -0.3312  0.3364
 2137SOL    HW117870   0.557   1.400   2.407 -0.5553 -0.5925  0.3190
 2137SOL    HW217871   0.565   1.254   2.382  0.8956 -2.0344  2.1227
 2138SOL     OW17872   3.422   3.374   7.427  0.1196 -0.1424  0.1604
 2138SOL    HW117873   3.436   3.282   7.404  1.0097  0.4214 -1.5068
 2138SOL    HW217874   3.503   3.417   7.401 -0.5745  0.0820 -1.5744
 2139SOL     OW17875   2.465   0.973  16.547  0.3068 -0.1122 -0.0676
 2139SOL    HW117876   2.511   0.918  16.611 -0.0178  1.1963  1.2997
 2139SOL    HW217877   2.532   0.976  16.480 -0.4084 -1.9276 -0.8637
 2140SOL     OW17878   1.679   4.177  11.492  0.4640 -0.0623 -0.4733
 2140SOL    HW117879   1.651   4.194  11.582 -0.9051 -2.3861 -0.4633
 2140SOL    HW217880   1.722   4.093  11.506  0.7449  0.0399 -0.7113
 2141SOL     OW17881   1.412   1.679   7.064  0.4402  0.3044  0.7699
 2141SOL    HW117882   1.378   1.755   7.017  2.0789  0.9214  0.5932
 2141SOL    HW217883   1.345   1.665   7.131 -0.5808 -2.2645 -0.7562
 2142SOL     OW17884   4.032   2.855  13.665  0.5412  0.2239  0.0456
 2142SOL    HW117885   4.074   2.919  13.608  0.8364  0.3419  0.3925
 2142SOL    HW217886   3.983   2.915  13.721 -0.2747 -1.1547  0.8072
 2143SOL     OW17887   2.019   1.637   3.108  0.1234  0.3619  0.0026
 2143SOL    HW117888   2.064   1.646   3.193 -1.0179  2.1909  0.4202
 2143SOL    HW217889   1.998   1.545   3.119  0.3209  0.3540  0.3412
 2144SOL     OW17890   0.188   1.953   2.218  0.2293 -0.0740  0.1962
 2144SOL    HW117891   0.274   1.916   2.200  0.9280  0.8541  1.6860
 2144SOL    HW217892   0.193   2.030   2.160 -1.0673 -0.6686 -0.7087
 2145SOL     OW17893   0.023   3.274   8.359  0.2020  0.3647 -0.0779
 2145SOL    HW117894   4.716   3.329   8.287  2.4139  2.3900  0.5768
 2145SOL    HW217895   0.045   3.347   8.418 -0.3995  0.3053  0.2265
 2146SOL     OW17896   1.350   2.087   8.175  0.4206  0.2235  0.0367
 2146SOL    HW117897   1.331   2.029   8.249  1.9982  1.1346  1.1531
 2146SOL    HW217898   1.376   2.163   8.227  2.6768 -1.8944  2.0197
 2147SOL     OW17899   3.623   3.357  14.287  0.4041  0.4056 -0.2757
 2147SOL    HW117900   3.574   3.278  14.265 -1.6904  2.1663 -1.9718
 2147SOL    HW217901   3.561   3.426  14.263  0.6058  0.2629 -1.1954
 2148SOL     OW17902   1.020   2.180   4.127 -0.0070 -0.2153 -0.5798
 2148SOL    HW117903   1.080   2.154   4.057 -1.3777 -0.0402 -1.8202
 2148SOL    HW217904   1.037   2.274   4.138  1.5603 -0.5974  0.2430
 2149SOL     OW17905   0.285   0.333   1.902  0.0784 -0.0658  0.1242
 2149SOL    HW117906   0.214   0.276   1.871  1.0149 -1.0223 -0.2414
 2149SOL    HW217907   0.355   0.283   1.861  1.5188  1.3618  0.8822
 2150SOL     OW17908   3.107   2.396  14.449  0.0887  0.4028  0.2102
 2150SOL    HW117909   3.083   2.429  14.536  1.5601  2.4449 -0.1262
 2150SOL    HW217910   3.137   2.477  14.407 -0.2547  0.2555 -0.3175
 2151SOL     OW17911   2.196   0.391   5.651 -0.5315  0.0684  0.0710
 2151SOL    HW117912   2.132   0.463   5.652 -1.2955 -0.6046 -1.1679
 2151SOL    HW217913   2.190   0.356   5.562 -1.2439  0.7294 -0.1447
 2152SOL     OW17914   2.130   1.536  16.081 -0.1473 -0.1433 -0.6189
 2152SOL    HW117915   2.038   1.510  16.076 -0.8898  2.2834  0.2321
 2152SOL    HW217916   2.140   1.534  16.176 -1.1838 -1.0093 -0.5244
 2153SOL     OW17917   1.683   2.271   1.306  0.0195 -0.2212  0.1111
 2153SOL    HW117918   1.729   2.187   1.309  1.8031  0.7195 -1.0044
 2153SOL    HW217919   1.750   2.333   1.277 -1.8339  0.8178 -1.9703
 2154SOL     OW17920   2.228   2.769   0.824  0.7269 -0.2035 -0.7840
 2154SOL    HW117921   2.256   2.846   0.873  1.3646 -0.1309 -1.2636
 2154SOL    HW217922   2.172   2.805   0.755  0.9187  0.2130 -0.7219
 2155SOL     OW17923   1.525   3.773  11.716  0.1756 -0.1906  0.1505
 2155SOL    HW117924   1.514   3.785  11.810  0.4781 -0.5541  0.2323
 2155SOL    HW217925   1.437   3.748  11.685  0.4459  0.9268 -1.5357
 2156SOL     OW17926   1.242   0.512  15.091  0.0950 -0.0033 -0.4981
 2156SOL    HW117927   1.190   0.591  15.074  0.0892  0.1357  0.1986
 2156SOL    HW217928   1.301   0.544  15.159 -0.3463 -2.0564  0.8460
 2157SOL     OW17929   1.332   0.633   8.961 -0.1799  0.1819 -0.6437
 2157SOL    HW117930   1.413   0.583   8.955  1.0423  2.4703 -3.1214
 2157SOL    HW217931   1.295   0.585   9.036  0.9693 -1.8661 -1.3868
 2158SOL     OW17932   1.835   0.801   3.652 -0.3899 -0.2235  0.1426
 2158SOL    HW117933   1.758   0.857   3.660  0.9877  2.0000 -1.7721
 2158SOL    HW217934   1.812   0.728   3.708 -1.4854 -1.5064 -2.0156
 2159SOL     OW17935   2.173   2.857  16.683 -0.7122 -0.0931 -0.0512
 2159SOL    HW117936   2.163   2.867  16.778  0.6167 -0.5157  0.1277
 2159SOL    HW217937   2.264   2.880  16.668 -0.2250 -1.8944  0.1809
 2160SOL     OW17938   1.423   4.394   2.310 -0.1137  0.0056  0.0506
 2160SOL    HW117939   1.505   4.372   2.354  1.1058  2.1871 -1.1621
 2160SOL    HW217940   1.410   4.488   2.324  0.4791 -0.1619  1.7987
 2161SOL     OW17941   0.321   0.254   4.550  0.0417 -0.1216  0.4740
 2161SOL    HW117942   0.329   0.321   4.618 -0.3934 -0.9072  1.2931
 2161SOL    HW217943   0.283   0.183   4.601  0.2659 -0.5674  0.0192
 2162SOL     OW17944   3.368   0.231   9.332 -0.5305  0.7055 -0.2175
 2162SOL    HW117945   3.396   0.250   9.243 -2.0095  0.9781 -0.6155
 2162SOL    HW217946   3.290   0.175   9.327 -0.2884  0.3963 -0.5738
 2163SOL     OW17947   1.455   4.372   3.391 -0.1777  0.0117 -0.1052
 2163SOL    HW117948   1.365   4.340   3.395  0.1469 -1.1032 -1.8238
 2163SOL    HW217949   1.501   4.306   3.443  0.7415  1.3575  0.7934
 2164SOL     OW17950   2.438   3.040  11.951 -0.6529 -0.5388 -0.0703
 2164SOL    HW117951   2.462   2.947  11.954  2.0952  0.2258  1.7227
 2164SOL    HW217952   2.514   3.073  11.999  0.3055 -0.7196 -1.4552
 2165SOL     OW17953   1.800   4.350  13.987  0.0993 -0.4854 -0.1489
 2165SOL    HW117954   1.775   4.435  14.024 -0.3677 -1.1015  0.9401
 2165SOL    HW217955   1.724   4.355  13.929  0.4460 -0.5131 -0.6038
 2166SOL     OW17956   0.331   2.059   5.228 -0.5437 -0.5039 -0.3142
 2166SOL    HW117957   0.335   2.154   5.231  0.6229 -0.5012 -1.9058
 2166SOL    HW217958   0.277   2.046   5.150  0.7256  2.3860 -1.6741
 2167SOL     OW17959   3.055   3.451   2.537 -0.6109  0.0592  0.4937
 2167SOL    HW117960   3.064   3.520   2.471  1.3596  0.4394  1.1351
 2167SOL    HW217961   3.147   3.450   2.564 -0.6421 -0.6668  0.5610
 2168SOL     OW17962   3.385   1.041   7.583  0.0904 -0.0428  0.1662
 2168SOL    HW117963   3.380   0.997   7.668 -1.0777 -2.2740 -1.0656
 2168SOL    HW217964   3.438   0.970   7.547 -1.1612 -1.4252  1.0518
 2169SOL     OW17965   2.717   0.507   2.545 -0.3940 -0.4516 -0.0614
 2169SOL    HW117966   2.622   0.513   2.542 -0.3120  1.3741  0.8754
 2169SOL    HW217967   2.738   0.486   2.454  0.7027  0.1058  0.0593
 2170SOL     OW17968   0.453   2.616   4.888 -0.0762  0.7823  0.5009
 2170SOL    HW117969   0.435   2.522   4.884  2.2556  0.3326  0.5747
 2170SOL    HW217970   0.508   2.632   4.812  0.6531  0.6589  1.0038
 2171SOL     OW17971   3.604   2.634  13.830 -0.5611  0.3486  0.3857
 2171SOL    HW117972   3.653   2.645  13.748 -0.6400  1.5104  0.4960
 2171SOL    HW217973   3.647   2.703  13.880  1.4209 -0.1932 -0.5548
 2172SOL     OW17974   3.460   1.115  14.942 -0.0095  0.1450  0.0677
 2172SOL    HW117975   3.471   1.206  14.913  0.9456 -0.4881 -1.5239
 2172SOL    HW217976   3.520   1.126  15.016  0.5653 -2.6986 -0.0003
 2173SOL     OW17977   2.018   0.814   4.923 -0.7279  0.4875  0.3200
 2173SOL    HW117978   2.029   0.749   4.992  0.9814  0.6220  0.1814
 2173SOL    HW217979   1.944   0.863   4.957  0.9009  3.0159  0.2235
 2174SOL     OW17980   2.942   3.495   5.456 -1.0562  0.2364 -0.3301
 2174SOL    HW117981   2.959   3.569   5.515  0.6142 -0.7834  0.4871
 2174SOL    HW217982   2.920   3.428   5.521  1.6576 -0.7232 -0.3835
 2175SOL     OW17983   4.068   3.525  17.012  0.7155  0.4867 -0.4228
 2175SOL    HW117984   4.021   3.594  16.964  0.9853  1.4373  0.6861
 2175SOL    HW217985   4.157   3.528  16.977  0.5484  2.2210 -0.6903
 2176SOL     OW17986   2.590   4.066  10.469 -0.4890  0.3249  0.2497
 2176SOL    HW117987   2.640   3.992  10.434  1.6071  1.6324  0.4816
 2176SOL    HW217988   2.524   4.023  10.524 -2.9729  0.5861 -2.4960
 2177SOL     OW17989   4.479   4.183   6.384 -0.1754  0.2353 -0.0830
 2177SOL    HW117990   4.421   4.242   6.434  0.0014  0.8884 -0.6516
 2177SOL    HW217991   4.556   4.237   6.401  0.9638 -0.4887 -2.9517
 2178SOL     OW17992   2.100   2.651   1.085 -0.1391  0.8239  0.3913
 2178SOL    HW117993   2.108   2.703   1.005 -0.0353 -0.3957 -0.3860
 2178SOL    HW217994   2.059   2.711   1.148  0.3444  1.9566 -0.3660
 2179SOL     OW17995   4.190   2.998   6.348 -0.1018  0.7285  0.5249
 2179SOL    HW117996   4.156   3.072   6.296 -2.0382 -1.6194 -1.5438
 2179SOL    HW217997   4.222   3.048   6.423  1.7879 -1.0701  0.9101
 2180SOL     OW17998   2.648   3.418   8.230 -0.2083  0.0461  0.3768
 2180SOL    HW117999   2.714   3.351   8.211 -0.8398 -0.4799  0.0430
 2180SOL    HW218000   2.667   3.422   8.323 -2.3331  0.0693  0.7948
 2181SOL     OW18001   1.032   3.541  14.583  0.1852  0.1820 -0.4101
 2181SOL    HW118002   1.016   3.452  14.551  1.9929 -0.2743 -0.0871
 2181SOL    HW218003   1.013   3.524  14.676 -0.1567  1.6166 -0.2276
 2182SOL     OW18004   2.633   0.626   8.157  0.0663 -0.1892  0.0461
 2182SOL    HW118005   2.653   0.704   8.105 -0.2116  0.1201  0.4071
 2182SOL    HW218006   2.722   0.589   8.161 -0.0793 -0.4296  1.3212
 2183SOL     OW18007   1.989   3.641   3.775 -0.0170  0.0355  0.1276
 2183SOL    HW118008   1.985   3.603   3.688  3.5222 -1.7999  0.7541
 2183SOL    HW218009   1.927   3.712   3.757  0.5243  1.0742  2.3653
 2184SOL     OW18010   4.384   2.412   6.218 -0.6104 -0.0382  0.0102
 2184SOL    HW118011   4.308   2.376   6.264 -0.4754 -1.5706 -0.9752
 2184SOL    HW218012   4.352   2.495   6.181 -0.9755  0.4116  1.3049
 2185SOL     OW18013   0.432   0.929   8.624 -0.3555  0.0181  0.3494
 2185SOL    HW118014   0.382   0.929   8.706 -0.8041  0.8438  0.0700
 2185SOL    HW218015   0.514   0.976   8.638 -0.7264  0.9094 -0.5217
 2186SOL     OW18016   4.553   4.085   2.689 -0.0570  0.2771 -0.2216
 2186SOL    HW118017   4.512   4.121   2.768 -0.7612  1.2202 -1.0196
 2186SOL    HW218018   4.477   4.037   2.658  0.3695  0.2278 -1.1918
 2187SOL     OW18019   3.380   2.249  14.361 -0.0099 -0.6046  0.5986
 2187SOL    HW118020   3.438   2.262  14.286 -0.3424 -4.1859 -0.2667
 2187SOL    HW218021   3.420   2.294  14.434  0.8726 -1.0900  0.4137
 2188SOL     OW18022   3.320   2.106  12.130  0.3569  0.0451 -0.0366
 2188SOL    HW118023   3.346   2.127  12.220  0.5245 -0.6379  0.0750
 2188SOL    HW218024   3.227   2.087  12.134  0.6443 -1.3845  0.0439
 2189SOL     OW18025   2.664   4.286   6.599  0.3707  0.1576  0.2084
 2189SOL    HW118026   2.721   4.234   6.655 -1.7450 -1.6140  0.7020
 2189SOL    HW218027   2.714   4.293   6.517 -0.2790 -0.8885 -0.2852
 2190SOL     OW18028   1.116   4.318   6.279 -0.5126 -0.0234  0.5105
 2190SOL    HW118029   1.205   4.330   6.247 -0.6206  0.4152  0.3691
 2190SOL    HW218030   1.102   4.400   6.327  0.4755  0.9635 -0.9181
 2191SOL     OW18031   0.634   1.453   5.440 -0.1649 -0.0790 -0.4078
 2191SOL    HW118032   0.690   1.465   5.517  1.3646 -2.8694 -1.0494
 2191SOL    HW218033   0.659   1.368   5.402 -0.3075 -1.2413  2.0698
 2192SOL     OW18034   0.240   2.028  14.619 -0.2859  0.0085 -0.4092
 2192SOL    HW118035   0.238   1.947  14.670 -0.9714  0.3870  0.1670
 2192SOL    HW218036   0.334   2.038  14.604 -0.2327 -1.5737 -1.1834
 2193SOL     OW18037   2.280   3.574  15.855 -0.4629 -0.1948 -0.0350
 2193SOL    HW118038   2.247   3.484  15.859  1.5049 -0.9095  0.4039
 2193SOL    HW218039   2.205   3.631  15.864 -0.1583  0.5329 -2.1845
 2194SOL     OW18040   3.430   4.465  13.147 -0.2628  0.6681  0.5799
 2194SOL    HW118041   3.453   4.553  13.117  0.8700 -0.4596 -1.8003
 2194SOL    HW218042   3.507   4.410  13.136 -0.4787  0.7702 -1.3595
 2195SOL     OW18043   0.328   1.210   2.127 -0.1829 -0.7539 -0.0560
 2195SOL    HW118044   0.357   1.129   2.086  1.8059  0.0606 -0.2219
 2195SOL    HW218045   0.241   1.227   2.090 -0.1354  2.3247  1.2104
 2196SOL     OW18046   3.426   3.872   5.097  0.3384 -0.0146 -0.2775
 2196SOL    HW118047   3.400   3.880   5.189 -0.6345 -1.0206 -0.4726
 2196SOL    HW218048   3.462   3.959   5.078  2.3500 -1.6086 -3.6482
 2197SOL     OW18049   1.424   1.151   1.634  0.7971 -0.1515 -0.0599
 2197SOL    HW118050   1.479   1.226   1.657 -1.7011  1.5969  0.1960
 2197SOL    HW218051   1.429   1.092   1.710 -0.1015 -0.4290 -0.2172
 2198SOL     OW18052   3.808   3.400  11.268  0.6050  0.7195  0.6451
 2198SOL    HW118053   3.772   3.321  11.308  0.6683  0.8542  0.9727
 2198SOL    HW218054   3.890   3.373  11.228  0.6701  1.7599  0.0704
 2199SOL     OW18055   3.789   1.918   2.574 -0.0287 -0.2044 -0.1755
 2199SOL    HW118056   3.790   2.009   2.544  1.4468 -0.2569 -0.2546
 2199SOL    HW218057   3.731   1.879   2.508 -0.5847  0.7958 -0.2853
 2200SOL     OW18058   4.237   2.141  10.809 -0.0235  0.3469  0.2481
 2200SOL    HW118059   4.150   2.127  10.846  0.5470  0.0553  1.4810
 2200SOL    HW218060   4.254   2.231  10.837 -1.2204  0.2046  1.4866
 2201SOL     OW18061   2.478   2.869   7.370  0.5355  0.1413  0.6230
 2201SOL    HW118062   2.437   2.954   7.386  1.0617  0.9861 -2.3643
 2201SOL    HW218063   2.511   2.845   7.456  1.1417 -0.9486  0.0887
 2202SOL     OW18064   3.997   1.352  12.504  0.0041  0.1618  0.2950
 2202SOL    HW118065   4.035   1.316  12.584 -0.2093 -0.9636 -0.1058
 2202SOL    HW218066   3.950   1.274  12.474  0.1677  0.0888  0.2273
 2203SOL     OW18067   1.694   3.307   2.388  0.0939  0.1173 -0.7877
 2203SOL    HW118068   1.661   3.217   2.389  2.2341 -0.6135  1.3286
 2203SOL    HW218069   1.628   3.338   2.325  1.4977  1.3898 -1.6214
 2204SOL     OW18070   3.079   2.514   8.250  0.1342 -0.2187  0.3820
 2204SOL    HW118071   3.023   2.591   8.242  0.9828  0.5556  1.8372
 2204SOL    HW218072   3.020   2.451   8.290  0.2568 -1.5431 -1.5210
 2205SOL     OW18073   3.452   3.099  16.411 -0.5440 -0.4235 -0.2865
 2205SOL    HW118074   3.496   3.029  16.460 -2.5070  0.7785  3.1746
 2205SOL    HW218075   3.362   3.067  16.411 -0.6616 -0.0523 -2.5575
 2206SOL     OW18076   3.228   1.168  10.249 -0.2740  0.3386 -0.1550
 2206SOL    HW118077   3.264   1.080  10.235 -1.3632 -0.1714  0.2578
 2206SOL    HW218078   3.203   1.164  10.341 -2.2527 -1.0776 -0.7437
 2207SOL     OW18079   0.997   3.950   4.935  0.2524 -0.2278  0.3533
 2207SOL    HW118080   0.944   3.878   4.969  0.4164 -0.9874 -0.9997
 2207SOL    HW218081   1.085   3.913   4.945  0.6369  1.0509  1.7683
 2208SOL     OW18082   3.840   1.538  12.768 -0.4732 -0.2874  0.5387
 2208SOL    HW118083   3.902   1.468  12.790 -0.1550  0.1075  0.8991
 2208SOL    HW218084   3.890   1.619  12.774 -1.2096  0.3272 -1.5723
 2209SOL     OW18085   3.537   1.325   3.425 -0.5569  0.6621 -0.2606
 2209SOL    HW118086   3.521   1.329   3.330 -1.0307 -1.7716 -0.2743
 2209SOL    HW218087   3.629   1.301   3.412 -0.4586 -0.7316  3.1758
 2210SOL     OW18088   4.533   3.676   8.059  0.7199 -0.1318 -0.1772
 2210SOL    HW118089   4.437   3.679   8.059  0.6879 -0.9024  1.3613
 2210SOL    HW218090   4.531   3.591   8.015  0.8128  0.5044 -1.3781
 2211SOL     OW18091   1.936   0.366   8.206 -0.5264 -0.3372  0.0285
 2211SOL    HW118092   1.913   0.373   8.113 -0.4906  1.9332  0.1913
 2211SOL    HW218093   2.032   0.372   8.204 -0.5849  0.8103  0.9884
 2212SOL     OW18094   3.603   0.792   7.960 -0.0228 -0.0795 -0.3925
 2212SOL    HW118095   3.686   0.744   7.970  0.1827  0.7211  1.9467
 2212SOL    HW218096   3.574   0.767   7.873 -0.2594 -0.1499 -0.2926
 2213SOL     OW18097   2.237   1.624   2.225 -0.9851  0.2596 -0.7248
 2213SOL    HW118098   2.314   1.654   2.177  0.1077  0.0400  0.8989
 2213SOL    HW218099   2.176   1.698   2.229  0.7766  1.4921  2.5864
 2214SOL     OW18100   4.318   4.455   4.283  0.3095  0.4719 -0.2727
 2214SOL    HW118101   4.242   4.498   4.321  1.5925  0.9049  1.8656
 2214SOL    HW218102   4.373   4.527   4.254  1.0835 -0.4077 -1.0137
 2215SOL     OW18103   4.461   4.719   5.248  0.6855  0.5597  0.0492
 2215SOL    HW118104   4.482   0.038   5.332  2.1562  0.0497 -0.0715
 2215SOL    HW218105   4.377   0.040   5.235  0.1731 -0.3726  0.1806
 2216SOL     OW18106   2.771   1.917   9.068 -0.5696 -0.0927  0.5767
 2216SOL    HW118107   2.740   1.888   9.154 -1.2250 -1.7657 -0.2293
 2216SOL    HW218108   2.692   1.940   9.020 -0.1643  1.7795  0.8133
 2217SOL     OW18109   1.416   4.286  15.678 -0.5941  0.1203 -0.2209
 2217SOL    HW118110   1.405   4.257  15.587 -3.3618 -2.3842  0.9407
 2217SOL    HW218111   1.440   4.205  15.723 -1.2909  1.2240  2.1248
 2218SOL     OW18112   1.376   3.114   6.554  0.1102  0.5183 -0.7227
 2218SOL    HW118113   1.388   3.025   6.522 -1.2141  0.6275 -1.4986
 2218SOL    HW218114   1.288   3.138   6.524 -0.3244 -1.1645 -0.7638
 2219SOL     OW18115   3.326   0.520  17.223  0.5641 -0.4417 -0.2490
 2219SOL    HW118116   3.352   0.537  17.314  1.7575 -0.5581 -0.5612
 2219SOL    HW218117   3.263   0.451  17.240 -2.1652  1.6956 -1.7375
 2220SOL     OW18118   1.700   2.004   5.176  0.3885 -0.2149 -0.1801
 2220SOL    HW118119   1.725   1.997   5.084 -1.3062 -2.4773 -0.4677
 2220SOL    HW218120   1.712   2.098   5.184  2.7514 -0.6062  1.2646
 2221SOL     OW18121   3.481   2.695   8.146 -0.3522 -0.2950 -0.2468
 2221SOL    HW118122   3.418   2.663   8.209 -1.7852 -0.1606 -1.6059
 2221SOL    HW218123   3.487   2.784   8.181  0.2770  0.4104 -2.1041
 2222SOL     OW18124   3.919   3.186   7.688  0.3009  0.0944 -0.0371
 2222SOL    HW118125   3.850   3.223   7.633 -0.2238  1.2324  1.3860
 2222SOL    HW218126   3.936   3.102   7.645  0.2553 -0.4488  1.0093
 2223SOL     OW18127   3.324   3.665   3.799  0.4275 -0.0753 -0.8392
 2223SOL    HW118128   3.390   3.733   3.785  0.1721  0.6707  1.6540
 2223SOL    HW218129   3.371   3.596   3.845  1.1012 -0.9201 -2.7853
 2224SOL     OW18130   2.001   0.637   5.607 -0.0749  0.0695  0.6604
 2224SOL    HW118131   1.919   0.685   5.619 -0.0650  0.1844  0.2664
 2224SOL    HW218132   2.067   0.704   5.592 -0.8326  0.3570 -1.3601
 2225SOL     OW18133   3.135   3.150   7.763 -0.6260  0.1047 -0.4740
 2225SOL    HW118134   3.146   3.241   7.735  1.1428  0.0432  0.0702
 2225SOL    HW218135   3.095   3.159   7.850 -2.0819  1.1808 -1.2452
 2226SOL     OW18136   2.853   3.452  12.326  0.3140  0.5213  0.6190
 2226SOL    HW118137   2.822   3.422  12.411  2.4277 -2.1879  0.4409
 2226SOL    HW218138   2.827   3.376  12.275  0.5724  2.1038 -1.9175
 2227SOL     OW18139   1.074   3.062   7.130 -0.2528 -0.5473 -0.2017
 2227SOL    HW118140   1.164   3.069   7.164 -0.8479 -1.5944  1.6098
 2227SOL    HW218141   1.074   3.112   7.049 -2.4799 -0.1444  0.0530
 2228SOL     OW18142   4.463   2.496  14.398  0.4972 -0.0269  0.2788
 2228SOL    HW118143   4.401   2.485  14.471  0.7428 -0.4342  0.4300
 2228SOL    HW218144   4.425   2.569  14.350 -0.3488  0.6037  1.9188
 2229SOL     OW18145   2.757   2.053   4.813 -0.4996  0.0841 -0.2972
 2229SOL    HW118146   2.760   2.141   4.774  0.1148  0.1041 -0.2054
 2229SOL    HW218147   2.687   2.019   4.757 -1.7997 -1.0470  2.0228
 2230SOL     OW18148   1.153   1.386   9.659 -0.3730 -0.1793  0.1248
 2230SOL    HW118149   1.120   1.306   9.701 -2.7885  0.1369 -1.1623
 2230SOL    HW218150   1.202   1.418   9.735 -2.6639  1.0631  1.0900
 2231SOL     OW18151   2.022   2.298  11.272 -0.1370  0.1287  0.0371
 2231SOL    HW118152   1.989   2.355  11.342 -1.0678  0.9012 -1.0247
 2231SOL    HW218153   2.053   2.371  11.218 -1.4732 -0.8095 -2.0447
 2232SOL     OW18154   1.675   0.973   5.796 -0.4080  0.3580  0.4033
 2232SOL    HW118155   1.685   1.067   5.812  2.2617  0.3380 -1.2152
 2232SOL    HW218156   1.581   0.955   5.799 -0.1318 -1.0425  0.6719
 2233SOL     OW18157   0.718   1.447   2.631  0.7430  0.0987  0.2907
 2233SOL    HW118158   0.724   1.536   2.596  3.3169 -0.1127  0.2240
 2233SOL    HW218159   0.730   1.397   2.550 -1.5827  0.1781 -0.1090
 2234SOL     OW18160   4.386   4.030   3.399 -0.1049 -0.6623  0.2601
 2234SOL    HW118161   4.368   4.055   3.308 -0.6053  0.8398  0.7710
 2234SOL    HW218162   4.352   4.105   3.448 -0.3458  0.6012 -1.8386
 2235SOL     OW18163   2.009   1.522  17.302  0.1429 -0.0192  0.2078
 2235SOL    HW118164   2.019   1.613  17.330  2.0320  0.3162 -1.5301
 2235SOL    HW218165   1.927   1.508  17.350  0.7889 -1.6908  0.8311
 2236SOL     OW18166   3.395   1.702   8.308  0.8489  0.3074 -0.5372
 2236SOL    HW118167   3.369   1.785   8.349 -2.6070 -1.2025  0.2913
 2236SOL    HW218168   3.383   1.727   8.216  1.3455  0.5758 -0.5312
 2237SOL     OW18169   0.436   3.406   0.003  0.2723  0.0710  0.2793
 2237SOL    HW118170   0.451   3.395   0.097  3.0140  0.2322 -0.1335
 2237SOL    HW218171   0.526   3.425  17.667 -0.2186 -0.0289 -1.3680
 2238SOL     OW18172   4.424   3.490   7.731 -1.1380 -0.3380  0.7770
 2238SOL    HW118173   4.382   3.442   7.660  2.3234 -0.1805 -1.3750
 2238SOL    HW218174   4.380   3.573   7.718  1.9265  1.6055  2.8147
 2239SOL     OW18175   1.205   3.138  10.631 -0.3411  0.0947  0.1738
 2239SOL    HW118176   1.138   3.177  10.686  0.2094 -3.3796  3.2507
 2239SOL    HW218177   1.283   3.177  10.671  0.9320  0.0955 -2.2576
 2240SOL     OW18178   2.847   0.672   6.239  0.1983 -0.5684  0.3328
 2240SOL    HW118179   2.773   0.613   6.229 -2.8625  3.3811 -0.3324
 2240SOL    HW218180   2.803   0.747   6.279 -0.8716  0.2220 -2.3223
 2241SOL     OW18181   3.407   0.394  14.420 -0.1817  0.0505  0.3378
 2241SOL    HW118182   3.429   0.458  14.353  1.1496 -0.9151 -0.1380
 2241SOL    HW218183   3.433   0.314  14.373 -3.9841 -0.2875 -1.2319
 2242SOL     OW18184   0.641   3.302   6.356  0.6577 -0.0972  0.4843
 2242SOL    HW118185   0.728   3.316   6.320 -0.7965  2.4249 -2.0975
 2242SOL    HW218186   0.588   3.312   6.277 -2.3336  1.4867  2.6591
 2243SOL     OW18187   2.457   3.807  11.198  0.3978  0.3303  0.0402
 2243SOL    HW118188   2.517   3.792  11.271  0.9986 -1.6184 -0.8704
 2243SOL    HW218189   2.503   3.753  11.134  0.7666  0.2098  0.4055
 2244SOL     OW18190   1.795   4.323   5.030  0.3749 -0.1705  0.5601
 2244SOL    HW118191   1.804   4.362   4.943  1.4028 -1.0727  0.2517
 2244SOL    HW218192   1.879   4.345   5.068  0.4687 -0.0193  0.2670
 2245SOL     OW18193   4.669   2.278  16.962 -0.4446 -0.3324  0.3716
 2245SOL    HW118194   4.654   2.359  17.010  1.6682  0.6801 -0.6611
 2245SOL    HW218195   4.618   2.213  17.010  1.2263 -1.3056  0.8586
 2246SOL     OW18196   0.723   2.063   8.678  0.5984  0.5978  0.4647
 2246SOL    HW118197   0.807   2.021   8.698  0.1342 -0.1619  0.8534
 2246SOL    HW218198   0.669   1.984   8.680  1.5071 -0.1069 -2.7366
 2247SOL     OW18199   3.816   1.918   4.369 -0.1318 -0.5936 -0.5015
 2247SOL    HW118200   3.783   1.893   4.455 -0.7653 -0.3619 -0.6721
 2247SOL    HW218201   3.731   1.946   4.334  0.5129  1.1445 -0.6597
 2248SOL     OW18202   2.459   0.236  12.879  0.0342  0.5856  0.5344
 2248SOL    HW118203   2.498   0.235  12.966 -1.9236  2.5325  1.4268
 2248SOL    HW218204   2.524   0.288  12.832 -0.7195 -1.4317 -2.7400
 2249SOL     OW18205   1.227   3.106  10.381 -0.0639  0.7482  0.0977
 2249SOL    HW118206   1.201   3.192  10.348 -0.4434  1.1552  1.4661
 2249SOL    HW218207   1.212   3.126  10.473  2.3456  0.4331  0.5722
 2250SOL     OW18208   2.527   1.137   5.808 -0.0694 -0.1263  0.0264
 2250SOL    HW118209   2.496   1.205   5.866 -1.8791 -1.4569  0.5984
 2250SOL    HW218210   2.460   1.136   5.739  1.6994 -0.5960 -1.7032
 2251SOL     OW18211   1.295   2.958  11.289 -0.2520  0.4435  0.2819
 2251SOL    HW118212   1.288   3.044  11.332  0.7624  0.2277  0.8698
 2251SOL    HW218213   1.380   2.928  11.320 -0.5014  0.3258  0.8454
 2252SOL     OW18214   0.123   2.783   7.399 -0.2726  0.6668 -0.1123
 2252SOL    HW118215   0.151   2.860   7.448 -0.7604  2.2685 -2.3803
 2252SOL    HW218216   0.082   2.816   7.319  0.0525  0.7650 -0.2385
 2253SOL     OW18217   3.317   2.483   5.023  0.1691 -0.0930 -0.1187
 2253SOL    HW118218   3.378   2.495   5.095 -1.5431  0.9182  1.1571
 2253SOL    HW218219   3.367   2.446   4.950  0.6569  0.0752  0.1346
 2254SOL     OW18220   1.979   1.069   8.819  0.7014  0.1497  0.0168
 2254SOL    HW118221   2.047   1.012   8.784 -0.9760 -1.5831 -0.4429
 2254SOL    HW218222   2.018   1.086   8.905  1.1835  1.1416 -0.4010
 2255SOL     OW18223   0.150   0.738   6.206  1.1311  0.4852  0.6033
 2255SOL    HW118224   0.212   0.692   6.263  0.2124  0.3047  1.4510
 2255SOL    HW218225   0.070   0.691   6.228  0.3113  1.4497 -0.3343
 2256SOL     OW18226   1.576   3.099   6.077 -0.1225  0.2596 -0.5202
 2256SOL    HW118227   1.654   3.094   6.132 -0.6538 -0.1721  0.1943
 2256SOL    HW218228   1.522   3.142   6.144 -2.7007 -2.7842 -0.6389
 2257SOL     OW18229   3.477   0.983   2.902 -0.2038 -0.0508  0.5265
 2257SOL    HW118230   3.392   1.003   2.864 -0.5546 -0.4201  1.1289
 2257SOL    HW218231   3.466   0.986   2.997  3.1345 -0.7687  0.9424
 2258SOL     OW18232   1.074   4.000   6.650 -0.9867 -0.2465 -0.4458
 2258SOL    HW118233   1.123   3.956   6.720  0.8583  0.4514 -1.2866
 2258SOL    HW218234   1.135   4.066   6.616 -0.5206  0.6189  2.0579
 2259SOL     OW18235   2.507   3.635  12.070 -0.0597  0.3290 -0.0231
 2259SOL    HW118236   2.564   3.565  12.039  0.6140  0.3747  1.0920
 2259SOL    HW218237   2.444   3.580  12.116  1.0783 -0.2126  0.8679
 2260SOL     OW18238   3.295   0.780   0.948 -0.0679  0.4628  0.3468
 2260SOL    HW118239   3.307   0.705   1.006 -2.0493  0.4313  0.7289
 2260SOL    HW218240   3.258   0.746   0.866 -1.9647 -0.1981  1.4835
 2261SOL     OW18241   0.408   1.678   1.519 -0.3080  0.1445  0.4805
 2261SOL    HW118242   0.382   1.608   1.579  2.4329  0.4105  1.9845
 2261SOL    HW218243   0.476   1.726   1.568  1.1319 -0.7658 -0.6353
 2262SOL     OW18244   2.667   1.632  10.063  0.4346  0.0677  0.5464
 2262SOL    HW118245   2.637   1.719  10.092 -0.8449 -0.1011 -0.2832
 2262SOL    HW218246   2.702   1.597  10.145 -2.3688 -1.0723  1.2598
 2263SOL     OW18247   3.489   4.204  10.250 -0.1233  0.2449 -0.2448
 2263SOL    HW118248   3.423   4.227  10.315  1.0795 -0.0917  1.0823
 2263SOL    HW218249   3.458   4.115  10.233  1.1863 -0.0478 -1.0813
 2264SOL     OW18250   0.859   3.921  11.105  0.4328  0.0452 -0.0293
 2264SOL    HW118251   0.821   3.949  11.188 -0.8456 -0.3280 -0.4974
 2264SOL    HW218252   0.861   4.003  11.057  4.5111  1.0683  1.8557
 2265SOL     OW18253   2.536   3.332  11.946  0.3172 -0.6155  0.2569
 2265SOL    HW118254   2.578   3.271  11.884 -1.3142 -0.5708 -0.9056
 2265SOL    HW218255   2.556   3.289  12.029 -0.2707 -0.3733  0.5235
 2266SOL     OW18256   2.950   4.179   4.588 -0.0777  0.2432  0.1603
 2266SOL    HW118257   2.872   4.144   4.631  0.6155 -0.9241  0.4799
 2266SOL    HW218258   3.005   4.154   4.663  0.0896 -2.0426 -0.7018
 2267SOL     OW18259   4.687   0.794   9.293  0.4467  0.4307  0.3051
 2267SOL    HW118260   0.056   0.788   9.267 -0.2669 -1.2419 -1.8239
 2267SOL    HW218261   4.694   0.869   9.352  0.0175  0.3786  0.4277
 2268SOL     OW18262   4.477   2.086   6.654 -0.2785  0.5153 -0.1909
 2268SOL    HW118263   4.514   2.113   6.738 -1.1289  3.1783 -0.6685
 2268SOL    HW218264   4.545   2.042   6.603 -0.2717  0.8578 -0.4801
 2269SOL     OW18265   0.632   2.593   5.561 -0.6916  0.0256  0.1587
 2269SOL    HW118266   0.543   2.574   5.592 -0.0356 -0.6759  1.6405
 2269SOL    HW218267   0.664   2.641   5.638 -1.7659  0.1839  0.5132
 2270SOL     OW18268   1.925   4.299   8.459  0.6691  0.6267 -0.1459
 2270SOL    HW118269   1.984   4.248   8.515 -2.2561 -2.8549 -0.2292
 2270SOL    HW218270   1.973   4.303   8.377 -0.5557 -0.9595 -0.9449
 2271SOL     OW18271   4.405   3.607  11.564 -0.8077 -0.4406  0.5358
 2271SOL    HW118272   4.472   3.570  11.507 -0.7370 -1.0188  0.9870
 2271SOL    HW218273   4.443   3.579  11.648  1.2519  0.3173 -0.1371
 2272SOL     OW18274   2.210   2.288   7.567  0.1028 -0.2496  0.4155
 2272SOL    HW118275   2.234   2.205   7.525 -0.3114  0.2760 -0.8645
 2272SOL    HW218276   2.294   2.333   7.573 -0.6258  0.9938  1.1710
 2273SOL     OW18277   0.989   2.533   0.346 -0.4930  0.1349 -0.2400
 2273SOL    HW118278   0.901   2.505   0.322 -0.1619  0.9781 -2.4228
 2273SOL    HW218279   1.031   2.532   0.260  0.4253  1.7764  0.1841
 2274SOL     OW18280   0.393   0.454   4.732  0.2982 -0.1247 -0.7166
 2274SOL    HW118281   0.471   0.507   4.716  2.3855 -2.5286  1.5682
 2274SOL    HW218282   0.403   0.448   4.827  1.8057  0.7769 -0.8111
 2275SOL     OW18283   4.503   3.031  12.396 -0.3068  0.4085  0.1134
 2275SOL    HW118284   4.548   2.996  12.474  1.1451  0.3269 -0.7599
 2275SOL    HW218285   4.450   2.958  12.363  0.3114  0.5908 -1.2758
 2276SOL     OW18286   3.437   0.373   0.496 -0.3057 -0.2995 -0.1591
 2276SOL    HW118287   3.470   0.449   0.449  2.5694 -0.2227  1.9585
 2276SOL    HW218288   3.470   0.295   0.451 -1.2725 -0.6336 -0.2881
 2277SOL     OW18289   1.429   0.376  16.027 -0.5840 -0.1326 -0.2359
 2277SOL    HW118290   1.432   0.381  15.931  0.9718 -0.0066 -0.1879
 2277SOL    HW218291   1.437   0.468  16.050  0.9238 -0.5577  0.9288
 2278SOL     OW18292   3.697   3.286   7.578 -0.1221 -0.4660 -0.2470
 2278SOL    HW118293   3.668   3.377   7.563  1.4609  0.1105  0.1999
 2278SOL    HW218294   3.619   3.232   7.570 -0.5103 -0.1599  1.6038
 2279SOL     OW18295   1.277   2.726   3.509  0.0941  0.6185 -0.1842
 2279SOL    HW118296   1.361   2.682   3.495 -0.4942 -0.1567 -1.2065
 2279SOL    HW218297   1.261   2.716   3.602  2.5352 -0.8540  0.0774
 2280SOL     OW18298   2.723   0.156   3.251 -0.4857  0.8519 -0.0996
 2280SOL    HW118299   2.755   0.067   3.266  1.2169  0.9048 -3.6290
 2280SOL    HW218300   2.634   0.142   3.219 -0.3202 -1.6016  0.5577
 2281SOL     OW18301   2.517   0.588  11.806 -0.5762  0.2209  0.3533
 2281SOL    HW118302   2.487   0.638  11.882  0.6675 -0.3772  1.2315
 2281SOL    HW218303   2.571   0.525  11.854  0.3261  1.2062  0.6253
 2282SOL     OW18304   3.760   4.296  10.345 -0.5060 -0.0148 -0.2036
 2282SOL    HW118305   3.668   4.315  10.327 -0.1292  0.6991 -1.3733
 2282SOL    HW218306   3.777   4.368  10.406  0.0429  1.2221 -1.7947
 2283SOL     OW18307   2.874   0.673  13.159  0.5135  0.1116 -0.4845
 2283SOL    HW118308   2.891   0.722  13.078 -0.8602  0.4283 -0.5905
 2283SOL    HW218309   2.793   0.717  13.188 -1.8478 -3.5099 -1.5776
 2284SOL     OW18310   1.663   2.456   6.944  0.0394  0.1574 -0.3552
 2284SOL    HW118311   1.594   2.519   6.964 -0.7175 -0.9718  0.6052
 2284SOL    HW218312   1.626   2.424   6.862 -0.2089 -0.1649 -0.1156
 2285SOL     OW18313   0.745   3.580   1.559  0.1511  0.5615 -0.2079
 2285SOL    HW118314   0.786   3.510   1.508  0.7045  0.3563  0.5273
 2285SOL    HW218315   0.826   3.624   1.585  0.2116 -1.1354  2.3729
 2286SOL     OW18316   2.827   1.009   7.345 -0.2342 -0.2594  0.1660
 2286SOL    HW118317   2.756   0.953   7.377 -0.0860 -0.2336  0.5475
 2286SOL    HW218318   2.817   1.018   7.250  1.4629 -1.0871 -0.0862
 2287SOL     OW18319   1.061   0.038  10.769  0.6340  0.2862  0.4533
 2287SOL    HW118320   1.010   4.683  10.790  0.8377 -0.2604 -1.0827
 2287SOL    HW218321   1.132   0.021  10.831  0.6989 -0.0404  0.2891
 2288SOL     OW18322   2.009   1.502  17.675 -0.0777 -0.1462 -0.5094
 2288SOL    HW118323   1.918   1.500   0.012 -0.0900 -0.3439 -0.5604
 2288SOL    HW218324   2.010   1.575  17.614  0.6144  0.9040  0.7753
 2289SOL     OW18325   1.935   3.236   7.410 -0.4853  0.5520 -0.1143
 2289SOL    HW118326   2.009   3.231   7.349 -0.9892 -4.1047 -0.3532
 2289SOL    HW218327   1.864   3.252   7.348 -0.2385 -1.3234 -0.8783
 2290SOL     OW18328   2.418   1.783   8.753  0.1313  0.7105 -0.1915
 2290SOL    HW118329   2.342   1.834   8.783 -0.9223 -0.3641 -1.0161
 2290SOL    HW218330   2.366   1.721   8.701 -1.0318  0.0723  1.7338
 2291SOL     OW18331   2.768   3.443   7.030 -0.0311  0.1371  0.3823
 2291SOL    HW118332   2.694   3.502   7.041 -1.9140 -1.8351 -1.4558
 2291SOL    HW218333   2.761   3.383   7.104  0.9947 -0.2179  0.1935
 2292SOL     OW18334   4.385   4.292  13.396 -0.4525  0.0699  0.5702
 2292SOL    HW118335   4.432   4.369  13.429  3.1335 -1.8816  0.1143
 2292SOL    HW218336   4.425   4.222  13.448  1.7971  1.6307  0.9217
 2293SOL     OW18337   3.832   0.630   0.744 -0.3398  0.0419  0.7459
 2293SOL    HW118338   3.789   0.696   0.689 -0.9076 -1.5283 -0.7282
 2293SOL    HW218339   3.784   0.636   0.826 -0.5519  0.7070  0.5727
 2294SOL     OW18340   3.544   1.186   1.646 -0.1245  0.1775 -0.1218
 2294SOL    HW118341   3.588   1.152   1.725  1.6588  1.2174 -0.6908
 2294SOL    HW218342   3.458   1.144   1.644 -0.7979  1.3858  2.6868
 2295SOL     OW18343   3.055   2.756   3.780 -0.4008  0.5232 -0.0031
 2295SOL    HW118344   3.031   2.724   3.693  0.7729  0.1344 -0.1756
 2295SOL    HW218345   3.115   2.693   3.818 -1.4672  0.4671  1.5977
 2296SOL     OW18346   4.432   0.969   6.186  0.0489  0.1846  0.4401
 2296SOL    HW118347   4.509   0.933   6.144  1.4447 -0.0117  3.1665
 2296SOL    HW218348   4.431   1.051   6.136  0.8616  0.6584  1.2115
 2297SOL     OW18349   4.281   2.419  17.189  0.0658  0.2406  0.0938
 2297SOL    HW118350   4.230   2.478  17.245 -0.7497  0.0702 -0.4629
 2297SOL    HW218351   4.343   2.475  17.143  0.9823 -1.2247 -0.4683
 2298SOL     OW18352   1.230   1.945   8.720 -0.4037  0.5430  0.8060
 2298SOL    HW118353   1.309   1.930   8.772 -0.4754  1.7889  1.2553
 2298SOL    HW218354   1.276   1.974   8.641 -1.4118  0.9413  0.3649
 2299SOL     OW18355   2.259   0.028   0.135  0.3296  0.8289  0.2409
 2299SOL    HW118356   2.272   4.699   0.216  0.2944  0.4378 -0.0010
 2299SOL    HW218357   2.257   0.114   0.176  0.1876  0.6556  0.6061
 2300SOL     OW18358   0.769   1.380  13.704  0.0085 -0.0777  0.7180
 2300SOL    HW118359   0.839   1.323  13.671  0.4059  1.2194 -0.6842
 2300SOL    HW218360   0.693   1.322  13.700  2.2198 -3.0284  1.1136
 2301SOL     OW18361   1.765   1.515   3.064  0.1849  0.0661  0.3193
 2301SOL    HW118362   1.689   1.472   3.025  1.1877 -1.8122  0.4397
 2301SOL    HW218363   1.815   1.531   2.984  0.3990  0.4910  0.5350
 2302SOL     OW18364   1.337   3.382   1.360 -0.0798 -0.0741  0.4576
 2302SOL    HW118365   1.303   3.458   1.407 -1.4092  0.4770 -1.3875
 2302SOL    HW218366   1.260   3.325   1.359 -1.3428  1.6439 -0.4216
 2303SOL     OW18367   1.435   3.713  12.857 -0.0723 -0.1264  0.1856
 2303SOL    HW118368   1.455   3.631  12.902 -1.1968 -0.5913 -0.1809
 2303SOL    HW218369   1.441   3.679  12.767 -0.4757 -0.0496  0.1311
 2304SOL     OW18370   3.710   2.045   3.219 -0.5885  0.4076  0.2145
 2304SOL    HW118371   3.774   1.988   3.177 -0.8019  0.5379 -0.2899
 2304SOL    HW218372   3.655   2.067   3.143  1.3233 -0.6435 -1.4820
 2305SOL     OW18373   2.322   1.920   4.644  0.5713  0.6473 -0.2158
 2305SOL    HW118374   2.277   1.953   4.566  2.2091  2.3506 -0.4271
 2305SOL    HW218375   2.285   1.979   4.710  0.7995  0.4682  0.0717
 2306SOL     OW18376   3.728   1.799  10.020  0.8198 -0.0451  0.0655
 2306SOL    HW118377   3.712   1.874   9.963  1.3413 -0.8076 -1.0780
 2306SOL    HW218378   3.817   1.828  10.037  0.2034  2.7565 -1.6024
 2307SOL     OW18379   2.153   3.404   9.419 -0.2176  0.0178 -0.2035
 2307SOL    HW118380   2.156   3.490   9.462 -3.1184 -1.4508  2.9707
 2307SOL    HW218381   2.080   3.363   9.466 -0.4633 -1.8944 -2.3019
 2308SOL     OW18382   0.560   0.587   4.155 -0.2902 -0.0100 -0.1418
 2308SOL    HW118383   0.558   0.509   4.211 -2.2318  0.0637 -0.1140
 2308SOL    HW218384   0.589   0.549   4.072  0.8219 -2.9021  1.5326
 2309SOL     OW18385   3.853   4.224   7.102  0.4901 -0.5474  0.1791
 2309SOL    HW118386   3.898   4.278   7.037  0.2336 -0.6592 -0.0901
 2309SOL    HW218387   3.770   4.260   7.135  1.1078  0.3936  0.7195
 2310SOL     OW18388   1.379   0.958  15.974 -0.5023  0.5292 -0.2496
 2310SOL    HW118389   1.350   0.991  16.059  2.5380  0.8278  0.6654
 2310SOL    HW218390   1.357   1.024  15.908  0.8360 -1.4136 -2.6305
 2311SOL     OW18391   3.755   0.741  14.132 -0.1873  0.0891  0.1446
 2311SOL    HW118392   3.729   0.728  14.224 -1.3773  1.0730 -0.0535
 2311SOL    HW218393   3.727   0.832  14.124  1.3079  0.1892 -3.9462
 2312SOL     OW18394   4.292   3.908   4.226 -0.9032 -0.7312 -0.2067
 2312SOL    HW118395   4.240   3.930   4.149  1.3420  0.5396 -1.3390
 2312SOL    HW218396   4.376   3.907   4.182 -0.9478 -2.1396 -0.2735
 2313SOL     OW18397   3.633   3.304   6.500  0.0244 -0.5012  0.4719
 2313SOL    HW118398   3.702   3.343   6.555  2.4595  1.8716 -4.2614
 2313SOL    HW218399   3.635   3.369   6.430 -0.5826 -1.7473 -0.6943
 2314SOL     OW18400   2.507   1.569   4.541 -0.2660 -0.9872  0.1658
 2314SOL    HW118401   2.411   1.560   4.546 -0.4922  0.0122 -2.4986
 2314SOL    HW218402   2.530   1.557   4.633 -1.4465  0.5274  0.6498
 2315SOL     OW18403   0.702   0.704   2.079 -0.0507 -0.1294 -0.3541
 2315SOL    HW118404   0.774   0.736   2.024 -0.6970  2.6989  0.4280
 2315SOL    HW218405   0.731   0.613   2.078  0.5129  0.0472  0.4626
 2316SOL     OW18406   3.336   0.325   1.447 -0.8729  0.7936  0.4025
 2316SOL    HW118407   3.381   0.254   1.493 -0.0343  0.0941 -1.4805
 2316SOL    HW218408   3.293   0.285   1.371 -1.6773  2.3049  0.0661
 2317SOL     OW18409   1.200   0.975   2.241 -0.0554 -0.2413 -0.0206
 2317SOL    HW118410   1.241   0.975   2.328 -0.9652  0.5592  0.4110
 2317SOL    HW218411   1.255   0.908   2.199  0.7454 -0.0500  0.7139
 2318SOL     OW18412   1.330   1.742   1.899 -0.4761  0.7383  0.3419
 2318SOL    HW118413   1.323   1.649   1.876  0.7199  0.3861  1.3808
 2318SOL    HW218414   1.350   1.738   1.993 -0.5404 -2.2084  0.2386
 2319SOL     OW18415   4.397   2.519   3.062 -0.3554  0.3246  0.1078
 2319SOL    HW118416   4.410   2.611   3.086 -1.7134  0.8577 -1.1735
 2319SOL    HW218417   4.485   2.487   3.044 -0.7189 -0.1989 -0.7604
 2320SOL     OW18418   2.996   4.556   4.070  0.3407 -0.6184 -0.1576
 2320SOL    HW118419   2.932   4.553   4.140  0.0025 -0.1258 -0.4469
 2320SOL    HW218420   2.968   4.491   4.004  0.3176 -1.6450  0.8703
 2321SOL     OW18421   3.091   2.806  15.988  0.3214  0.2260  0.0648
 2321SOL    HW118422   3.097   2.847  16.074 -0.6196 -0.5803  0.5183
 2321SOL    HW218423   3.165   2.745  15.995 -0.7237 -0.7703  2.5266
 2322SOL     OW18424   1.171   2.117   3.930  0.0844  0.8100  0.1010
 2322SOL    HW118425   1.107   2.078   3.871  0.3289  0.9025 -0.2222
 2322SOL    HW218426   1.230   2.149   3.862  0.8012 -2.7960 -0.9395
 2323SOL     OW18427   1.068   4.637   5.619  0.9107 -0.1660  0.2214
 2323SOL    HW118428   1.037   4.711   5.673 -2.0428  0.3036 -2.0814
 2323SOL    HW218429   1.160   4.661   5.620  0.5738  1.2204 -0.9047
 2324SOL     OW18430   0.401   4.030   3.847  0.4157  0.2620 -0.0918
 2324SOL    HW118431   0.494   4.040   3.827  0.2987 -2.8134 -2.3122
 2324SOL    HW218432   0.377   4.121   3.831 -1.5940 -0.9452 -4.0311
 2325SOL     OW18433   2.292   3.025   0.977 -0.1022  0.2086 -0.3063
 2325SOL    HW118434   2.339   3.106   0.960 -1.2034  0.9737  0.2426
 2325SOL    HW218435   2.313   2.997   1.066  0.1855  1.7514  0.1166
 2326SOL     OW18436   1.350   0.410  13.236  0.0459 -0.0782 -1.0088
 2326SOL    HW118437   1.424   0.363  13.198 -0.4596 -1.8997  0.2866
 2326SOL    HW218438   1.365   0.399  13.330 -0.2169  0.0343 -0.9549
 2327SOL     OW18439   2.185   0.992   2.948  0.6149  0.4920 -0.4123
 2327SOL    HW118440   2.200   1.028   2.860  1.3893  1.4451  0.1182
 2327SOL    HW218441   2.252   0.923   2.954  0.2691 -0.0009 -2.0429
 2328SOL     OW18442   1.993   4.268   3.026  0.0290 -0.1842  0.1344
 2328SOL    HW118443   1.898   4.274   3.035  0.3224  1.0197  2.2801
 2328SOL    HW218444   2.023   4.347   3.070 -0.0198  0.1992 -0.5210
 2329SOL     OW18445   0.683   4.096   8.259  0.6772  0.2414 -0.0288
 2329SOL    HW118446   0.685   4.168   8.196  1.1527  0.2225 -0.0364
 2329SOL    HW218447   0.743   4.130   8.326  1.1623 -1.1792  0.2561
 2330SOL     OW18448   1.378   1.851   3.866 -0.5790 -0.0232  0.0416
 2330SOL    HW118449   1.348   1.794   3.936 -0.5068 -0.5465 -0.3608
 2330SOL    HW218450   1.327   1.932   3.877 -3.4794 -1.8922  0.1898
 2331SOL     OW18451   2.821   1.278   5.335 -0.1463  0.4068  0.0581
 2331SOL    HW118452   2.732   1.312   5.323 -0.6795 -0.8724  0.3643
 2331SOL    HW218453   2.867   1.298   5.254 -2.0239 -1.5428 -1.4958
 2332SOL     OW18454   4.669   3.374   2.832 -0.3321  0.4219  0.1317
 2332SOL    HW118455   0.008   3.390   2.761 -0.9451 -1.8330 -0.9002
 2332SOL    HW218456   4.599   3.329   2.784  0.1928 -1.8290  1.5113
 2333SOL     OW18457   1.707   3.542   7.969  0.4240  0.3689 -0.4685
 2333SOL    HW118458   1.769   3.575   7.903 -0.3223  1.1755 -0.7581
 2333SOL    HW218459   1.687   3.457   7.930  0.1975  0.6317 -0.9276
 2334SOL     OW18460   4.680   2.936  17.410 -0.7138  0.0354  0.3205
 2334SOL    HW118461   4.691   3.003  17.477 -1.2918  0.5702 -0.1184
 2334SOL    HW218462   4.606   2.968  17.358  0.0997 -0.1421 -0.9496
 2335SOL     OW18463   1.894   3.735   2.876  0.3874 -0.0808 -0.4035
 2335SOL    HW118464   1.902   3.782   2.793  1.3109 -0.2916 -0.4315
 2335SOL    HW218465   1.890   3.805   2.942  0.9385  0.7638 -1.2657
 2336SOL     OW18466   1.341   0.499   6.318 -0.0259  0.0494 -0.2912
 2336SOL    HW118467   1.256   0.536   6.294  0.0715  0.4373 -0.0318
 2336SOL    HW218468   1.393   0.578   6.333  0.6237 -0.2419 -1.0379
 2337SOL     OW18469   3.629   3.466   0.231 -0.5836  0.6015  0.4414
 2337SOL    HW118470   3.642   3.482   0.137 -1.7157 -0.8979  0.0345
 2337SOL    HW218471   3.715   3.441   0.264  0.1743  3.0030  0.3422
 2338SOL     OW18472   2.404   2.665   9.337 -0.1981 -0.1470 -0.2888
 2338SOL    HW118473   2.416   2.576   9.304 -0.6633 -0.7041  1.0416
 2338SOL    HW218474   2.353   2.703   9.266  0.2904  1.7682  0.3931
 2339SOL     OW18475   2.511   4.714   8.369  0.2292  0.1976  0.3455
 2339SOL    HW118476   2.514   4.618   8.369 -0.3009  0.1777 -0.2910
 2339SOL    HW218477   2.416   0.004   8.374  0.4224  0.6439  2.6229
 2340SOL     OW18478   2.223   0.817  15.061 -0.0124  0.1910 -0.6227
 2340SOL    HW118479   2.132   0.828  15.032 -0.4398 -2.1555 -0.1689
 2340SOL    HW218480   2.209   0.851  15.150  2.2472 -1.0691  0.2007
 2341SOL     OW18481   2.488   4.005   3.371 -0.1499  0.1586 -0.2020
 2341SOL    HW118482   2.579   4.035   3.378 -0.4764  1.3023 -0.9708
 2341SOL    HW218483   2.495   3.921   3.418  1.4870 -0.8345 -2.2154
 2342SOL     OW18484   2.024   2.270  13.257  0.4377  0.0586  0.7615
 2342SOL    HW118485   1.977   2.284  13.339  0.1794 -1.8856  0.9489
 2342SOL    HW218486   2.111   2.293  13.289  1.0190 -1.0380 -0.0053
 2343SOL     OW18487   3.438   1.660  10.726 -0.0717  0.1285 -0.1648
 2343SOL    HW118488   3.486   1.685  10.647 -0.4100  1.3592  0.0231
 2343SOL    HW218489   3.502   1.611  10.778  0.4226  1.0452  0.0854
 2344SOL     OW18490   3.640   1.694  10.471  0.6324  0.1412 -0.1892
 2344SOL    HW118491   3.608   1.772  10.425 -1.6741  0.4386  1.9032
 2344SOL    HW218492   3.598   1.622  10.424 -0.6735  0.8847 -0.1696
 2345SOL     OW18493   3.421   0.837  17.281 -0.6597 -0.3930  0.3891
 2345SOL    HW118494   3.358   0.895  17.322 -1.7490 -1.1964 -0.1339
 2345SOL    HW218495   3.368   0.788  17.217  0.7763 -0.0117 -1.0996
 2346SOL     OW18496   4.334   3.193   1.668  0.5436 -0.3711  0.3750
 2346SOL    HW118497   4.412   3.196   1.612  0.4317  1.2731  0.2959
 2346SOL    HW218498   4.370   3.240   1.744  2.1640  2.1990 -1.9744
 2347SOL     OW18499   3.210   3.474   5.661 -0.3198 -0.3362  0.1053
 2347SOL    HW118500   3.134   3.421   5.684  0.4999 -1.5158  0.0818
 2347SOL    HW218501   3.214   3.532   5.738 -0.8960  2.4598 -1.9397
 2348SOL     OW18502   3.072   2.481  14.961 -0.0936 -0.0420  0.3380
 2348SOL    HW118503   2.987   2.483  15.006  0.1627 -1.8083  0.8631
 2348SOL    HW218504   3.127   2.481  15.039 -0.2170  0.4702  0.4289
 2349SOL     OW18505   2.029   0.102   5.359  0.2368  0.4076 -0.3874
 2349SOL    HW118506   2.080   0.058   5.427  1.1713  1.4874 -0.4027
 2349SOL    HW218507   1.996   0.023   5.316  2.0312  0.0694 -1.1377
 2350SOL     OW18508   4.178   1.328  13.089 -0.2781  0.2899 -0.4867
 2350SOL    HW118509   4.191   1.332  13.184 -0.9743 -0.6230 -0.3512
 2350SOL    HW218510   4.133   1.243  13.092  1.2245 -0.4616  1.2229
 2351SOL     OW18511   3.272   3.270   8.648 -0.1892 -0.0416 -0.4127
 2351SOL    HW118512   3.353   3.231   8.680  0.1800  0.2551 -1.0040
 2351SOL    HW218513   3.207   3.216   8.692  2.0396 -1.3621  1.2607
 2352SOL     OW18514   0.697   0.125   1.628  0.1671  0.1759  0.1601
 2352SOL    HW118515   0.736   0.104   1.713  1.5356 -0.2330 -0.5680
 2352SOL    HW218516   0.702   0.037   1.589 -2.3877 -0.9386  2.3495
 2353SOL     OW18517   1.435   1.593  16.499 -0.1117  0.5283  0.2302
 2353SOL    HW118518   1.470   1.526  16.557 -2.3210  0.0358  1.0075
 2353SOL    HW218519   1.353   1.618  16.542  1.0127  1.8039  1.5994
 2354SOL     OW18520   3.514   0.102   1.497  0.2832 -0.1064 -0.3503
 2354SOL    HW118521   3.463   0.026   1.469 -0.5861 -0.0855  1.1765
 2354SOL    HW218522   3.554   0.077   1.581 -0.8596 -0.6515  0.0323
 2355SOL     OW18523   0.212   0.346  16.238 -0.0404 -0.3113  0.0372
 2355SOL    HW118524   0.199   0.370  16.147 -0.4445 -0.9410 -0.0708
 2355SOL    HW218525   0.206   0.432  16.281  0.6502 -0.9734  1.4462
 2356SOL     OW18526   3.391   3.272   2.568 -0.2154  0.5096 -0.3117
 2356SOL    HW118527   3.473   3.308   2.534  1.3461 -1.5123  1.2979
 2356SOL    HW218528   3.403   3.179   2.550 -2.1834  0.0328  0.7716
 2357SOL     OW18529   1.832   1.650   0.955  0.2477 -0.6491  0.1001
 2357SOL    HW118530   1.773   1.703   1.007 -0.5616 -3.1317  1.7153
 2357SOL    HW218531   1.758   1.593   0.931 -0.6906  0.7025 -0.1759
 2358SOL     OW18532   3.262   2.561   3.820 -0.1750  0.4853  0.5944
 2358SOL    HW118533   3.255   2.466   3.811 -2.8535  0.6564  0.7430
 2358SOL    HW218534   3.282   2.595   3.732 -0.0248  1.2944  0.9403
 2359SOL     OW18535   1.348   4.636   6.389  0.5517 -0.1170 -0.2050
 2359SOL    HW118536   1.417   4.701   6.373  0.7278  0.3105  2.2085
 2359SOL    HW218537   1.404   4.566   6.421  1.4577  0.5083 -0.4307
 2360SOL     OW18538   1.358   0.026  15.715  0.4438  0.0840 -0.0528
 2360SOL    HW118539   1.414   4.684  15.673  1.0058 -1.6842  3.4295
 2360SOL    HW218540   1.404   0.037  15.799  1.1431  2.6206 -0.7402
 2361SOL     OW18541   3.190   2.242   2.698 -0.5209 -0.5974 -0.0316
 2361SOL    HW118542   3.244   2.163   2.699 -1.1305 -0.9696  3.1785
 2361SOL    HW218543   3.241   2.294   2.761 -3.7812  1.4880  0.8578
 2362SOL     OW18544   1.420   0.536   4.697 -0.7382  0.0410  0.7915
 2362SOL    HW118545   1.394   0.492   4.617  0.2152 -1.4041  1.2732
 2362SOL    HW218546   1.479   0.470   4.733 -1.0692  0.0091  1.2781
 2363SOL     OW18547   2.232   1.566  11.738  0.3632 -0.4166  0.2222
 2363SOL    HW118548   2.310   1.614  11.710 -0.4301 -0.0061 -1.2542
 2363SOL    HW218549   2.174   1.593  11.667 -2.7932 -0.5200  2.7670
 2364SOL     OW18550   2.790   4.378   6.868  0.0026  0.3547 -0.3359
 2364SOL    HW118551   2.792   4.369   6.963 -4.2257  1.0779 -0.1430
 2364SOL    HW218552   2.702   4.342   6.857  0.4618 -0.6502 -0.6964
 2365SOL     OW18553   2.746   1.631   8.979  0.3318  0.5073 -0.1347
 2365SOL    HW118554   2.745   1.726   8.990 -1.8557  0.6039 -1.2022
 2365SOL    HW218555   2.713   1.609   8.892 -0.0596  1.0594 -0.1266
 2366SOL     OW18556   3.479   3.885   0.795 -0.2407  0.4707  0.3028
 2366SOL    HW118557   3.515   3.857   0.711 -1.3003 -1.3527  0.4423
 2366SOL    HW218558   3.483   3.802   0.843 -0.9389 -0.3193 -0.9961
 2367SOL     OW18559   4.347   4.398   6.537  0.4544 -0.2620 -0.6621
 2367SOL    HW118560   4.433   4.441   6.537 -0.3176  1.2893 -2.1402
 2367SOL    HW218561   4.285   4.470   6.521  0.0568 -0.2989  0.6643
 2368SOL     OW18562   3.804   4.152   1.531  1.0270 -0.3728 -0.6589
 2368SOL    HW118563   3.889   4.110   1.512  2.1380  1.3097  0.5708
 2368SOL    HW218564   3.808   4.207   1.452  1.2270 -0.7608 -0.9183
 2369SOL     OW18565   0.017   2.102  14.503  0.2368  0.5972  0.5562
 2369SOL    HW118566   0.033   2.138  14.416 -2.9729 -2.0306 -1.1444
 2369SOL    HW218567   0.106   2.088  14.535 -0.3067 -1.7353  1.0657
 2370SOL     OW18568   0.978   3.887   5.513  0.2717 -0.2297  0.0455
 2370SOL    HW118569   0.912   3.938   5.466 -1.5298 -1.3874  1.3148
 2370SOL    HW218570   0.974   3.915   5.605  1.7389 -1.6569  0.5524
 2371SOL     OW18571   2.645   2.848   6.849  0.4137 -0.6230  1.0414
 2371SOL    HW118572   2.571   2.845   6.788  1.2716  0.4696 -0.0298
 2371SOL    HW218573   2.592   2.818   6.923 -1.7107 -0.9831 -0.6240
 2372SOL     OW18574   3.073   3.273   4.654  0.1384 -0.5225 -0.5702
 2372SOL    HW118575   3.158   3.246   4.620  0.4582  0.1614 -0.3077
 2372SOL    HW218576   3.090   3.278   4.748  2.4337 -0.9834 -0.9514
 2373SOL     OW18577   2.182   0.089  12.508  0.0678 -0.2148  0.2713
 2373SOL    HW118578   2.148   0.014  12.458  2.1455 -0.6817 -0.4544
 2373SOL    HW218579   2.099   0.098  12.555 -1.2819 -0.3380 -2.0353
 2374SOL     OW18580   2.132   0.731   1.251  0.3720  0.3281  0.8954
 2374SOL    HW118581   2.115   0.703   1.341 -2.3863 -2.0627 -0.3805
 2374SOL    HW218582   2.170   0.651   1.215  1.0087  1.6847 -1.3977
 2375SOL     OW18583   1.192   1.696   6.321 -0.2285 -0.3090 -0.9056
 2375SOL    HW118584   1.103   1.701   6.356 -0.3232 -0.7673 -1.0753
 2375SOL    HW218585   1.243   1.683   6.400  0.1427  0.7145 -0.9813
 2376SOL     OW18586   1.784   0.794   7.675 -0.1728 -0.1020  0.1260
 2376SOL    HW118587   1.759   0.760   7.761  0.4918 -0.2273  0.2712
 2376SOL    HW218588   1.840   0.867   7.703 -0.9020  1.1212 -1.6081
 2377SOL     OW18589   1.958   1.100   6.009  0.3298 -0.1170 -0.0679
 2377SOL    HW118590   2.033   1.066   6.059 -1.8190 -0.1539  3.0838
 2377SOL    HW218591   1.903   1.021   6.011 -1.9498  1.5187  0.8542
 2378SOL     OW18592   4.312   2.861   6.909  0.2307  0.2297  0.2659
 2378SOL    HW118593   4.341   2.852   7.000  1.9891  0.8225 -0.2424
 2378SOL    HW218594   4.396   2.855   6.864 -1.2921 -0.6351 -2.4342
 2379SOL     OW18595   4.154   3.553   2.864 -0.0477  0.4972  0.4763
 2379SOL    HW118596   4.196   3.638   2.866  0.5275  0.1796  2.5498
 2379SOL    HW218597   4.118   3.542   2.952  2.7312 -1.6696  1.3614
 2380SOL     OW18598   1.714   1.262   9.233 -0.2098 -0.1850  0.0005
 2380SOL    HW118599   1.673   1.176   9.234  0.9170 -0.7323 -0.9812
 2380SOL    HW218600   1.636   1.317   9.227 -1.2210 -1.4038  2.0894
 2381SOL     OW18601   1.576   3.288   5.822  0.2512  0.1872  0.4041
 2381SOL    HW118602   1.659   3.292   5.775  0.4382  0.0065  0.7234
 2381SOL    HW218603   1.590   3.237   5.902 -0.5485 -1.8323 -0.7235
 2382SOL     OW18604   0.358   2.505   2.331  0.1751 -0.5173  0.6931
 2382SOL    HW118605   0.385   2.567   2.399  1.2270 -0.4607  0.2234
 2382SOL    HW218606   0.288   2.552   2.287 -1.5597 -1.8656  2.0384
 2383SOL     OW18607   3.666   1.813   2.350  0.3216 -0.1587  0.0867
 2383SOL    HW118608   3.751   1.788   2.314  0.7618  1.3998  0.0381
 2383SOL    HW218609   3.612   1.735   2.339  0.6649  0.0372 -2.8493
 2384SOL     OW18610   1.948   3.329   0.630  0.6914 -0.0197 -0.7624
 2384SOL    HW118611   1.860   3.363   0.644  0.1264 -1.0437 -1.8308
 2384SOL    HW218612   1.982   3.305   0.716  1.1209  0.3210 -0.8336
 2385SOL     OW18613   3.579   3.483   5.708 -0.2537  0.6516  0.3493
 2385SOL    HW118614   3.630   3.448   5.635  0.3853  2.4298 -0.0567
 2385SOL    HW218615   3.601   3.576   5.717 -1.2208  0.8959  0.1358
 2386SOL     OW18616   2.222   2.655   5.346 -0.2201  0.2623  0.1505
 2386SOL    HW118617   2.210   2.743   5.311  0.5428 -0.0823 -0.9821
 2386SOL    HW218618   2.163   2.650   5.421  0.7280 -1.3234  0.8018
 2387SOL     OW18619   2.148   2.780   0.418  0.6501 -0.4654 -0.0388
 2387SOL    HW118620   2.235   2.807   0.386  0.6509  0.0940  0.4474
 2387SOL    HW218621   2.121   2.711   0.357  0.4069 -0.4378  0.0382
 2388SOL     OW18622   1.861   4.026   6.652  0.3042 -0.1607  0.5872
 2388SOL    HW118623   1.860   4.114   6.689  0.6048 -0.2515  0.8020
 2388SOL    HW218624   1.916   3.991   6.722  1.4122 -0.3752 -0.3935
 2389SOL     OW18625   4.527   3.058   6.528 -0.3683 -0.6609 -0.0412
 2389SOL    HW118626   4.459   3.078   6.592 -1.9480  2.2481 -2.5993
 2389SOL    HW218627   4.497   3.109   6.452  0.9235 -0.5098 -0.4535
 2390SOL     OW18628   1.263   1.074   3.842 -0.3010 -0.2777 -0.0457
 2390SOL    HW118629   1.319   1.113   3.775  0.1232  1.8004  1.5438
 2390SOL    HW218630   1.253   0.992   3.793 -0.4953  0.4870 -1.2953
 2391SOL     OW18631   1.767   1.049   4.800  0.4556  0.4919  0.2522
 2391SOL    HW118632   1.748   0.961   4.767  0.2256  0.4320  0.5473
 2391SOL    HW218633   1.784   1.027   4.892  0.1039 -0.0509  0.1859
 2392SOL     OW18634   2.314   1.289   0.823 -0.2183 -0.2924 -0.1153
 2392SOL    HW118635   2.378   1.289   0.894 -1.4113 -0.4010  0.9392
 2392SOL    HW218636   2.283   1.379   0.819 -0.6660 -0.4777 -0.9961
 2393SOL     OW18637   1.849   1.577   8.953  0.3556  0.5957  0.1758
 2393SOL    HW118638   1.938   1.610   8.961  0.3095  0.7419  0.0770
 2393SOL    HW218639   1.869   1.484   8.964 -1.4491  0.4071  2.0639
 2394SOL     OW18640   2.807   3.419   3.238 -0.4481 -0.3651  0.0012
 2394SOL    HW118641   2.753   3.371   3.175 -1.2215  1.1400 -0.4844
 2394SOL    HW218642   2.766   3.401   3.322 -0.2289 -2.8327 -0.4151
 2395SOL     OW18643   3.768   0.888  15.083  0.3253 -0.0944  0.3134
 2395SOL    HW118644   3.823   0.816  15.052  0.5524  0.7346 -1.2071
 2395SOL    HW218645   3.705   0.838  15.135  0.6409 -1.7876 -0.8922
 2396SOL     OW18646   3.460   2.385  13.035  0.5447 -0.3519  0.0423
 2396SOL    HW118647   3.391   2.411  12.974  0.4697 -0.7894 -0.0601
 2396SOL    HW218648   3.426   2.302  13.070 -1.1703  0.7150  0.9010
 2397SOL     OW18649   1.589   1.325   6.667  0.0747 -0.4459  0.2096
 2397SOL    HW118650   1.639   1.257   6.712 -0.5008  0.4512  2.2066
 2397SOL    HW218651   1.561   1.369   6.747  1.2880  0.6048  0.0525
 2398SOL     OW18652   1.801   4.395  17.098 -0.0611 -0.1027 -0.1261
 2398SOL    HW118653   1.753   4.390  17.015  1.1362 -2.0081 -0.7126
 2398SOL    HW218654   1.844   4.480  17.097  0.1434 -0.1962  0.6714
 2399SOL     OW18655   2.113   0.421   6.679 -0.0499 -0.6883  0.3083
 2399SOL    HW118656   2.207   0.411   6.689  0.0987 -0.4605 -0.7985
 2399SOL    HW218657   2.078   0.445   6.765 -0.4900 -1.6614  0.4002
 2400SOL     OW18658   2.332   2.282   7.859 -0.2199  0.3416 -0.1504
 2400SOL    HW118659   2.303   2.333   7.784 -0.7494  0.7223  0.3080
 2400SOL    HW218660   2.351   2.197   7.820  0.0156  1.0637 -1.5811
 2401SOL     OW18661   3.629   4.721   1.711  0.0641 -0.1489 -0.2153
 2401SOL    HW118662   3.633   0.063   1.782 -1.6859  0.4212 -0.6254
 2401SOL    HW218663   3.581   4.659   1.765 -0.7737  0.1626 -0.5964
 2402SOL     OW18664   2.397   2.678  10.434  0.3020 -0.1817  0.3039
 2402SOL    HW118665   2.389   2.745  10.502 -2.7824  0.2042 -0.4463
 2402SOL    HW218666   2.306   2.655  10.414  0.1315 -1.4833  2.6395
 2403SOL     OW18667   0.906   2.292   8.272 -0.3902 -0.2062  0.0803
 2403SOL    HW118668   0.914   2.380   8.308  2.2769 -0.2930 -0.3236
 2403SOL    HW218669   0.983   2.284   8.216 -0.6497  0.0155 -0.3046
 2404SOL     OW18670   3.721   2.757   1.949 -0.1996 -0.4530  0.7188
 2404SOL    HW118671   3.675   2.839   1.965 -1.5364 -1.1345  0.3457
 2404SOL    HW218672   3.677   2.722   1.872  0.5737  0.4596 -0.1229
 2405SOL     OW18673   0.905   1.972   6.731  0.3412  0.9161  0.4153
 2405SOL    HW118674   0.943   1.956   6.818 -0.4518 -2.7551  0.0592
 2405SOL    HW218675   0.813   1.947   6.735  0.6054 -0.1224 -0.0649
 2406SOL     OW18676   4.067   0.649   4.522 -0.2345  0.4593  0.2670
 2406SOL    HW118677   4.138   0.591   4.550 -1.4412 -1.5376 -0.7910
 2406SOL    HW218678   3.987   0.601   4.545 -0.3191  0.8567  0.7833
 2407SOL     OW18679   4.684   0.437  15.867 -0.6231 -0.5957 -0.4850
 2407SOL    HW118680   4.703   0.492  15.943 -0.5420  1.4672 -1.9816
 2407SOL    HW218681   0.048   0.420  15.829 -1.1595 -2.4905 -0.8415
 2408SOL     OW18682   2.962   0.204   4.119  0.7204  0.4677  0.2002
 2408SOL    HW118683   2.924   0.292   4.118  1.4769  0.7927  0.1277
 2408SOL    HW218684   3.045   0.228   4.161  0.8521  0.1413  0.1282
 2409SOL     OW18685   2.860   1.922   3.396  0.0557 -0.9087  0.1206
 2409SOL    HW118686   2.892   1.887   3.313 -1.3879 -0.6041 -0.5644
 2409SOL    HW218687   2.774   1.880   3.401 -0.0448 -0.7971 -0.6745
 2410SOL     OW18688   0.556   1.212  12.971  0.7102  0.3900 -0.1522
 2410SOL    HW118689   0.531   1.257  12.891 -0.8271  0.2952  0.2691
 2410SOL    HW218690   0.494   1.138  12.975  1.7016 -0.4344  0.0305
 2411SOL     OW18691   0.309   3.722   7.586  0.3530 -0.0889  0.2684
 2411SOL    HW118692   0.240   3.742   7.649  0.2410  4.0666 -1.1874
 2411SOL    HW218693   0.391   3.735   7.635 -0.0600  1.0634  0.6460
 2412SOL     OW18694   4.369   0.280   8.246  0.1058  0.3077  0.2119
 2412SOL    HW118695   4.342   0.295   8.155  0.0205  2.0597  0.5191
 2412SOL    HW218696   4.408   0.364   8.269 -1.0415  1.2187 -1.1015
 2413SOL     OW18697   3.800   4.442  13.654 -0.1163  0.3657  0.6279
 2413SOL    HW118698   3.834   4.429  13.743 -0.2455 -0.2251  0.5914
 2413SOL    HW218699   3.857   4.513  13.625 -0.6551  0.6083  0.1532
 2414SOL     OW18700   1.476   1.908   6.498 -0.0476  0.3179  0.5741
 2414SOL    HW118701   1.566   1.904   6.531 -0.5379  2.7903  2.1315
 2414SOL    HW218702   1.470   1.840   6.431  1.7449  0.5825  0.1280
 2415SOL     OW18703   1.857   0.359   5.419  0.0073  0.5932 -0.3310
 2415SOL    HW118704   1.778   0.363   5.365  0.4046 -3.8484 -1.2734
 2415SOL    HW218705   1.879   0.267   5.402 -0.9730  0.3585 -0.3190
 2416SOL     OW18706   1.150   3.744  12.887  0.2875  0.2673  0.7369
 2416SOL    HW118707   1.142   3.827  12.935 -1.6033  0.7122 -0.3526
 2416SOL    HW218708   1.245   3.745  12.890  0.3104  0.7001 -0.1042
 2417SOL     OW18709   2.384   2.576   8.039 -0.0328  0.6579 -0.0400
 2417SOL    HW118710   2.451   2.645   8.040  0.7110 -0.0305 -2.1758
 2417SOL    HW218711   2.427   2.521   8.104 -0.9202 -0.1271 -0.1119
 2418SOL     OW18712   4.526   3.467   5.246  0.0179  0.2155  0.2374
 2418SOL    HW118713   4.560   3.522   5.317  1.0498  0.3508 -0.3635
 2418SOL    HW218714   4.431   3.475   5.255 -0.2140  0.0337 -2.0323
 2419SOL     OW18715   4.643   0.347  10.632 -0.6695  0.8803  0.3108
 2419SOL    HW118716   4.608   0.286  10.567 -0.7880 -0.7911  1.9646
 2419SOL    HW218717   4.678   0.416  10.575  1.3036  0.3232  0.8273
 2420SOL     OW18718   0.889   3.099  10.598  0.0158 -0.4121  0.6070
 2420SOL    HW118719   0.810   3.071  10.644  0.4945 -1.6233  0.7056
 2420SOL    HW218720   0.936   3.157  10.658  1.1721 -2.2802  1.4888
 2421SOL     OW18721   2.043   4.549   6.615  0.1316  0.1270 -0.0868
 2421SOL    HW118722   2.096   4.518   6.688  0.5008 -1.2426 -0.9193
 2421SOL    HW218723   2.070   4.641   6.618  2.7080 -0.6749  0.8092
 2422SOL     OW18724   0.232   4.173   2.615  0.1990 -0.3038  0.2988
 2422SOL    HW118725   0.258   4.095   2.663 -1.2167  0.1860  1.8697
 2422SOL    HW218726   0.159   4.205   2.668 -2.1954 -0.6500 -2.7699
 2423SOL     OW18727   1.481   1.067  10.782  0.3295 -0.2008  0.0925
 2423SOL    HW118728   1.483   1.162  10.772 -1.6762 -0.0340  1.1736
 2423SOL    HW218729   1.398   1.049  10.738 -0.4103  1.2913  0.8809
 2424SOL     OW18730   3.384   1.921  11.380  0.0693  0.0545  0.1109
 2424SOL    HW118731   3.474   1.947  11.402  0.8054 -2.4950  0.2041
 2424SOL    HW218732   3.328   1.973  11.438  0.1131 -0.8000  0.9289
 2425SOL     OW18733   4.477   0.692   8.606 -0.0293  0.2726  0.3694
 2425SOL    HW118734   4.462   0.740   8.687  1.9210  1.7796 -0.1451
 2425SOL    HW218735   4.573   0.695   8.606 -0.0080 -0.3686 -1.3802
 2426SOL     OW18736   3.904   3.524   0.700 -0.1485 -0.4784 -0.2557
 2426SOL    HW118737   3.993   3.556   0.713 -0.5055  0.0503  0.8776
 2426SOL    HW218738   3.897   3.457   0.768 -0.4019 -1.6858 -1.4697
 2427SOL     OW18739   2.683   4.651   6.111  0.0841  0.1940 -0.1143
 2427SOL    HW118740   2.736   4.704   6.051  0.0214 -0.4906 -0.7842
 2427SOL    HW218741   2.724   4.682   6.191 -2.0969  2.5966  0.0669
 2428SOL     OW18742   2.648   1.830   8.333 -0.0731 -0.3250 -0.3959
 2428SOL    HW118743   2.737   1.856   8.311 -1.3094  2.2852 -2.3719
 2428SOL    HW218744   2.614   1.910   8.373 -0.5105 -0.9720  0.5092
 2429SOL     OW18745   4.121   0.237  14.203 -0.1936  1.0845 -0.1836
 2429SOL    HW118746   4.112   0.142  14.199  1.0158  1.0109 -1.4558
 2429SOL    HW218747   4.129   0.265  14.294  1.7647 -1.2416  0.3678
 2430SOL     OW18748   3.204   2.350  15.275 -0.2957  0.0947 -0.1485
 2430SOL    HW118749   3.221   2.443  15.285 -0.9031  0.4507 -2.5809
 2430SOL    HW218750   3.266   2.310  15.336  3.1216  1.5718 -2.6915
 2431SOL     OW18751   3.824   3.371  14.478 -0.3219  0.0097 -0.3999
 2431SOL    HW118752   3.766   3.378  14.402  0.7945 -1.7858 -1.4242
 2431SOL    HW218753   3.860   3.460  14.488  0.2328 -0.2331 -0.2182
 2432SOL     OW18754   1.794   3.230   9.858 -0.0250  0.5075  0.2133
 2432SOL    HW118755   1.819   3.267   9.774 -0.7993 -0.4345 -0.4328
 2432SOL    HW218756   1.863   3.165   9.871 -3.4903 -3.0563  0.8338
 2433SOL     OW18757   2.337   1.850  17.164 -0.6537 -0.0210  0.2839
 2433SOL    HW118758   2.398   1.922  17.175  1.3703 -1.6186 -0.4805
 2433SOL    HW218759   2.378   1.764  17.175  1.2920  0.9619  0.5676
 2434SOL     OW18760   0.523   1.206   3.742  0.9260  0.2091 -0.1140
 2434SOL    HW118761   0.591   1.264   3.776  1.3457 -1.8082  2.5371
 2434SOL    HW218762   0.553   1.132   3.795 -1.5458 -0.6226  0.1212
 2435SOL     OW18763   2.016   0.542   4.432 -0.1346  0.7828 -0.0605
 2435SOL    HW118764   2.071   0.602   4.381 -2.4106  1.1539 -2.0810
 2435SOL    HW218765   2.042   0.572   4.519 -0.9720  0.7653  0.1967
 2436SOL     OW18766   1.690   3.303   8.664  0.1354 -0.1288  0.3728
 2436SOL    HW118767   1.636   3.226   8.647  4.0075 -2.5483 -1.1814
 2436SOL    HW218768   1.768   3.264   8.623 -0.8844 -0.4391 -1.2623
 2437SOL     OW18769   3.757   3.789   6.257 -0.1835 -0.0228 -0.2475
 2437SOL    HW118770   3.820   3.723   6.227  1.1788 -0.0583  2.7293
 2437SOL    HW218771   3.812   3.855   6.300 -0.5590  1.2963 -1.7914
 2438SOL     OW18772   3.409   1.035  12.745 -0.1159  0.0272 -0.8669
 2438SOL    HW118773   3.499   1.055  12.719  0.5685 -1.3758  0.4306
 2438SOL    HW218774   3.386   1.108  12.803  0.3041  0.3673 -1.1290
 2439SOL     OW18775   0.442   1.359   6.518 -0.1380 -0.5719 -0.2842
 2439SOL    HW118776   0.363   1.374   6.571  0.2208 -0.9885  0.3653
 2439SOL    HW218777   0.444   1.434   6.460  0.5405 -0.7279 -0.4545
 2440SOL     OW18778   2.169   4.265   1.235 -0.6259  0.2001  0.0705
 2440SOL    HW118779   2.254   4.252   1.278 -0.1011  1.4420 -0.5633
 2440SOL    HW218780   2.124   4.187   1.267  0.5161 -0.8677 -0.9458
 2441SOL     OW18781   3.303   4.072   3.302  0.5224 -0.1407  0.3060
 2441SOL    HW118782   3.370   4.024   3.254 -0.5102 -1.8796  0.5975
 2441SOL    HW218783   3.323   4.164   3.286  0.7876 -0.0004  1.4455
 2442SOL     OW18784   1.302   3.837   9.454 -0.0372  0.0034 -1.0565
 2442SOL    HW118785   1.296   3.918   9.503  1.6479  0.8764 -2.2923
 2442SOL    HW218786   1.393   3.806   9.463 -0.0544 -0.3515 -2.0152
 2443SOL     OW18787   3.657   4.214  16.983  0.0404 -0.0105  0.4850
 2443SOL    HW118788   3.686   4.192  17.072  1.9153 -0.2709 -0.1834
 2443SOL    HW218789   3.617   4.301  16.982  0.3839  0.1372 -0.6006
 2444SOL     OW18790   1.160   3.775   4.199  0.4001  0.0499 -0.2656
 2444SOL    HW118791   1.245   3.774   4.244 -0.8818 -0.5440  2.1517
 2444SOL    HW218792   1.172   3.824   4.117  2.8446 -2.1725 -1.2238
 2445SOL     OW18793   4.291   1.943   5.734  0.0940  0.2002  0.1431
 2445SOL    HW118794   4.312   1.850   5.739  1.0262  0.3189 -1.5258
 2445SOL    HW218795   4.373   1.984   5.705 -0.0258  1.3554  1.4325
 2446SOL     OW18796   2.772   2.182   6.663 -0.3874 -0.0132  0.4182
 2446SOL    HW118797   2.784   2.088   6.650  1.0256  0.1493  0.5519
 2446SOL    HW218798   2.839   2.209   6.726 -0.1188 -1.9211  0.9390
 2447SOL     OW18799   3.595   0.789  13.342 -0.1728  0.4440  0.1558
 2447SOL    HW118800   3.616   0.846  13.268  1.8962 -3.7890 -2.5167
 2447SOL    HW218801   3.538   0.725  13.299  1.3188 -1.4907  1.0969
 2448SOL     OW18802   2.338   4.476   5.322 -0.0600  1.0448 -0.1482
 2448SOL    HW118803   2.384   4.402   5.363 -1.0690 -0.0692 -1.0279
 2448SOL    HW218804   2.258   4.467   5.375  0.2484  0.4987  0.2295
 2449SOL     OW18805   3.687   4.553  11.692 -0.4554 -0.7025 -0.4457
 2449SOL    HW118806   3.714   4.525  11.604  1.7817 -1.1840  0.3974
 2449SOL    HW218807   3.756   4.612  11.722 -1.0484  0.1640 -0.7803
 2450SOL     OW18808   1.478   0.424   5.832  0.0390 -0.1672  0.0359
 2450SOL    HW118809   1.546   0.361   5.810 -0.8032 -1.6696  1.7019
 2450SOL    HW218810   1.427   0.425   5.751 -1.0900  0.9832  0.7642
 2451SOL     OW18811   1.340   4.587   3.979 -0.2111 -0.2405 -0.6806
 2451SOL    HW118812   1.406   4.525   4.010 -1.8859 -0.9870  1.4184
 2451SOL    HW218813   1.260   4.534   3.983  0.7488 -1.4484  2.1475
 2452SOL     OW18814   2.422   1.849   8.006  0.5822 -0.0729  0.0510
 2452SOL    HW118815   2.484   1.912   7.970  1.3391  0.1144  1.7072
 2452SOL    HW218816   2.479   1.776   8.029  1.7497  0.7576 -0.1968
 2453SOL     OW18817   4.627   2.397   8.903 -0.6882  0.1503  0.2806
 2453SOL    HW118818   4.689   2.441   8.961 -1.8062  2.7707 -0.5082
 2453SOL    HW218819   4.684   2.334   8.858  1.4719  0.8979  1.9786
 2454SOL     OW18820   1.629   3.757   0.880  0.7871  0.1830 -0.6644
 2454SOL    HW118821   1.684   3.776   0.955  0.8132 -0.2929 -0.5622
 2454SOL    HW218822   1.602   3.845   0.853 -0.5237  0.2419  0.8200
 2455SOL     OW18823   3.260   4.529   4.770 -0.1458  0.4117 -0.3071
 2455SOL    HW118824   3.337   4.525   4.713 -0.7045 -0.5378 -0.9883
 2455SOL    HW218825   3.190   4.538   4.706  0.1593 -1.9196 -0.9679
 2456SOL     OW18826   0.619   4.256   3.732 -0.1167 -0.4051 -0.1837
 2456SOL    HW118827   0.674   4.191   3.688 -0.7261 -0.8031 -0.3784
 2456SOL    HW218828   0.671   4.329   3.699  0.7760 -1.1959 -0.5191
 2457SOL     OW18829   1.126   1.715  13.671 -0.1696  0.4931 -0.4535
 2457SOL    HW118830   1.086   1.769  13.603 -2.8642 -0.0850  0.6498
 2457SOL    HW218831   1.138   1.789  13.729 -3.0542 -1.3212  2.4484
 2458SOL     OW18832   3.691   4.613  15.585 -0.3400 -0.3129  0.0108
 2458SOL    HW118833   3.752   4.651  15.522 -0.5222 -2.1056 -1.2440
 2458SOL    HW218834   3.751   4.565  15.641 -2.1781  0.4935  2.6683
 2459SOL     OW18835   1.297   1.857  13.929 -0.5774  0.1001 -0.2091
 2459SOL    HW118836   1.258   1.944  13.920 -2.0408 -0.4926  0.4738
 2459SOL    HW218837   1.276   1.831  14.019  2.6074 -0.9919  0.2258
 2460SOL     OW18838   3.698   0.890  16.546  0.2338 -0.1224 -0.6911
 2460SOL    HW118839   3.647   0.831  16.602 -0.0412 -0.0681 -0.8805
 2460SOL    HW218840   3.633   0.941  16.496 -0.4700  1.5375  1.9389
 2461SOL     OW18841   4.284   0.774  13.536 -0.1860  0.2939  0.6093
 2461SOL    HW118842   4.363   0.812  13.576 -0.5877  1.0183  0.7152
 2461SOL    HW218843   4.270   0.840  13.468 -0.6583 -1.1845 -0.7229
 2462SOL     OW18844   4.403   2.816   4.877  0.6263 -0.7918 -0.4821
 2462SOL    HW118845   4.366   2.875   4.943  0.9200 -1.7552  0.5356
 2462SOL    HW218846   4.493   2.819   4.908  1.2107 -2.0534 -2.0626
 2463SOL     OW18847   2.826   2.185  16.818  0.0539  0.7097 -0.1008
 2463SOL    HW118848   2.900   2.195  16.878  0.4919 -2.1304 -0.1345
 2463SOL    HW218849   2.860   2.231  16.742 -2.9136  0.8036 -1.3605
 2464SOL     OW18850   1.122   0.975   5.447 -0.7743 -0.0425 -0.6655
 2464SOL    HW118851   1.091   1.065   5.443  1.5701  0.8759  2.0445
 2464SOL    HW218852   1.170   0.970   5.364  1.1132 -1.1591  0.4935
 2465SOL     OW18853   2.250   1.400   5.283 -0.2447  0.2172 -0.6563
 2465SOL    HW118854   2.269   1.492   5.304 -0.7834  0.1933 -0.0362
 2465SOL    HW218855   2.202   1.379   5.364  4.0607  0.7699  2.0628
 2466SOL     OW18856   3.126   4.616   3.721  0.1325 -0.6299 -0.0599
 2466SOL    HW118857   3.184   4.575   3.785  2.5566  1.3840 -0.9537
 2466SOL    HW218858   3.077   4.677   3.776 -0.1337  0.0392 -1.0238
 2467SOL     OW18859   1.004   3.509   7.075 -0.0494  0.2235  0.0990
 2467SOL    HW118860   1.012   3.438   7.012  1.3530  0.2567  0.2311
 2467SOL    HW218861   0.912   3.533   7.064 -0.2568 -0.6622 -0.1018
 2468SOL     OW18862   0.418   1.699   8.808 -0.5922 -0.0435 -0.3942
 2468SOL    HW118863   0.340   1.753   8.798 -2.5892 -2.4806  1.9709
 2468SOL    HW218864   0.393   1.613   8.842  0.4533 -0.2525 -0.1300
 2469SOL     OW18865   3.010   4.137   3.734  0.3035  0.2131  0.7503
 2469SOL    HW118866   3.031   4.112   3.644  0.5388 -1.4006  1.2572
 2469SOL    HW218867   3.041   4.228   3.729 -0.2636  0.3935  0.5236
 2470SOL     OW18868   1.988   0.859   1.062 -0.0234  0.3717  0.5637
 2470SOL    HW118869   2.027   0.816   1.138  2.2618  1.6920  0.1380
 2470SOL    HW218870   1.898   0.870   1.094 -0.9380 -1.1109 -1.5070
 2471SOL     OW18871   4.183   3.750   4.430 -0.1386  0.2711 -0.7045
 2471SOL    HW118872   4.204   3.657   4.421 -3.2525 -0.3933 -1.0040
 2471SOL    HW218873   4.212   3.788   4.347  1.7600 -0.2485 -0.2798
 2472SOL     OW18874   3.730   3.794  10.944  0.5193 -0.2118 -0.0550
 2472SOL    HW118875   3.695   3.869  10.895 -0.5660  0.0658  1.1362
 2472SOL    HW218876   3.758   3.746  10.866 -1.1289 -0.5690 -0.4278
 2473SOL     OW18877   4.551   0.551   5.238  0.1199  0.1269 -0.0041
 2473SOL    HW118878   4.635   0.561   5.194  1.1157  1.3732  2.1967
 2473SOL    HW218879   4.512   0.638   5.231 -1.5563 -0.4437  2.4329
 2474SOL     OW18880   3.158   0.819  12.992  0.0575 -0.3191 -0.6241
 2474SOL    HW118881   3.220   0.871  13.042 -0.3436 -0.6572  0.2218
 2474SOL    HW218882   3.163   0.864  12.908  2.2770  1.8384  0.6840
 2475SOL     OW18883   2.676   3.355   3.452  0.4318  0.3002 -0.3662
 2475SOL    HW118884   2.584   3.345   3.477 -0.0714  2.7032 -1.2067
 2475SOL    HW218885   2.726   3.278   3.476 -0.4462  0.5003  2.1688
 2476SOL     OW18886   3.692   1.018  11.730 -0.2865 -0.1937 -0.3812
 2476SOL    HW118887   3.665   0.941  11.781  2.1036  0.5268  1.9632
 2476SOL    HW218888   3.610   1.041  11.687 -0.8685 -1.1232  0.2258
 2477SOL     OW18889   4.261   4.392  10.393  0.3468 -0.3763 -0.1401
 2477SOL    HW118890   4.195   4.460  10.377  1.0398  0.0938 -0.9943
 2477SOL    HW218891   4.257   4.349  10.308  2.2744 -0.2239 -0.3017
 2478SOL     OW18892   2.184   0.834   3.460 -0.2205  0.7504  0.7868
 2478SOL    HW118893   2.254   0.790   3.411  0.1855  2.7633 -0.4329
 2478SOL    HW218894   2.108   0.787   3.426 -0.0624  0.7867  0.3853
 2479SOL     OW18895   2.169   2.376  10.571 -0.5096  0.1269 -0.0892
 2479SOL    HW118896   2.213   2.338  10.495 -1.1579 -1.2083  0.1919
 2479SOL    HW218897   2.180   2.469  10.551 -0.7783 -0.2902 -2.2237
 2480SOL     OW18898   2.571   1.371   7.600  0.2203  0.3922 -0.0700
 2480SOL    HW118899   2.624   1.346   7.677  0.0730  0.2547 -0.0125
 2480SOL    HW218900   2.645   1.400   7.546 -0.9188  0.9471 -1.3299
 2481SOL     OW18901   3.330   2.204  16.790  0.2520  0.3858  0.0727
 2481SOL    HW118902   3.323   2.299  16.804  1.8043  0.1320  2.5908
 2481SOL    HW218903   3.424   2.186  16.801  0.1652 -1.2536 -1.9732
 2482SOL     OW18904   3.281   1.326   5.294 -0.4850  0.4769  0.1554
 2482SOL    HW118905   3.357   1.364   5.337  0.9909 -1.2595 -0.8880
 2482SOL    HW218906   3.225   1.403   5.286 -1.2349 -0.1602 -0.7581
 2483SOL     OW18907   3.546   0.598   4.240 -0.4069  0.3937  0.0688
 2483SOL    HW118908   3.465   0.559   4.208  0.5733 -0.6345 -1.1772
 2483SOL    HW218909   3.566   0.667   4.177 -0.2809 -0.9954 -1.4106
 2484SOL     OW18910   1.942   4.206   7.326 -0.1132 -0.1628 -0.0614
 2484SOL    HW118911   1.888   4.209   7.406 -0.3538 -0.6251 -0.2068
 2484SOL    HW218912   1.991   4.287   7.344  0.6672 -0.6154 -0.1743
 2485SOL     OW18913   3.613   1.928  13.349  0.4213 -0.0280  0.6688
 2485SOL    HW118914   3.706   1.905  13.346  0.2247 -0.5512 -1.4407
 2485SOL    HW218915   3.577   1.855  13.299  1.6750  0.2860 -0.7086
 2486SOL     OW18916   3.770   3.483   9.742 -0.1217  0.7856  0.3530
 2486SOL    HW118917   3.831   3.485   9.668 -0.2759 -0.0650  0.1946
 2486SOL    HW218918   3.697   3.428   9.712 -0.6180  1.7079 -0.1227
 2487SOL     OW18919   4.171   1.328   5.166 -0.5988  0.0505  0.2774
 2487SOL    HW118920   4.181   1.239   5.132  1.3980  0.1393  0.5948
 2487SOL    HW218921   4.078   1.343   5.148 -0.6992 -0.4476  0.3943
 2488SOL     OW18922   1.972   2.487   6.037  0.0622  0.1810 -0.1870
 2488SOL    HW118923   1.986   2.422   5.969  0.5068 -0.5743  0.6373
 2488SOL    HW218924   2.062   2.518   6.042 -0.1728  1.1205 -1.7339
 2489SOL     OW18925   0.441   4.651   4.794 -0.3744  0.7523  0.4375
 2489SOL    HW118926   0.507   4.665   4.862 -3.3991  5.0946  2.4230
 2489SOL    HW218927   0.454   4.558   4.774  0.0339  1.0706 -0.8063
 2490SOL     OW18928   0.762   3.116   5.044  0.1944 -0.0652  0.2109
 2490SOL    HW118929   0.824   3.156   4.982  1.2120 -1.6261  0.2331
 2490SOL    HW218930   0.721   3.190   5.089  2.0828  0.3950  1.1809
 2491SOL     OW18931   2.599   1.924   4.633 -0.0079  0.4455 -0.0547
 2491SOL    HW118932   2.515   1.879   4.648 -0.3589  0.0964 -2.9898
 2491SOL    HW218933   2.569   1.987   4.567  3.6757  0.3384 -1.8303
 2492SOL     OW18934   0.445   0.593   5.944 -0.1597 -0.2714 -0.2246
 2492SOL    HW118935   0.368   0.643   5.918 -2.4563 -3.6905 -0.0099
 2492SOL    HW218936   0.435   0.609   6.038  0.7612  0.1688 -0.1985
 2493SOL     OW18937   3.523   3.925  11.745  0.1019  0.5861  0.6164
 2493SOL    HW118938   3.526   3.853  11.808 -1.2621  0.1805  0.2338
 2493SOL    HW218939   3.547   3.885  11.661 -1.9943  0.6544 -0.0199
 2494SOL     OW18940   0.370   4.657  16.222  0.0310  0.1102  0.6753
 2494SOL    HW118941   0.462   4.683  16.222 -0.1234  0.6382 -0.0639
 2494SOL    HW218942   0.362   4.634  16.315  0.1984 -0.4582  0.5515
 2495SOL     OW18943   0.756   0.188  10.755 -0.4093 -0.4501 -0.0431
 2495SOL    HW118944   0.725   0.278  10.745  0.9671  0.0275 -0.0113
 2495SOL    HW218945   0.851   0.194  10.742 -0.2489  0.8531  1.9202
 2496SOL     OW18946   1.049   0.743  13.543 -0.5004  0.1464 -0.2403
 2496SOL    HW118947   1.129   0.767  13.589  0.7861 -1.8728 -1.3847
 2496SOL    HW218948   1.081   0.682  13.476 -0.3329 -0.1273  0.0930
 2497SOL     OW18949   2.383   2.412   2.143  0.0549 -0.1748  0.2874
 2497SOL    HW118950   2.373   2.435   2.236  2.2592  0.4553  0.3680
 2497SOL    HW218951   2.431   2.330   2.141  2.5153  1.2861 -0.4020
 2498SOL     OW18952   2.901   1.742  13.502  0.5355 -0.1621  0.3303
 2498SOL    HW118953   2.900   1.692  13.421 -0.2994 -1.7215  1.2974
 2498SOL    HW218954   2.808   1.746  13.525  0.6530 -2.2310  1.2039
 2499SOL     OW18955   1.818   0.369   8.867 -0.2716 -0.2680  0.0868
 2499SOL    HW118956   1.900   0.323   8.885 -0.3524 -1.0425 -1.5253
 2499SOL    HW218957   1.853   0.450   8.831 -1.3524  0.5799  0.9390
 2500SOL     OW18958   1.622   1.145   3.565  0.1215  0.0489  0.2736
 2500SOL    HW118959   1.546   1.189   3.604 -0.7453  0.0976 -1.4490
 2500SOL    HW218960   1.616   1.058   3.605 -1.2483  1.5015  3.2185
 2501SOL     OW18961   0.236   3.286   8.686 -0.0091  0.0196  0.2308
 2501SOL    HW118962   0.251   3.342   8.610  1.0741  0.3902  0.7107
 2501SOL    HW218963   0.160   3.336   8.716 -2.8264 -2.8712 -2.0281
 2502SOL     OW18964   0.374   1.897   4.459  0.0682  0.0736 -0.0393
 2502SOL    HW118965   0.307   1.901   4.390  0.0955 -1.1445 -0.1356
 2502SOL    HW218966   0.451   1.863   4.412 -0.1701 -1.0003  0.3556
 2503SOL     OW18967   4.127   0.615  16.086  0.5395 -0.1890 -0.4155
 2503SOL    HW118968   4.136   0.596  16.179 -0.5351 -1.0368 -0.4769
 2503SOL    HW218969   4.053   0.673  16.068 -0.0583 -0.5907  0.8158
 2504SOL     OW18970   0.184   1.823  15.218 -0.0718 -0.3313  0.1704
 2504SOL    HW118971   0.146   1.909  15.199 -0.2666 -0.1643  1.3060
 2504SOL    HW218972   0.220   1.844  15.305  0.9640  0.6739 -0.4947
 2505SOL     OW18973   2.913   4.533   7.567  0.7942 -0.3097  0.7183
 2505SOL    HW118974   2.841   4.479   7.536  0.7613  0.0902  0.1044
 2505SOL    HW218975   2.929   4.592   7.494  0.2992  1.3705  1.9728
 2506SOL     OW18976   2.935   3.297   3.973  0.1276 -0.5437  0.7596
 2506SOL    HW118977   2.844   3.269   3.982 -0.0583 -0.0950  0.3075
 2506SOL    HW218978   2.939   3.285   3.878 -0.5567 -0.7972  0.7628
 2507SOL     OW18979   2.611   3.482  17.140  0.3808  0.0545 -0.5206
 2507SOL    HW118980   2.683   3.530  17.179 -1.2227  1.5892  0.5567
 2507SOL    HW218981   2.548   3.553  17.156 -1.4024 -0.7137 -4.0627
 2508SOL     OW18982   4.214   0.572  14.761  0.1668  0.1238 -0.2960
 2508SOL    HW118983   4.119   0.567  14.760  0.1083  1.7975 -2.9531
 2508SOL    HW218984   4.227   0.481  14.736  0.6977 -0.0180  0.4926
 2509SOL     OW18985   2.797   4.353  13.834 -0.2981  0.0426  0.0200
 2509SOL    HW118986   2.844   4.382  13.756  0.0638  0.6576  0.4574
 2509SOL    HW218987   2.797   4.260  13.812  1.3547  0.0628 -0.0569
 2510SOL     OW18988   1.422   2.370   0.572 -0.2912 -0.5337 -0.3399
 2510SOL    HW118989   1.414   2.380   0.667  0.3433  0.0683 -0.3509
 2510SOL    HW218990   1.465   2.285   0.570  0.9869  0.1135 -0.1028
 2511SOL     OW18991   2.128   3.489   2.206  0.6861  0.5536 -0.3157
 2511SOL    HW118992   2.044   3.446   2.223  1.5697 -0.7654  0.7724
 2511SOL    HW218993   2.128   3.557   2.272  2.4974 -0.5735  0.8396
 2512SOL     OW18994   3.698   1.084   5.269  0.3443 -0.3175 -0.0572
 2512SOL    HW118995   3.667   1.023   5.203 -3.0163  0.5398  0.7093
 2512SOL    HW218996   3.753   1.027   5.322 -1.9292 -1.9059  0.5988
 2513SOL     OW18997   0.334   1.756   6.502 -0.1940  0.5484 -0.3736
 2513SOL    HW118998   0.269   1.784   6.567 -0.1509 -1.8654  0.7062
 2513SOL    HW218999   0.307   1.675   6.458 -0.4978  1.0887 -1.1702
 2514SOL     OW19000   3.247   0.781   2.986  0.6353  0.0807 -0.0966
 2514SOL    HW119001   3.238   0.809   2.895  0.2084  0.0017 -0.0788
 2514SOL    HW219002   3.189   0.842   3.031  1.5998  0.0770  1.1665
 2515SOL     OW19003   3.675   3.632  11.319  0.6770 -0.7942 -0.0739
 2515SOL    HW119004   3.641   3.656  11.233  2.3190  1.6287 -0.0609
 2515SOL    HW219005   3.727   3.555  11.295 -0.0196 -1.2075 -0.2376
 2516SOL     OW19006   4.007   4.197   6.698 -0.2272 -0.0907  0.2204
 2516SOL    HW119007   4.095   4.228   6.677 -1.1921  1.7907 -1.0704
 2516SOL    HW219008   4.029   4.139   6.771  1.2431  3.2857  2.4307
 2517SOL     OW19009   1.576   2.699  11.067 -0.2734 -0.2904 -0.3949
 2517SOL    HW119010   1.633   2.624  11.084  0.5291  0.3371 -0.3382
 2517SOL    HW219011   1.488   2.666  11.047 -1.0220  1.9999 -0.8976
 2518SOL     OW19012   1.154   0.669   7.609  0.3675 -0.0119 -0.3879
 2518SOL    HW119013   1.060   0.685   7.612  0.2639 -0.2560 -2.1624
 2518SOL    HW219014   1.173   0.653   7.701 -2.0807  0.0719  0.1304
 2519SOL     OW19015   0.992   3.908   8.247 -0.5996  0.6261  0.5167
 2519SOL    HW119016   1.014   3.898   8.339 -0.3218  2.7625  0.6687
 2519SOL    HW219017   0.985   4.001   8.227  1.0705  0.2438 -1.9867
 2520SOL     OW19018   0.252   4.402   9.384  0.9430  0.9673 -0.4497
 2520SOL    HW119019   0.271   4.376   9.474  1.2607  0.2677 -0.7165
 2520SOL    HW219020   0.295   4.339   9.325  0.6326  1.5412 -1.2933
 2521SOL     OW19021   1.348   4.648   2.291 -0.5118  0.6522  0.0550
 2521SOL    HW119022   1.283   4.621   2.226  0.7966  0.1872 -1.0630
 2521SOL    HW219023   1.334   0.021   2.292 -0.3288  0.6742  0.3937
 2522SOL     OW19024   2.962   0.130   7.019 -0.1194  0.0965 -0.2929
 2522SOL    HW119025   2.965   0.155   7.111 -2.2945 -2.5988  0.4902
 2522SOL    HW219026   3.030   0.062   7.024 -0.7964 -0.4527  1.3684
 2523SOL     OW19027   2.166   0.063  16.425  0.1613 -0.3610 -0.2861
 2523SOL    HW119028   2.107   0.031  16.358  2.6770 -3.7089 -0.8930
 2523SOL    HW219029   2.250   0.073  16.381 -1.6297 -1.0952 -3.8327
 2524SOL     OW19030   4.046   0.522  17.274 -0.0726 -0.9225  0.2878
 2524SOL    HW119031   4.082   0.441  17.309 -1.5216 -1.2498  1.0115
 2524SOL    HW219032   4.048   0.578  17.352  0.4144  0.2617 -0.5718
 2525SOL     OW19033   2.007   0.446   0.041 -0.2490  0.4583 -0.3979
 2525SOL    HW119034   2.010   0.400  17.649  1.4767  0.3854 -0.2863
 2525SOL    HW219035   1.943   0.392   0.087 -1.0577  0.8072 -1.0952
 2526SOL     OW19036   0.216   3.174   7.052 -0.7714 -0.7158  0.5058
 2526SOL    HW119037   0.282   3.209   7.112  0.6948 -2.7928  0.1190
 2526SOL    HW219038   0.178   3.257   7.024 -0.8933 -0.7847  0.4681
 2527SOL     OW19039   1.766   4.175  14.193  0.0433 -0.5306 -0.5231
 2527SOL    HW119040   1.786   4.227  14.115  1.2882 -1.8524 -1.1003
 2527SOL    HW219041   1.834   4.107  14.193  1.8066  1.2441  1.1605
 2528SOL     OW19042   1.619   0.630   6.032  0.3770 -0.1334 -0.1043
 2528SOL    HW119043   1.635   0.565   5.963 -0.9021 -1.8517  1.2248
 2528SOL    HW219044   1.548   0.682   5.995  0.1054 -0.9955 -0.8019
 2529SOL     OW19045   1.844   4.434  11.479  0.1221 -0.2266 -0.1535
 2529SOL    HW119046   1.929   4.411  11.442  0.1816  1.3110 -0.9434
 2529SOL    HW219047   1.811   4.356  11.525  0.3503  0.7820  1.7028
 2530SOL     OW19048   3.845   4.712   1.283 -0.0425 -0.1856 -0.1364
 2530SOL    HW119049   3.781   4.675   1.223  1.4846 -0.8710 -1.3252
 2530SOL    HW219050   3.921   4.658   1.261  0.7688  0.8227  0.1449
 2531SOL     OW19051   3.388   3.068  15.208 -0.6928 -0.0209 -0.4539
 2531SOL    HW119052   3.347   3.011  15.143 -1.4050  0.3856 -0.3657
 2531SOL    HW219053   3.432   3.134  15.153  0.6470  1.0993  1.9586
 2532SOL     OW19054   1.088   2.665   5.466 -0.3417  0.1012  0.6721
 2532SOL    HW119055   1.163   2.609   5.485  0.8904  1.3467 -0.5072
 2532SOL    HW219056   1.083   2.664   5.370 -0.8632  0.9399  0.6865
 2533SOL     OW19057   3.696   1.378   6.693 -0.0238  0.4178 -0.2893
 2533SOL    HW119058   3.745   1.340   6.620  0.1474 -1.0299  0.5693
 2533SOL    HW219059   3.677   1.299   6.744  0.1491  1.1663  0.9183
 2534SOL     OW19060   3.415   2.643   5.860 -0.2725  0.1183  0.3838
 2534SOL    HW119061   3.362   2.599   5.793  0.2623  1.4564 -0.9026
 2534SOL    HW219062   3.480   2.697   5.815  0.6757 -0.0043  1.6154
 2535SOL     OW19063   0.259   1.707   6.075 -0.7840 -0.0123 -0.3168
 2535SOL    HW119064   0.227   1.675   6.160 -2.3993 -1.4661 -1.4889
 2535SOL    HW219065   0.223   1.796   6.082  2.2173  1.0269  2.0936
 2536SOL     OW19066   2.410   0.017   6.426  0.5503  0.4234  0.0216
 2536SOL    HW119067   2.483   0.079   6.429 -0.9114  2.0928  1.0394
 2536SOL    HW219068   2.454   4.663   6.465  1.1848 -0.0443 -1.6229
 2537SOL     OW19069   0.498   2.097   6.494  0.5207 -0.2613 -0.2348
 2537SOL    HW119070   0.510   2.166   6.428 -4.0429 -0.4303 -1.2180
 2537SOL    HW219071   0.465   2.139   6.573 -2.7539 -0.1931 -1.6374
 2538SOL     OW19072   2.954   2.608  17.234  0.7131 -0.4022  0.3155
 2538SOL    HW119073   3.033   2.626  17.286  1.3106 -0.3309 -0.6149
 2538SOL    HW219074   2.948   2.514  17.248 -2.8841 -0.2137 -0.1396
 2539SOL     OW19075   4.054   4.564   7.656  0.2698  0.0186  0.6509
 2539SOL    HW119076   4.013   4.493   7.607  1.6424 -0.6725  0.4799
 2539SOL    HW219077   4.008   4.641   7.625  0.3440 -0.1684  0.0852
 2540SOL     OW19078   4.059   3.161   3.666  0.1854  0.8973  0.1598
 2540SOL    HW119079   4.067   3.070   3.640 -0.5273  1.1372 -0.8989
 2540SOL    HW219080   4.150   3.178   3.690  0.2033  1.4115 -0.2615
 2541SOL     OW19081   0.919   2.808  15.113  0.8815 -0.2321  0.6927
 2541SOL    HW119082   0.932   2.792  15.019 -0.2860  0.3088  0.4438
 2541SOL    HW219083   0.963   2.892  15.122 -0.3898  0.3919  0.9743
 2542SOL     OW19084   0.436   1.072   2.875 -0.0733 -0.6684 -0.1526
 2542SOL    HW119085   0.392   1.112   2.800  0.9751 -2.3818 -1.6850
 2542SOL    HW219086   0.461   1.152   2.922 -1.0418 -1.4142  1.6575
 2543SOL     OW19087   3.881   3.736  15.742 -0.0516 -0.1713  0.6764
 2543SOL    HW119088   3.860   3.709  15.653 -0.6054  1.1325  0.4209
 2543SOL    HW219089   3.940   3.668  15.774 -0.1537 -1.8236 -2.6292
 2544SOL     OW19090   4.672   3.531   5.597  0.3469  0.2412  0.3343
 2544SOL    HW119091   4.644   3.618   5.570 -2.5862 -0.0657  2.2984
 2544SOL    HW219092   0.044   3.544   5.606  0.7278 -1.8705 -0.4547
 2545SOL     OW19093   0.675   4.326   6.720  0.3595  0.0498  0.2671
 2545SOL    HW119094   0.638   4.353   6.637  0.7814  0.9077  0.3606
 2545SOL    HW219095   0.647   4.403   6.770 -1.4342 -0.4938  0.1124
 2546SOL     OW19096   2.123   4.081   2.900  0.2206  0.2409 -0.1907
 2546SOL    HW119097   2.078   4.090   2.816  1.1257 -0.0737 -0.7099
 2546SOL    HW219098   2.081   4.146   2.956 -0.1041 -0.5107  0.4364
 2547SOL     OW19099   1.363   3.429   6.151 -0.2347 -0.6072  0.2190
 2547SOL    HW119100   1.411   3.354   6.187 -0.5321 -0.0637  1.7740
 2547SOL    HW219101   1.368   3.489   6.225 -0.1844  0.7789 -0.9193
 2548SOL     OW19102   4.347   4.085  14.241  0.0981  0.1079  0.4861
 2548SOL    HW119103   4.332   4.012  14.181 -0.2364 -1.1765  2.1411
 2548SOL    HW219104   4.358   4.026  14.315  0.8785  0.0241  0.3136
 2549SOL     OW19105   1.802   0.936   5.063 -0.7547 -0.2180  0.5077
 2549SOL    HW119106   1.783   0.849   5.098  2.0262 -0.6938  0.8347
 2549SOL    HW219107   1.814   0.989   5.143 -1.3053 -0.0774  0.4988
 2550SOL     OW19108   3.623   1.385  15.054 -0.6582 -0.0130  0.0853
 2550SOL    HW119109   3.570   1.389  14.974 -0.9009 -2.1670  0.1285
 2550SOL    HW219110   3.641   1.292  15.068 -0.1353  0.0829  0.0358
 2551SOL     OW19111   3.000   2.983   5.667  0.1760  0.1544 -0.3271
 2551SOL    HW119112   3.042   2.960   5.750  0.4236 -0.5853 -0.6652
 2551SOL    HW219113   3.081   3.005   5.621 -0.6337  0.6483 -1.4979
 2552SOL     OW19114   2.220   0.174   2.647  0.1862 -0.1862  0.0325
 2552SOL    HW119115   2.191   0.209   2.562 -2.9737  2.7357  2.2945
 2552SOL    HW219116   2.226   0.082   2.622 -2.2943 -0.5676  0.8704
 2553SOL     OW19117   3.715   4.630   6.987 -0.1315  0.1465 -0.0772
 2553SOL    HW119118   3.648   4.585   6.935 -1.8074  1.4775  0.9345
 2553SOL    HW219119   3.798   4.644   6.942 -1.3640  3.1959 -1.4109
 2554SOL     OW19120   1.734   1.340   0.299  0.3633  0.2291  0.2376
 2554SOL    HW119121   1.758   1.415   0.353 -0.3560  0.7306 -0.1468
 2554SOL    HW219122   1.779   1.271   0.348  1.5946  1.4644  0.8218
 2555SOL     OW19123   3.770   3.456   4.989 -0.3276 -0.0799  0.2482
 2555SOL    HW119124   3.833   3.503   4.934 -1.2907 -1.5486 -2.1030
 2555SOL    HW219125   3.712   3.521   5.030  1.1212 -0.3084  2.6229
 2556SOL     OW19126   1.539   1.398   8.445  0.3852 -0.1273 -0.2401
 2556SOL    HW119127   1.582   1.394   8.531  0.1696 -0.0556 -0.1279
 2556SOL    HW219128   1.459   1.443   8.471  1.7389  2.5162 -0.6616
 2557SOL     OW19129   1.973   3.814   8.827 -0.4803  0.1349  0.1202
 2557SOL    HW119130   2.056   3.844   8.862 -1.9646  1.9812  2.0370
 2557SOL    HW219131   1.994   3.727   8.793  2.2500  0.5981  0.6701
 2558SOL     OW19132   4.282   4.527   3.246  0.3563  0.1380  0.4423
 2558SOL    HW119133   4.188   4.539   3.261  0.6288 -0.4400  2.6977
 2558SOL    HW219134   4.317   4.600   3.297  2.0695  0.1858 -0.8005
 2559SOL     OW19135   0.522   4.088   6.608 -0.2337  0.1307  0.4847
 2559SOL    HW119136   0.575   4.058   6.534 -3.5499 -0.4956 -1.6636
 2559SOL    HW219137   0.587   4.073   6.677  1.4012  1.9397 -0.6353
 2560SOL     OW19138   4.660   2.580   7.007  0.3103  0.2548  0.1258
 2560SOL    HW119139   4.629   2.496   6.975  0.9350  0.9181 -2.1826
 2560SOL    HW219140   4.709   2.627   6.940 -0.5386  1.3536  0.2708
 2561SOL     OW19141   1.003   0.528   6.226  0.0983 -0.2222 -0.0062
 2561SOL    HW119142   0.922   0.510   6.178 -0.5035  2.1028  0.1051
 2561SOL    HW219143   0.981   0.489   6.310 -0.8487 -0.1823 -0.2311
 2562SOL     OW19144   0.896   2.492   6.186 -0.2568 -0.0102  0.3147
 2562SOL    HW119145   0.896   2.443   6.268 -2.3707 -1.3646 -0.4996
 2562SOL    HW219146   0.866   2.576   6.222 -0.0324  0.0311  0.4050
 2563SOL     OW19147   4.019   1.886   7.837  0.6341 -0.2336  0.1273
 2563SOL    HW119148   4.054   1.969   7.806  0.5906  0.0996  0.9677
 2563SOL    HW219149   3.933   1.887   7.795  0.0015 -1.5294  1.3838
 2564SOL     OW19150   3.185   0.766   2.558  0.3313 -0.5520  0.4268
 2564SOL    HW119151   3.191   0.761   2.463  1.2879  3.3191  0.2691
 2564SOL    HW219152   3.089   0.769   2.558  0.3292 -0.3708 -2.9400
 2565SOL     OW19153   1.317   0.307   6.843  0.5777  0.2017 -0.6410
 2565SOL    HW119154   1.351   0.356   6.769  0.8010  0.6585 -0.2380
 2565SOL    HW219155   1.273   0.235   6.797  0.1726 -2.3960  3.8223
 2566SOL     OW19156   1.972   1.145   5.699  0.2795  0.1674  0.3181
 2566SOL    HW119157   1.886   1.185   5.712 -0.3280 -1.0297 -0.0266
 2566SOL    HW219158   2.005   1.114   5.784  1.3332 -0.8683 -0.4776
 2567SOL     OW19159   3.019   3.644   8.304  0.7533  0.0289 -0.0079
 2567SOL    HW119160   3.110   3.669   8.313  0.5947 -0.0740  2.0036
 2567SOL    HW219161   3.027   3.557   8.265  1.1136  1.2269 -2.5604
 2568SOL     OW19162   4.055   0.986   6.023  0.1928  0.2052 -0.2868
 2568SOL    HW119163   3.970   0.967   6.062 -0.4131  1.2372 -1.0833
 2568SOL    HW219164   4.049   1.082   6.016  1.7628  0.4379  1.6174
 2569SOL     OW19165   1.067   0.425   5.832  0.4646 -0.1510 -0.2756
 2569SOL    HW119166   1.150   0.418   5.881 -1.5499  0.2596  3.2032
 2569SOL    HW219167   1.079   0.364   5.759 -0.0868 -0.2427 -0.2834
 2570SOL     OW19168   0.243   0.775   6.865  0.0496 -0.3731  0.4593
 2570SOL    HW119169   0.173   0.827   6.904 -0.2057  0.0402 -0.5689
 2570SOL    HW219170   0.279   0.725   6.938  3.9391  0.2285 -1.0347
 2571SOL     OW19171   1.659   3.471  11.356 -0.3228 -0.1005  0.0389
 2571SOL    HW119172   1.610   3.397  11.321  0.7314 -1.5527  1.6146
 2571SOL    HW219173   1.747   3.434  11.367  0.2083  1.0488 -0.3907
 2572SOL     OW19174   1.138   2.192   9.352 -0.2980  0.3784  0.1928
 2572SOL    HW119175   1.130   2.189   9.256  1.8675  0.3188  0.0308
 2572SOL    HW219176   1.208   2.254   9.370 -0.4716  0.2434  1.2849
 2573SOL     OW19177   0.140   2.248  15.347  0.1307 -0.4260  0.8552
 2573SOL    HW119178   0.074   2.235  15.416 -0.2516  0.7877  0.7163
 2573SOL    HW219179   0.218   2.281  15.390 -0.2541 -1.1970  2.1558
 2574SOL     OW19180   1.300   3.304  14.486  0.2135  0.2782  0.6993
 2574SOL    HW119181   1.268   3.294  14.396 -1.0888 -1.6480  1.3622
 2574SOL    HW219182   1.361   3.376  14.475  0.3366 -0.0557 -0.7869
 2575SOL     OW19183   0.851   1.582   6.021  0.4444 -0.8417 -0.7608
 2575SOL    HW119184   0.785   1.594   6.089  1.6181 -1.4002  0.4577
 2575SOL    HW219185   0.828   1.497   5.984 -2.3954  0.9663 -3.2201
 2576SOL     OW19186   2.767   4.047  15.668  0.0478 -0.5027 -0.2470
 2576SOL    HW119187   2.736   4.122  15.617  1.9686 -1.7801 -3.3225
 2576SOL    HW219188   2.695   3.984  15.667 -0.3631 -0.0732  2.5594
 2577SOL     OW19189   2.915   1.499  14.824  0.0533  0.6012 -0.9650
 2577SOL    HW119190   2.886   1.412  14.851 -0.3637  1.1371  0.3600
 2577SOL    HW219191   2.957   1.533  14.904  0.0846 -1.8880  0.0705
 2578SOL     OW19192   2.490   3.704  17.407 -0.0776  0.2370  0.0526
 2578SOL    HW119193   2.477   3.697  17.313 -1.8183 -0.4625  0.3550
 2578SOL    HW219194   2.542   3.785  17.404 -0.1437  0.3647  2.0542
 2579SOL     OW19195   1.033   2.456   4.272 -0.0696 -0.5954  0.0806
 2579SOL    HW119196   1.048   2.527   4.210 -1.7618  0.8866  1.3754
 2579SOL    HW219197   1.076   2.475   4.356  0.4086  1.5259 -0.6616
 2580SOL     OW19198   1.955   3.552   3.523 -0.3801 -0.5504  0.9437
 2580SOL    HW119199   1.950   3.620   3.456  0.1907 -1.0473  0.3991
 2580SOL    HW219200   1.899   3.484   3.487  0.3194  0.2305 -1.6294
 2581SOL     OW19201   3.482   4.069   2.511  1.0154 -0.1213 -0.1836
 2581SOL    HW119202   3.504   4.033   2.425 -2.4520 -1.6163 -0.4688
 2581SOL    HW219203   3.469   4.162   2.492 -0.7302 -0.4783 -0.7221
 2582SOL     OW19204   4.184   3.115   4.331  0.0695 -0.4270  0.1911
 2582SOL    HW119205   4.166   3.024   4.354 -1.1781 -0.7917 -2.1200
 2582SOL    HW219206   4.257   3.131   4.390 -1.5516 -1.3898  2.4656
 2583SOL     OW19207   3.109   0.609   6.354 -0.4104 -0.1870 -0.0928
 2583SOL    HW119208   3.161   0.571   6.283 -1.2845 -1.6325  0.0377
 2583SOL    HW219209   3.044   0.659   6.306  1.5739  2.8761  0.4397
 2584SOL     OW19210   0.959   2.844   6.043  0.0731  0.4037 -0.0422
 2584SOL    HW119211   0.979   2.909   5.976  2.0935 -2.9670 -2.6857
 2584SOL    HW219212   0.970   2.759   6.000  1.0883 -0.1225  1.2413
 2585SOL     OW19213   0.268   2.016   6.385 -0.4135  0.3337 -0.0950
 2585SOL    HW119214   0.256   1.921   6.384 -0.9563  0.3879  1.5769
 2585SOL    HW219215   0.339   2.028   6.449  1.6723 -2.7760 -1.8691
 2586SOL     OW19216   1.409   3.818   5.310 -0.2819 -0.2856  0.3785
 2586SOL    HW119217   1.504   3.819   5.301 -0.4393  1.1928 -1.2120
 2586SOL    HW219218   1.403   3.741   5.367  0.3647  0.0314  0.8710
 2587SOL     OW19219   4.062   0.341  15.880 -0.0784 -0.1735 -0.2094
 2587SOL    HW119220   4.081   0.435  15.874 -1.2838  0.1286  0.8514
 2587SOL    HW219221   4.100   0.313  15.796 -0.0603  1.4760 -0.7435
 2588SOL     OW19222   4.504   2.249  10.682 -0.7633 -0.3749  0.7694
 2588SOL    HW119223   4.593   2.269  10.651 -0.5973  1.2310  2.3022
 2588SOL    HW219224   4.528   2.241  10.774 -0.1204  0.2579  0.6515
 2589SOL     OW19225   2.443   0.024   0.419  0.1548 -0.3869 -0.2875
 2589SOL    HW119226   2.439   0.112   0.382  0.2047 -0.9526 -1.6604
 2589SOL    HW219227   2.523   0.028   0.471 -0.1999  1.6635  0.0768
 2590SOL     OW19228   3.397   1.752   6.077  0.3193  0.1596  0.3421
 2590SOL    HW119229   3.433   1.663   6.072 -0.8403 -0.5068  3.9250
 2590SOL    HW219230   3.463   1.819   6.060  0.6573 -0.7190 -1.6909
 2591SOL     OW19231   2.171   2.498   5.095 -0.7839  0.2335  0.0084
 2591SOL    HW119232   2.209   2.428   5.148 -1.5757 -0.7903 -0.7749
 2591SOL    HW219233   2.167   2.571   5.156 -1.5920 -0.3550  0.6698
 2592SOL     OW19234   4.441   1.424   7.597 -0.6966 -0.8510  0.2684
 2592SOL    HW119235   4.481   1.402   7.681  0.5046  3.7033  0.8912
 2592SOL    HW219236   4.370   1.485   7.620 -2.9860 -2.8191 -1.5170
 2593SOL     OW19237   2.606   2.619   9.057  0.0514 -0.0611 -0.0373
 2593SOL    HW119238   2.529   2.563   9.048 -0.0297 -0.1791  1.3789
 2593SOL    HW219239   2.675   2.554   9.049 -0.3780 -1.0436  4.0901
 2594SOL     OW19240   2.680   1.144   4.089  0.7172  0.0930  0.4325
 2594SOL    HW119241   2.587   1.120   4.093  0.4559  1.1156  0.4335
 2594SOL    HW219242   2.684   1.239   4.079 -0.2134  0.1175  0.2769
 2595SOL     OW19243   2.938   2.638   6.929 -0.3034 -0.0869 -0.1682
 2595SOL    HW119244   2.902   2.648   7.017  0.9217 -3.4479  0.7418
 2595SOL    HW219245   2.856   2.603   6.893 -0.6976  0.3778  0.2793
 2596SOL     OW19246   2.735   1.308   6.079  0.5305  0.1997  0.0662
 2596SOL    HW119247   2.798   1.379   6.068 -1.5626  2.2732  1.2841
 2596SOL    HW219248   2.783   1.235   6.041  1.7874  0.9087  0.3066
 2597SOL     OW19249   3.641   1.323   7.930 -0.6406  0.0350 -0.4185
 2597SOL    HW119250   3.575   1.390   7.949 -0.2650 -0.3463  2.2957
 2597SOL    HW219251   3.658   1.326   7.836  1.9530  0.1702  0.0647
 2598SOL     OW19252   4.659   0.231   5.260 -0.3185  0.4055  0.4833
 2598SOL    HW119253   4.577   0.277   5.239  1.2014  2.8560 -0.1615
 2598SOL    HW219254   4.662   0.250   5.354 -0.6975 -0.0791  0.5917
 2599SOL     OW19255   3.920   1.424   8.240 -0.0006 -0.2802  0.7045
 2599SOL    HW119256   3.849   1.455   8.296  1.9263 -0.3300  3.1626
 2599SOL    HW219257   3.962   1.507   8.213  1.6377 -1.0225  0.9612
 2600SOL     OW19258   2.811   2.652   2.672 -0.3729 -0.2190  0.2095
 2600SOL    HW119259   2.889   2.669   2.724  1.0818 -0.9758 -1.7253
 2600SOL    HW219260   2.802   2.732   2.620  2.9031 -0.4302 -0.7001
 2601SOL     OW19261   3.057   3.395   7.648 -0.3667 -0.0525 -0.0908
 2601SOL    HW119262   3.119   3.455   7.688 -2.2046  2.2410 -0.6942
 2601SOL    HW219263   3.080   3.408   7.556  0.7404 -0.6099  0.1069
 2602SOL     OW19264   1.255   2.727  14.499 -0.3124 -0.3101 -0.1910
 2602SOL    HW119265   1.218   2.814  14.487 -2.3652 -1.0426  0.8985
 2602SOL    HW219266   1.177   2.678  14.474 -0.0829 -0.3134 -0.9066
 2603SOL     OW19267   0.354   0.660   0.600 -0.0503 -0.6676 -0.0869
 2603SOL    HW119268   0.279   0.713   0.625  0.5475  0.0215  0.2344
 2603SOL    HW219269   0.409   0.733   0.572 -0.2016 -0.1202  1.0381
 2604SOL     OW19270   2.398   0.257   7.154 -0.3013 -0.7635 -0.1858
 2604SOL    HW119271   2.442   0.200   7.091 -0.0790 -2.0715  1.1577
 2604SOL    HW219272   2.455   0.255   7.230 -0.5956  2.9110  0.1439
 2605SOL     OW19273   0.233   1.448   3.190 -0.4012 -0.5200  0.4538
 2605SOL    HW119274   0.199   1.434   3.278 -1.0147 -1.8064  0.0025
 2605SOL    HW219275   0.322   1.474   3.213 -0.8221  2.0278 -0.7941
 2606SOL     OW19276   0.698   0.445   1.253  0.4198  0.4584  0.4515
 2606SOL    HW119277   0.642   0.437   1.176 -2.0736  0.2697  2.3005
 2606SOL    HW219278   0.642   0.391   1.308  0.6006  0.1827  0.3656
 2607SOL     OW19279   0.034   2.263  15.637  0.8884 -0.1684 -0.5415
 2607SOL    HW119280   0.015   2.173  15.663  2.8451  0.5490  3.4648
 2607SOL    HW219281   0.124   2.270  15.669 -0.3420 -1.3008  3.1169
 2608SOL     OW19282   3.040   0.440  12.818 -0.1564  0.2601  0.2242
 2608SOL    HW119283   2.960   0.451  12.870  0.7377  0.0134  1.6503
 2608SOL    HW219284   3.101   0.471  12.885  1.0277  0.8253 -1.1382
 2609SOL     OW19285   1.074   1.229   7.143 -0.5146  0.3776  0.1607
 2609SOL    HW119286   0.984   1.203   7.157 -0.4112 -0.7002 -1.1688
 2609SOL    HW219287   1.061   1.296   7.075  0.6940  0.5143  0.0596
 2610SOL     OW19288   4.309   3.817  11.446 -0.1930  0.2564 -0.1197
 2610SOL    HW119289   4.330   3.736  11.493  0.9959  0.4616 -0.2938
 2610SOL    HW219290   4.222   3.825  11.484  0.7723  0.0445  2.1820
 2611SOL     OW19291   1.842   1.437   5.198 -0.3463 -0.8756  0.0799
 2611SOL    HW119292   1.773   1.384   5.238 -0.3287 -0.0349  1.2209
 2611SOL    HW219293   1.787   1.499   5.150  3.1167  1.0456 -1.3383
 2612SOL     OW19294   1.342   0.230   9.153  0.3247 -0.2333  0.1043
 2612SOL    HW119295   1.339   0.186   9.068  0.0318  2.9118 -1.4990
 2612SOL    HW219296   1.259   0.197   9.188  0.3285  0.3699  0.6760
 2613SOL     OW19297   3.376   3.148   9.219 -0.0459  0.0147  0.6426
 2613SOL    HW119298   3.326   3.122   9.142  0.8567 -0.3362  0.1681
 2613SOL    HW219299   3.324   3.106   9.287  0.9555 -1.6296  0.4037
 2614SOL     OW19300   3.833   0.599   3.538 -0.1067 -0.2624 -0.1047
 2614SOL    HW119301   3.880   0.574   3.617 -1.3222  0.7593  0.9467
 2614SOL    HW219302   3.746   0.558   3.550 -0.9725  1.6418  0.1001
 2615SOL     OW19303   1.364   2.119   3.077 -0.0513 -0.0035  0.0772
 2615SOL    HW119304   1.301   2.165   3.021 -0.5562 -0.2169  0.4659
 2615SOL    HW219305   1.325   2.032   3.071  1.3672 -0.5782 -0.8450
 2616SOL     OW19306   0.401   2.688   8.356 -0.1689 -0.3534  0.4677
 2616SOL    HW119307   0.315   2.660   8.325  0.3694 -1.8785  0.3686
 2616SOL    HW219308   0.424   2.740   8.279 -1.1169  0.1238  0.5077
 2617SOL     OW19309   4.038   4.460  11.088  0.2301  0.1488  0.5036
 2617SOL    HW119310   3.980   4.405  11.141 -1.5433 -0.0724 -1.6548
 2617SOL    HW219311   4.121   4.417  11.104  2.0323  1.9680 -3.9110
 2618SOL     OW19312   0.893   1.282   5.051 -0.4427 -0.1608  0.1227
 2618SOL    HW119313   0.928   1.249   4.968  1.6558  0.9653  0.5454
 2618SOL    HW219314   0.971   1.331   5.077 -0.2342 -0.0908 -0.6324
 2619SOL     OW19315   4.483   3.636   4.399  0.0426  0.3700 -0.4768
 2619SOL    HW119316   4.411   3.623   4.461 -1.3158  1.0307 -1.8945
 2619SOL    HW219317   4.534   3.559   4.424 -0.3416  0.4061  0.4055
 2620SOL     OW19318   1.356   4.563  10.565  0.4572 -0.1559 -0.0745
 2620SOL    HW119319   1.303   4.485  10.552 -0.6273  0.5676 -0.0093
 2620SOL    HW219320   1.433   4.547  10.511  2.4132  0.9870  2.3594
 2621SOL     OW19321   3.145   3.628   8.760 -0.3753 -0.1947  0.3526
 2621SOL    HW119322   3.103   3.670   8.685  1.4059 -1.5878 -1.4285
 2621SOL    HW219323   3.157   3.707   8.814 -0.3817 -0.4303  0.7028
 2622SOL     OW19324   0.763   3.667   3.082 -0.1357 -0.4240  0.3544
 2622SOL    HW119325   0.795   3.740   3.029 -1.5675  0.2340  0.4040
 2622SOL    HW219326   0.835   3.603   3.078 -0.2050 -0.4179 -1.0428
 2623SOL     OW19327   0.086   2.264   7.073 -0.3842  0.1688  0.0789
 2623SOL    HW119328   0.122   2.324   7.008 -0.4567 -0.3590 -0.4435
 2623SOL    HW219329   0.142   2.186   7.074 -1.2416 -0.4443  1.0550
 2624SOL     OW19330   2.235   0.674   2.675 -0.0074  0.3625 -0.4776
 2624SOL    HW119331   2.251   0.677   2.770  1.1348 -1.9119 -0.6001
 2624SOL    HW219332   2.156   0.726   2.660 -0.6804 -0.7007 -0.6259
 2625SOL     OW19333   0.558   3.911   4.757 -0.0617 -0.1299  0.3879
 2625SOL    HW119334   0.475   3.957   4.751  0.1408  0.2323  0.3427
 2625SOL    HW219335   0.603   3.957   4.686  0.4473 -1.1105  0.0688
 2626SOL     OW19336   1.936   1.107   2.998 -0.1825  0.0313  0.3030
 2626SOL    HW119337   2.019   1.060   3.011 -0.0010  0.0351 -0.8330
 2626SOL    HW219338   1.959   1.156   2.920  0.7459 -1.0722 -0.1179
 2627SOL     OW19339   1.753   2.438   0.885  0.3173 -0.0004 -0.4754
 2627SOL    HW119340   1.802   2.355   0.880 -0.4090 -0.2884 -2.8524
 2627SOL    HW219341   1.778   2.471   0.799 -1.3410  2.4642 -0.0050
 2628SOL     OW19342   1.009   3.065  15.695 -0.3540  1.0875 -0.0870
 2628SOL    HW119343   1.096   3.059  15.655 -0.6530  0.2731 -0.6144
 2628SOL    HW219344   0.957   3.012  15.635  1.8923  0.6810 -1.6925
 2629SOL     OW19345   4.719   0.816   4.434  0.3910 -0.0707  0.0297
 2629SOL    HW119346   4.642   0.759   4.435 -0.7630  1.5264  1.3119
 2629SOL    HW219347   0.022   0.817   4.526  0.3126  1.7285  0.0252
 2630SOL     OW19348   0.966   0.290   2.304 -0.2678 -0.6295 -1.0480
 2630SOL    HW119349   0.884   0.315   2.262 -0.0979  0.9311 -0.4587
 2630SOL    HW219350   0.933   0.223   2.364  0.4946 -0.8589 -0.8849
 2631SOL     OW19351   1.330   4.558   5.589 -0.0255  0.4353  0.2067
 2631SOL    HW119352   1.350   4.552   5.496  0.0988  1.0454  0.1939
 2631SOL    HW219353   1.395   4.496   5.622 -0.6017 -1.0989 -1.5301
 2632SOL     OW19354   2.325   3.205  15.512  0.3985  0.0436  0.4367
 2632SOL    HW119355   2.388   3.152  15.561  0.2480 -1.3625 -0.8723
 2632SOL    HW219356   2.339   3.174  15.423  1.2852 -0.1563  0.6509
 2633SOL     OW19357   2.443   1.772  15.651 -0.7157  0.2285 -0.1545
 2633SOL    HW119358   2.422   1.678  15.646  0.3366 -0.0148  0.0121
 2633SOL    HW219359   2.378   1.812  15.709 -0.3453 -0.5942  0.8338
 2634SOL     OW19360   2.021   1.001   1.618  0.0677 -0.3976  0.3374
 2634SOL    HW119361   2.075   1.055   1.675  0.7481 -0.5801 -0.1434
 2634SOL    HW219362   2.035   0.909   1.641 -0.8659 -0.9376 -1.2541
 2635SOL     OW19363   0.498   2.283   0.913 -0.1537  0.4916 -0.5197
 2635SOL    HW119364   0.592   2.275   0.903 -0.0179  2.1765 -0.6618
 2635SOL    HW219365   0.481   2.237   0.995 -0.1327  0.3913 -0.5714
 2636SOL     OW19366   1.203   2.691  14.782 -0.3307 -0.1428  0.2790
 2636SOL    HW119367   1.233   2.669  14.695  1.3500  0.5758  0.6802
 2636SOL    HW219368   1.183   2.604  14.816  0.7390 -0.6472 -0.3744
 2637SOL     OW19369   1.256   0.798   4.074  0.0083  0.2711  0.4509
 2637SOL    HW119370   1.207   0.879   4.093 -1.0006 -0.1338 -0.3981
 2637SOL    HW219371   1.289   0.769   4.158  0.5084  1.8422  0.8048
 2638SOL     OW19372   0.963   3.095  16.556  0.0141 -0.6447 -0.4404
 2638SOL    HW119373   0.890   3.067  16.501 -1.8534 -0.8689  2.1565
 2638SOL    HW219374   0.947   3.190  16.563  2.6216 -0.1146 -1.8111
 2639SOL     OW19375   3.080   0.528  16.496  0.1013 -0.7873  0.3120
 2639SOL    HW119376   3.163   0.553  16.536 -0.1510 -0.8784  0.8920
 2639SOL    HW219377   3.031   0.606  16.521  0.1889 -1.3005  2.0644
 2640SOL     OW19378   0.647   1.780   7.334 -0.2012 -0.6913  0.4711
 2640SOL    HW119379   0.605   1.745   7.256  0.2201 -0.3563  0.0966
 2640SOL    HW219380   0.682   1.698   7.370  0.2405 -0.0253  1.5571
 2641SOL     OW19381   1.344   3.499  10.827 -0.2542 -0.2770 -0.0013
 2641SOL    HW119382   1.424   3.522  10.876 -0.6250  2.8469 -0.8249
 2641SOL    HW219383   1.275   3.539  10.880 -1.7532 -0.8686 -1.5325
 2642SOL     OW19384   1.473   1.808  10.551 -0.2183 -0.1338 -0.7710
 2642SOL    HW119385   1.554   1.846  10.586 -0.7805  1.1515 -0.8682
 2642SOL    HW219386   1.404   1.857  10.596  1.0784 -0.6178  1.7939
 2643SOL     OW19387   2.660   1.558   5.083  0.2062 -0.5777  0.1191
 2643SOL    HW119388   2.609   1.501   5.140 -1.3922  1.0384  0.3021
 2643SOL    HW219389   2.719   1.600   5.145  2.6325  0.0390 -2.6114
 2644SOL     OW19390   0.597   0.114   2.676 -0.3942  0.1539 -0.0217
 2644SOL    HW119391   0.566   0.071   2.596  0.7605 -0.5974 -0.0685
 2644SOL    HW219392   0.565   0.202   2.656 -0.2221 -0.2635 -2.2145
 2645SOL     OW19393   0.929   3.920   7.512  0.3152  0.1490  0.0075
 2645SOL    HW119394   1.024   3.906   7.516  0.3002  0.2790  0.8417
 2645SOL    HW219395   0.937   4.000   7.564  0.7902  0.8987 -1.2451
 2646SOL     OW19396   2.354   1.747   0.507  0.3087  0.0716 -0.2843
 2646SOL    HW119397   2.409   1.754   0.585 -1.8611 -0.3349  1.2925
 2646SOL    HW219398   2.416   1.724   0.439  2.0009  0.3905  1.1620
 2647SOL     OW19399   1.410   0.757   8.625  0.0065  0.2112 -0.8452
 2647SOL    HW119400   1.469   0.821   8.583 -0.0449  0.3721 -0.6703
 2647SOL    HW219401   1.470   0.715   8.686  1.4749  2.3551 -0.7942
 2648SOL     OW19402   2.949   2.940   8.192 -0.1372 -0.4514  0.3302
 2648SOL    HW119403   2.945   2.844   8.198  0.1827 -0.4857 -0.0428
 2648SOL    HW219404   3.033   2.955   8.234 -0.0025 -0.4704  0.0679
 2649SOL     OW19405   4.322   4.067   0.107 -0.2004  0.4376 -0.0783
 2649SOL    HW119406   4.369   4.093   0.187  1.6853 -2.1497 -0.3223
 2649SOL    HW219407   4.389   4.018   0.059  1.2849  1.8683  0.5332
 2650SOL     OW19408   4.557   0.542   8.979 -0.0943 -0.4304  0.7140
 2650SOL    HW119409   4.511   0.474   9.028 -1.8870  2.5726  3.2150
 2650SOL    HW219410   4.547   0.609   9.046  0.5383 -0.1193  0.4924
 2651SOL     OW19411   3.723   3.698   3.915 -0.6134 -0.7458 -0.4083
 2651SOL    HW119412   3.662   3.772   3.919  2.5756  1.9105 -0.4741
 2651SOL    HW219413   3.777   3.707   3.993 -1.0951 -2.6825  0.1354
 2652SOL     OW19414   2.914   4.142   1.263  0.9954  0.0953 -0.7421
 2652SOL    HW119415   2.953   4.151   1.350 -2.9420 -0.5951  1.1011
 2652SOL    HW219416   2.841   4.100   1.307  1.7457 -0.0011  0.4063
 2653SOL     OW19417   1.781   4.292  11.759  0.3557 -0.4735  0.1788
 2653SOL    HW119418   1.782   4.259  11.849 -1.3032 -0.2404  0.2889
 2653SOL    HW219419   1.869   4.279  11.725 -0.2079 -2.2465 -0.6221
 2654SOL     OW19420   2.839   1.170  10.346 -0.2181 -0.2374 -0.5389
 2654SOL    HW119421   2.766   1.114  10.374 -0.8018  1.0145  0.4411
 2654SOL    HW219422   2.802   1.216  10.270 -1.1983  1.9570  1.2646
 2655SOL     OW19423   2.885   1.034  10.705 -0.0233 -0.1016 -0.4148
 2655SOL    HW119424   2.948   1.045  10.776 -0.7788  1.2480  0.0584
 2655SOL    HW219425   2.925   0.971  10.646 -1.3422 -0.2124 -1.2038
 2656SOL     OW19426   0.897   3.367   6.194 -0.2834  0.1875 -0.3729
 2656SOL    HW119427   0.955   3.303   6.154 -0.9041 -0.1632 -0.7068
 2656SOL    HW219428   0.970   3.424   6.218 -1.0232 -0.0793  2.5166
 2657SOL     OW19429   2.450   1.756  11.961  0.2079  0.0458 -0.4005
 2657SOL    HW119430   2.494   1.830  12.002 -0.5217  1.3016 -1.9000
 2657SOL    HW219431   2.490   1.755  11.875  2.4410 -2.6124  0.6632
 2658SOL     OW19432   3.446   3.774  12.943  0.5880 -0.0775 -0.0405
 2658SOL    HW119433   3.383   3.750  13.011  2.1655 -0.6322  1.2070
 2658SOL    HW219434   3.446   3.700  12.882  1.5985 -0.3426  0.2784
 2659SOL     OW19435   1.527   0.048   4.246  0.0577 -0.5028  0.0499
 2659SOL    HW119436   1.447   0.073   4.294  1.8131  0.0293  2.6881
 2659SOL    HW219437   1.551   4.703   4.309  0.8354  0.1487  0.4414
 2660SOL     OW19438   0.993   3.807   0.694  0.9511  0.2990 -0.7363
 2660SOL    HW119439   0.910   3.832   0.734 -0.7672 -1.0659 -3.4082
 2660SOL    HW219440   0.980   3.727   0.644 -1.8571 -1.0293  2.1142
 2661SOL     OW19441   1.947   4.670  14.926 -0.8219 -0.2335  0.2034
 2661SOL    HW119442   1.861   4.656  14.886 -0.3231 -2.3521 -0.1340
 2661SOL    HW219443   1.986   0.020  14.877 -1.5202 -0.8963 -1.3564
 2662SOL     OW19444   3.000   2.941   8.524 -0.2027  0.4679 -0.6136
 2662SOL    HW119445   3.003   2.865   8.582 -1.1315  1.0255  0.1506
 2662SOL    HW219446   3.037   2.902   8.445  2.8279 -1.4823  1.7631
 2663SOL     OW19447   1.369   3.305   6.745  0.0801  0.1962  0.2245
 2663SOL    HW119448   1.386   3.380   6.688 -0.0269 -0.2644 -0.4255
 2663SOL    HW219449   1.379   3.228   6.688  0.5961 -0.8691  1.7698
 2664SOL     OW19450   4.452   2.366   5.563 -0.5460 -0.0838  0.0542
 2664SOL    HW119451   4.424   2.386   5.652  0.0372 -0.4191  0.3170
 2664SOL    HW219452   4.458   2.451   5.521 -1.4081 -1.0099 -1.9634
 2665SOL     OW19453   3.057   2.551  15.447  0.5380 -0.1859 -0.0182
 2665SOL    HW119454   3.008   2.603  15.384 -1.0019 -2.4299 -0.6920
 2665SOL    HW219455   3.014   2.466  15.437  0.1216  0.0021  0.1892
 2666SOL     OW19456   3.641   3.832   1.103  0.6384  0.1441 -0.1492
 2666SOL    HW119457   3.613   3.762   1.043 -0.1170  0.5202 -0.2266
 2666SOL    HW219458   3.727   3.800   1.131  0.2662 -0.1360  0.6662
 2667SOL     OW19459   3.031   3.799   0.509  0.0536  0.1828  0.0545
 2667SOL    HW119460   3.035   3.892   0.489 -0.0133  0.2980  0.5690
 2667SOL    HW219461   3.068   3.793   0.597 -0.8164 -1.8139  0.2912
 2668SOL     OW19462   1.951   3.396   2.379 -0.0764 -0.3279 -0.0463
 2668SOL    HW119463   1.884   3.332   2.354 -1.5637  1.3667 -0.3712
 2668SOL    HW219464   1.901   3.450   2.439 -0.5313 -1.4547  0.5921
 2669SOL     OW19465   3.145   3.515   3.637  0.6600 -0.2198  0.1506
 2669SOL    HW119466   3.206   3.550   3.702 -0.8472  1.5308  0.6418
 2669SOL    HW219467   3.119   3.597   3.593  1.0367  0.3186  0.9328
 2670SOL     OW19468   1.269   0.137   4.021  0.4297 -0.8801  0.6708
 2670SOL    HW119469   1.305   0.050   4.041  1.6147 -0.8904 -1.4546
 2670SOL    HW219470   1.190   0.143   4.073  0.2376  1.4392  0.1201
 2671SOL     OW19471   0.694   0.530  16.231  0.0730  0.7677 -0.4120
 2671SOL    HW119472   0.604   0.523  16.264  0.0430 -0.9951 -0.8978
 2671SOL    HW219473   0.723   0.607  16.279  0.5275 -0.1743  0.8054
 2672SOL     OW19474   1.683   1.839   1.561  0.6425 -0.6867 -0.2594
 2672SOL    HW119475   1.623   1.851   1.635 -0.5529 -1.0441 -1.1850
 2672SOL    HW219476   1.619   1.836   1.490  1.6302 -0.8535 -1.1430
 2673SOL     OW19477   1.590   4.410  14.746 -0.3806  0.2159  0.9772
 2673SOL    HW119478   1.675   4.366  14.757  0.4488  1.1640 -1.6897
 2673SOL    HW219479   1.627   4.499  14.752  0.4667  0.0438 -2.1806
 2674SOL     OW19480   0.655   4.176   5.100 -0.1967  0.4646  0.1555
 2674SOL    HW119481   0.734   4.229   5.086 -0.1871  1.1558  2.8680
 2674SOL    HW219482   0.594   4.239   5.061 -0.0801  1.7631  2.0711
 2675SOL     OW19483   2.231   3.507   1.958  0.8088  0.4114 -0.1335
 2675SOL    HW119484   2.190   3.470   2.036 -0.0308  0.3317 -0.6142
 2675SOL    HW219485   2.226   3.599   1.984 -0.0871  0.7692 -1.5302
 2676SOL     OW19486   2.778   4.097   7.745  0.2816 -0.1568 -0.3434
 2676SOL    HW119487   2.749   4.107   7.836 -0.1129 -2.8379 -0.1707
 2676SOL    HW219488   2.871   4.074   7.750 -0.2771 -1.9058  2.3203
 2677SOL     OW19489   0.565   0.637  11.940  0.5469 -0.6073  0.3504
 2677SOL    HW119490   0.611   0.563  11.899  0.7019 -0.2751 -0.0822
 2677SOL    HW219491   0.477   0.609  11.914 -0.5550  0.7261  2.6608
 2678SOL     OW19492   2.253   0.930   0.411 -0.0814  0.2933 -0.0138
 2678SOL    HW119493   2.338   0.951   0.372 -0.2524  1.5993  0.3492
 2678SOL    HW219494   2.242   0.999   0.476  0.9993  1.4324 -1.0432
 2679SOL     OW19495   3.006   1.002   7.688  0.1696  0.4144 -0.4386
 2679SOL    HW119496   2.976   0.911   7.682  1.6442 -0.1523  0.8670
 2679SOL    HW219497   3.047   1.001   7.774 -1.1139 -0.5090  0.1674
 2680SOL     OW19498   3.517   4.420  11.842  0.1678 -0.7344  0.0086
 2680SOL    HW119499   3.573   4.472  11.785 -1.6504 -0.2591 -1.3491
 2680SOL    HW219500   3.430   4.438  11.805 -0.4924  2.1789  2.9264
 2681SOL     OW19501   3.466   1.124   8.053 -0.0698  0.0637 -0.4767
 2681SOL    HW119502   3.503   1.046   8.095  0.5750  1.9385  2.4024
 2681SOL    HW219503   3.538   1.176   8.016  0.0611 -0.4022 -0.8817
 2682SOL     OW19504   2.256   0.943   2.326 -0.0001 -0.0758 -0.1548
 2682SOL    HW119505   2.311   0.999   2.381  1.1094 -0.5114 -0.8318
 2682SOL    HW219506   2.310   0.880   2.279 -0.2208 -0.1171 -0.3546
 2683SOL     OW19507   4.642   2.812   3.992  0.9684 -0.1199 -0.1049
 2683SOL    HW119508   4.652   2.750   3.920  0.0371 -2.0381  1.3856
 2683SOL    HW219509   4.552   2.787   4.014  0.2814  1.0357 -1.6135
 2684SOL     OW19510   4.134   0.236   4.115  0.4830  0.1469  0.3838
 2684SOL    HW119511   4.101   0.295   4.182  0.3900  0.3057  0.1997
 2684SOL    HW219512   4.055   0.216   4.065 -0.9968  3.0490  1.5226
 2685SOL     OW19513   1.349   4.019  12.805  0.1418 -0.1671  0.2809
 2685SOL    HW119514   1.281   4.022  12.873 -2.0549  1.2151 -1.9761
 2685SOL    HW219515   1.314   3.953  12.744 -0.1318  0.0654  0.1864
 2686SOL     OW19516   3.305   0.875   4.118  0.2482 -0.0057 -1.3006
 2686SOL    HW119517   3.390   0.919   4.124  0.7637 -1.2543  0.8947
 2686SOL    HW219518   3.320   0.838   4.031 -1.6519  0.6630 -1.8904
 2687SOL     OW19519   3.236   2.113  11.528  0.5805  0.2993  0.7434
 2687SOL    HW119520   3.302   2.173  11.563  0.2307  1.6984 -1.0282
 2687SOL    HW219521   3.177   2.165  11.474  0.3997 -0.6748  0.0152
 2688SOL     OW19522   2.166   0.386   7.230  1.1816  0.2124  0.2991
 2688SOL    HW119523   2.206   0.441   7.298  0.2888  2.8876 -1.3209
 2688SOL    HW219524   2.238   0.326   7.214  0.5624  0.3196 -2.9323
 2689SOL     OW19525   2.443   0.498  12.152  0.0784  0.3865  0.7163
 2689SOL    HW119526   2.386   0.433  12.112 -0.2228  0.5363  0.9042
 2689SOL    HW219527   2.407   0.496  12.240 -3.8309  0.0559 -0.8880
 2690SOL     OW19528   4.125   2.235  14.966  0.5193 -0.7862 -0.3896
 2690SOL    HW119529   4.200   2.275  15.009 -1.1123  1.3423  0.4883
 2690SOL    HW219530   4.116   2.150  15.011 -0.4147  0.7358  2.2854
 2691SOL     OW19531   4.058   2.378  16.482 -0.1152 -0.5797 -0.5148
 2691SOL    HW119532   4.128   2.416  16.536 -1.9262  0.3399  1.1697
 2691SOL    HW219533   4.000   2.454  16.478 -0.2781 -0.6303  0.9233
 2692SOL     OW19534   4.462   0.773   1.000  0.2691  0.0758  0.1076
 2692SOL    HW119535   4.366   0.767   0.997  0.2410  0.4249  0.2681
 2692SOL    HW219536   4.474   0.832   1.074 -1.1278 -1.1722  1.3335
 2693SOL     OW19537   3.877   3.209   5.124 -0.1343  0.3571  0.0066
 2693SOL    HW119538   3.863   3.295   5.082 -0.1069  1.2137  1.7647
 2693SOL    HW219539   3.972   3.206   5.129 -0.2218 -0.6792  0.8929
 2694SOL     OW19540   0.414   0.568   6.999  0.4335  0.3491 -0.1312
 2694SOL    HW119541   0.358   0.528   6.933  0.6460 -0.7259  0.3370
 2694SOL    HW219542   0.469   0.492   7.016  1.0913  1.2982  2.0362
 2695SOL     OW19543   3.474   1.793   9.278  0.1093 -0.0139  0.4994
 2695SOL    HW119544   3.545   1.796   9.214 -0.8987  0.3720 -0.6068
 2695SOL    HW219545   3.518   1.762   9.357 -0.3653  1.4765  1.3472
 2696SOL     OW19546   4.466   0.575  16.675 -1.1278 -0.0434  0.5095
 2696SOL    HW119547   4.487   0.520  16.751  0.6338  1.2711  0.9601
 2696SOL    HW219548   4.394   0.522  16.640 -0.7088  0.0909 -0.5657
 2697SOL     OW19549   1.281   4.182  10.976  0.4297  0.0602 -0.3325
 2697SOL    HW119550   1.267   4.116  10.908 -1.7655 -1.0372  1.2080
 2697SOL    HW219551   1.211   4.162  11.038 -0.2058 -0.3330 -1.1855
 2698SOL     OW19552   1.188   0.630   6.576  0.0606  0.1739 -0.0417
 2698SOL    HW119553   1.188   0.696   6.508 -0.3873  0.4670  0.2427
 2698SOL    HW219554   1.130   0.664   6.644 -0.4367 -0.1616 -0.3014
 2699SOL     OW19555   3.990   2.205   3.154 -0.0739  0.0292  0.1540
 2699SOL    HW119556   4.016   2.113   3.145  0.3264 -0.2293  3.7647
 2699SOL    HW219557   4.054   2.224   3.223 -0.6058 -0.7243  0.8498
 2700SOL     OW19558   0.459   3.646   8.776 -0.8211 -0.1320 -0.2098
 2700SOL    HW119559   0.374   3.641   8.820 -1.0151  1.4425 -0.4061
 2700SOL    HW219560   0.437   3.698   8.699  0.6475 -0.5655 -0.9317
 2701SOL     OW19561   1.831   2.804   7.859  0.4028 -0.2623 -0.2403
 2701SOL    HW119562   1.873   2.725   7.826 -0.0781 -0.2499 -0.8715
 2701SOL    HW219563   1.767   2.828   7.792  0.4324 -3.3846 -1.3733
 2702SOL     OW19564   1.939   2.942  15.911 -0.0148 -0.1574 -0.5155
 2702SOL    HW119565   1.844   2.953  15.912 -0.1147 -1.0724  0.4576
 2702SOL    HW219566   1.956   2.935  16.005  1.5408  0.6882 -0.7396
 2703SOL     OW19567   4.374   1.246  12.618  0.1777  0.5003  0.3140
 2703SOL    HW119568   4.287   1.208  12.630 -0.0822  0.2686 -2.3941
 2703SOL    HW219569   4.401   1.290  12.699  0.4108  0.9939 -0.0343
 2704SOL     OW19570   3.958   3.267   4.279  0.7370  0.8430 -0.1238
 2704SOL    HW119571   4.010   3.190   4.301 -1.2802 -0.4604  0.0728
 2704SOL    HW219572   3.993   3.334   4.337 -1.3491  2.2305 -0.4665
 2705SOL     OW19573   1.794   1.755   0.078  0.0182 -0.2948  0.4088
 2705SOL    HW119574   1.763   1.830   0.026 -2.5433 -0.3508  1.8260
 2705SOL    HW219575   1.715   1.708   0.105 -0.8651  1.5493  1.0198
 2706SOL     OW19576   2.395   2.003   0.065 -0.4035  0.3786  0.3114
 2706SOL    HW119577   2.327   2.054   0.022 -0.0646  0.0275 -0.6467
 2706SOL    HW219578   2.456   2.071   0.093 -0.2337  0.0778  0.6706
 2707SOL     OW19579   3.566   3.442  12.181 -0.4934  0.0084 -0.5905
 2707SOL    HW119580   3.624   3.508  12.142 -0.0008  0.2154  0.4693
 2707SOL    HW219581   3.506   3.499  12.230 -2.9848 -1.6777 -1.7162
 2708SOL     OW19582   4.372   0.701   4.968  0.2383  0.0214  0.0875
 2708SOL    HW119583   4.370   0.736   5.058  2.8475 -1.4564  0.7207
 2708SOL    HW219584   4.289   0.653   4.975 -0.1487  0.5640 -0.8030
 2709SOL     OW19585   1.812   2.495   3.159  0.7691 -0.0610  0.1644
 2709SOL    HW119586   1.729   2.543   3.164  0.4012 -0.5255 -1.5175
 2709SOL    HW219587   1.864   2.553   3.103 -0.3663  1.6934  0.9145
 2710SOL     OW19588   4.698   1.289   2.689  0.5310 -0.4613 -0.1865
 2710SOL    HW119589   4.614   1.308   2.648  0.0668  0.2210  1.0743
 2710SOL    HW219590   4.683   1.331   2.774 -1.2421 -0.8932 -0.2791
 2711SOL     OW19591   3.630   0.442  10.891  0.8665 -0.4620  0.3174
 2711SOL    HW119592   3.539   0.418  10.906  0.0713  3.4792  1.8786
 2711SOL    HW219593   3.628   0.535  10.911 -0.0711 -0.0466 -1.7273
 2712SOL     OW19594   1.006   3.752   5.260  0.1859 -0.2564 -0.0213
 2712SOL    HW119595   0.981   3.764   5.351  1.5068  4.5138 -0.2882
 2712SOL    HW219596   0.926   3.770   5.211 -0.3972  0.3764  1.1743
 2713SOL     OW19597   2.901   4.257   2.555 -0.5950  0.6226 -0.6291
 2713SOL    HW119598   2.995   4.274   2.559 -0.1985 -1.9599  1.0547
 2713SOL    HW219599   2.855   4.330   2.597  0.0909  2.0844 -2.4196
 2714SOL     OW19600   0.060   3.508   8.771 -0.7872  0.1385  0.2362
 2714SOL    HW119601   0.029   3.567   8.840 -0.3571 -0.0076  0.5520
 2714SOL    HW219602   0.082   3.577   8.709 -1.7392 -2.5155 -3.0550
 2715SOL     OW19603   0.536   1.852   6.170 -0.1235 -0.4914  0.3581
 2715SOL    HW119604   0.568   1.763   6.160 -1.9231 -0.9497 -1.2740
 2715SOL    HW219605   0.451   1.845   6.213  0.9677  1.3311  2.8333
 2716SOL     OW19606   1.743   1.405   0.029  0.0286  0.1371  0.1162
 2716SOL    HW119607   1.668   1.353   0.000  1.5972 -0.3465 -3.1150
 2716SOL    HW219608   1.766   1.356   0.108  1.9296  1.4068  0.3462
 2717SOL     OW19609   3.460   2.414   6.658  0.2431 -0.2112  0.0156
 2717SOL    HW119610   3.511   2.451   6.587  1.4289  0.4613  1.2305
 2717SOL    HW219611   3.386   2.474   6.666  1.7671  1.8374 -1.3695
 2718SOL     OW19612   1.457   4.128   8.959  0.1707  0.1813  0.3512
 2718SOL    HW119613   1.543   4.119   8.918  0.3235 -1.6701  1.0784
 2718SOL    HW219614   1.438   4.221   8.943 -1.8008  0.0234  1.6931
 2719SOL     OW19615   2.599   2.709  15.276 -0.1591  0.6661  0.0220
 2719SOL    HW119616   2.640   2.653  15.342 -1.8000 -1.4035 -0.6913
 2719SOL    HW219617   2.547   2.640  15.234  0.5617 -0.9153  1.7471
 2720SOL     OW19618   3.373   0.521   7.334  0.0751  0.2421  0.0555
 2720SOL    HW119619   3.410   0.433   7.340 -0.8821 -0.0864  1.1190
 2720SOL    HW219620   3.422   0.576   7.396  2.1213 -0.6208 -0.7771
 2721SOL     OW19621   3.665   4.713   0.869  0.5009 -0.8211 -0.3981
 2721SOL    HW119622   3.723   0.057   0.833 -1.9239  1.6453  0.2522
 2721SOL    HW219623   3.584   0.008   0.821 -1.2049 -2.1004  2.0079
 2722SOL     OW19624   1.712   1.153  10.442  0.3897 -0.5731  0.0273
 2722SOL    HW119625   1.681   1.193  10.361 -0.6790 -0.0599  0.6988
 2722SOL    HW219626   1.745   1.230  10.486 -1.8023  0.6309 -0.4258
 2723SOL     OW19627   0.098   2.550   9.741 -0.0328 -0.3186 -0.0035
 2723SOL    HW119628   0.038   2.484   9.776 -0.3471 -0.4345 -0.7529
 2723SOL    HW219629   0.164   2.494   9.700 -0.2213 -0.6410  0.1391
 2724SOL     OW19630   4.060   4.069  14.527 -0.0891  0.1764 -0.5019
 2724SOL    HW119631   4.153   4.051  14.544  0.0967  0.3779 -1.2938
 2724SOL    HW219632   4.030   3.984  14.496 -0.4783 -0.3846  1.4455
 2725SOL     OW19633   0.908   0.757   4.480 -0.0796  0.4128 -0.3861
 2725SOL    HW119634   0.879   0.734   4.392 -3.2092 -1.3866  1.1122
 2725SOL    HW219635   0.971   0.826   4.464  0.1129  0.1097 -0.9432
 2726SOL     OW19636   1.670   2.992   8.732  0.4915 -0.6340  0.0332
 2726SOL    HW119637   1.606   3.018   8.666  0.5954 -0.2750  0.0739
 2726SOL    HW219638   1.741   2.956   8.679  1.0800 -1.7019  1.5398
 2727SOL     OW19639   1.821   1.248   0.690 -0.1138  0.0540  0.4739
 2727SOL    HW119640   1.842   1.188   0.618 -2.7074 -0.9213  0.5221
 2727SOL    HW219641   1.844   1.336   0.660 -0.2150 -0.4054 -0.9718
 2728SOL     OW19642   4.441   1.754  16.694 -0.4584 -0.3674  0.1599
 2728SOL    HW119643   4.494   1.781  16.619 -4.0090  1.7923 -1.5711
 2728SOL    HW219644   4.359   1.765  16.647  0.8589  3.3200 -1.2215
 2729SOL     OW19645   1.714   1.837  17.315  0.0453  0.1929  0.7367
 2729SOL    HW119646   1.694   1.931  17.323 -2.1131 -0.1610 -0.6102
 2729SOL    HW219647   1.768   1.846  17.236  0.0375  0.5016  0.7638
 2730SOL     OW19648   3.199   2.750   7.847  0.2146  0.2421  0.2888
 2730SOL    HW119649   3.145   2.782   7.775  1.6405  0.8185 -0.5313
 2730SOL    HW219650   3.178   2.657   7.847  1.1836  0.0270  1.5850
 2731SOL     OW19651   2.218   2.912  14.299  0.1763 -0.5698  0.7214
 2731SOL    HW119652   2.143   2.941  14.352 -0.7115  0.0987 -0.9029
 2731SOL    HW219653   2.177   2.899  14.214  0.0511  0.1289  0.6738
 2732SOL     OW19654   2.314   3.740  11.434  0.3288  0.1930 -0.0928
 2732SOL    HW119655   2.321   3.645  11.426 -1.4730  0.2065 -1.7125
 2732SOL    HW219656   2.342   3.779  11.351  1.4579 -1.1519 -0.3479
 2733SOL     OW19657   1.330   4.101   9.511 -0.2043  0.8835  0.0560
 2733SOL    HW119658   1.236   4.119   9.514 -0.1405  0.8896  2.0241
 2733SOL    HW219659   1.367   4.177   9.556 -0.5410 -0.4637  2.6235
 2734SOL     OW19660   1.538   2.977  11.397  0.4951 -0.0646 -0.2011
 2734SOL    HW119661   1.592   3.028  11.337  0.7246  0.6791  0.6395
 2734SOL    HW219662   1.541   3.036  11.472  0.2383  1.5224 -1.4527
 2735SOL     OW19663   1.790   1.146   2.520  0.5629  0.0700  0.0642
 2735SOL    HW119664   1.881   1.117   2.519  0.7285  0.6003 -0.7071
 2735SOL    HW219665   1.782   1.203   2.443  2.4049 -0.2842 -0.3820
 2736SOL     OW19666   0.975   1.989   3.460  0.0447 -0.0003  0.3560
 2736SOL    HW119667   0.973   1.995   3.364 -1.4729  0.0007  0.3811
 2736SOL    HW219668   1.058   1.941   3.459  1.4777  2.4779  0.4930
 2737SOL     OW19669   3.832   2.641   0.435 -0.1552  0.0157 -0.4422
 2737SOL    HW119670   3.789   2.700   0.374  3.6815  1.6977 -1.5604
 2737SOL    HW219671   3.767   2.572   0.423 -0.1601 -0.3450  1.7712
 2738SOL     OW19672   4.381   1.690   3.173 -0.3197  0.3324 -0.2562
 2738SOL    HW119673   4.453   1.751   3.157 -1.3807  1.5380 -0.3828
 2738SOL    HW219674   4.315   1.718   3.110 -1.9435 -2.3344  0.2548
 2739SOL     OW19675   2.439   2.180  14.229  0.5407 -0.5428 -0.2027
 2739SOL    HW119676   2.352   2.210  14.255  0.0771 -0.9837 -1.2716
 2739SOL    HW219677   2.486   2.262  14.241 -1.0576  0.5765 -1.6629
 2740SOL     OW19678   1.010   1.494   6.548  0.1863  0.2154  0.3712
 2740SOL    HW119679   1.044   1.466   6.463  0.5853  0.5041  0.4327
 2740SOL    HW219680   1.085   1.505   6.606  1.7636  0.7605 -1.7652
 2741SOL     OW19681   3.802   3.419  16.777 -0.3790 -0.2359 -0.2774
 2741SOL    HW119682   3.767   3.398  16.691 -1.6284  0.9038 -0.0493
 2741SOL    HW219683   3.758   3.503  16.793 -2.3600 -0.8868 -2.3167
 2742SOL     OW19684   1.295   4.250  14.344 -0.2463  0.5072 -0.4354
 2742SOL    HW119685   1.372   4.301  14.371 -0.8825 -0.1372  2.6103
 2742SOL    HW219686   1.284   4.206  14.428 -1.7401  1.0064 -0.3768
 2743SOL     OW19687   3.364   1.765   6.379  0.5708  0.0536  0.0668
 2743SOL    HW119688   3.423   1.818   6.433 -1.6469  4.4452 -1.8845
 2743SOL    HW219689   3.355   1.815   6.298  0.7113  2.3832  1.4772
 2744SOL     OW19690   3.291   2.482  10.865  0.1732  0.7474 -0.1316
 2744SOL    HW119691   3.263   2.508  10.953 -0.5811  2.5028 -0.8865
 2744SOL    HW219692   3.372   2.532  10.853  0.6334 -0.9180 -3.8118
 2745SOL     OW19693   4.377   0.192   7.266  0.2903 -0.1181 -0.6130
 2745SOL    HW119694   4.361   0.216   7.175 -1.2629 -0.4666 -0.4193
 2745SOL    HW219695   4.331   0.108   7.269  2.2856 -1.2365 -1.0289
 2746SOL     OW19696   2.176   4.556   2.729 -0.2805  0.3303  0.2046
 2746SOL    HW119697   2.186   4.593   2.642  0.3520 -0.2904  0.0080
 2746SOL    HW219698   2.249   4.493   2.727 -0.5190  0.0161  1.1417
 2747SOL     OW19699   0.412   2.810   7.348 -0.3609  0.4918 -0.2112
 2747SOL    HW119700   0.328   2.787   7.310  0.0868  1.5285 -1.8211
 2747SOL    HW219701   0.411   2.904   7.366  1.1368  0.4511  0.0920
 2748SOL     OW19702   3.196   2.465   8.779 -0.1101  0.3620  0.0608
 2748SOL    HW119703   3.231   2.453   8.868  1.1204  0.7198 -0.3750
 2748SOL    HW219704   3.136   2.391   8.778  0.3625 -0.0520  2.0781
 2749SOL     OW19705   0.235   1.554   5.209  0.0214 -0.8709 -0.0442
 2749SOL    HW119706   0.280   1.498   5.272 -0.4750 -1.4997 -0.2375
 2749SOL    HW219707   0.273   1.524   5.126  2.8564  0.3684  0.8205
 2750SOL     OW19708   4.246   0.745  11.424  0.4227  0.6662 -0.3170
 2750SOL    HW119709   4.325   0.784  11.463 -1.4107  2.4674  1.6810
 2750SOL    HW219710   4.235   0.670  11.482  1.4641  0.8906  0.1694
 2751SOL     OW19711   2.383   4.659   7.462  0.1133  0.0747 -0.3003
 2751SOL    HW119712   2.434   4.715   7.520 -0.6736  0.4432  0.0387
 2751SOL    HW219713   2.323   4.608   7.518 -0.0582  2.5606  1.7603
 2752SOL     OW19714   3.559   1.858   5.596  0.2095  0.3205 -0.5058
 2752SOL    HW119715   3.540   1.944   5.558 -1.7410 -0.1389 -0.5539
 2752SOL    HW219716   3.637   1.835   5.546 -1.1122 -2.1399 -1.3993
 2753SOL     OW19717   3.883   4.410  15.354 -0.2849  0.3520 -0.0945
 2753SOL    HW119718   3.867   4.318  15.331 -1.9224  0.3319  1.1945
 2753SOL    HW219719   3.932   4.396  15.435  0.9716  0.4944 -0.8324
 2754SOL     OW19720   3.980   0.813   4.328  0.1695  0.5358 -0.6004
 2754SOL    HW119721   4.012   0.754   4.396  1.8086  1.5808 -0.4692
 2754SOL    HW219722   3.937   0.874   4.389 -1.3273 -0.1280 -1.0099
 2755SOL     OW19723   4.009   2.039   4.927 -0.4312 -0.3189 -0.1791
 2755SOL    HW119724   4.021   1.954   4.970  2.1839 -0.2326 -0.7182
 2755SOL    HW219725   3.924   2.064   4.962 -0.4153 -0.7317  0.1509
 2756SOL     OW19726   0.461   2.721   3.547  0.1984 -1.0822  0.2122
 2756SOL    HW119727   0.541   2.704   3.497 -0.3101  1.8798 -1.5974
 2756SOL    HW219728   0.437   2.807   3.511 -0.9419 -1.0983  0.9391
 2757SOL     OW19729   2.062   1.928   3.695 -0.7030  0.9499 -0.3673
 2757SOL    HW119730   2.079   1.834   3.694 -1.7296  0.7633  0.0037
 2757SOL    HW219731   2.072   1.953   3.603  1.1388 -1.4677 -0.8201
 2758SOL     OW19732   3.544   3.288   4.792  0.1170  0.2753 -0.3799
 2758SOL    HW119733   3.597   3.265   4.716 -2.3008 -1.1640 -1.6747
 2758SOL    HW219734   3.609   3.351   4.822  0.5284  0.2034 -1.1242
 2759SOL     OW19735   4.270   0.517   4.207 -0.1642 -0.1635 -0.3585
 2759SOL    HW119736   4.277   0.471   4.291  1.7042 -2.3593 -1.7329
 2759SOL    HW219737   4.322   0.594   4.228 -0.9481  0.8104 -1.9459
 2760SOL     OW19738   2.104   1.897   1.428  0.2822  0.3152  0.4242
 2760SOL    HW119739   2.083   1.921   1.519 -1.2624 -0.4486  0.2673
 2760SOL    HW219740   2.040   1.827   1.416  0.7293 -0.4191  2.2849
 2761SOL     OW19741   3.585   1.257  15.559  0.4931 -0.0057  0.0430
 2761SOL    HW119742   3.644   1.298  15.622 -0.6557 -0.2413  1.2876
 2761SOL    HW219743   3.606   1.313  15.484  0.8482 -0.2020  0.0004
 2762SOL     OW19744   2.101   1.333  13.070  0.7222  0.1867 -0.1195
 2762SOL    HW119745   2.175   1.367  13.020  1.3348 -0.1176  0.5790
 2762SOL    HW219746   2.121   1.240  13.059  0.1140  0.0043  0.2766
 2763SOL     OW19747   0.093   3.160   7.807 -0.4618 -0.3091  0.2364
 2763SOL    HW119748   0.107   3.248   7.843  2.0226 -0.4470 -0.3877
 2763SOL    HW219749   0.000   3.164   7.783 -0.6790 -0.7198  1.0487
 2764SOL     OW19750   4.477   1.350   5.133 -0.1250  0.4030  0.2499
 2764SOL    HW119751   4.390   1.358   5.173  0.6025  0.4903  1.8393
 2764SOL    HW219752   4.462   1.386   5.046 -1.2403  1.7139  0.9956
 2765SOL     OW19753   1.990   1.701  14.020  0.8555 -0.1115 -0.0700
 2765SOL    HW119754   1.895   1.692  14.029  0.6918  1.2461 -0.4009
 2765SOL    HW219755   2.007   1.657  14.104 -1.0764  1.3104  1.0699
 2766SOL     OW19756   3.363   0.238   3.893  0.9244  0.6002  0.2636
 2766SOL    HW119757   3.362   0.219   3.799  0.4712  1.5011  0.0857
 2766SOL    HW219758   3.305   0.166   3.920  3.0845 -1.3154 -0.2649
 2767SOL     OW19759   2.158   1.589   3.441  0.0798  0.0793  0.5275
 2767SOL    HW119760   2.204   1.519   3.487  0.3326 -0.7398 -0.9659
 2767SOL    HW219761   2.230   1.618   3.385  0.0633 -0.5581  0.1748
 2768SOL     OW19762   0.606   0.182   0.061  1.0433  0.1529 -0.2212
 2768SOL    HW119763   0.653   0.238   0.124  0.7336  0.4304 -0.2377
 2768SOL    HW219764   0.562   0.121   0.120 -0.2305  1.3094  0.0355
 2769SOL     OW19765   4.645   0.590   2.336 -0.5912  0.0823 -0.1480
 2769SOL    HW119766   4.633   0.495   2.336 -0.7780  0.1278  3.8083
 2769SOL    HW219767   4.567   0.613   2.386 -0.5811  0.5739 -0.3538
 2770SOL     OW19768   2.749   1.991   5.196 -0.5955  0.1497  0.0291
 2770SOL    HW119769   2.691   1.919   5.220  0.2705 -0.3007  0.7186
 2770SOL    HW219770   2.823   1.979   5.254 -0.4813 -1.7559 -0.5162
 2771SOL     OW19771   3.967   0.775   2.981  0.1963 -0.4730  0.1595
 2771SOL    HW119772   4.007   0.860   2.964 -3.3894  0.7346 -2.1488
 2771SOL    HW219773   3.876   0.798   3.001 -0.7881 -1.9315 -2.5749
 2772SOL     OW19774   3.120   2.638   4.913  0.1501  0.6600  0.1985
 2772SOL    HW119775   3.070   2.569   4.956 -1.2522  1.9282  0.6173
 2772SOL    HW219776   3.208   2.610   4.936  0.7930  2.2741 -0.3072
 2773SOL     OW19777   0.836   3.120   8.114 -0.5404 -0.7068  0.3227
 2773SOL    HW119778   0.841   3.213   8.137 -1.0583 -0.0609 -2.0864
 2773SOL    HW219779   0.777   3.091   8.184 -1.2750 -0.8260 -0.3397
 2774SOL     OW19780   1.844   3.727   4.005  0.2118 -0.5800 -0.1447
 2774SOL    HW119781   1.918   3.702   3.949 -0.2997  1.9002 -1.9148
 2774SOL    HW219782   1.848   3.822   4.014  0.0007 -0.5230 -0.6774
 2775SOL     OW19783   1.149   2.573   1.943  0.0243 -0.1518 -0.5466
 2775SOL    HW119784   1.189   2.488   1.923 -0.7949 -0.7980  0.5370
 2775SOL    HW219785   1.150   2.619   1.859  0.7082  2.8933  1.1122
 2776SOL     OW19786   3.275   2.677   8.342  0.3788  0.4362 -0.0110
 2776SOL    HW119787   3.275   2.659   8.436  1.3988  2.3665  0.3782
 2776SOL    HW219788   3.206   2.618   8.314  0.7552 -0.9933  2.1059
 2777SOL     OW19789   1.989   4.367   4.386 -0.4895  0.8257 -0.0322
 2777SOL    HW119790   1.974   4.460   4.370 -0.0682  1.0911  1.1174
 2777SOL    HW219791   2.044   4.385   4.462  0.2107 -1.6792  0.0643
 2778SOL     OW19792   2.464   4.540   9.421  0.0054 -0.0244  0.0096
 2778SOL    HW119793   2.390   4.508   9.473 -1.1340  1.1771 -0.8700
 2778SOL    HW219794   2.421   4.552   9.336 -2.6368  0.7029  1.4558
 2779SOL     OW19795   0.558   0.727  14.768  0.8523  0.0664 -0.0061
 2779SOL    HW119796   0.475   0.686  14.791  0.5606  1.1990  0.9572
 2779SOL    HW219797   0.558   0.814  14.807 -1.1224 -0.2064  0.5794
 2780SOL     OW19798   2.836   2.298   0.114 -0.0466 -0.3602 -0.5776
 2780SOL    HW119799   2.756   2.300   0.167 -0.2448 -0.1440 -0.8830
 2780SOL    HW219800   2.904   2.282   0.180 -0.7515  1.3868  0.5649
 2781SOL     OW19801   3.200   2.402   6.117 -0.1594 -0.1504 -0.2967
 2781SOL    HW119802   3.215   2.490   6.083  1.7285 -0.5082 -0.3429
 2781SOL    HW219803   3.107   2.408   6.141 -0.2826 -0.0193 -0.8205
 2782SOL     OW19804   4.270   2.534  16.552  0.3710 -0.0564 -0.2116
 2782SOL    HW119805   4.283   2.612  16.606  1.6940 -1.6111  1.7274
 2782SOL    HW219806   4.279   2.574  16.465 -0.2438 -1.2639 -0.8361
 2783SOL     OW19807   3.764   3.667   6.604  0.2485  0.1693  0.2654
 2783SOL    HW119808   3.765   3.591   6.662 -1.3465 -0.7307 -0.8627
 2783SOL    HW219809   3.854   3.694   6.619  0.2288  0.6323 -0.4314
 2784SOL     OW19810   0.212   2.830   5.416 -0.5749  0.0592 -0.6117
 2784SOL    HW119811   0.206   2.764   5.485  0.0017  0.5930 -0.0687
 2784SOL    HW219812   0.288   2.877   5.449 -0.2112  0.9400 -2.7079
 2785SOL     OW19813   0.745   0.418   6.426 -0.3970 -0.0393  0.5831
 2785SOL    HW119814   0.677   0.363   6.465  1.3195 -2.1582  0.5618
 2785SOL    HW219815   0.823   0.404   6.479  0.7215  0.4030 -0.9328
 2786SOL     OW19816   4.694   1.084   7.890  0.4239  0.5896  0.2948
 2786SOL    HW119817   0.001   1.133   7.966  3.1162  0.2517 -0.5253
 2786SOL    HW219818   0.030   1.008   7.889  1.4591  1.3799  0.1875
 2787SOL     OW19819   2.526   3.374   5.157 -0.2438 -0.1681 -0.0942
 2787SOL    HW119820   2.487   3.396   5.241  0.7917 -1.7575  0.8056
 2787SOL    HW219821   2.621   3.388   5.167  0.0804  1.1698 -4.7817
 2788SOL     OW19822   2.092   3.390   9.909  0.8001 -0.0471  0.0867
 2788SOL    HW119823   2.117   3.322   9.847 -2.8408 -0.0102 -1.4414
 2788SOL    HW219824   2.026   3.437   9.857 -0.6967 -0.7475  1.3354
 2789SOL     OW19825   4.452   0.624   8.224 -0.2694  0.2296  0.5297
 2789SOL    HW119826   4.541   0.649   8.249 -0.0055 -1.2852  1.0859
 2789SOL    HW219827   4.458   0.594   8.133  2.9135  1.4309  0.3416
 2790SOL     OW19828   4.659   0.140  11.938  0.2331  0.1229  0.2651
 2790SOL    HW119829   4.612   0.182  11.867 -0.4279 -0.6065  0.2677
 2790SOL    HW219830   4.642   0.051  11.906  2.2111 -0.3369  0.4607
 2791SOL     OW19831   4.543   2.160   9.940  0.3791  0.1163 -0.2404
 2791SOL    HW119832   4.482   2.100   9.897  1.4342 -1.1873  0.0449
 2791SOL    HW219833   4.526   2.131  10.029 -0.4276  1.1655 -0.0548
 2792SOL     OW19834   0.306   1.538   4.105  0.3764 -0.0715  0.0885
 2792SOL    HW119835   0.250   1.552   4.029 -1.2022  0.5900  1.3868
 2792SOL    HW219836   0.352   1.622   4.100  0.4687 -0.1976 -1.2393
 2793SOL     OW19837   2.037   4.486   7.302  0.2697  0.1273 -0.5750
 2793SOL    HW119838   1.999   4.571   7.280  2.3717  1.1092 -0.5228
 2793SOL    HW219839   2.072   4.500   7.390 -2.5837  0.0716  0.5400
 2794SOL     OW19840   0.111   3.205  10.464  0.3544 -0.0960  0.1436
 2794SOL    HW119841   0.153   3.137  10.411  2.4603  1.3503 -0.0741
 2794SOL    HW219842   0.102   3.161  10.548 -0.7329 -1.0018 -0.4441
 2795SOL     OW19843   4.505   3.547   7.055  0.2190 -0.3874 -0.3060
 2795SOL    HW119844   4.490   3.465   7.103 -0.9319  1.1392  1.9251
 2795SOL    HW219845   4.456   3.524   6.976 -3.1110  2.9575  0.8113
 2796SOL     OW19846   3.177   0.663   6.621 -0.0889 -0.2843 -0.3041
 2796SOL    HW119847   3.147   0.631   6.536  0.1225 -2.5391  0.4753
 2796SOL    HW219848   3.151   0.754   6.606  1.6489  0.5446  1.7112
 2797SOL     OW19849   1.605   1.483   0.955  0.1410 -0.6312  0.1020
 2797SOL    HW119850   1.568   1.458   0.870 -1.7615  0.2803  0.6472
 2797SOL    HW219851   1.526   1.512   1.001 -0.7371 -0.0902 -1.7326
 2798SOL     OW19852   3.061   3.906  11.795 -0.1180  0.0681 -0.5340
 2798SOL    HW119853   2.980   3.856  11.784  1.7708 -3.2675  0.6000
 2798SOL    HW219854   3.121   3.871  11.729 -0.3665  0.2951 -0.8798
 2799SOL     OW19855   2.297   0.106   7.805  0.5728  0.2896 -0.1269
 2799SOL    HW119856   2.345   0.112   7.723 -1.4021 -1.3289 -1.3835
 2799SOL    HW219857   2.357   0.050   7.856 -1.0696 -3.2618 -2.1328
 2800SOL     OW19858   2.177   1.089  14.010  0.8945 -0.0420  0.2670
 2800SOL    HW119859   2.158   1.000  14.037 -1.0030  0.1711 -0.3751
 2800SOL    HW219860   2.250   1.092  13.947  0.3743  0.8439 -0.2914
 2801SOL     OW19861   4.497   4.580   0.976  0.0198 -0.0050 -0.6582
 2801SOL    HW119862   4.521   4.626   1.057 -0.0003 -1.1245 -0.0192
 2801SOL    HW219863   4.581   4.536   0.961 -0.5219 -2.3121  2.8714
 2802SOL     OW19864   1.528   3.549   4.909 -0.2551  0.0159 -0.2008
 2802SOL    HW119865   1.597   3.572   4.972 -1.3805  4.7224 -0.6373
 2802SOL    HW219866   1.486   3.634   4.892 -0.5664  0.0027  0.4947
 2803SOL     OW19867   2.464   3.437   2.344 -0.1497  0.2739  0.5774
 2803SOL    HW119868   2.527   3.495   2.301  1.7540  0.2949  3.3840
 2803SOL    HW219869   2.451   3.474   2.431 -0.6155 -0.5743  0.8664
 2804SOL     OW19870   4.425   1.068  17.130  0.2431  0.0373  0.1168
 2804SOL    HW119871   4.405   1.154  17.168  2.0147  0.4112  0.2264
 2804SOL    HW219872   4.515   1.081  17.100  0.2221 -3.9038 -1.6244
 2805SOL     OW19873   0.800   3.846   1.981 -0.0939 -0.0699 -0.1784
 2805SOL    HW119874   0.723   3.790   1.972 -0.6957  0.7889 -0.4849
 2805SOL    HW219875   0.828   3.849   1.889  1.1733  1.8914  0.2802
 2806SOL     OW19876   2.917   4.348   7.917 -0.4878  0.1071  0.3898
 2806SOL    HW119877   2.849   4.308   7.970 -0.1134 -1.5716 -0.3789
 2806SOL    HW219878   2.995   4.296   7.936 -0.7408 -0.4894 -0.1822
 2807SOL     OW19879   1.356   2.424   0.858 -0.3449 -0.3091 -0.4147
 2807SOL    HW119880   1.414   2.488   0.900 -0.0947 -1.0515  0.3650
 2807SOL    HW219881   1.289   2.431   0.927  1.0139  2.2385  0.6727
 2808SOL     OW19882   0.850   1.841  14.204  0.1297  0.1836 -0.2078
 2808SOL    HW119883   0.852   1.787  14.283 -1.0352  0.1362 -0.2114
 2808SOL    HW219884   0.785   1.799  14.147 -0.1615  0.9348 -0.4254
 2809SOL     OW19885   0.619   0.476   9.401  0.9128  0.4776 -0.3125
 2809SOL    HW119886   0.626   0.434   9.487  0.8568  1.2734  0.0767
 2809SOL    HW219887   0.553   0.544   9.411  0.5260  0.0175  0.3278
 2810SOL     OW19888   4.028   1.303   6.811 -0.0674  0.2104 -0.1506
 2810SOL    HW119889   4.076   1.281   6.890  0.1670  1.3470  0.0241
 2810SOL    HW219890   3.943   1.334   6.840 -0.2963 -1.0668  0.5511
 2811SOL     OW19891   0.223   3.219   5.896  0.2678  0.2099 -0.2553
 2811SOL    HW119892   0.261   3.160   5.832 -3.2039 -1.8472 -0.4382
 2811SOL    HW219893   0.246   3.304   5.858 -0.1266  1.4568  2.2610
 2812SOL     OW19894   0.945   1.362  17.192 -0.1247  0.0913 -0.0542
 2812SOL    HW119895   0.868   1.316  17.159  0.5117  0.4433 -2.0088
 2812SOL    HW219896   0.952   1.423  17.120 -0.2635  1.2011  0.8771
 2813SOL     OW19897   2.220   3.907   8.875  0.7392 -0.2741  0.4317
 2813SOL    HW119898   2.260   3.941   8.794  4.6574 -0.8573  2.1427
 2813SOL    HW219899   2.281   3.927   8.946  2.1049 -0.1903 -0.7581
 2814SOL     OW19900   1.457   2.404   6.054  0.1039  0.1294 -0.2674
 2814SOL    HW119901   1.428   2.377   6.141  3.0734  1.0559  0.9990
 2814SOL    HW219902   1.507   2.485   6.066  0.4442 -0.3141  1.2776
 2815SOL     OW19903   0.787   1.596   8.284 -0.4551  0.5396 -0.3758
 2815SOL    HW119904   0.816   1.528   8.223 -1.2368 -1.6828  1.7529
 2815SOL    HW219905   0.709   1.623   8.236 -0.5679 -1.2305 -1.1894
 2816SOL     OW19906   3.427   4.161  16.189 -0.2099 -0.6440  0.7118
 2816SOL    HW119907   3.480   4.082  16.204  0.7810  0.3596  2.4966
 2816SOL    HW219908   3.463   4.186  16.104 -1.0061  0.6376  0.7424
 2817SOL     OW19909   2.455   3.739   3.463  0.1366  0.7838 -0.8396
 2817SOL    HW119910   2.498   3.692   3.535 -1.4468 -0.2617 -0.5844
 2817SOL    HW219911   2.363   3.728   3.487 -0.1689  1.4942 -1.7263
 2818SOL     OW19912   1.982   4.499   4.049  0.4436 -0.5165  0.2789
 2818SOL    HW119913   1.944   4.437   3.986  2.4100  0.9546 -2.3814
 2818SOL    HW219914   1.910   4.546   4.091 -0.2588 -0.9708 -0.4051
 2819SOL     OW19915   0.198   0.289   5.224 -0.8109  0.0243  0.1580
 2819SOL    HW119916   0.229   0.241   5.301 -1.9089 -0.0785  0.5292
 2819SOL    HW219917   0.106   0.266   5.227 -1.0436  0.7492 -1.3520
 2820SOL     OW19918   1.381   0.092   8.900 -0.0568 -0.3369 -0.6456
 2820SOL    HW119919   1.370   0.006   8.941  3.4241  0.3277  1.6575
 2820SOL    HW219920   1.465   0.121   8.936 -0.5532 -0.5722  0.6997
 2821SOL     OW19921   4.662   3.190   1.945  0.5174  0.2222 -0.1003
 2821SOL    HW119922   0.006   3.131   1.979  1.9964  2.5369  1.0534
 2821SOL    HW219923   4.581   3.142   1.962  0.8944 -0.9285 -1.5584
 2822SOL     OW19924   3.187   4.141  14.389  0.0108 -0.4063 -0.4975
 2822SOL    HW119925   3.119   4.084  14.426  0.5937 -0.2981  0.7528
 2822SOL    HW219926   3.179   4.212  14.453  1.4540 -0.2144 -0.5396
 2823SOL     OW19927   3.342   2.232  13.908  0.0467  0.5509  0.8487
 2823SOL    HW119928   3.381   2.233  13.820  1.3946 -2.4637  1.4058
 2823SOL    HW219929   3.291   2.154  13.889  1.1828 -0.1234  0.5860
 2824SOL     OW19930   2.543   2.991   5.821 -0.3396 -0.7075 -0.8487
 2824SOL    HW119931   2.577   3.007   5.733 -0.2779  2.0282 -0.3149
 2824SOL    HW219932   2.610   2.942   5.870 -1.3449  0.0407  1.2851
 2825SOL     OW19933   0.954   3.623   8.238  0.2158 -0.2600  0.8399
 2825SOL    HW119934   0.936   3.716   8.225  1.0185 -0.5021 -2.0125
 2825SOL    HW219935   1.013   3.627   8.313  0.0739  0.5066  0.9096
 2826SOL     OW19936   0.768   3.047   9.561  0.3554 -0.4601  0.2491
 2826SOL    HW119937   0.727   3.110   9.500  1.5759  1.6486  1.6217
 2826SOL    HW219938   0.692   3.005   9.602 -0.9790  0.4442 -1.2431
 2827SOL     OW19939   1.599   1.663  14.635 -0.3286  0.4157 -0.7069
 2827SOL    HW119940   1.527   1.707  14.680  0.4293  0.3232  0.6258
 2827SOL    HW219941   1.672   1.690  14.691 -0.2815 -0.1896 -0.4739
 2828SOL     OW19942   0.768   3.722   8.637 -0.3526 -0.1829  0.1197
 2828SOL    HW119943   0.851   3.760   8.608  0.2813 -0.6106  1.3921
 2828SOL    HW219944   0.727   3.707   8.551  0.8868 -2.2823 -0.1115
 2829SOL     OW19945   4.327   2.024  15.334  0.1289  0.3826  0.3008
 2829SOL    HW119946   4.342   1.962  15.405 -0.4446 -0.6504 -0.4656
 2829SOL    HW219947   4.330   2.106  15.382 -2.3568  0.7287 -0.1036
 2830SOL     OW19948   3.852   0.859   3.515  0.3533  0.5542  0.3554
 2830SOL    HW119949   3.779   0.868   3.454 -0.3044  0.7810  1.1753
 2830SOL    HW219950   3.868   0.765   3.521  0.2911  0.6340  1.7538
 2831SOL     OW19951   0.638   3.219  13.411 -0.8412  0.7128 -0.6561
 2831SOL    HW119952   0.727   3.183  13.407 -0.7739  0.7128  0.7736
 2831SOL    HW219953   0.646   3.307  13.376 -0.0811  0.3501 -1.4106
 2832SOL     OW19954   3.574   1.262   7.603  0.1737 -0.0819 -0.6234
 2832SOL    HW119955   3.569   1.277   7.509 -1.4819  2.4922 -0.1312
 2832SOL    HW219956   3.514   1.187   7.608  3.0003 -2.2886 -0.0086
 2833SOL     OW19957   1.314   2.738   6.599 -0.9855 -0.0052 -0.1754
 2833SOL    HW119958   1.400   2.697   6.606 -2.1924 -2.4621  0.2967
 2833SOL    HW219959   1.330   2.800   6.527  0.9403 -0.6401 -0.2928
 2834SOL     OW19960   4.697   1.264   7.685 -0.6550  0.1936  0.4266
 2834SOL    HW119961   4.655   1.202   7.625 -0.8650 -0.0250  0.7984
 2834SOL    HW219962   0.006   1.205   7.755 -0.9906 -0.9036 -0.3411
 2835SOL     OW19963   0.938   4.145   7.347 -0.1085 -0.3065 -0.0364
 2835SOL    HW119964   0.989   4.076   7.304  1.9404  2.0643 -1.3548
 2835SOL    HW219965   1.010   4.195   7.384  0.3523 -1.6145  0.8143
 2836SOL     OW19966   0.403   3.218  17.487 -0.1420 -0.1646  0.2294
 2836SOL    HW119967   0.408   3.284  17.556 -0.1570 -0.7468  0.7928
 2836SOL    HW219968   0.481   3.170  17.516 -0.6350 -0.8149  0.4669
 2837SOL     OW19969   1.624   0.175   5.762  0.1950  0.1088 -0.0737
 2837SOL    HW119970   1.662   0.155   5.676 -1.9429 -0.8628 -0.7888
 2837SOL    HW219971   1.561   0.103   5.768 -0.5580  0.6365 -1.8292
 2838SOL     OW19972   4.474   1.945   6.000 -0.2575  0.4565 -0.5856
 2838SOL    HW119973   4.385   1.920   5.978  0.4598 -2.3604 -0.1869
 2838SOL    HW219974   4.469   1.992   6.083  2.4708  0.2613 -0.3201
 2839SOL     OW19975   2.041   1.916   8.556  0.0464 -0.5502 -0.3027
 2839SOL    HW119976   2.089   1.885   8.479 -1.2100  0.7291 -1.6042
 2839SOL    HW219977   2.035   2.006   8.526  0.8272  0.5304  2.7880
 2840SOL     OW19978   4.032   2.799   6.566  1.1033 -0.7234  0.3641
 2840SOL    HW119979   4.042   2.836   6.653 -2.2143  2.0196 -0.4195
 2840SOL    HW219980   4.073   2.874   6.522  1.0457 -0.1469  1.3020
 2841SOL     OW19981   0.085   2.823   9.177 -0.4151  0.3425  0.1034
 2841SOL    HW119982   0.153   2.836   9.243  0.6701 -1.9686 -0.5674
 2841SOL    HW219983   0.132   2.778   9.107  1.3159  1.9057  0.2529
 2842SOL     OW19984   2.168   1.077  12.673 -0.0867  0.3812  0.0960
 2842SOL    HW119985   2.195   1.082  12.581 -0.0966 -2.6945 -0.1017
 2842SOL    HW219986   2.109   1.152  12.667 -2.0428 -1.0537  1.4621
 2843SOL     OW19987   0.258   2.575   8.588  0.1948  0.2657  0.3586
 2843SOL    HW119988   0.345   2.537   8.579  0.3927  0.9459 -0.5549
 2843SOL    HW219989   0.207   2.494   8.579 -2.4876  2.0153 -0.0125
 2844SOL     OW19990   4.482   2.449   6.483  0.2337 -0.0856  0.3019
 2844SOL    HW119991   4.434   2.366   6.474 -1.0047  0.5658  0.9089
 2844SOL    HW219992   4.463   2.486   6.397  0.8850  0.7498  0.5282
 2845SOL     OW19993   2.495   1.078   3.730 -0.0193 -0.4769  0.0133
 2845SOL    HW119994   2.583   1.044   3.712  0.7836  1.7406 -0.3633
 2845SOL    HW219995   2.479   1.051   3.820 -1.2985 -1.5614 -0.5503
 2846SOL     OW19996   2.090   4.006   1.344  0.1778  0.5293  0.1248
 2846SOL    HW119997   2.046   3.921   1.351  1.4946  0.0187  2.0404
 2846SOL    HW219998   2.101   4.026   1.437  0.4144  1.7690 -0.1613
 2847SOL     OW19999   2.417   3.773   1.986  0.0400 -0.8624 -0.3345
 2847SOL    HW120000   2.509   3.747   1.983  0.1917 -0.5315  1.1560
 2847SOL    HW220001   2.390   3.779   2.078  1.6706  1.4755 -0.0093
 2848SOL     OW20002   3.904   0.078   9.604 -0.1906 -0.1105  0.4869
 2848SOL    HW120003   3.996   0.064   9.626  0.0159 -0.2166 -0.4751
 2848SOL    HW220004   3.878   0.144   9.668 -0.5091  0.0800  0.1636
 2849SOL     OW20005   1.148   1.437  16.840  0.2455 -0.2379 -0.1395
 2849SOL    HW120006   1.065   1.461  16.882  0.6084  2.6659 -1.0764
 2849SOL    HW220007   1.149   1.496  16.765  1.7867 -0.6567 -0.4415
 2850SOL     OW20008   2.027   0.621   5.096  0.3473 -0.3446 -0.3716
 2850SOL    HW120009   2.023   0.671   5.178 -0.1802 -1.4842  0.3048
 2850SOL    HW220010   1.942   0.576   5.098  1.2937 -2.1020 -0.2941
 2851SOL     OW20011   0.795   4.088   3.583 -0.3124 -0.2619  0.3884
 2851SOL    HW120012   0.816   4.082   3.490  1.1275 -3.0912  0.8843
 2851SOL    HW220013   0.881   4.114   3.616 -0.5832  1.4473 -0.2777
 2852SOL     OW20014   2.613   0.205  16.529  0.1095  0.4715  0.3823
 2852SOL    HW120015   2.704   0.233  16.524  0.4775 -1.2017 -2.2238
 2852SOL    HW220016   2.616   0.137  16.595 -0.4305 -0.8164 -0.9133
 2853SOL     OW20017   4.269   1.136  16.797  0.0400  0.0170 -0.2602
 2853SOL    HW120018   4.206   1.064  16.795 -0.8770  0.7881  0.6888
 2853SOL    HW220019   4.347   1.091  16.765  0.2172  0.4602 -0.4519
 2854SOL     OW20020   3.743   0.904   3.045 -0.6062  0.4200 -0.6475
 2854SOL    HW120021   3.655   0.916   3.009 -0.8576  1.2653  0.2535
 2854SOL    HW220022   3.772   0.994   3.063  0.4857  0.1046 -0.8072
 2855SOL     OW20023   3.183   1.008  12.582  0.3370 -0.2897 -0.3679
 2855SOL    HW120024   3.228   0.957  12.515  0.0152 -2.7759  1.2983
 2855SOL    HW220025   3.257   1.036  12.636 -0.6713 -1.5756  1.7063
 2856SOL     OW20026   1.249   3.651   5.160 -0.3853 -0.4132  0.0131
 2856SOL    HW120027   1.164   3.695   5.167  0.1150  0.3014  1.5705
 2856SOL    HW220028   1.287   3.716   5.219 -1.1804  1.1592 -1.2281
 2857SOL     OW20029   2.039   0.201  13.059  0.3149 -0.3424 -0.3665
 2857SOL    HW120030   2.046   0.294  13.036  0.3053 -0.3021 -0.2078
 2857SOL    HW220031   1.958   0.201  13.111  0.4751  3.6339 -0.1404
 2858SOL     OW20032   1.140   0.644  12.575 -0.2977 -0.2977  0.1906
 2858SOL    HW120033   1.185   0.626  12.492  2.2413 -1.0245  1.7476
 2858SOL    HW220034   1.177   0.591  12.645  1.7282  0.1543 -0.5481
 2859SOL     OW20035   3.698   4.016  10.762 -0.5902 -0.1806 -0.0789
 2859SOL    HW120036   3.793   4.014  10.754 -0.8244  2.7102 -3.7316
 2859SOL    HW220037   3.673   4.109  10.761  0.9760  0.2359  2.8615
 2860SOL     OW20038   0.174   3.039   7.558 -0.5718 -0.1278 -0.3196
 2860SOL    HW120039   0.190   3.075   7.645  1.8998  1.2094 -1.3245
 2860SOL    HW220040   0.131   3.112   7.513  2.2823  2.4153  1.0547
 2861SOL     OW20041   3.639   2.592   8.921  0.3436  0.3167 -0.0954
 2861SOL    HW120042   3.551   2.606   8.956  0.0393  0.8757 -1.0616
 2861SOL    HW220043   3.635   2.635   8.835 -0.2791  0.4246 -0.0107
 2862SOL     OW20044   2.466   0.604   5.574 -0.0966 -0.5280  0.1329
 2862SOL    HW120045   2.393   0.665   5.583 -1.1325 -1.6731 -0.4242
 2862SOL    HW220046   2.430   0.517   5.592 -0.8825 -0.0858  0.6875
 2863SOL     OW20047   4.631   4.237  11.305  0.0208  0.2450 -0.2928
 2863SOL    HW120048   4.708   4.294  11.312  0.2239 -0.1983  1.1631
 2863SOL    HW220049   4.598   4.262  11.219  0.4658 -0.5906 -0.7099
 2864SOL     OW20050   1.264   3.761   9.198  0.1045 -0.0848 -0.2523
 2864SOL    HW120051   1.207   3.692   9.232  2.2288 -1.8955 -0.3303
 2864SOL    HW220052   1.284   3.805   9.280 -0.9936 -1.6691  0.8717
 2865SOL     OW20053   2.833   0.842   8.831  0.4109  0.1154  0.1324
 2865SOL    HW120054   2.924   0.828   8.805  0.6467 -1.3892  1.8139
 2865SOL    HW220055   2.842   0.865   8.923  0.5727  1.7407 -0.2820
 2866SOL     OW20056   4.721   2.093  16.548 -0.7209  0.3896 -0.6298
 2866SOL    HW120057   0.092   2.088  16.569 -1.5324  0.7333  3.1083
 2866SOL    HW220058   4.689   2.165  16.602 -0.7425  0.1903 -0.3776
 2867SOL     OW20059   2.671   1.794   8.609  0.3874 -0.7418 -0.1963
 2867SOL    HW120060   2.584   1.772   8.643 -0.2345  1.0146 -0.6400
 2867SOL    HW220061   2.664   1.781   8.515  2.2954  0.0459 -0.4430
 2868SOL     OW20062   3.300   1.393  13.233  0.2306 -0.2167 -0.5601
 2868SOL    HW120063   3.394   1.385  13.219  0.3736  2.0167 -0.7972
 2868SOL    HW220064   3.272   1.310  13.273 -1.4025  0.5776 -0.0392
 2869SOL     OW20065   1.862   4.306   9.010  0.0360  0.2403  0.0516
 2869SOL    HW120066   1.909   4.225   8.992 -0.9110 -0.3078  0.0737
 2869SOL    HW220067   1.813   4.301   8.928 -0.7899 -0.0605  0.5644
 2870SOL     OW20068   3.060   2.595   3.260  0.1584 -0.5745 -0.3517
 2870SOL    HW120069   2.992   2.529   3.274 -1.2734  0.8418 -0.5338
 2870SOL    HW220070   3.136   2.539   3.277  1.8784  1.1632 -2.3071
 2871SOL     OW20071   0.375   4.639   7.558 -0.0466 -0.2792 -0.5638
 2871SOL    HW120072   0.387   4.580   7.632 -0.2200 -0.8898 -1.0230
 2871SOL    HW220073   0.355   4.722   7.602  0.3513  1.0445 -2.8762
 2872SOL     OW20074   1.073   4.170   9.525  0.8413 -0.4831  0.6365
 2872SOL    HW120075   1.009   4.101   9.546  0.7845 -0.4285  0.6442
 2872SOL    HW220076   1.017   4.247   9.535 -1.5086 -2.2503  1.3346
 2873SOL     OW20077   0.221   2.284   8.922 -0.5603 -0.5449 -0.4044
 2873SOL    HW120078   0.141   2.256   8.878 -0.9116  0.3417 -0.3259
 2873SOL    HW220079   0.193   2.351   8.985 -0.0183 -1.3963  0.7489
 2874SOL     OW20080   0.476   0.260  11.935  0.5350  0.0043  0.1136
 2874SOL    HW120081   0.431   0.338  11.969  2.4339  0.5645  1.3027
 2874SOL    HW220082   0.528   0.301  11.867 -2.4564 -2.8008 -3.8285
 2875SOL     OW20083   3.631   3.275   5.466  0.1417 -0.3539 -0.0340
 2875SOL    HW120084   3.696   3.322   5.414  1.5127 -1.3454  0.7842
 2875SOL    HW220085   3.687   3.214   5.514  1.1244 -0.8775 -1.8464
 2876SOL     OW20086   1.638   2.780   0.750  0.3033  0.3377 -0.0080
 2876SOL    HW120087   1.628   2.870   0.718  1.1573  1.1934  2.1737
 2876SOL    HW220088   1.726   2.767   0.786  0.8215 -0.2281 -1.4537
 2877SOL     OW20089   2.869   3.282   4.984 -0.1518 -0.2537 -0.6505
 2877SOL    HW120090   2.829   3.205   5.025  0.4890  1.2456  2.7801
 2877SOL    HW220091   2.949   3.251   4.943  0.7831 -0.4336  1.2934
 2878SOL     OW20092   0.980   1.962   0.643  0.1988  0.4241 -0.1480
 2878SOL    HW120093   1.032   1.963   0.563 -0.1488 -0.0136 -0.3847
 2878SOL    HW220094   0.977   1.870   0.670 -0.2715  0.3824 -0.3313
 2879SOL     OW20095   4.349   0.542  11.275 -0.7849 -0.2837 -0.0196
 2879SOL    HW120096   4.357   0.472  11.210 -0.1208  0.0246 -0.2660
 2879SOL    HW220097   4.295   0.606  11.231  0.5589 -0.2114 -1.5563
 2880SOL     OW20098   2.369   1.980  14.449 -0.2835 -0.1290  0.0737
 2880SOL    HW120099   2.282   1.953  14.478 -0.7669 -0.8874 -2.0694
 2880SOL    HW220100   2.362   1.990  14.354 -1.6289  0.0897  0.1956
 2881SOL     OW20101   1.006   3.869   8.565 -0.0116  0.0213  0.5031
 2881SOL    HW120102   0.998   3.913   8.650  0.1973 -0.4206  0.7523
 2881SOL    HW220103   1.098   3.842   8.569 -0.1134 -0.0212  3.0051
 2882SOL     OW20104   0.097   3.769   9.559 -0.4831 -0.2075 -0.1005
 2882SOL    HW120105   0.088   3.775   9.463  0.3240  0.4987 -0.1322
 2882SOL    HW220106   0.145   3.849   9.578 -0.6958 -0.4336  1.3895
 2883SOL     OW20107   3.568   2.563  16.889 -0.3316 -0.0114  0.8930
 2883SOL    HW120108   3.561   2.645  16.938  0.0924 -0.1414  1.1630
 2883SOL    HW220109   3.661   2.551  16.871 -0.1358  0.2955  1.7195
 2884SOL     OW20110   0.006   0.569   7.281  0.5770 -0.6860  0.3404
 2884SOL    HW120111   4.721   0.590   7.374  3.1119 -1.0521  0.6330
 2884SOL    HW220112   0.018   0.474   7.281  0.6832 -0.6796  1.9438
 2885SOL     OW20113   3.514   3.010   4.182 -0.0947 -0.1807  0.3521
 2885SOL    HW120114   3.433   3.057   4.162  1.2853  1.1751 -2.1177
 2885SOL    HW220115   3.579   3.071   4.147 -2.7717  1.6935 -1.4259
 2886SOL     OW20116   2.784   1.919   6.662  0.3365  0.2439  0.1600
 2886SOL    HW120117   2.844   1.860   6.707 -1.5191 -0.8873  1.1435
 2886SOL    HW220118   2.703   1.890   6.705  1.0929  0.1622  1.5383
 2887SOL     OW20119   1.796   2.256   6.727  0.4168 -0.2732 -0.0814
 2887SOL    HW120120   1.709   2.286   6.703  1.0742  1.4244 -0.4002
 2887SOL    HW220121   1.855   2.293   6.660  0.0245  0.4255 -0.0481
 2888SOL     OW20122   3.990   0.391   2.248 -0.6897  0.2170  0.4915
 2888SOL    HW120123   3.919   0.403   2.311 -1.5236 -0.7726 -0.2775
 2888SOL    HW220124   4.042   0.313   2.269  1.3867  1.8734  1.6280
 2889SOL     OW20125   2.566   1.736   2.436  0.3622  0.1906 -0.0463
 2889SOL    HW120126   2.607   1.797   2.375  0.6414 -0.3511 -0.4016
 2889SOL    HW220127   2.524   1.795   2.499 -1.2909 -0.7113 -0.2764
 2890SOL     OW20128   1.315   0.914   6.111  0.6158  0.2583 -0.0508
 2890SOL    HW120129   1.381   0.951   6.170  1.3130 -0.2296 -0.5301
 2890SOL    HW220130   1.259   0.868   6.173 -0.9909  2.7144  0.3157
 2891SOL     OW20131   4.451   0.559   7.951 -0.2102 -0.2672 -0.1613
 2891SOL    HW120132   4.532   0.571   7.900 -0.2375  2.6818  0.4774
 2891SOL    HW220133   4.387   0.617   7.909  0.5215  1.0044  0.4738
 2892SOL     OW20134   2.064   0.904   7.348  0.0961  0.2312 -0.5021
 2892SOL    HW120135   2.143   0.957   7.358 -0.4286  1.0138 -0.5083
 2892SOL    HW220136   1.995   0.960   7.312 -0.7211 -0.7326 -0.4381
 2893SOL     OW20137   1.146   1.230   4.255 -0.1736 -0.7907 -0.9767
 2893SOL    HW120138   1.136   1.202   4.164  1.2398  1.7723 -1.9419
 2893SOL    HW220139   1.053   1.248   4.267  0.5537  2.2327  0.4307
 2894SOL     OW20140   1.713   1.614   3.320  0.5745  0.2015  0.2304
 2894SOL    HW120141   1.769   1.690   3.302 -0.0291  1.2466  2.7755
 2894SOL    HW220142   1.735   1.547   3.254  0.8980 -0.0045  0.5505
 2895SOL     OW20143   2.886   2.256   2.699 -0.2636  0.1562 -0.2590
 2895SOL    HW120144   2.880   2.177   2.646  1.1385 -2.0859  2.9201
 2895SOL    HW220145   2.977   2.281   2.714 -0.5901  1.2161 -0.0463
 2896SOL     OW20146   0.826   0.452   4.379 -0.2440  0.4371 -0.7157
 2896SOL    HW120147   0.858   0.413   4.460 -1.2737 -0.0989 -0.5698
 2896SOL    HW220148   0.891   0.522   4.374  0.7835 -0.5569 -1.2261
 2897SOL     OW20149   3.358   4.445   9.728  0.8310 -0.5202 -0.2243
 2897SOL    HW120150   3.441   4.490   9.712  0.7846 -0.0508  0.8822
 2897SOL    HW220151   3.367   4.367   9.672  1.6500  2.1073 -3.7198
 2898SOL     OW20152   3.671   3.429   7.280  0.4898  0.2041 -0.1406
 2898SOL    HW120153   3.757   3.389   7.264 -1.1139 -2.9152 -1.0174
 2898SOL    HW220154   3.616   3.369   7.230  2.7779 -1.2937 -0.9110
 2899SOL     OW20155   0.101   0.395  10.864  0.1321 -0.2568  0.2618
 2899SOL    HW120156   0.086   0.372  10.772  0.7092  0.8700 -0.1099
 2899SOL    HW220157   0.024   0.451  10.872  0.8678  1.1438 -2.5860
 2900SOL     OW20158   1.431   3.552   6.618 -0.1132  0.2390  0.3493
 2900SOL    HW120159   1.526   3.560   6.611 -0.2816  0.6830 -1.3774
 2900SOL    HW220160   1.423   3.577   6.710  1.9211  1.3186  0.2110
 2901SOL     OW20161   3.714   2.369   6.153  0.6892  0.2913 -0.3574
 2901SOL    HW120162   3.750   2.457   6.162  0.5390  0.0628  2.5087
 2901SOL    HW220163   3.682   2.371   6.063 -0.0499  0.4642 -0.0935
 2902SOL     OW20164   1.200   4.502  16.401  0.2268  0.2958 -0.2169
 2902SOL    HW120165   1.164   4.585  16.433 -1.9585 -1.2935  1.3807
 2902SOL    HW220166   1.271   4.533  16.344 -1.2263  1.2766 -1.5105
 2903SOL     OW20167   3.347   0.035   0.902 -0.7151  0.2893 -0.3749
 2903SOL    HW120168   3.267   0.069   0.940 -1.2585 -1.6794  0.2230
 2903SOL    HW220169   3.329   4.664   0.911  0.3864 -0.0499 -1.6211
 2904SOL     OW20170   3.884   0.077  10.908  0.4759 -0.4089  0.2196
 2904SOL    HW120171   3.793   0.100  10.927  1.2100  2.6492 -0.0305
 2904SOL    HW220172   3.917   0.164  10.887  0.4706  0.3346  3.2851
 2905SOL     OW20173   1.640   0.941   4.140  0.3143 -0.5366 -0.2366
 2905SOL    HW120174   1.713   0.884   4.118 -0.1285 -0.8108 -1.0073
 2905SOL    HW220175   1.632   1.006   4.070  1.2603 -1.9060 -1.5951
 2906SOL     OW20176   4.595   1.447  11.037 -0.1619 -0.2255 -0.7970
 2906SOL    HW120177   4.675   1.431  10.989  1.3816  2.6887  0.7568
 2906SOL    HW220178   4.539   1.495  10.976 -2.8296 -1.3429  0.7594
 2907SOL     OW20179   3.816   4.412   4.433 -0.3245  0.7432 -0.2838
 2907SOL    HW120180   3.783   4.333   4.475 -1.3097  0.5843 -1.3626
 2907SOL    HW220181   3.732   4.458   4.426 -0.0506  1.3752  0.6029
 2908SOL     OW20182   0.827   2.562   1.948 -0.3672  0.3169  0.1630
 2908SOL    HW120183   0.855   2.593   1.862 -1.6772  2.8449  0.6365
 2908SOL    HW220184   0.801   2.646   1.986  2.5255  0.9926  0.6266
 2909SOL     OW20185   4.635   1.837   1.532 -0.0958  0.0661 -0.1848
 2909SOL    HW120186   4.569   1.903   1.511  1.3509  1.3721 -0.6737
 2909SOL    HW220187   4.655   1.863   1.622 -0.1780 -2.6606  0.6236
 2910SOL     OW20188   4.118   0.575   5.015  0.0809 -0.3553  0.1117
 2910SOL    HW120189   4.067   0.656   5.017  1.1268  0.2689  2.4365
 2910SOL    HW220190   4.076   0.519   4.950 -1.5004  1.7037 -0.6216
 2911SOL     OW20191   1.213   3.612   1.503  0.3556  0.0776  0.0472
 2911SOL    HW120192   1.134   3.638   1.551  0.0287  0.3960 -0.6643
 2911SOL    HW220193   1.226   3.685   1.442 -1.9391  2.3371  2.2177
 2912SOL     OW20194   3.378   4.636   2.060  0.4759  0.5501  0.2311
 2912SOL    HW120195   3.283   4.632   2.071  0.0308  2.0122 -3.2869
 2912SOL    HW220196   3.406   4.544   2.063 -0.6271  0.2035 -0.2874
 2913SOL     OW20197   2.311   4.118   7.720  0.9438 -0.9681 -0.1716
 2913SOL    HW120198   2.307   4.082   7.631 -1.7384  3.6001 -1.9348
 2913SOL    HW220199   2.221   4.102   7.750 -0.0399  0.9840 -1.9919
 2914SOL     OW20200   2.018   1.404  14.550  0.7261  0.0341  0.1123
 2914SOL    HW120201   2.062   1.360  14.477  0.5916  0.2455 -0.0983
 2914SOL    HW220202   2.089   1.443  14.601 -0.6334  1.6407  0.7772
 2915SOL     OW20203   0.534   3.973   5.689  0.4148 -0.4943 -0.5251
 2915SOL    HW120204   0.530   4.042   5.755  2.6363 -1.1464  0.3046
 2915SOL    HW220205   0.547   3.900   5.749  4.8265  1.2675  0.6756
 2916SOL     OW20206   4.282   2.947  16.737  0.0177 -0.1196 -0.1180
 2916SOL    HW120207   4.202   2.950  16.789  0.7892 -0.6060  1.0945
 2916SOL    HW220208   4.251   2.939  16.646  0.0993  0.3017 -0.1838
 2917SOL     OW20209   2.118   4.326   3.807  0.2562  0.5371  0.5715
 2917SOL    HW120210   2.067   4.257   3.850 -2.8569  1.9416 -0.8181
 2917SOL    HW220211   2.205   4.296   3.832 -0.0912  1.0994  2.4401
 2918SOL     OW20212   1.125   3.557   0.058  0.0632 -0.5651  0.1914
 2918SOL    HW120213   1.190   3.488   0.052 -0.2130 -0.5782 -2.6344
 2918SOL    HW220214   1.045   3.505   0.057  1.0673 -2.1078 -0.2220
 2919SOL     OW20215   2.537   0.285  15.406  0.1638 -0.3779 -0.8105
 2919SOL    HW120216   2.574   0.248  15.326  1.6937 -1.7037  0.5068
 2919SOL    HW220217   2.597   0.252  15.473 -0.2889 -0.0913 -0.2623
 2920SOL     OW20218   1.751   2.175   0.158 -0.6348  0.0117  0.7518
 2920SOL    HW120219   1.741   2.121   0.079 -0.2529 -0.5725  1.0974
 2920SOL    HW220220   1.741   2.266   0.131 -0.6230 -0.4951 -1.0329
 2921SOL     OW20221   4.262   2.371  10.564 -0.2138  0.0835 -0.1839
 2921SOL    HW120222   4.319   2.419  10.504 -1.9081  1.0650 -1.0258
 2921SOL    HW220223   4.331   2.344  10.624  0.4836  1.1800 -0.5026
 2922SOL     OW20224   2.136   1.571   8.379 -0.0432  0.3230  0.0075
 2922SOL    HW120225   2.150   1.476   8.377 -1.8250  0.1176 -2.4227
 2922SOL    HW220226   2.225   1.604   8.396  0.0157  0.9864 -1.6077
 2923SOL     OW20227   1.250   2.447  13.257  0.0242  1.4217 -0.4093
 2923SOL    HW120228   1.246   2.421  13.164  3.8075  0.9641 -0.4559
 2923SOL    HW220229   1.194   2.378  13.290  2.3920 -0.7630 -0.9590
 2924SOL     OW20230   0.546   2.379  11.084 -0.0631  0.1526 -0.1047
 2924SOL    HW120231   0.607   2.332  11.027  1.4076  0.4955  1.1690
 2924SOL    HW220232   0.526   2.450  11.024 -1.0338  0.9879  1.2054
 2925SOL     OW20233   2.918   1.256   4.594 -0.0137 -0.4334 -0.1292
 2925SOL    HW120234   2.963   1.235   4.513 -1.1806 -0.1142 -0.8598
 2925SOL    HW220235   2.831   1.268   4.555  0.7735 -1.9818 -2.3139
 2926SOL     OW20236   4.049   4.437   8.641 -0.1420  0.0211 -0.0073
 2926SOL    HW120237   4.066   4.378   8.715 -1.9658 -0.8106 -0.2528
 2926SOL    HW220238   4.088   4.514   8.682  0.9557  0.0453 -1.1110
 2927SOL     OW20239   4.562   1.823   7.998 -0.3028 -0.0823 -0.1208
 2927SOL    HW120240   4.474   1.842   7.966 -0.9376 -0.3166  1.4964
 2927SOL    HW220241   4.557   1.882   8.074  0.0065  0.0023 -0.1636
 2928SOL     OW20242   3.936   1.800   7.275  0.3251 -0.8382  0.3691
 2928SOL    HW120243   3.960   1.841   7.192 -1.1069 -2.6939 -0.9327
 2928SOL    HW220244   4.021   1.765   7.301 -0.7774 -2.4192  1.8429
 2929SOL     OW20245   1.903   4.111  15.023 -0.7391 -0.1016 -0.2186
 2929SOL    HW120246   1.951   4.049  14.968 -0.7030 -0.7143  0.5020
 2929SOL    HW220247   1.889   4.060  15.103  0.5697  1.1539  0.8038
 2930SOL     OW20248   1.530   1.005  16.630  0.5318  0.4337 -0.0628
 2930SOL    HW120249   1.465   1.050  16.683  2.4497  0.4778  2.2661
 2930SOL    HW220250   1.578   1.081  16.596 -0.6448  1.7450  1.2267
 2931SOL     OW20251   1.313   2.152   0.830  0.1444 -0.1690 -0.0130
 2931SOL    HW120252   1.339   2.113   0.746 -1.9444  0.2615 -0.8462
 2931SOL    HW220253   1.340   2.243   0.819  1.6810 -0.6719 -0.3933
 2932SOL     OW20254   2.210   2.807   5.020  0.7632  0.2725 -0.2735
 2932SOL    HW120255   2.202   2.729   4.965  1.4559 -0.6720  0.9709
 2932SOL    HW220256   2.140   2.809   5.085 -1.1078 -0.4299 -2.2744
 2933SOL     OW20257   4.650   0.457  12.448  0.3663 -0.1162  0.2924
 2933SOL    HW120258   4.721   0.470  12.386 -1.0944 -1.2930 -1.6428
 2933SOL    HW220259   4.684   0.402  12.518 -0.9138 -0.0876  0.9547
 2934SOL     OW20260   4.663   3.142   3.107  0.4366  0.3469  0.6629
 2934SOL    HW120261   4.629   3.153   3.018  1.9288  1.1821  0.2039
 2934SOL    HW220262   4.639   3.227   3.143  0.8960  0.8057 -0.1264
 2935SOL     OW20263   4.356   1.287   7.356  0.1344 -0.1053 -0.3752
 2935SOL    HW120264   4.346   1.368   7.406  0.0315  0.0955 -0.7177
 2935SOL    HW220265   4.348   1.229   7.432 -0.9737  2.2162  1.2946
 2936SOL     OW20266   0.262   0.253   0.489  0.1956  0.1443  0.0485
 2936SOL    HW120267   0.273   0.198   0.566  1.3153 -1.2345 -1.1130
 2936SOL    HW220268   0.269   0.184   0.423 -1.1367  0.0004  0.0502
 2937SOL     OW20269   3.359   0.504   8.179 -0.0323 -0.0650 -0.0894
 2937SOL    HW120270   3.384   0.584   8.225 -0.3896 -0.7102  1.2175
 2937SOL    HW220271   3.443   0.482   8.138  0.2031 -0.8353  0.8172
 2938SOL     OW20272   4.135   3.664   2.210  0.4851 -0.0291 -0.4285
 2938SOL    HW120273   4.137   3.676   2.115  1.4267 -0.4617 -0.4570
 2938SOL    HW220274   4.089   3.581   2.223  1.0555 -0.0738  1.3920
 2939SOL     OW20275   3.067   2.451   2.979  0.9513 -0.1457 -0.1442
 2939SOL    HW120276   3.140   2.431   2.921 -0.1443  0.2779 -1.6622
 2939SOL    HW220277   3.099   2.537   3.006  2.7964 -1.3486  1.4818
 2940SOL     OW20278   0.897   1.493  16.961 -0.1545  0.3959 -0.0716
 2940SOL    HW120279   0.824   1.445  16.922 -0.1083 -0.0847  0.4339
 2940SOL    HW220280   0.903   1.574  16.910  0.0620  1.2681  1.3279
 2941SOL     OW20281   1.610   0.639   4.257  0.2038  0.1841 -0.1066
 2941SOL    HW120282   1.620   0.603   4.345  0.2863 -0.4425 -0.3706
 2941SOL    HW220283   1.601   0.729   4.287  1.2755 -0.1382  1.1616
 2942SOL     OW20284   4.046   2.522   6.590  0.5004 -0.1970  0.5532
 2942SOL    HW120285   4.008   2.609   6.572  0.2219 -0.4334 -0.0160
 2942SOL    HW220286   4.118   2.542   6.649  1.2587  0.5160 -0.6091
 2943SOL     OW20287   4.027   2.110   4.607  0.7520 -0.0043  0.1547
 2943SOL    HW120288   4.090   2.145   4.671  1.1969  3.5319 -2.2404
 2943SOL    HW220289   3.957   2.164   4.642  0.3208 -0.2944 -0.2637
 2944SOL     OW20290   1.384   4.119  15.443 -0.8532  0.6666  0.0385
 2944SOL    HW120291   1.468   4.093  15.403 -0.5405 -1.3874  1.9987
 2944SOL    HW220292   1.332   4.063  15.386 -1.1214 -0.2113  1.1394
 2945SOL     OW20293   2.972   2.253   1.860 -0.1226 -0.2183 -0.0904
 2945SOL    HW120294   2.877   2.259   1.859  0.0031  1.8666 -0.8455
 2945SOL    HW220295   2.988   2.337   1.903 -2.0105 -0.5244  1.1871
 2946SOL     OW20296   4.677   4.379   0.950  0.1125  0.3458  0.6563
 2946SOL    HW120297   0.050   4.387   0.952  0.0772  0.8577  0.0451
 2946SOL    HW220298   4.658   4.386   0.857 -1.3757 -0.5205  0.8864
 2947SOL     OW20299   4.062   1.231   7.178 -0.1722 -0.3559 -0.7317
 2947SOL    HW120300   4.125   1.169   7.141  2.3292  1.1807  0.8957
 2947SOL    HW220301   4.122   1.305   7.189  0.5797 -0.7664 -2.0807
 2948SOL     OW20302   0.576   2.462   1.975 -0.1174 -0.4591 -0.1040
 2948SOL    HW120303   0.598   2.408   2.051 -1.0329  0.5999  0.9281
 2948SOL    HW220304   0.656   2.502   1.942 -0.6797  0.8617  0.1007
 2949SOL     OW20305   1.215   0.294   3.807  0.3176  0.0180 -0.1830
 2949SOL    HW120306   1.241   0.228   3.872  0.0255  0.5689  0.4969
 2949SOL    HW220307   1.194   0.240   3.731  1.2940 -0.5723 -0.0338
 2950SOL     OW20308   2.553   4.015   6.473  0.6628  0.3346  0.4755
 2950SOL    HW120309   2.589   4.094   6.431 -0.4235  0.9047  0.6063
 2950SOL    HW220310   2.631   3.961   6.468 -0.0298 -0.1852 -4.8040
 2951SOL     OW20311   0.685   0.503   3.555 -0.7576 -0.0173 -0.3157
 2951SOL    HW120312   0.610   0.487   3.497 -1.1626  2.2983 -0.4343
 2951SOL    HW220313   0.745   0.495   3.481  1.2991 -1.2188  1.4841
 2952SOL     OW20314   4.016   0.092   2.138 -0.3057 -0.0153  0.5063
 2952SOL    HW120315   4.057   0.020   2.187 -1.6490 -0.8107  0.4655
 2952SOL    HW220316   4.086   0.109   2.075  0.1753 -0.8547  0.8062
 2953SOL     OW20317   0.826   2.236  13.849 -0.1426 -0.0659 -0.1726
 2953SOL    HW120318   0.819   2.236  13.945  1.3969 -2.9828 -0.0479
 2953SOL    HW220319   0.810   2.326  13.822 -0.0639  0.3932  1.2790
 2954SOL     OW20320   2.468   2.091   6.359 -0.0657  0.1741  0.1632
 2954SOL    HW120321   2.386   2.043   6.368 -0.1211  0.4398  1.0635
 2954SOL    HW220322   2.438   2.182   6.367 -3.4576 -0.9567  0.2860
 2955SOL     OW20323   4.208   0.913   3.446  0.5930  0.0300 -0.4327
 2955SOL    HW120324   4.119   0.892   3.472  0.1724  0.7169 -1.3019
 2955SOL    HW220325   4.221   0.852   3.374  0.1124 -1.6674  0.9133
 2956SOL     OW20326   2.136   2.677   3.295  0.4879  0.1667  0.0091
 2956SOL    HW120327   2.227   2.685   3.264  1.5970 -2.6126  2.5969
 2956SOL    HW220328   2.104   2.589   3.277  1.8264 -0.1042 -1.0781
 2957SOL     OW20329   3.747   3.404   7.882  0.2622  0.2956 -0.4128
 2957SOL    HW120330   3.731   3.356   7.802  2.8425  0.1174 -0.8194
 2957SOL    HW220331   3.826   3.360   7.914 -0.0989  0.2645  0.4479
 2958SOL     OW20332   3.078   1.686   3.651 -0.5332  0.1166 -0.3676
 2958SOL    HW120333   3.084   1.624   3.724 -1.0980 -0.6523 -0.9735
 2958SOL    HW220334   3.000   1.651   3.608 -0.5841  1.9244 -1.7521
 2959SOL     OW20335   0.283   1.173  12.059  0.3560 -0.7126  0.1897
 2959SOL    HW120336   0.217   1.199  11.996  0.0405 -0.6451  0.5487
 2959SOL    HW220337   0.351   1.231  12.026 -0.3478  1.5281  2.6966
 2960SOL     OW20338   2.763   2.720  17.377 -0.1971  0.0511  0.2255
 2960SOL    HW120339   2.839   2.690  17.327  0.7092 -0.3696  1.8724
 2960SOL    HW220340   2.744   2.808  17.344 -0.4537  0.6211  1.8889
 2961SOL     OW20341   2.501   2.355   5.145 -0.3400 -0.5850 -0.4210
 2961SOL    HW120342   2.549   2.357   5.228  0.9818 -0.3021 -1.1936
 2961SOL    HW220343   2.424   2.303   5.166 -0.2472 -1.0243 -1.1573
 2962SOL     OW20344   2.119   3.980   8.290 -0.7558  0.0056  0.3770
 2962SOL    HW120345   2.048   3.930   8.331 -0.8047 -0.4846 -0.2935
 2962SOL    HW220346   2.082   4.068   8.286  0.1712  0.3736 -0.2385
 2963SOL     OW20347   3.081   0.989   3.074  0.6045 -0.5168  0.4669
 2963SOL    HW120348   3.130   1.060   3.116 -0.1025  0.1310  0.1962
 2963SOL    HW220349   3.031   1.038   3.008  0.4746  0.3605  1.2188
 2964SOL     OW20350   1.411   4.150   3.943  0.1398  0.3475  0.1940
 2964SOL    HW120351   1.349   4.137   4.015 -0.5321  1.2179 -0.2285
 2964SOL    HW220352   1.438   4.059   3.931  0.1368  0.9014 -3.9397
 2965SOL     OW20353   3.315   3.283   5.921 -0.1147 -0.3973 -0.8887
 2965SOL    HW120354   3.316   3.373   5.954 -0.7241 -0.9982  0.7523
 2965SOL    HW220355   3.402   3.281   5.880  0.8716 -1.5286  1.2602
 2966SOL     OW20356   2.865   1.365   5.086  0.2526  0.4510  0.0018
 2966SOL    HW120357   2.882   1.377   4.993  0.5193  0.8294  0.1005
 2966SOL    HW220358   2.825   1.451   5.103 -0.7846 -0.1176  0.4382
 2967SOL     OW20359   0.651   4.463   4.411  0.0653  0.4761 -0.2517
 2967SOL    HW120360   0.567   4.509   4.413  0.0058  0.4307 -1.5952
 2967SOL    HW220361   0.661   4.475   4.505  0.8658 -3.3000  0.1491
 2968SOL     OW20362   1.982   1.146   4.129  0.2581  0.5409 -0.7794
 2968SOL    HW120363   1.960   1.098   4.209 -1.0154  1.3046 -0.6735
 2968SOL    HW220364   2.026   1.221   4.168 -2.0316  1.9471 -0.9163
 2969SOL     OW20365   4.063   0.437   8.426 -0.0435  0.0084 -0.0730
 2969SOL    HW120366   4.141   0.482   8.396 -0.0088 -0.4071 -0.6125
 2969SOL    HW220367   4.047   0.490   8.503 -0.7144  0.4608 -0.5192
 2970SOL     OW20368   4.544   2.144   3.894  0.2324 -0.2083 -0.1044
 2970SOL    HW120369   4.491   2.065   3.884 -0.8271  0.6535 -1.2459
 2970SOL    HW220370   4.634   2.114   3.910  0.2420  0.2097  0.6599
 2971SOL     OW20371   0.105   2.580   5.285 -0.6898  0.4630  0.1742
 2971SOL    HW120372   0.020   2.585   5.241 -0.1887  0.2869 -0.7973
 2971SOL    HW220373   0.128   2.666   5.320 -0.6121 -0.6141  2.8048
 2972SOL     OW20374   3.142   0.958   1.091  0.4411 -0.1631 -0.5765
 2972SOL    HW120375   3.060   0.946   1.138  0.7338  0.4287  0.0850
 2972SOL    HW220376   3.184   0.875   1.068 -0.2880 -0.2549 -1.5639
 2973SOL     OW20377   4.706   0.574  11.347 -0.5296 -0.3328 -0.3174
 2973SOL    HW120378   4.653   0.635  11.296  0.9300  0.9895 -0.2410
 2973SOL    HW220379   4.638   0.516  11.382 -1.3839  1.1303  0.4367
 2974SOL     OW20380   1.583   1.177   5.049  0.5455 -0.0075 -0.4601
 2974SOL    HW120381   1.620   1.231   4.979  0.9429 -0.3469 -0.5142
 2974SOL    HW220382   1.622   1.093   5.025  0.2984 -0.3418  0.3234
 2975SOL     OW20383   1.459   1.679   4.441 -0.1937 -0.4735  0.0394
 2975SOL    HW120384   1.371   1.716   4.449  0.8553  1.9010  0.7747
 2975SOL    HW220385   1.508   1.762   4.439 -0.9123 -0.0173  1.9785
 2976SOL     OW20386   0.896   2.235   0.639 -0.3038 -0.1689  0.0375
 2976SOL    HW120387   0.980   2.281   0.643 -1.4759  1.8049  1.9447
 2976SOL    HW220388   0.938   2.150   0.652 -1.5203 -1.0522 -1.7634
 2977SOL     OW20389   2.255   3.018  17.065 -0.0400 -0.1600  0.3695
 2977SOL    HW120390   2.300   2.971  17.135 -0.1628 -0.2876  0.3635
 2977SOL    HW220391   2.334   3.035  17.013  0.3286 -0.5123  0.8071
 2978SOL     OW20392   2.934   4.402  13.131 -0.4742 -0.5546  0.7616
 2978SOL    HW120393   2.892   4.461  13.068 -0.9439 -2.3293 -0.5958
 2978SOL    HW220394   3.010   4.375  13.080 -0.0151 -0.3536  1.3383
 2979SOL     OW20395   1.463   2.840   1.100 -0.8443 -0.2881 -0.2271
 2979SOL    HW120396   1.544   2.864   1.145 -1.8357 -0.5794  1.7337
 2979SOL    HW220397   1.492   2.759   1.058 -0.3572 -0.7049  0.9295
 2980SOL     OW20398   0.990   3.944   6.211  0.0243  0.3277 -0.9835
 2980SOL    HW120399   0.974   3.850   6.222 -0.7889  0.4028 -1.5208
 2980SOL    HW220400   0.906   3.973   6.245 -0.1081 -0.7815 -0.3847
 2981SOL     OW20401   1.074   4.143   0.747  0.1578 -0.0551  0.0247
 2981SOL    HW120402   1.076   4.199   0.825  0.3383 -1.2044  0.8405
 2981SOL    HW220403   1.066   4.214   0.683  1.9113 -1.2116 -1.4916
 2982SOL     OW20404   1.194   3.734   3.826  0.4108  0.3567  0.2057
 2982SOL    HW120405   1.269   3.692   3.868  1.0893  1.2954 -0.0636
 2982SOL    HW220406   1.229   3.757   3.740 -0.0576  1.6824  0.3603
 2983SOL     OW20407   2.432   0.259   6.243  0.8297 -0.3869  0.9199
 2983SOL    HW120408   2.477   0.264   6.328  1.4776 -1.4667  0.6506
 2983SOL    HW220409   2.357   0.209   6.275 -1.6440  1.4927 -1.9559
 2984SOL     OW20410   2.656   2.496  15.981 -0.0564 -0.7777  0.7117
 2984SOL    HW120411   2.680   2.450  15.900  2.2312 -0.0645  0.9882
 2984SOL    HW220412   2.738   2.546  15.986 -1.5326  1.6465  0.3084
 2985SOL     OW20413   3.877   3.249   3.908 -0.0117  0.5889 -0.1729
 2985SOL    HW120414   3.954   3.229   3.854 -0.0992  3.3958 -1.3671
 2985SOL    HW220415   3.929   3.291   3.977  1.3925  1.3091 -1.6601
 2986SOL     OW20416   3.872   0.229   5.066 -0.1323 -0.0382 -0.2384
 2986SOL    HW120417   3.962   0.252   5.040 -1.0834  1.1856 -2.4346
 2986SOL    HW220418   3.835   0.199   4.983 -0.9719 -0.5500  0.3318
 2987SOL     OW20419   1.922   2.553   6.917  0.4817 -0.4315 -0.2419
 2987SOL    HW120420   1.883   2.470   6.890 -0.5328  0.6441 -2.0624
 2987SOL    HW220421   1.987   2.542   6.987  2.0203 -1.3407 -1.8099
 2988SOL     OW20422   3.358   1.204   5.590 -0.0195  0.2299 -0.4421
 2988SOL    HW120423   3.353   1.267   5.662  1.2526  0.0578 -0.1980
 2988SOL    HW220424   3.276   1.155   5.591 -0.6309  1.2979  0.6664
 2989SOL     OW20425   0.747   2.016   7.899  0.3566 -0.3131  0.0775
 2989SOL    HW120426   0.816   2.027   7.965  0.7717  1.6718 -0.6744
 2989SOL    HW220427   0.765   2.088   7.838  0.2567  0.6404  1.1822
 2990SOL     OW20428   4.635   2.275   3.533 -0.3365  0.1699  0.0303
 2990SOL    HW120429   4.590   2.298   3.451 -0.7412  1.0294  0.4843
 2990SOL    HW220430   4.566   2.233   3.584  0.3564 -0.5639  0.3626
 2991SOL     OW20431   0.558   1.141   4.395 -0.0099  0.5044 -0.6048
 2991SOL    HW120432   0.586   1.221   4.350 -0.6892  1.0151 -0.1209
 2991SOL    HW220433   0.465   1.160   4.403 -0.3423 -0.5215 -2.0308
 2992SOL     OW20434   2.737   4.088   1.468 -0.0314 -0.1720 -0.1855
 2992SOL    HW120435   2.767   3.998   1.477  0.7436  0.0387 -0.6535
 2992SOL    HW220436   2.684   4.096   1.547 -1.5346 -0.6099 -1.1632
 2993SOL     OW20437   2.605   0.472   4.978 -0.3797 -0.4447 -0.4828
 2993SOL    HW120438   2.685   0.425   4.956  0.4701  0.8316 -0.1924
 2993SOL    HW220439   2.570   0.489   4.891 -1.3947  0.3858  0.0866
 2994SOL     OW20440   1.583   4.386   7.294 -0.2337  0.4342 -0.2306
 2994SOL    HW120441   1.662   4.394   7.348 -1.2350 -0.0611  1.3103
 2994SOL    HW220442   1.530   4.446   7.346  0.3423  0.1441  0.6886
 2995SOL     OW20443   3.145   0.471  14.236 -0.3474 -0.3379  0.0306
 2995SOL    HW120444   3.205   0.436  14.170  0.4558 -0.2414  0.7065
 2995SOL    HW220445   3.087   0.524  14.181  1.0606  1.7253  0.5615
 2996SOL     OW20446   1.187   2.170   6.424 -0.5751 -0.4988 -0.5503
 2996SOL    HW120447   1.115   2.114   6.452 -0.7483  0.3543  0.7041
 2996SOL    HW220448   1.166   2.180   6.331  1.0975 -0.2938 -0.9052
 2997SOL     OW20449   2.909   0.462   7.027 -0.0906 -0.1950  0.3092
 2997SOL    HW120450   2.844   0.518   7.070  0.0768  0.5028 -0.3447
 2997SOL    HW220451   2.983   0.485   7.083 -1.2663  0.3915  1.6409
 2998SOL     OW20452   1.269   1.906  12.551 -0.2628 -0.0336  0.3884
 2998SOL    HW120453   1.339   1.888  12.615  1.1428  0.1895 -1.0960
 2998SOL    HW220454   1.277   2.000  12.538  0.8208 -0.5726 -2.7533
 2999SOL     OW20455   0.397   3.055   3.152  0.2833 -0.0695 -0.7237
 2999SOL    HW120456   0.312   3.033   3.190  0.2469 -1.2499 -1.4847
 2999SOL    HW220457   0.365   3.112   3.082  1.4097 -1.4713 -2.3932
 3000SOL     OW20458   3.346   1.820  17.156  0.0595 -0.7241 -0.5940
 3000SOL    HW120459   3.340   1.908  17.118  2.4273 -0.8592 -1.2892
 3000SOL    HW220460   3.430   1.788  17.123 -0.0665 -2.1742  0.4767
 3001SOL     OW20461   3.664   4.166   0.956 -0.1516  0.6462  0.4627
 3001SOL    HW120462   3.609   4.237   0.990  0.1258  1.7642 -1.4033
 3001SOL    HW220463   3.715   4.148   1.034  0.4538 -2.6862 -0.7162
 3002SOL     OW20464   4.087   0.896   6.441  0.0383  0.2084 -0.2442
 3002SOL    HW120465   4.154   0.828   6.448  0.0607  0.2682  0.1104
 3002SOL    HW220466   4.125   0.965   6.386 -0.7973  0.7993 -0.0723
 3003SOL     OW20467   2.206   1.637   8.671 -0.7782  0.2842 -0.4382
 3003SOL    HW120468   2.190   1.543   8.675 -0.7517  0.3496  1.2636
 3003SOL    HW220469   2.183   1.660   8.581  0.5695  1.0953 -0.5663
 3004SOL     OW20470   0.443   2.836   9.462  0.0450  1.0362 -0.5539
 3004SOL    HW120471   0.442   2.877   9.375  0.1631 -0.9281 -1.4935
 3004SOL    HW220472   0.528   2.792   9.454 -1.1580 -0.6296 -4.3280
 3005SOL     OW20473   2.136   2.027   5.281 -0.3631  0.1414 -0.2005
 3005SOL    HW120474   2.057   2.030   5.335  1.1172 -1.0818  2.0496
 3005SOL    HW220475   2.147   1.932   5.286  0.7707  0.2636 -0.2657
 3006SOL     OW20476   1.762   4.648  11.130  0.1295 -0.0950  0.1918
 3006SOL    HW120477   1.694   4.587  11.159  0.7308 -0.6513  0.4412
 3006SOL    HW220478   1.814   4.654  11.210  0.7653  0.8808 -0.3015
 3007SOL     OW20479   3.656   1.171   1.883 -0.1481  0.1541 -0.2738
 3007SOL    HW120480   3.685   1.256   1.850 -0.9292  1.3140  2.0443
 3007SOL    HW220481   3.591   1.202   1.946 -1.2466 -0.5047 -1.0692
 3008SOL     OW20482   0.870   3.462  15.848 -0.2540  0.0340 -0.4891
 3008SOL    HW120483   0.901   3.389  15.902 -0.9886 -0.0105 -0.1393
 3008SOL    HW220484   0.777   3.458  15.867 -0.1424  0.0088  0.0517
 3009SOL     OW20485   2.526   1.177  14.615  0.2939 -0.1226 -0.0884
 3009SOL    HW120486   2.588   1.216  14.553  1.8289  0.4489  1.8241
 3009SOL    HW220487   2.583   1.163  14.690  0.3979 -1.4241 -0.4092
 3010SOL     OW20488   2.180   4.232  15.008  0.2007  0.1646 -0.3551
 3010SOL    HW120489   2.090   4.199  15.009 -0.3443  1.6536 -1.1810
 3010SOL    HW220490   2.183   4.235  14.912  0.5186 -0.1179 -0.3564
 3011SOL     OW20491   2.702   2.850   0.333  0.1190 -0.1702  0.1045
 3011SOL    HW120492   2.763   2.792   0.286 -3.5421 -1.9923 -2.4415
 3011SOL    HW220493   2.721   2.941   0.311  1.5022 -0.7630 -1.1850
 3012SOL     OW20494   2.387   4.040   5.177 -0.4376  0.1501 -0.1765
 3012SOL    HW120495   2.437   4.013   5.100 -0.8474 -1.4627  0.1003
 3012SOL    HW220496   2.448   4.098   5.221  1.1195 -0.8604 -1.0012
 3013SOL     OW20497   3.693   4.399   8.680  0.1706 -0.2251 -0.2290
 3013SOL    HW120498   3.623   4.412   8.616  1.2046  1.0918 -1.0726
 3013SOL    HW220499   3.752   4.356   8.618 -2.8150 -0.9503 -2.5438
 3014SOL     OW20500   3.286   0.900   7.811  0.3936 -0.1834 -0.2645
 3014SOL    HW120501   3.346   0.826   7.804  1.2929  0.6179 -0.9767
 3014SOL    HW220502   3.267   0.907   7.905 -1.3502  0.0193 -0.6309
 3015SOL     OW20503   0.582   1.847   8.647  0.3667  0.2223 -0.4043
 3015SOL    HW120504   0.628   1.770   8.613  0.5718  0.4700 -0.6906
 3015SOL    HW220505   0.500   1.806   8.676  2.2863 -2.5423  1.0272
 3016SOL     OW20506   1.736   1.785  14.312 -0.2808  1.0182 -0.0829
 3016SOL    HW120507   1.793   1.757  14.384 -2.3067  0.6996  1.4062
 3016SOL    HW220508   1.801   1.835  14.263  0.3147  0.4732  0.1503
 3017SOL     OW20509   0.108   3.935  16.317 -0.5258  0.2123 -0.2243
 3017SOL    HW120510   0.200   3.933  16.291  0.1033  1.1689  1.9608
 3017SOL    HW220511   0.074   3.904  16.233 -1.4149  1.1917 -0.2205
 3018SOL     OW20512   4.325   0.677   2.455 -0.3267  0.5566  0.5807
 3018SOL    HW120513   4.291   0.765   2.464  0.7302  1.0723 -0.4211
 3018SOL    HW220514   4.392   0.669   2.523 -1.2743 -0.1173  1.4334
 3019SOL     OW20515   2.319   2.104   8.305 -0.0341 -0.1724  0.3224
 3019SOL    HW120516   2.285   2.119   8.216  0.9073  0.7409  0.1215
 3019SOL    HW220517   2.247   2.055   8.346  0.8131  0.3732  2.4421
 3020SOL     OW20518   0.350   2.154   6.737 -0.1441  0.1067  0.0049
 3020SOL    HW120519   0.416   2.164   6.805 -0.6706 -1.5114  0.7429
 3020SOL    HW220520   0.301   2.233   6.759 -0.8036  0.0913 -1.4263
 3021SOL     OW20521   0.954   1.265   3.734 -0.1460 -0.0039 -0.2179
 3021SOL    HW120522   0.911   1.196   3.684 -1.4398  1.2460 -0.8486
 3021SOL    HW220523   0.885   1.329   3.750 -0.7157 -0.6425 -0.1405
 3022SOL     OW20524   1.442   0.901   8.035  0.0499 -0.1198 -0.2831
 3022SOL    HW120525   1.522   0.848   8.037  0.9111  1.1006 -2.7328
 3022SOL    HW220526   1.457   0.969   7.970  4.0756 -1.3713 -0.6623
 3023SOL     OW20527   3.365   3.205   6.410 -0.3924 -0.6676 -0.2620
 3023SOL    HW120528   3.304   3.268   6.372  2.4191  0.7970 -2.4307
 3023SOL    HW220529   3.446   3.253   6.393 -1.5054  1.5627  0.7294
 3024SOL     OW20530   0.610   3.501  11.695  0.1984 -0.0696 -0.0929
 3024SOL    HW120531   0.645   3.455  11.619 -0.2109  1.0078 -0.9235
 3024SOL    HW220532   0.516   3.493  11.682 -0.0079  0.5424  0.9636
 3025SOL     OW20533   3.753   1.769   4.098 -0.6201  0.4734  1.0288
 3025SOL    HW120534   3.778   1.787   4.189  2.3202  0.1902  0.2990
 3025SOL    HW220535   3.777   1.677   4.094 -1.1954  0.2850  2.1640
 3026SOL     OW20536   1.709   3.716   5.584 -0.4256  0.1360  0.7877
 3026SOL    HW120537   1.692   3.791   5.641 -2.6067  0.1400  0.1200
 3026SOL    HW220538   1.663   3.653   5.640 -0.2427  0.5972  1.4585
 3027SOL     OW20539   1.797   0.147   4.025  0.2536 -0.1068 -0.4456
 3027SOL    HW120540   1.879   0.185   4.057  0.0443  1.1647 -1.4478
 3027SOL    HW220541   1.729   0.214   4.035  1.3417  0.5376  2.8365
 3028SOL     OW20542   4.300   4.429   8.230 -0.1560 -0.1718 -0.2716
 3028SOL    HW120543   4.304   4.515   8.273 -4.4699  1.2103 -2.6261
 3028SOL    HW220544   4.365   4.427   8.160 -0.2665 -1.1533 -0.3499
 3029SOL     OW20545   3.577   1.940   6.469  0.1770  0.0875 -0.0515
 3029SOL    HW120546   3.598   2.032   6.451  0.5165 -0.3506 -1.8953
 3029SOL    HW220547   3.665   1.908   6.490 -0.2019 -0.7025  0.3328
 3030SOL     OW20548   2.771   4.474  10.543  0.1088 -0.2433  0.1233
 3030SOL    HW120549   2.789   4.531  10.468 -0.5820  1.0055  0.9065
 3030SOL    HW220550   2.694   4.430  10.506 -2.3180  2.7160  1.6949
 3031SOL     OW20551   0.438   4.108   2.067 -0.3437 -0.5693 -0.6055
 3031SOL    HW120552   0.518   4.107   2.119 -0.0553 -0.6992 -1.0567
 3031SOL    HW220553   0.464   4.055   1.992 -0.9721 -0.0169 -1.2033
 3032SOL     OW20554   1.743   1.012  15.892  1.0926 -0.2491 -0.1243
 3032SOL    HW120555   1.738   0.968  15.977 -0.1965 -2.0711 -1.1372
 3032SOL    HW220556   1.671   0.978  15.838  1.4061 -0.6064 -0.3197
 3033SOL     OW20557   3.850   0.797   2.440 -0.0045 -0.0056 -0.2483
 3033SOL    HW120558   3.923   0.859   2.442  0.2844 -0.3193 -1.1931
 3033SOL    HW220559   3.792   0.858   2.395  0.7362  0.7846 -0.1305
 3034SOL     OW20560   3.637   3.020   1.727  0.0334 -0.0868  0.0876
 3034SOL    HW120561   3.613   2.964   1.801 -1.9366  1.8054  0.8752
 3034SOL    HW220562   3.640   3.103   1.774 -0.0511  0.1288 -0.2905
 3035SOL     OW20563   3.046   2.202   5.273 -0.1118 -0.5283 -0.0185
 3035SOL    HW120564   3.033   2.228   5.181  1.9040 -1.6996 -0.6341
 3035SOL    HW220565   3.129   2.245   5.293 -0.7218  0.8348 -0.3867
 3036SOL     OW20566   2.476   0.500   0.291 -0.7653 -0.1840 -0.0300
 3036SOL    HW120567   2.482   0.583   0.338  0.2247 -0.6047  0.5886
 3036SOL    HW220568   2.522   0.522   0.209 -1.2288 -0.9931 -0.5106
 3037SOL     OW20569   4.572   1.029  12.926 -0.2584 -0.3350 -0.0229
 3037SOL    HW120570   4.603   1.101  12.870 -0.2735  0.7934  1.4281
 3037SOL    HW220571   4.489   0.999  12.890  0.5998 -1.7008 -0.8849
 3038SOL     OW20572   0.129   1.140  12.288  0.1532  0.2001 -0.3880
 3038SOL    HW120573   0.094   1.227  12.271  0.8113  0.5437 -0.0063
 3038SOL    HW220574   0.209   1.144  12.235  1.8538  0.7461  2.2049
 3039SOL     OW20575   3.952   2.649   5.971 -0.7706 -0.4229  0.1027
 3039SOL    HW120576   3.906   2.659   6.054 -0.4569 -2.8410  0.5390
 3039SOL    HW220577   3.963   2.554   5.974 -1.2998 -0.3785  2.6895
 3040SOL     OW20578   1.127   4.328   2.767  1.0450  0.1627  0.3533
 3040SOL    HW120579   1.036   4.308   2.745  1.0871 -1.2974  1.5238
 3040SOL    HW220580   1.167   4.242   2.777  1.0320  0.2733  1.3647
 3041SOL     OW20581   3.225   0.881  13.508 -0.3579  0.3829 -0.2183
 3041SOL    HW120582   3.198   0.842  13.425 -1.3659  2.0573 -0.6862
 3041SOL    HW220583   3.152   0.942  13.520  0.1059  1.3640 -2.3712
 3042SOL     OW20584   3.090   0.841   0.275 -0.0044 -0.1155  0.4111
 3042SOL    HW120585   3.085   0.846   0.370  3.4547 -1.4322  0.6375
 3042SOL    HW220586   3.022   0.907   0.258  2.4312  1.5161 -3.1832
 3043SOL     OW20587   1.763   2.662  16.432 -0.0954 -0.5873 -0.4489
 3043SOL    HW120588   1.827   2.656  16.361  2.7245 -1.9639  2.1922
 3043SOL    HW220589   1.724   2.747  16.412  1.1695 -0.2578 -1.4660
 3044SOL     OW20590   1.309   4.062   2.543  0.1609 -0.3103  0.0133
 3044SOL    HW120591   1.266   3.977   2.538 -0.9722  0.3545 -1.5063
 3044SOL    HW220592   1.248   4.116   2.493 -0.9756 -1.3182  0.3303
 3045SOL     OW20593   0.686   0.894   8.141 -0.3335 -0.0464  0.1251
 3045SOL    HW120594   0.778   0.883   8.118 -0.2359 -0.6969  0.8673
 3045SOL    HW220595   0.690   0.989   8.154 -0.7049  0.3154 -2.3290
 3046SOL     OW20596   2.047   0.858   3.875 -0.5457 -0.0848  0.4157
 3046SOL    HW120597   2.021   0.817   3.792 -0.0424  3.4514 -1.5148
 3046SOL    HW220598   2.106   0.924   3.837 -0.5822  1.1356  2.4933
 3047SOL     OW20599   4.013   3.668  11.028 -0.1459 -0.2241  0.3150
 3047SOL    HW120600   3.995   3.580  11.061 -1.3828 -0.2616 -0.4404
 3047SOL    HW220601   3.976   3.656  10.940 -1.1170  0.0116  0.6920
 3048SOL     OW20602   3.751   1.297   2.843  0.5148 -0.0901  0.0430
 3048SOL    HW120603   3.750   1.393   2.846 -0.2077 -0.1049  0.2568
 3048SOL    HW220604   3.691   1.277   2.771  0.3648 -0.5397  0.2936
 3049SOL     OW20605   3.593   2.839  16.538 -0.3951  0.0202  0.5812
 3049SOL    HW120606   3.680   2.808  16.562 -0.4828 -1.9331 -1.5583
 3049SOL    HW220607   3.534   2.773  16.575 -1.2099  0.3459 -0.1472
 3050SOL     OW20608   1.623   1.374  16.177  0.0790 -0.0056  0.2765
 3050SOL    HW120609   1.690   1.423  16.225  1.8381 -2.3666  0.2354
 3050SOL    HW220610   1.657   1.284  16.183 -0.6521 -0.3257 -0.4605
 3051SOL     OW20611   0.906   1.717   6.445  0.2198 -0.3913 -0.3995
 3051SOL    HW120612   0.820   1.744   6.479 -0.9565 -1.0158 -2.8840
 3051SOL    HW220613   0.906   1.625   6.473  0.5524 -0.3645 -0.3117
 3052SOL     OW20614   2.456   2.789   0.024  0.0637  0.1559 -0.0416
 3052SOL    HW120615   2.474   2.820  17.627  0.0263  1.7748  0.5164
 3052SOL    HW220616   2.490   2.868   0.065  1.0315  0.2146 -0.9710
 3053SOL     OW20617   4.212   0.449   6.833  0.2907 -0.1006 -0.2822
 3053SOL    HW120618   4.247   0.371   6.876 -0.7826 -1.5500 -2.0873
 3053SOL    HW220619   4.194   0.506   6.908  0.0949  0.9025 -1.0942
 3054SOL     OW20620   0.669   0.909  13.229  0.7195  0.3218 -0.4527
 3054SOL    HW120621   0.713   0.871  13.304  1.0080 -1.8393 -1.7244
 3054SOL    HW220622   0.736   0.936  13.166 -0.5678 -1.7757 -2.7221
 3055SOL     OW20623   2.111   1.006   2.126  0.7466  0.0439 -0.3437
 3055SOL    HW120624   2.161   0.981   2.204  1.7490  0.4871 -0.8480
 3055SOL    HW220625   2.050   1.075   2.153 -0.3649  0.1207 -3.1188
 3056SOL     OW20626   1.318   3.600   3.422  0.5951 -0.0059 -0.6999
 3056SOL    HW120627   1.292   3.515   3.459 -1.0202  0.9989  0.4791
 3056SOL    HW220628   1.413   3.596   3.411  0.8511  1.4600  0.9243
 3057SOL     OW20629   1.115   1.461  12.859  0.2487 -0.3382  0.1506
 3057SOL    HW120630   1.176   1.396  12.893  1.8692  1.2456  0.2521
 3057SOL    HW220631   1.094   1.517  12.934  0.1262  0.4913 -0.4928
 3058SOL     OW20632   0.668   1.370   4.324  0.6517  0.2988  0.3032
 3058SOL    HW120633   0.640   1.435   4.388  2.2738 -0.1453  1.4802
 3058SOL    HW220634   0.756   1.389   4.291  1.0677  0.1637  1.3113
 3059SOL     OW20635   3.109   0.217   3.657  0.0525  0.0624  0.7926
 3059SOL    HW120636   3.181   0.156   3.647 -0.4901  0.0611 -2.9571
 3059SOL    HW220637   3.055   0.184   3.585  1.3716  0.0988 -0.2084
 3060SOL     OW20638   4.588   1.306   3.842  0.1824  0.3426 -0.1674
 3060SOL    HW120639   4.674   1.264   3.854 -0.8463 -1.2850  1.4988
 3060SOL    HW220640   4.566   1.318   3.934  0.2088 -0.3059 -0.0721
 3061SOL     OW20641   0.588   3.054   4.498 -0.2271  0.0483  0.4064
 3061SOL    HW120642   0.581   2.963   4.530  1.8359 -0.3747 -0.3374
 3061SOL    HW220643   0.500   3.076   4.467 -0.1966  0.4054  0.5727
 3062SOL     OW20644   1.293   2.710   6.058  0.4888  0.2418 -0.1909
 3062SOL    HW120645   1.382   2.677   6.049 -0.2523 -1.4231 -1.4137
 3062SOL    HW220646   1.259   2.655   6.129 -2.0932 -0.9360 -2.3529
 3063SOL     OW20647   4.044   3.471   7.676  0.1536  0.1711 -0.1820
 3063SOL    HW120648   4.032   3.515   7.760 -3.2997 -0.4443 -0.3465
 3063SOL    HW220649   4.000   3.387   7.693  0.5713  0.6153  3.0508
 3064SOL     OW20650   2.130   3.783  11.622  0.3470  0.1797  0.3304
 3064SOL    HW120651   2.192   3.764  11.552  1.9182 -0.9989  2.0238
 3064SOL    HW220652   2.144   3.877  11.623 -0.2621  0.2583  2.0034
 3065SOL     OW20653   2.504   2.045  17.206 -0.5010  0.2954 -0.1772
 3065SOL    HW120654   2.547   1.996  17.276 -1.5823  1.9014  1.5809
 3065SOL    HW220655   2.581   2.081  17.161  1.1958  0.7826  3.1569
 3066SOL     OW20656   4.522   4.265  11.634  0.0038  0.2862 -0.3864
 3066SOL    HW120657   4.602   4.318  11.643 -1.5835  2.2708  2.1636
 3066SOL    HW220658   4.502   4.241  11.725 -2.2904  2.7150 -0.2617
 3067SOL     OW20659   2.304   0.290   0.275  0.2638  0.1701 -0.1120
 3067SOL    HW120660   2.386   0.340   0.275  0.9253 -0.9261  0.0128
 3067SOL    HW220661   2.242   0.360   0.298 -0.3400  0.0995 -1.5695
 3068SOL     OW20662   0.677   1.338  16.880  0.2010  0.1019 -0.0792
 3068SOL    HW120663   0.591   1.370  16.907  0.8887  1.2297  0.8041
 3068SOL    HW220664   0.652   1.280  16.808  3.0419 -1.4875  0.1980
 3069SOL     OW20665   4.202   0.978   6.908 -0.1945 -0.2649  0.4732
 3069SOL    HW120666   4.253   1.028   6.844 -1.7874 -1.0618 -1.4101
 3069SOL    HW220667   4.247   0.999   6.990 -2.0131 -0.6431  1.5816
 3070SOL     OW20668   0.676   2.542   8.403  0.1172  0.1010  0.5184
 3070SOL    HW120669   0.667   2.530   8.498 -0.4597  1.9674  0.7075
 3070SOL    HW220670   0.584   2.560   8.384 -0.2126  1.1588  3.0522
 3071SOL     OW20671   1.121   3.698   0.980 -0.4102 -0.8721  0.2632
 3071SOL    HW120672   1.042   3.705   1.034 -1.0434 -1.2826 -0.6106
 3071SOL    HW220673   1.099   3.627   0.920  0.4512  0.8701 -2.1296
 3072SOL     OW20674   1.717   1.446   3.811 -0.1925  0.0176 -0.0384
 3072SOL    HW120675   1.795   1.435   3.757 -1.3953 -0.4086 -1.6818
 3072SOL    HW220676   1.651   1.462   3.743 -0.2801  0.3546  0.1271
 3073SOL     OW20677   0.840   2.398  12.354 -0.2792  0.6882 -0.2427
 3073SOL    HW120678   0.843   2.412  12.449  2.7943  3.5068 -0.7738
 3073SOL    HW220679   0.820   2.484  12.319 -1.0907  2.0852  3.6651
 3074SOL     OW20680   0.423   4.621   4.487  0.2313 -0.3479 -0.4493
 3074SOL    HW120681   0.374   4.632   4.569  1.2645  0.3247  0.0791
 3074SOL    HW220682   0.353   4.636   4.424  1.2134  1.2300 -1.1618
 3075SOL     OW20683   2.567   3.247   4.833 -0.5087  0.1389  0.0471
 3075SOL    HW120684   2.600   3.159   4.847  2.3259  1.3811  1.1826
 3075SOL    HW220685   2.498   3.219   4.773  0.6508 -2.1252 -0.2020
 3076SOL     OW20686   1.600   2.279  12.850  0.1608 -0.0259  0.4964
 3076SOL    HW120687   1.656   2.344  12.806 -0.2289  0.3038  0.4816
 3076SOL    HW220688   1.586   2.212  12.784  0.9546  0.8722 -0.5946
 3077SOL     OW20689   0.384   2.930   9.239  0.5453 -0.1269  0.1577
 3077SOL    HW120690   0.394   3.023   9.222  2.1234 -0.5421 -1.2165
 3077SOL    HW220691   0.448   2.894   9.177  0.2061  0.4535 -0.5364
 3078SOL     OW20692   2.676   3.687   2.692 -0.1246  0.5179  0.3405
 3078SOL    HW120693   2.661   3.780   2.675  0.9952  0.6183 -0.0935
 3078SOL    HW220694   2.583   3.664   2.700  0.1275 -0.6402 -0.0501
 3079SOL     OW20695   2.997   2.849   5.173 -0.5760 -0.3625  0.2201
 3079SOL    HW120696   3.006   2.902   5.094 -0.9316 -1.1690 -0.3555
 3079SOL    HW220697   2.958   2.769   5.140 -0.5681  0.0234 -0.7252
 3080SOL     OW20698   4.504   4.050  10.361  0.1718 -0.8212 -0.4019
 3080SOL    HW120699   4.490   4.131  10.311 -2.0366  0.7200  2.6892
 3080SOL    HW220700   4.568   4.074  10.429 -0.2972 -0.1437 -0.1993
 3081SOL     OW20701   1.300   1.516   8.452 -0.1437 -0.3563 -0.1111
 3081SOL    HW120702   1.286   1.583   8.386 -1.5865  0.4554  1.0055
 3081SOL    HW220703   1.220   1.521   8.505  0.0290  0.0340  0.1131
 3082SOL     OW20704   4.472   3.984  11.251  0.3748 -1.2137 -0.7112
 3082SOL    HW120705   4.393   3.951  11.294  0.1863  0.7100  0.4118
 3082SOL    HW220706   4.502   3.905  11.207  0.0814 -1.6086 -0.1904
 3083SOL     OW20707   2.215   3.211   5.248  0.4180 -0.0604  0.4988
 3083SOL    HW120708   2.157   3.201   5.173 -0.6378 -2.3815  1.6217
 3083SOL    HW220709   2.155   3.264   5.300  0.1144  4.0554 -4.1013
 3084SOL     OW20710   0.803   1.332   3.124 -0.3306 -0.3191 -0.2996
 3084SOL    HW120711   0.861   1.407   3.109  0.1448 -0.7735 -0.7429
 3084SOL    HW220712   0.743   1.337   3.049 -2.7567  0.2124  1.7011
 3085SOL     OW20713   0.991   1.384   4.503 -0.3402 -0.0016  0.1873
 3085SOL    HW120714   1.080   1.419   4.499 -1.3329  2.4767 -0.1836
 3085SOL    HW220715   1.000   1.294   4.534  1.1300  0.2008  0.3228
 3086SOL     OW20716   1.581   4.081   7.684 -0.0840 -0.2102  0.4575
 3086SOL    HW120717   1.646   4.011   7.685  2.2989  1.9821  1.2271
 3086SOL    HW220718   1.502   4.031   7.703  0.7651 -2.2572 -1.3698
 3087SOL     OW20719   1.877   0.352  13.924  0.5408 -0.4714 -0.0279
 3087SOL    HW120720   1.898   0.320  13.836  0.7852 -1.3751  0.3671
 3087SOL    HW220721   1.801   0.303  13.954  0.8301 -0.7831  0.1942
 3088SOL     OW20722   3.514   2.530   2.991  0.5569 -0.0376 -0.2848
 3088SOL    HW120723   3.595   2.575   2.969 -0.2367  1.5777  0.0547
 3088SOL    HW220724   3.505   2.569   3.078  1.9182 -0.1785 -0.0794
 3089SOL     OW20725   4.513   4.128  13.947 -0.4373 -0.1552 -0.1761
 3089SOL    HW120726   4.591   4.078  13.971 -2.1318 -1.9447  1.6204
 3089SOL    HW220727   4.455   4.119  14.022 -1.5081 -2.2604 -1.2861
 3090SOL     OW20728   3.523   1.295   5.919 -0.1593 -0.3853  0.2479
 3090SOL    HW120729   3.531   1.201   5.909 -2.3644 -0.6665  0.9229
 3090SOL    HW220730   3.611   1.332   5.928 -0.9950  1.9228 -1.0572
 3091SOL     OW20731   2.713   0.628  16.215 -0.0864 -0.5030 -0.0434
 3091SOL    HW120732   2.725   0.686  16.290 -1.9672  0.3853 -0.4346
 3091SOL    HW220733   2.713   0.696  16.148 -0.3592  0.3472  0.8086
 3092SOL     OW20734   2.346   1.561   2.473  0.1916 -0.1575 -0.0893
 3092SOL    HW120735   2.423   1.615   2.454 -0.6913  0.8381 -0.8250
 3092SOL    HW220736   2.313   1.552   2.384 -0.0421  1.0051 -0.1237
 3093SOL     OW20737   2.703   4.243  12.522 -0.1887 -0.1836 -0.3115
 3093SOL    HW120738   2.779   4.221  12.576 -1.9010  0.2282  2.2671
 3093SOL    HW220739   2.719   4.335  12.503 -0.8183 -0.3385 -1.5766
 3094SOL     OW20740   3.256   3.479  12.539 -0.0785 -0.1565  0.5080
 3094SOL    HW120741   3.189   3.454  12.601  0.5902 -2.7428  0.1870
 3094SOL    HW220742   3.313   3.402  12.536  3.1996  2.3763 -3.0595
 3095SOL     OW20743   4.700   2.267   1.690  0.6464  0.3347 -0.0832
 3095SOL    HW120744   4.615   2.277   1.648  0.5748  1.3089  0.2846
 3095SOL    HW220745   4.701   2.351   1.736  0.1656 -1.1322  2.6531
 3096SOL     OW20746   4.451   3.232   6.328 -0.1959 -0.5542 -0.5607
 3096SOL    HW120747   4.425   3.322   6.348  1.5329  0.0866 -1.2956
 3096SOL    HW220748   4.405   3.218   6.245  0.2458  0.7442 -1.0230
 3097SOL     OW20749   1.287   4.164   1.638  0.0167  0.5192  0.0796
 3097SOL    HW120750   1.346   4.217   1.692 -1.4986 -1.1268  3.3193
 3097SOL    HW220751   1.205   4.212   1.643  0.0121  0.5675 -0.4296
 3098SOL     OW20752   3.059   0.062   0.742  0.0920  0.2548 -0.0266
 3098SOL    HW120753   3.091   0.096   0.826 -0.9577  1.1376 -0.0029
 3098SOL    HW220754   2.970   0.035   0.762  0.2758  1.5941  2.5149
 3099SOL     OW20755   0.260   3.134   2.383  0.7079  0.0543  0.2325
 3099SOL    HW120756   0.340   3.100   2.423  0.4789  1.3205  1.7409
 3099SOL    HW220757   0.285   3.223   2.357 -0.8056  1.1089  2.4352
 3100SOL     OW20758   3.804   4.473   8.955 -0.0511  0.5067  0.0028
 3100SOL    HW120759   3.788   4.466   8.861  3.1016 -0.4853 -0.4428
 3100SOL    HW220760   3.898   4.460   8.962 -0.3288 -1.3041  0.5012
 3101SOL     OW20761   4.254   2.616   6.082 -0.4421  0.0425  0.2401
 3101SOL    HW120762   4.186   2.683   6.074 -1.8951 -1.4081  0.4639
 3101SOL    HW220763   4.258   2.583   5.992  2.5357  2.3314 -0.4496
 3102SOL     OW20764   4.390   1.633   2.204  0.2133 -0.7882  0.0562
 3102SOL    HW120765   4.479   1.629   2.241  0.3049 -1.2172 -0.2164
 3102SOL    HW220766   4.402   1.614   2.111 -0.2928 -2.7776  0.3957
 3103SOL     OW20767   4.618   1.804  14.518 -0.2320  0.3733 -0.3739
 3103SOL    HW120768   4.578   1.886  14.488 -0.6870 -0.3644 -1.7665
 3103SOL    HW220769   4.634   1.817  14.612 -1.5296 -1.3789  0.0827
 3104SOL     OW20770   3.460   4.715   6.226  0.0466 -0.0835  0.0660
 3104SOL    HW120771   3.428   4.626   6.215  0.0193 -0.1552  0.7294
 3104SOL    HW220772   3.403   0.026   6.295 -1.5558  2.8563 -2.6903
 3105SOL     OW20773   4.714   3.872  17.097  0.6356  0.3068 -0.4046
 3105SOL    HW120774   4.678   3.954  17.129  1.2305  1.0129 -1.5826
 3105SOL    HW220775   0.079   3.900  17.070  1.2142 -0.4099  0.7040
 3106SOL     OW20776   2.441   4.110  17.035 -0.0435  0.5369  0.3001
 3106SOL    HW120777   2.354   4.081  17.063  0.1069 -1.4546 -1.2555
 3106SOL    HW220778   2.489   4.033  17.067  0.2590  1.0300  1.0348
 3107SOL     OW20779   0.439   1.393   5.770 -0.0039  0.7277 -0.5768
 3107SOL    HW120780   0.422   1.473   5.820  0.7159 -0.0287  0.8548
 3107SOL    HW220781   0.516   1.359   5.816 -1.5228 -3.3420 -1.1005
 3108SOL     OW20782   1.232   0.639  13.336 -0.1637 -0.3670 -0.0558
 3108SOL    HW120783   1.274   0.575  13.394  2.3526  1.9116  0.6110
 3108SOL    HW220784   1.269   0.595  13.260 -1.2615  0.7082 -1.1987
 3109SOL     OW20785   3.490   0.405   5.800 -0.3923  0.0930  0.9794
 3109SOL    HW120786   3.399   0.431   5.811 -0.2240  0.8653  0.4775
 3109SOL    HW220787   3.504   0.429   5.709  0.2267  0.4980  1.1800
 3110SOL     OW20788   1.956   1.316   8.170  0.7907 -0.2558 -0.3469
 3110SOL    HW120789   1.918   1.321   8.258 -0.8285 -1.4547 -0.9700
 3110SOL    HW220790   2.050   1.313   8.188  0.8115  0.9589 -0.2338
 3111SOL     OW20791   3.214   3.308   7.024  0.6016  0.4352  0.2469
 3111SOL    HW120792   3.125   3.298   6.990  1.0420 -0.8834 -0.5208
 3111SOL    HW220793   3.245   3.368   6.956 -1.1180  2.9804  1.7306
 3112SOL     OW20794   1.094   3.037   5.874  0.2806  0.3749  0.2350
 3112SOL    HW120795   1.128   3.120   5.907 -2.6121  2.0779 -1.0963
 3112SOL    HW220796   1.033   3.082   5.815  1.4265 -1.8132 -2.6697
 3113SOL     OW20797   0.575   3.427   4.949 -0.8027  0.1367  0.0424
 3113SOL    HW120798   0.608   3.507   4.909 -0.9209  0.7086  1.0870
 3113SOL    HW220799   0.561   3.368   4.874  2.5810 -0.6724  0.0360
 3114SOL     OW20800   3.423   1.726   3.386  0.5751  0.1633 -0.2931
 3114SOL    HW120801   3.463   1.685   3.310 -0.1546 -0.8759 -0.1180
 3114SOL    HW220802   3.421   1.653   3.448 -2.3029 -1.1430 -1.9274
 3115SOL     OW20803   3.960   0.191  14.774  0.7219 -0.4621 -0.2352
 3115SOL    HW120804   3.888   0.253  14.783 -0.3269 -2.1474  2.8361
 3115SOL    HW220805   3.909   0.116  14.804 -3.3685  2.9185  1.1837
 3116SOL     OW20806   2.540   3.975   7.645 -0.1138 -0.1573  0.1247
 3116SOL    HW120807   2.620   4.017   7.676  1.4095 -2.8555 -0.1534
 3116SOL    HW220808   2.480   3.990   7.719  1.5625  1.3413  1.1771
 3117SOL     OW20809   1.639   1.671   3.956  0.2951 -0.7206  0.4457
 3117SOL    HW120810   1.679   1.596   3.913 -1.3446 -1.1582 -0.3356
 3117SOL    HW220811   1.642   1.731   3.881  0.0971  0.2690  1.2322
 3118SOL     OW20812   2.863   0.231  14.251  0.2959 -0.0776  0.1021
 3118SOL    HW120813   2.923   0.221  14.325  0.8074 -1.2558 -0.4623
 3118SOL    HW220814   2.902   0.171  14.188  0.4225  1.6666 -1.4982
 3119SOL     OW20815   1.102   4.270  17.130  0.0620  0.2059  0.1427
 3119SOL    HW120816   1.072   4.321  17.206 -2.8999  0.8403 -1.4638
 3119SOL    HW220817   1.029   4.295  17.073 -0.3064 -3.8852 -1.1510
 3120SOL     OW20818   4.449   3.502   6.351  0.3816 -0.1308 -0.6077
 3120SOL    HW120819   4.478   3.541   6.268  2.3042 -0.2486  0.0141
 3120SOL    HW220820   4.512   3.540   6.412 -3.5812  2.9051  1.5590
 3121SOL     OW20821   0.950   4.448   1.989 -0.1877 -0.0639 -0.1427
 3121SOL    HW120822   0.855   4.449   2.004  0.0173  1.3840  1.0973
 3121SOL    HW220823   0.954   4.422   1.897 -1.5632 -1.5830  0.2327
 3122SOL     OW20824   1.701   1.614  15.819 -0.6481 -0.2347 -0.4455
 3122SOL    HW120825   1.762   1.546  15.848 -1.9339 -0.5911  1.3917
 3122SOL    HW220826   1.748   1.698  15.821 -2.3696  0.7294 -0.8676
 3123SOL     OW20827   3.992   1.247   4.872  0.1353 -0.9488 -0.1444
 3123SOL    HW120828   4.084   1.274   4.861 -0.3735  0.6367 -0.5515
 3123SOL    HW220829   3.966   1.282   4.957 -0.6999  1.7219 -1.4840
 3124SOL     OW20830   3.097   4.065   1.097 -0.4072 -0.7290  0.4258
 3124SOL    HW120831   3.099   3.974   1.124 -0.4452 -0.8457  0.0387
 3124SOL    HW220832   3.030   4.099   1.156 -0.5448  2.1072 -1.3537
 3125SOL     OW20833   0.442   1.001  12.367 -0.2474  0.5202  0.2656
 3125SOL    HW120834   0.506   1.071  12.362  0.7192 -0.5751 -2.2785
 3125SOL    HW220835   0.452   0.987  12.461 -0.0477  1.4075  0.3776
 3126SOL     OW20836   1.164   1.962   2.796 -0.0638  0.2424  0.1467
 3126SOL    HW120837   1.228   1.960   2.725 -1.1246  1.9872 -0.8612
 3126SOL    HW220838   1.164   1.870   2.819 -1.3349  0.3738  0.6720
 3127SOL     OW20839   3.715   2.567  10.258  0.4921 -0.0860  0.2120
 3127SOL    HW120840   3.663   2.490  10.236  1.4007 -0.4190 -0.7810
 3127SOL    HW220841   3.783   2.566  10.190  0.9733 -2.0055  0.7324
 3128SOL     OW20842   1.022   4.692  15.998 -0.2125  0.2638  0.3023
 3128SOL    HW120843   1.017   4.648  15.912  0.8399  0.5981  0.0647
 3128SOL    HW220844   1.020   4.627  16.067 -2.6320 -0.4352 -0.4364
 3129SOL     OW20845   1.414   1.439   0.720 -0.4052 -0.0588 -0.0101
 3129SOL    HW120846   1.325   1.407   0.732 -1.1013  1.1777 -2.0152
 3129SOL    HW220847   1.446   1.371   0.660 -1.3630 -1.7806  1.4192
 3130SOL     OW20848   4.020   2.393   5.967 -0.3067  0.2744  0.3657
 3130SOL    HW120849   4.096   2.374   6.023 -0.9010  1.0001  1.4165
 3130SOL    HW220850   3.991   2.301   5.964 -0.1346  0.1680  1.7539
 3131SOL     OW20851   1.910   2.763   0.847 -0.0117  0.6965 -0.0622
 3131SOL    HW120852   1.941   2.818   0.919 -1.1227  0.2048  0.8001
 3131SOL    HW220853   1.957   2.810   0.778  1.3661  0.4452  0.7183
 3132SOL     OW20854   3.918   3.185  15.840  0.1087 -0.2417 -0.0750
 3132SOL    HW120855   3.842   3.153  15.790  1.4351 -3.6041  0.0176
 3132SOL    HW220856   3.990   3.194  15.777  0.4973  2.2918  0.7713
 3133SOL     OW20857   3.854   1.176   3.618  0.2111 -0.6426  0.1075
 3133SOL    HW120858   3.782   1.213   3.669 -1.3154 -1.2050 -1.6165
 3133SOL    HW220859   3.814   1.099   3.578  1.8240 -0.5055 -1.7904
 3134SOL     OW20860   2.341   2.020   1.369  0.2345 -0.3837 -0.3875
 3134SOL    HW120861   2.259   1.990   1.408  0.0936 -2.2277 -2.1104
 3134SOL    HW220862   2.314   2.110   1.354 -0.0866 -0.5529 -0.8140
 3135SOL     OW20863   4.632   1.385   6.063 -0.1102 -0.4700  0.1100
 3135SOL    HW120864   4.687   1.381   5.985 -1.0376  2.6999 -0.6704
 3135SOL    HW220865   4.601   1.475   6.054 -0.4212 -0.4063  1.8939
 3136SOL     OW20866   0.651   1.991   8.333 -0.2560  0.1868  0.1770
 3136SOL    HW120867   0.590   1.989   8.407 -1.5072 -2.7554 -0.9363
 3136SOL    HW220868   0.647   2.076   8.290 -0.5892  0.4010  0.6250
 3137SOL     OW20869   1.182   2.200   8.488  0.1260  0.6776  0.1387
 3137SOL    HW120870   1.188   2.264   8.416  0.0052  0.7238  0.1698
 3137SOL    HW220871   1.090   2.206   8.513 -0.1125  0.8955 -0.7866
 3138SOL     OW20872   0.734   0.684   6.361  0.1727 -0.3089 -0.0107
 3138SOL    HW120873   0.738   0.691   6.266 -0.4718  0.2879  0.0030
 3138SOL    HW220874   0.737   0.589   6.364 -0.9074 -0.3283  0.5629
 3139SOL     OW20875   0.527   3.228   4.714  0.4503  0.2565 -0.1086
 3139SOL    HW120876   0.566   3.159   4.768 -1.8503  0.5292  1.9036
 3139SOL    HW220877   0.499   3.172   4.641  1.9961  1.9104 -1.9718
 3140SOL     OW20878   2.004   4.307  11.265 -0.4930 -0.0765 -0.4390
 3140SOL    HW120879   2.097   4.290  11.275 -0.2691  0.9331 -0.7102
 3140SOL    HW220880   1.999   4.379  11.201 -0.6636 -0.5816 -0.9922
 3141SOL     OW20881   1.648   2.819  13.428  0.2682  0.4208 -0.1742
 3141SOL    HW120882   1.654   2.773  13.512 -1.4226  1.1889  0.3632
 3141SOL    HW220883   1.685   2.905  13.448 -0.8203  1.3488 -2.1678
 3142SOL     OW20884   0.044   1.817   6.278 -0.0033 -0.1597  0.4999
 3142SOL    HW120885   4.701   1.765   6.325 -0.8725  0.5957  0.1330
 3142SOL    HW220886   4.718   1.821   6.195  2.1113 -2.8058 -0.8805
 3143SOL     OW20887   1.725   1.459   8.097 -0.7897  0.1461  0.6346
 3143SOL    HW120888   1.804   1.466   8.151 -1.0301  1.7699  0.7799
 3143SOL    HW220889   1.753   1.519   8.028  0.6130 -0.5236  0.6219
 3144SOL     OW20890   1.077   0.460   8.289 -0.2000 -0.3620 -0.3080
 3144SOL    HW120891   1.017   0.452   8.362 -0.4337 -2.9472 -0.8051
 3144SOL    HW220892   1.162   0.456   8.333  0.7873  4.1257 -1.7553
 3145SOL     OW20893   4.300   3.426   0.509  0.5128  0.2412 -0.3418
 3145SOL    HW120894   4.342   3.439   0.595  0.9989  0.3538 -0.5955
 3145SOL    HW220895   4.356   3.350   0.491  0.5335 -0.4061  2.4765
 3146SOL     OW20896   2.249   2.630   9.571  0.2719 -1.0633  0.5774
 3146SOL    HW120897   2.304   2.652   9.496  1.5850 -1.6291  1.3707
 3146SOL    HW220898   2.165   2.614   9.528 -0.1400 -0.3260  1.1087
 3147SOL     OW20899   1.290   1.959  10.666 -0.0613 -0.0624 -0.6784
 3147SOL    HW120900   1.287   2.011  10.746  1.6149 -0.4511 -0.3752
 3147SOL    HW220901   1.238   1.883  10.694  2.0127 -1.7324 -1.4130
 3148SOL     OW20902   3.790   1.313   5.854  0.0188  0.3284  0.0495
 3148SOL    HW120903   3.812   1.272   5.770 -4.0750  1.4179 -1.5727
 3148SOL    HW220904   3.851   1.272   5.914  0.0029 -0.3328 -0.3924
 3149SOL     OW20905   3.654   3.739   4.820  0.1910 -0.0320 -0.0612
 3149SOL    HW120906   3.673   3.822   4.864 -0.9105  0.2505 -0.1156
 3149SOL    HW220907   3.590   3.701   4.881  0.9802  1.8975  1.9589
 3150SOL     OW20908   4.531   3.805   8.564  0.3209 -0.4926  0.0382
 3150SOL    HW120909   4.625   3.800   8.580 -0.0696 -1.0452  2.1966
 3150SOL    HW220910   4.536   3.898   8.541 -0.2539 -0.4720  0.0086
 3151SOL     OW20911   3.092   4.548   6.646 -0.2040  0.3628  0.5699
 3151SOL    HW120912   3.024   4.598   6.602  0.8072  2.6396  1.5841
 3151SOL    HW220913   3.136   4.511   6.570  0.2002  1.9616  0.0225
 3152SOL     OW20914   3.759   3.985   5.034 -0.3293  0.0719  0.2053
 3152SOL    HW120915   3.766   3.902   5.081  1.6836  0.7003  1.0147
 3152SOL    HW220916   3.786   4.046   5.102 -2.7966  1.8231 -0.3956
 3153SOL     OW20917   2.174   3.612   4.121 -0.2748  0.1481 -0.1334
 3153SOL    HW120918   2.120   3.652   4.190 -0.9018  0.7633 -0.9846
 3153SOL    HW220919   2.264   3.642   4.135 -0.2231  0.0479 -0.2554
 3154SOL     OW20920   2.596   3.394   3.035 -0.3586 -0.7058 -0.6500
 3154SOL    HW120921   2.611   3.301   3.020  0.6063 -0.8999  1.4604
 3154SOL    HW220922   2.527   3.386   3.102  0.4815 -0.5366  0.2396
 3155SOL     OW20923   2.528   2.607  17.445 -0.4188  0.2675  0.0619
 3155SOL    HW120924   2.614   2.642  17.420 -0.6695  0.3700 -0.6740
 3155SOL    HW220925   2.535   2.522  17.401 -1.8226  0.0649  0.2248
 3156SOL     OW20926   3.368   3.925  12.720 -0.2259 -0.2665  0.7294
 3156SOL    HW120927   3.427   3.913  12.645 -0.8702 -1.1795  0.3640
 3156SOL    HW220928   3.418   3.893  12.796  1.9083 -1.6786 -1.2664
 3157SOL     OW20929   3.522   1.683   2.970  0.3987 -0.2335  0.2664
 3157SOL    HW120930   3.453   1.641   2.919  0.3690  0.1069  0.0266
 3157SOL    HW220931   3.530   1.763   2.917 -1.7017  0.2345  0.6662
 3158SOL     OW20932   1.268   3.182  11.088 -0.2278 -0.5518  0.1312
 3158SOL    HW120933   1.253   3.087  11.094  2.4447 -1.0775 -1.1929
 3158SOL    HW220934   1.223   3.206  11.169 -1.1461  0.9184 -0.8142
 3159SOL     OW20935   1.082   1.665   9.529 -0.6729  0.9224 -0.5531
 3159SOL    HW120936   1.009   1.644   9.588  0.8576  1.0899  1.4037
 3159SOL    HW220937   1.069   1.760   9.529  0.9391  1.1089 -4.4379
 3160SOL     OW20938   0.375   2.300   3.414  0.2278 -0.2315  0.1044
 3160SOL    HW120939   0.456   2.343   3.389 -0.1823  0.5099  0.0415
 3160SOL    HW220940   0.364   2.232   3.348  1.1222  0.1591 -0.4353
 3161SOL     OW20941   2.146   4.210   6.829  0.2364  0.3286  0.1207
 3161SOL    HW120942   2.079   4.252   6.882  1.2351  1.3729  0.5567
 3161SOL    HW220943   2.094   4.146   6.781  0.3364 -0.0998  0.5956
 3162SOL     OW20944   3.854   4.195   5.155 -0.0463 -0.0279  0.7044
 3162SOL    HW120945   3.790   4.222   5.221  0.4667 -0.6931  1.4743
 3162SOL    HW220946   3.870   4.282   5.119 -2.5438  0.1670  0.0957
 3163SOL     OW20947   0.999   0.780   5.583 -0.2357  0.3165 -0.3749
 3163SOL    HW120948   1.026   0.864   5.546  0.1089  0.3254 -0.1089
 3163SOL    HW220949   1.064   0.733   5.532 -1.0114  0.1839 -1.2335
 3164SOL     OW20950   1.688   1.328   1.285 -0.6685  0.0259  0.4166
 3164SOL    HW120951   1.714   1.360   1.199 -0.6603  0.1326  0.4585
 3164SOL    HW220952   1.775   1.317   1.323  0.0392  0.4629 -1.0779
 3165SOL     OW20953   2.930   0.496   5.007  0.2126  0.0692  0.4176
 3165SOL    HW120954   2.914   0.433   4.937 -0.6179  0.5672  0.1535
 3165SOL    HW220955   2.963   0.444   5.081  1.5522  0.6402  0.2132
 3166SOL     OW20956   0.933   2.833  13.313 -0.1394  0.2938 -0.2871
 3166SOL    HW120957   1.000   2.778  13.273  0.2318 -0.0099  0.7510
 3166SOL    HW220958   0.947   2.909  13.256 -0.6548  1.6397  1.3759
 3167SOL     OW20959   4.520   2.318   4.362  0.5847 -0.1259 -0.2044
 3167SOL    HW120960   4.486   2.285   4.279  2.3048 -2.1233 -0.1142
 3167SOL    HW220961   4.459   2.276   4.423  0.9528 -0.2008  0.1176
 3168SOL     OW20962   2.736   2.068  12.235  0.2789  0.3684  0.0318
 3168SOL    HW120963   2.822   2.080  12.195 -0.2212  2.4915 -0.3523
 3168SOL    HW220964   2.760   2.050  12.326  0.0735  0.8854  0.1836
 3169SOL     OW20965   2.055   1.073   2.571 -0.5513 -0.2709  0.3645
 3169SOL    HW120966   2.140   1.065   2.614 -0.6244  2.0158  0.9084
 3169SOL    HW220967   2.053   0.981   2.546  0.5265 -0.9377  2.6609
 3170SOL     OW20968   3.932   1.483  14.755 -0.6392  0.0965  0.2460
 3170SOL    HW120969   3.960   1.471  14.846  0.4115 -0.0038 -0.0823
 3170SOL    HW220970   3.850   1.434  14.750  1.0217 -2.4453 -2.1524
 3171SOL     OW20971   0.658   0.914   0.779  0.1403 -0.2374 -0.2435
 3171SOL    HW120972   0.698   1.001   0.776 -2.7242  1.0348 -0.7287
 3171SOL    HW220973   0.685   0.879   0.864  0.0021 -1.0470 -0.5335
 3172SOL     OW20974   0.211   3.611   6.164 -0.3867 -0.0467 -0.4004
 3172SOL    HW120975   0.267   3.608   6.086 -1.2700  2.3196 -1.1157
 3172SOL    HW220976   0.270   3.669   6.212 -0.2524 -1.2406  0.8676
 3173SOL     OW20977   1.504   3.308  13.252 -0.1809  1.1500 -0.4748
 3173SOL    HW120978   1.411   3.299  13.271 -0.4044  1.8831 -1.2627
 3173SOL    HW220979   1.518   3.402  13.259  1.0866  1.0656 -1.8905
 3174SOL     OW20980   1.825   2.376   3.766  0.1522  0.2020  0.3094
 3174SOL    HW120981   1.888   2.360   3.696  0.4487 -1.3753  0.9371
 3174SOL    HW220982   1.821   2.286   3.797 -1.1960 -0.0444 -0.6239
 3175SOL     OW20983   0.212   1.594  17.033  0.1752 -0.4992  0.2766
 3175SOL    HW120984   0.198   1.582  17.126  1.8928 -0.0965  0.5933
 3175SOL    HW220985   0.301   1.560  17.018  1.3743  1.8732  2.0046
 3176SOL     OW20986   2.489   2.812   4.674  0.2130 -0.0842  0.1151
 3176SOL    HW120987   2.531   2.872   4.736 -1.2241  0.6983  0.3304
 3176SOL    HW220988   2.398   2.842   4.678  0.1713 -0.1191 -0.5146
 3177SOL     OW20989   1.494   3.647   0.628 -0.2132  0.1272 -0.1580
 3177SOL    HW120990   1.537   3.714   0.575 -1.1681  1.2902  0.5460
 3177SOL    HW220991   1.548   3.659   0.706 -0.9670 -0.2075  0.4196
 3178SOL     OW20992   0.811   3.828   3.937 -0.2404  0.4233  0.2710
 3178SOL    HW120993   0.751   3.764   3.977  0.1980  0.2207  0.6122
 3178SOL    HW220994   0.773   3.836   3.850  0.8295 -0.3043 -0.2663
 3179SOL     OW20995   2.230   1.839   9.994  0.1787 -0.4553  0.1198
 3179SOL    HW120996   2.176   1.808  10.067  0.8818  0.2044  0.9147
 3179SOL    HW220997   2.164   1.849   9.925 -0.4188 -2.1541  0.4305
 3180SOL     OW20998   3.157   1.390  16.399 -0.1885  0.4594  0.0423
 3180SOL    HW120999   3.112   1.471  16.421  0.0380  0.5498  0.1751
 3180SOL    HW221000   3.205   1.359  16.476 -0.0996 -1.3388 -0.7336
 3181SOL     OW21001   3.407   2.514   4.414 -0.4604 -0.2429  0.0492
 3181SOL    HW121002   3.426   2.571   4.339  0.4991 -0.8203 -0.1475
 3181SOL    HW221003   3.353   2.577   4.460 -4.0267 -1.6357 -2.2281
 3182SOL     OW21004   1.610   4.525  11.332  0.5518 -0.1213  0.7603
 3182SOL    HW121005   1.556   4.521  11.411 -0.2872 -1.3964  0.1290
 3182SOL    HW221006   1.699   4.504  11.360  1.2208  0.5898 -0.8173
 3183SOL     OW21007   2.221   0.384   8.156  0.1989 -0.2686  0.1433
 3183SOL    HW121008   2.189   0.369   8.067 -0.7681 -0.3841  0.5170
 3183SOL    HW221009   2.315   0.365   8.148  0.1315 -0.7676  0.5225
 3184SOL     OW21010   1.465   3.190   2.320  0.1766 -0.3847 -0.2554
 3184SOL    HW121011   1.498   3.104   2.296 -2.2680 -0.9261 -1.7080
 3184SOL    HW221012   1.409   3.162   2.393  0.4206  1.3109  0.5851
 3185SOL     OW21013   2.775   3.238  17.232  0.1583  0.4160  0.2513
 3185SOL    HW121014   2.738   3.250  17.145  2.4657  0.8718 -0.6469
 3185SOL    HW221015   2.788   3.332  17.244 -1.3747  0.6404  0.2338
 3186SOL     OW21016   2.512   0.749  12.077 -0.2183 -0.0129 -0.1804
 3186SOL    HW121017   2.422   0.779  12.087  0.0037  1.1369 -1.5859
 3186SOL    HW221018   2.496   0.662  12.114  1.9291 -0.5925 -0.6192
 3187SOL     OW21019   0.512   3.756  16.343 -0.2503  0.8736  0.0449
 3187SOL    HW121020   0.437   3.743  16.401  0.4908  0.9375  1.0126
 3187SOL    HW221021   0.466   3.827  16.299  0.7110  0.7488 -1.1607
 3188SOL     OW21022   2.165   0.916   7.701  0.1144 -0.6535 -0.0114
 3188SOL    HW121023   2.215   0.841   7.732  0.9258 -0.3238 -0.5381
 3188SOL    HW221024   2.143   0.963   7.782 -1.3659 -0.7082 -0.3847
 3189SOL     OW21025   1.489   1.415  15.936 -0.2560  0.2452 -1.0127
 3189SOL    HW121026   1.550   1.472  15.888 -1.9150  2.7866 -0.1079
 3189SOL    HW221027   1.528   1.409  16.023 -1.4176 -0.3056 -0.5246
 3190SOL     OW21028   0.632   3.668   4.312 -0.4273 -0.7612  0.2133
 3190SOL    HW121029   0.644   3.622   4.395  0.1594  2.0105  1.6614
 3190SOL    HW221030   0.657   3.756   4.340 -1.9642 -0.4583  0.6140
 3191SOL     OW21031   1.589   0.058   6.284  0.0253 -0.4641 -0.1794
 3191SOL    HW121032   1.573   0.115   6.360  0.7158  0.8516 -1.0323
 3191SOL    HW221033   1.598   0.127   6.218 -3.0451  0.1509  0.0180
 3192SOL     OW21034   0.276   4.237  11.407 -0.1044  0.4762 -0.6732
 3192SOL    HW121035   0.323   4.236  11.490  0.7452 -3.3062 -1.1949
 3192SOL    HW221036   0.358   4.236  11.358 -0.4305  0.4440 -1.2162
 3193SOL     OW21037   1.134   2.106   5.434 -0.2698 -0.2648 -0.3738
 3193SOL    HW121038   1.082   2.178   5.398  3.6806  2.3705 -0.7952
 3193SOL    HW221039   1.192   2.148   5.497 -1.7100 -1.0326  1.4677
 3194SOL     OW21040   4.510   1.349   1.432 -0.8058 -0.3603 -0.4221
 3194SOL    HW121041   4.505   1.420   1.497 -0.8209 -0.2293 -0.5666
 3194SOL    HW221042   4.553   1.284   1.487 -1.6964  0.3918  1.1857
 3195SOL     OW21043   1.383   2.262   4.106  0.3853 -0.0483 -0.0981
 3195SOL    HW121044   1.436   2.275   4.028  0.1345 -1.5357 -0.5088
 3195SOL    HW221045   1.307   2.316   4.085 -0.3931 -0.9777  0.2899
 3196SOL     OW21046   1.583   1.357   4.687 -0.0691  0.5856 -0.1730
 3196SOL    HW121047   1.606   1.362   4.594 -1.3716  0.1378 -0.5177
 3196SOL    HW221048   1.594   1.449   4.712  0.4388  0.0374  1.5520
 3197SOL     OW21049   4.312   2.680   5.761  0.0039 -0.5924 -0.5750
 3197SOL    HW121050   4.363   2.759   5.775 -1.4706  0.2384  0.0395
 3197SOL    HW221051   4.359   2.642   5.686 -0.1822 -1.2794 -0.3399
 3198SOL     OW21052   1.488   4.655   8.495 -0.5835  0.4952 -0.1524
 3198SOL    HW121053   1.412   4.698   8.456 -1.3837 -1.1218 -0.3601
 3198SOL    HW221054   1.447   4.575   8.528 -0.1140  0.7835  1.1071
 3199SOL     OW21055   1.573   0.369   8.305  0.3894  0.0265  0.0302
 3199SOL    HW121056   1.637   0.350   8.373 -0.5593  0.3695  1.0163
 3199SOL    HW221057   1.495   0.377   8.360  0.6660 -3.1442  0.8943
 3200SOL     OW21058   3.301   1.477   6.346 -0.1313 -0.6306  0.9753
 3200SOL    HW121059   3.345   1.562   6.345  1.0249 -1.2707 -0.7810
 3200SOL    HW221060   3.365   1.428   6.398 -0.2970 -2.0821 -0.1960
 3201SOL     OW21061   4.387   2.692  13.497  0.1526  0.6414 -0.2678
 3201SOL    HW121062   4.481   2.710  13.503  0.1427  1.4541 -2.5720
 3201SOL    HW221063   4.352   2.738  13.574  2.2708 -0.6009  1.4343
 3202SOL     OW21064   4.327   3.755   7.748  0.2953  0.0719  0.0216
 3202SOL    HW121065   4.311   3.849   7.739  0.0275 -0.0194 -0.4414
 3202SOL    HW221066   4.341   3.754   7.843  1.8602  1.3508 -0.1859
 3203SOL     OW21067   4.024   4.042   9.157 -0.1029 -0.5578 -0.5379
 3203SOL    HW121068   3.962   4.115   9.153 -1.4076 -1.6363  0.3480
 3203SOL    HW221069   4.007   4.007   9.069 -2.4260 -3.0195  0.8898
 3204SOL     OW21070   2.129   1.555   6.155  0.1734  0.2155  0.7179
 3204SOL    HW121071   2.132   1.616   6.228  1.6101  1.5721 -0.4772
 3204SOL    HW221072   2.035   1.534   6.158  0.5099 -1.3027  0.4701
 3205SOL     OW21073   1.639   4.372   6.102 -0.3052 -0.0823 -0.3509
 3205SOL    HW121074   1.719   4.327   6.130  0.5855 -0.3286 -3.2681
 3205SOL    HW221075   1.667   4.453   6.059 -0.7062  0.1829 -0.1121
 3206SOL     OW21076   3.001   0.843   1.312  0.2147 -0.1404 -0.2384
 3206SOL    HW121077   2.985   0.767   1.368  1.6004 -1.6570 -1.8905
 3206SOL    HW221078   2.916   0.886   1.318 -0.0796 -0.6389 -0.8639
 3207SOL     OW21079   4.147   0.279   5.017  0.0877 -0.2991  0.1522
 3207SOL    HW121080   4.180   0.306   4.931  1.2575  1.3136  1.0923
 3207SOL    HW221081   4.227   0.310   5.060 -0.7670  1.0281  0.7856
 3208SOL     OW21082   0.502   3.447   6.928  0.0353  0.1039 -0.4237
 3208SOL    HW121083   0.567   3.404   6.872  0.9076  2.8623 -1.4903
 3208SOL    HW221084   0.456   3.507   6.869  3.4980  0.9060 -2.2833
 3209SOL     OW21085   2.533   0.983   6.694  0.1578 -0.3227 -0.3851
 3209SOL    HW121086   2.592   1.037   6.641 -0.0955 -1.0944 -1.4481
 3209SOL    HW221087   2.464   1.050   6.694  0.1592 -0.3218  0.8915
 3210SOL     OW21088   2.488   1.307   4.783 -0.4144  0.4211  1.0327
 3210SOL    HW121089   2.511   1.395   4.755 -2.0673  1.0836  1.7851
 3210SOL    HW221090   2.487   1.308   4.879 -0.1851  1.6773  1.0229
 3211SOL     OW21091   4.672   3.447   3.077 -0.1719 -0.1284 -0.1350
 3211SOL    HW121092   4.668   3.415   2.987  0.4542 -1.7283  0.4089
 3211SOL    HW221093   0.039   3.464   3.104 -0.5620  1.3473  0.2528
 3212SOL     OW21094   2.667   1.809   5.414  0.2265  0.7212  0.0310
 3212SOL    HW121095   2.710   1.883   5.457  1.5504  0.4251 -0.8020
 3212SOL    HW221096   2.669   1.742   5.483 -0.1267 -0.2382 -0.8750
 3213SOL     OW21097   3.761   4.375   7.631 -0.4649  0.5094  0.0725
 3213SOL    HW121098   3.835   4.358   7.572 -0.2096 -0.7306  0.7519
 3213SOL    HW221099   3.710   4.443   7.587  0.0059  0.5827 -0.3724
 3214SOL     OW21100   4.003   1.986   5.692 -0.3504 -0.2638 -1.0388
 3214SOL    HW121101   3.944   1.931   5.640 -2.6703  1.0270  0.2388
 3214SOL    HW221102   4.071   1.921   5.709 -0.1703  0.4178  0.8075
 3215SOL     OW21103   0.790   4.092   0.400 -0.5368 -0.4393 -0.2098
 3215SOL    HW121104   0.791   4.180   0.363  0.1788 -0.5186 -0.3759
 3215SOL    HW221105   0.710   4.050   0.368  0.0742 -0.6835 -1.4047
 3216SOL     OW21106   2.751   4.584   3.046 -0.1830  0.1430  0.0108
 3216SOL    HW121107   2.675   4.533   3.073 -0.3643  0.8749  0.8531
 3216SOL    HW221108   2.776   4.605   3.136  1.0193 -1.4356  0.0461
 3217SOL     OW21109   1.200   2.128  10.449 -0.1814  0.1823  0.0409
 3217SOL    HW121110   1.236   2.214  10.472  0.7050 -0.0441 -0.4830
 3217SOL    HW221111   1.223   2.073  10.524  0.2014  2.0062  1.2935
 3218SOL     OW21112   1.232   2.165   7.717 -0.1546  0.0215  0.0615
 3218SOL    HW121113   1.262   2.134   7.631 -0.7696  0.7286 -0.4046
 3218SOL    HW221114   1.260   2.097   7.778  0.8441  1.0220  0.7095
 3219SOL     OW21115   3.286   2.316   5.308 -0.4446 -0.4501  0.0408
 3219SOL    HW121116   3.332   2.400   5.299 -1.4880  0.0362 -0.7642
 3219SOL    HW221117   3.315   2.293   5.396 -0.4822 -2.3632 -0.4434
 3220SOL     OW21118   4.062   0.079   9.005 -0.4995 -0.0594 -0.2374
 3220SOL    HW121119   4.086   0.079   9.098  1.3323  0.1373 -0.7139
 3220SOL    HW221120   3.969   0.097   9.021 -0.7032 -0.0654 -1.4492
 3221SOL     OW21121   0.270   0.256   2.182 -0.0958  0.2668  0.2284
 3221SOL    HW121122   0.225   0.278   2.100 -0.9529 -2.6312 -0.0784
 3221SOL    HW221123   0.361   0.250   2.154  0.3432  2.0071  1.2477
 3222SOL     OW21124   2.497   2.953  11.213  0.1365  0.3739  0.2837
 3222SOL    HW121125   2.527   3.028  11.266 -0.5617  2.6308 -2.5248
 3222SOL    HW221126   2.455   2.900  11.282 -0.2756 -1.1860 -1.1819
 3223SOL     OW21127   0.872   1.148   1.264  0.4606 -0.3334 -0.6517
 3223SOL    HW121128   0.888   1.184   1.351 -1.5021 -0.3754 -0.2683
 3223SOL    HW221129   0.797   1.091   1.280 -0.0973  0.1803 -1.4125
 3224SOL     OW21130   2.102   0.486   5.350  0.4402  0.5373 -0.6914
 3224SOL    HW121131   2.017   0.446   5.365  1.1002 -1.5527 -2.3982
 3224SOL    HW221132   2.095   0.580   5.365 -1.3043  0.1096  1.2390
 3225SOL     OW21133   4.394   1.706   3.601  0.6762 -0.2237 -0.8013
 3225SOL    HW121134   4.428   1.622   3.633 -0.2995  0.1399  1.1529
 3225SOL    HW221135   4.331   1.675   3.537  0.4800  0.3429 -0.8818
 3226SOL     OW21136   4.617   4.121  16.369  0.2027  0.3549 -0.1123
 3226SOL    HW121137   4.623   4.208  16.329  0.1357  1.5973  2.5439
 3226SOL    HW221138   4.695   4.083  16.330  0.0340 -0.0329 -0.0678
 3227SOL     OW21139   1.828   4.338   3.867 -0.1733  0.0886 -0.0225
 3227SOL    HW121140   1.761   4.269   3.867  0.4305 -0.5014 -1.0064
 3227SOL    HW221141   1.861   4.338   3.777 -0.7515  1.3394 -0.2270
 3228SOL     OW21142   0.136   0.764   4.650 -0.3441 -0.3458 -0.0892
 3228SOL    HW121143   0.155   0.783   4.742 -1.4853  0.0917  0.0526
 3228SOL    HW221144   0.220   0.782   4.609 -1.3101  2.3419 -0.9013
 3229SOL     OW21145   3.354   0.850   4.769  0.1958  0.1132 -0.4750
 3229SOL    HW121146   3.300   0.920   4.732 -0.5614  0.4259  1.2367
 3229SOL    HW221147   3.345   0.776   4.708  0.9137  0.1911 -0.6750
 3230SOL     OW21148   0.216   0.076  15.187 -0.1651  0.3758  0.2692
 3230SOL    HW121149   0.216   0.149  15.125  1.6421 -0.0204 -0.1887
 3230SOL    HW221150   0.266   0.120  15.255 -0.8333  2.1504 -0.3728
 3231SOL     OW21151   4.369   4.261  15.917 -0.1211  0.6046 -0.4454
 3231SOL    HW121152   4.276   4.238  15.917  0.4393 -1.6010  0.4109
 3231SOL    HW221153   4.377   4.299  16.005  0.4635 -1.4497  0.3785
 3232SOL     OW21154   2.480   0.815  16.239 -0.1722  0.0494  0.3397
 3232SOL    HW121155   2.408   0.876  16.222 -0.6951 -0.8970 -0.8344
 3232SOL    HW221156   2.458   0.741  16.182 -1.3262  1.3439 -0.8964
 3233SOL     OW21157   0.647   2.422   5.868 -0.3306 -0.1565  0.3593
 3233SOL    HW121158   0.680   2.346   5.820  1.4725  1.0940 -0.3826
 3233SOL    HW221159   0.721   2.480   5.886 -1.6689  1.0816  1.8167
 3234SOL     OW21160   4.093   3.364   4.934  0.0148  0.0365  0.1571
 3234SOL    HW121161   4.187   3.374   4.952 -0.0756  1.9607 -0.3740
 3234SOL    HW221162   4.084   3.404   4.847  2.1703  0.3741  0.0811
 3235SOL     OW21163   3.676   4.317  10.730  0.1017 -0.0620 -0.1695
 3235SOL    HW121164   3.624   4.348  10.804 -0.5848 -2.7233  0.4878
 3235SOL    HW221165   3.649   4.373  10.658 -2.3940 -0.1280  0.7346
 3236SOL     OW21166   3.164   3.394   2.213  0.0084  0.4162 -0.5470
 3236SOL    HW121167   3.223   3.441   2.154  0.4143 -0.2616 -0.6860
 3236SOL    HW221168   3.075   3.417   2.185  0.5021  0.1322 -2.3620
 3237SOL     OW21169   1.170   3.804   5.852 -0.1646 -0.4940  0.4184
 3237SOL    HW121170   1.208   3.834   5.769 -0.3381  0.4301  0.6759
 3237SOL    HW221171   1.236   3.822   5.919  1.2549 -0.3602 -1.0001
 3238SOL     OW21172   1.205   2.286   2.421  0.2258 -0.1118 -0.1089
 3238SOL    HW121173   1.294   2.252   2.433  0.5037  0.0963 -1.5983
 3238SOL    HW221174   1.199   2.283   2.326  0.3428  1.0748 -0.1556
 3239SOL     OW21175   2.892   0.550  10.724 -0.2783  0.4495  0.4311
 3239SOL    HW121176   2.858   0.591  10.803  2.6151 -0.1252  1.9655
 3239SOL    HW221177   2.873   0.618  10.659 -2.2186  0.0953  0.6246
 3240SOL     OW21178   4.055   1.384  10.112 -0.5068  0.0390 -0.3485
 3240SOL    HW121179   4.108   1.326  10.057  1.9339  0.4338  1.6146
 3240SOL    HW221180   3.967   1.346  10.107 -1.6202  2.7224 -1.5650
 3241SOL     OW21181   2.665   4.702  16.686 -0.5952  0.0292  0.0652
 3241SOL    HW121182   2.752   0.007  16.715 -0.4948  0.1102 -0.3150
 3241SOL    HW221183   2.677   4.622  16.634 -1.2500  0.2879 -0.4792
 3242SOL     OW21184   0.030   2.460   6.565 -0.4949  0.1955 -0.3480
 3242SOL    HW121185   0.076   2.384   6.528  0.3513 -0.1070  1.3331
 3242SOL    HW221186   4.676   2.459   6.508  0.8633 -2.1579 -2.1400
 3243SOL     OW21187   2.118   0.484   0.334  0.2882 -0.0632  0.9542
 3243SOL    HW121188   2.118   0.553   0.401  1.9371  0.2948  0.5947
 3243SOL    HW221189   2.028   0.472   0.306  0.2967 -0.3319  1.0441
 3244SOL     OW21190   1.089   3.056   5.301  0.0358 -0.4480 -0.7102
 3244SOL    HW121191   1.005   3.019   5.274 -0.4580  0.0666  0.1127
 3244SOL    HW221192   1.078   3.147   5.327  2.0848 -0.0182 -1.3861
 3245SOL     OW21193   1.759   1.758   2.230  0.1125 -0.2602 -0.2933
 3245SOL    HW121194   1.727   1.786   2.316 -1.2219 -1.7245 -0.3126
 3245SOL    HW221195   1.854   1.760   2.241  0.0542 -0.4307  0.2575
 3246SOL     OW21196   2.700   4.657  13.905 -0.0016  0.4993  0.1207
 3246SOL    HW121197   2.722   4.618  13.820 -1.6561  1.1320 -0.6041
 3246SOL    HW221198   2.760   0.009  13.905  1.2287 -0.4832 -1.0627
 3247SOL     OW21199   4.446   0.936   6.733 -0.6016  0.1790  0.0685
 3247SOL    HW121200   4.516   1.000   6.731  0.3009 -0.8593 -1.1627
 3247SOL    HW221201   4.392   0.952   6.656  0.0742 -0.4439 -0.5257
 3248SOL     OW21202   4.217   4.301   0.731 -0.4069 -0.0393  1.3737
 3248SOL    HW121203   4.220   4.246   0.653 -2.1939  2.7123 -0.5989
 3248SOL    HW221204   4.133   4.274   0.768  0.1205 -0.2515  2.4156
 3249SOL     OW21205   0.004   3.613   3.514  0.1079  0.3829  0.0321
 3249SOL    HW121206   0.088   3.658   3.509  0.6107 -0.3908  1.6285
 3249SOL    HW221207   0.029   3.554   3.585 -0.6986 -0.9853 -0.8131
 3250SOL     OW21208   3.848   4.334   5.993 -0.2722 -0.7294 -0.4937
 3250SOL    HW121209   3.863   4.258   6.049 -0.5717  0.5628  1.3202
 3250SOL    HW221210   3.924   4.349   5.936  0.0691 -0.2567  0.0882
 3251SOL     OW21211   3.095   2.904  13.410  0.7033  0.0070 -0.3744
 3251SOL    HW121212   3.128   2.967  13.347  1.9362  1.7254  1.9862
 3251SOL    HW221213   3.055   2.969  13.468 -3.4271 -1.5367 -1.4942
 3252SOL     OW21214   3.559   0.873  14.824 -0.1682 -0.8721  0.0250
 3252SOL    HW121215   3.571   0.783  14.854  1.8861 -0.2993  0.8666
 3252SOL    HW221216   3.481   0.912  14.863  0.8766 -0.3667  1.6000
 3253SOL     OW21217   2.514   0.455   4.691  0.1548  0.5572  0.2979
 3253SOL    HW121218   2.576   0.505   4.637 -0.6170  1.4919  0.2740
 3253SOL    HW221219   2.448   0.451   4.622  0.6900 -0.9594 -0.1300
 3254SOL     OW21220   2.920   1.599  16.741 -0.0640  0.0143 -0.3946
 3254SOL    HW121221   2.920   1.552  16.824 -1.9577 -0.8055 -0.8674
 3254SOL    HW221222   2.930   1.688  16.774  0.9370  0.6321 -2.3101
 3255SOL     OW21223   2.842   3.246   1.402  0.9001 -0.4483  0.1857
 3255SOL    HW121224   2.842   3.154   1.430  1.5446 -0.4617  0.1475
 3255SOL    HW221225   2.780   3.251   1.330  0.2963  1.6435  0.8663
 3256SOL     OW21226   0.343   1.544   9.019  0.6564  0.2276  0.0768
 3256SOL    HW121227   0.292   1.596   9.081 -0.5073 -2.4906  1.3873
 3256SOL    HW221228   0.425   1.591   9.033  0.3076  0.2286  2.1496
 3257SOL     OW21229   1.468   0.996   1.852 -0.2356 -0.0937  0.0547
 3257SOL    HW121230   1.547   0.952   1.884 -1.7134 -2.0634  0.9714
 3257SOL    HW221231   1.434   0.919   1.806  0.3611 -0.9203  0.9805
 3258SOL     OW21232   2.498   1.506  12.786  0.0442 -0.2494 -0.3894
 3258SOL    HW121233   2.534   1.563  12.718  2.2980 -0.2364  0.8027
 3258SOL    HW221234   2.544   1.553  12.856 -0.1095 -0.0029 -0.4571
 3259SOL     OW21235   0.557   3.679   3.247 -0.0861 -0.1136 -0.1559
 3259SOL    HW121236   0.537   3.586   3.242 -0.1487 -0.0278 -1.4597
 3259SOL    HW221237   0.635   3.674   3.192 -0.1216 -1.9433 -0.0528
 3260SOL     OW21238   1.869   0.878  13.115  0.2595 -0.3971 -0.6268
 3260SOL    HW121239   1.901   0.897  13.203 -0.9910 -1.8727  0.1553
 3260SOL    HW221240   1.782   0.844  13.137  0.4354  0.6689  1.7925
 3261SOL     OW21241   1.019   4.623  10.216 -0.2763  0.0630  0.6950
 3261SOL    HW121242   1.042   4.707  10.176 -0.1707 -0.9442 -1.3575
 3261SOL    HW221243   0.993   4.644  10.306 -0.1124  0.5137  0.6357
 3262SOL     OW21244   3.715   2.885   3.964  0.2374 -0.0952  0.0687
 3262SOL    HW121245   3.630   2.842   3.965 -0.8068  1.9950  0.1740
 3262SOL    HW221246   3.691   2.976   3.948  0.0108 -0.1280  0.2255
 3263SOL     OW21247   0.522   0.191   2.075  0.1764  0.1432  0.1235
 3263SOL    HW121248   0.588   0.127   2.049  1.5183  1.8988 -0.8167
 3263SOL    HW221249   0.475   0.206   1.993 -1.3692 -3.1140  0.4028
 3264SOL     OW21250   1.686   1.656   4.691  0.1463  0.2582  0.3515
 3264SOL    HW121251   1.750   1.664   4.621 -0.1652  2.0240  0.2808
 3264SOL    HW221252   1.619   1.699   4.638  1.0082  0.6682 -0.4165
 3265SOL     OW21253   3.402   0.669  16.933 -0.0873  0.0429 -0.0540
 3265SOL    HW121254   3.337   0.602  16.912  0.5568 -1.4539  2.6094
 3265SOL    HW221255   3.449   0.616  16.998  0.9840 -1.5607 -2.1156
 3266SOL     OW21256   0.659   1.042   5.887 -0.0769  0.1574 -0.1663
 3266SOL    HW121257   0.693   0.983   5.820 -0.6419  0.6314 -0.8661
 3266SOL    HW221258   0.597   0.983   5.928 -1.8367  1.1172 -1.4571
 3267SOL     OW21259   4.149   2.607  17.348 -0.2815 -0.3460 -0.9037
 3267SOL    HW121260   4.175   2.536  17.407 -0.9438 -1.6711 -2.1951
 3267SOL    HW221261   4.189   2.676  17.402  0.2602 -0.3942 -1.2481
 3268SOL     OW21262   3.808   0.035   9.341 -0.0978  0.2691  0.7102
 3268SOL    HW121263   3.720   0.065   9.362 -0.0146  0.4773  0.7593
 3268SOL    HW221264   3.847   0.060   9.425 -3.1168  2.7372  1.3710
 3269SOL     OW21265   2.619   2.906   2.828  0.1216  0.3971  0.1819
 3269SOL    HW121266   2.698   2.948   2.793  0.7500  0.9563  2.2429
 3269SOL    HW221267   2.578   2.972   2.882  2.0094  0.8127  1.1202
 3270SOL     OW21268   0.443   1.073   9.373  0.0821  0.6126 -0.3310
 3270SOL    HW121269   0.533   1.085   9.341 -0.0011 -0.5816 -1.0090
 3270SOL    HW221270   0.400   1.143   9.324  2.1367  1.4908 -0.8713
 3271SOL     OW21271   3.757   0.659   3.199 -0.5252 -0.5416 -0.9041
 3271SOL    HW121272   3.688   0.676   3.263  0.0835 -2.0292  0.1395
 3271SOL    HW221273   3.754   0.738   3.145  1.0426 -0.8453 -1.4187
 3272SOL     OW21274   0.932   0.824   8.017 -0.2904  0.0267  0.1477
 3272SOL    HW121275   1.006   0.822   7.956  0.2909  1.2965  0.8189
 3272SOL    HW221276   0.863   0.775   7.971 -1.5955  0.0914  2.0464
 3273SOL     OW21277   2.271   1.925  11.870 -0.0287 -0.0107 -0.0808
 3273SOL    HW121278   2.308   1.947  11.784  1.3509 -1.6745  0.1103
 3273SOL    HW221279   2.330   1.856  11.899  0.2829 -0.9202 -2.8645
 3274SOL     OW21280   3.646   0.092   4.912  0.5427 -0.2271 -0.0257
 3274SOL    HW121281   3.628   0.030   4.983 -0.4323 -0.2415 -0.2954
 3274SOL    HW221282   3.727   0.046   4.889 -0.7299 -2.1795 -0.6318
 3275SOL     OW21283   4.142   0.550   7.627  0.4968  0.2233  0.0857
 3275SOL    HW121284   4.217   0.525   7.573  0.2852  0.7297 -0.4359
 3275SOL    HW221285   4.065   0.519   7.580  0.3267  1.2096 -0.2812
 3276SOL     OW21286   2.184   2.471   9.262  0.6817 -1.2275  0.4019
 3276SOL    HW121287   2.129   2.393   9.269 -0.0886 -0.6579  0.7559
 3276SOL    HW221288   2.136   2.519   9.330  2.8198  2.5596 -0.7436
 3277SOL     OW21289   1.854   1.522   0.504  0.3166 -0.6853 -0.0572
 3277SOL    HW121290   1.948   1.535   0.515  0.2558  0.9190 -1.3330
 3277SOL    HW221291   1.824   1.604   0.463  1.8470 -0.1056 -0.0179
 3278SOL     OW21292   2.828   1.992  11.471  0.5699  0.2606  0.1467
 3278SOL    HW121293   2.896   1.986  11.538  1.0241 -0.7506 -0.4148
 3278SOL    HW221294   2.768   1.919  11.490  0.5699  0.4754  0.9908
 3279SOL     OW21295   4.405   1.416   4.082  0.2978  0.0412  0.5218
 3279SOL    HW121296   4.454   1.342   4.117  0.7292 -0.6308 -1.5290
 3279SOL    HW221297   4.338   1.427   4.149  2.3448  1.5607  2.3397
 3280SOL     OW21298   2.854   0.512   7.369 -0.0634 -0.3429  0.2235
 3280SOL    HW121299   2.811   0.501   7.454  1.3260  1.6366  1.1913
 3280SOL    HW221300   2.923   0.446   7.376 -1.9519 -2.2108  1.3950
 3281SOL     OW21301   4.594   2.918   5.967 -0.3246 -0.7009  0.0192
 3281SOL    HW121302   4.576   2.854   6.036  0.4634 -0.1891  0.6942
 3281SOL    HW221303   4.654   2.977   6.012  0.9594 -1.7051 -0.3673
 3282SOL     OW21304   2.517   2.539   7.658  0.3393  0.1973 -0.7584
 3282SOL    HW121305   2.493   2.514   7.569  1.1991  0.4391 -1.0502
 3282SOL    HW221306   2.436   2.521   7.707  0.0585  0.9934 -0.9298
 3283SOL     OW21307   0.896   3.863   7.225 -0.4895 -0.0965  0.1561
 3283SOL    HW121308   0.979   3.832   7.187 -1.5822 -2.7195 -0.0808
 3283SOL    HW221309   0.917   3.886   7.316  3.7762  0.8513 -1.0393
 3284SOL     OW21310   4.105   4.088   5.228 -0.1147  0.8532  0.2604
 3284SOL    HW121311   4.040   4.158   5.223 -0.6451  0.4322  1.3327
 3284SOL    HW221312   4.155   4.099   5.147 -0.8949  2.9127  0.0576
 3285SOL     OW21313   1.626   0.155   2.226 -0.0942 -0.5175 -0.3842
 3285SOL    HW121314   1.611   0.103   2.146 -1.8857  0.2329 -0.5449
 3285SOL    HW221315   1.717   0.176   2.207  0.9381 -2.6910  2.2101
 3286SOL     OW21316   3.642   4.025   7.842 -0.1344  0.1069 -0.2619
 3286SOL    HW121317   3.736   4.027   7.860 -0.2473 -2.2016  0.5658
 3286SOL    HW221318   3.627   3.932   7.860  0.5820  0.0416 -0.0196
 3287SOL     OW21319   2.474   3.081  14.503  0.0372 -0.4897 -0.4628
 3287SOL    HW121320   2.456   3.154  14.445 -1.0746  0.6233  1.2737
 3287SOL    HW221321   2.458   3.002  14.451 -0.6902 -0.3972 -0.3720
 3288SOL     OW21322   2.311   2.417   7.224  1.1918 -0.4329  0.3254
 3288SOL    HW121323   2.288   2.328   7.195  0.7191 -0.4785  0.8274
 3288SOL    HW221324   2.229   2.463   7.205  1.2503 -0.4146  0.1254
 3289SOL     OW21325   1.489   1.921   1.758  0.6049 -0.3364  0.4688
 3289SOL    HW121326   1.439   1.845   1.788  1.4058 -0.6537  1.0047
 3289SOL    HW221327   1.535   1.951   1.837  1.2535  1.5944 -0.6493
 3290SOL     OW21328   1.208   0.290   3.329 -0.0826 -0.7353 -0.2069
 3290SOL    HW121329   1.302   0.286   3.309  0.3378  1.1536  1.4118
 3290SOL    HW221330   1.212   0.347   3.406 -1.0505  0.8327 -1.3119
 3291SOL     OW21331   2.514   2.680   5.712 -0.0955 -0.3111  0.4958
 3291SOL    HW121332   2.578   2.627   5.759  0.1394 -1.0973 -0.7195
 3291SOL    HW221333   2.566   2.758   5.694  1.9805 -1.9735 -0.6211
 3292SOL     OW21334   1.687   2.602   1.633  0.3469 -0.0151 -0.4575
 3292SOL    HW121335   1.770   2.559   1.651  0.0229 -0.2068  0.5782
 3292SOL    HW221336   1.643   2.575   1.714  1.4676 -0.1112  0.1068
 3293SOL     OW21337   0.206   4.329   7.656  0.0531 -0.4622 -0.5506
 3293SOL    HW121338   0.205   4.314   7.561 -3.7185  1.0641 -0.7198
 3293SOL    HW221339   0.147   4.401   7.678  1.9934  1.2454 -0.9306
 3294SOL     OW21340   2.969   2.577   4.040  0.0247 -0.1681 -0.0765
 3294SOL    HW121341   2.907   2.645   4.017  1.7599  1.6003  0.4384
 3294SOL    HW221342   2.973   2.534   3.955 -1.0664  0.0758 -0.2510
 3295SOL     OW21343   1.620   1.253  16.557 -0.6555 -0.0855  0.4976
 3295SOL    HW121344   1.564   1.239  16.481 -0.2730  1.1860 -0.0263
 3295SOL    HW221345   1.567   1.318  16.602  1.2627  0.7173  1.6218
 3296SOL     OW21346   1.239   1.724   4.087 -0.0503  0.0026 -0.9995
 3296SOL    HW121347   1.231   1.641   4.135 -1.9613  1.8682  1.9430
 3296SOL    HW221348   1.256   1.787   4.157 -1.1219 -0.7854 -0.0345
 3297SOL     OW21349   0.760   0.980   3.009 -0.0019 -0.2180 -0.0763
 3297SOL    HW121350   0.787   1.035   2.935  0.7409  0.6448  0.8515
 3297SOL    HW221351   0.751   0.894   2.969  1.4831  0.6820 -2.3342
 3298SOL     OW21352   0.970   4.439   1.728  0.0296 -0.5687  0.7463
 3298SOL    HW121353   1.009   4.387   1.658 -0.7771 -1.6326  1.0877
 3298SOL    HW221354   1.018   4.520   1.711 -1.7573  0.8990  2.7416
 3299SOL     OW21355   1.952   2.764  15.291 -0.4363 -0.0921 -0.2607
 3299SOL    HW121356   1.866   2.722  15.284 -0.2668 -0.9537  3.1745
 3299SOL    HW221357   1.997   2.713  15.223 -0.7738  0.5913 -0.9973
 3300SOL     OW21358   2.119   1.508   4.793 -0.0775 -0.1021  0.3352
 3300SOL    HW121359   2.141   1.427   4.839  2.7284  1.1146  1.1778
 3300SOL    HW221360   2.033   1.526   4.830 -0.8833  0.7950 -1.9909
 3301SOL     OW21361   1.057   1.809  12.771  0.5092 -0.3197  0.3826
 3301SOL    HW121362   1.056   1.904  12.756  1.5994 -0.4989 -0.8317
 3301SOL    HW221363   1.143   1.793  12.809  0.9212 -0.3029 -0.5495
 3302SOL     OW21364   4.056   3.781   0.799 -0.0563 -0.6691 -0.1754
 3302SOL    HW121365   4.060   3.695   0.841 -1.2096  0.2187  1.7712
 3302SOL    HW221366   3.977   3.824   0.832 -1.0832 -0.6202 -2.7485
 3303SOL     OW21367   1.656   0.959  12.046  0.1210 -0.3033  0.4842
 3303SOL    HW121368   1.624   0.889  11.989 -0.0293  0.7037 -0.6665
 3303SOL    HW221369   1.567   0.987  12.069  1.3633  1.0810  3.5647
 3304SOL     OW21370   3.735   0.006   8.385  0.9168  0.1806  0.1507
 3304SOL    HW121371   3.648   0.033   8.413  1.1183 -0.3781  1.3147
 3304SOL    HW221372   3.784   0.037   8.461  0.0063 -2.4827  1.8224
 3305SOL     OW21373   3.703   3.969   4.041  0.3817 -0.4739 -0.1532
 3305SOL    HW121374   3.707   4.044   3.982 -1.5502  1.9387  2.7704
 3305SOL    HW221375   3.798   3.957   4.052  0.4455 -1.2730 -1.6769
 3306SOL     OW21376   4.581   0.631   6.627 -0.0992  0.0233  0.4521
 3306SOL    HW121377   4.565   0.636   6.532  0.7981 -1.1236  0.2423
 3306SOL    HW221378   4.672   0.602   6.632 -0.3351 -0.9403 -0.7329
 3307SOL     OW21379   2.063   0.690   0.079 -0.1083  0.6113 -0.7376
 3307SOL    HW121380   2.034   0.600   0.063 -0.6389  0.6748 -0.1028
 3307SOL    HW221381   2.155   0.665   0.078 -0.2678 -0.0206  0.4199
 3308SOL     OW21382   4.511   0.505  14.836 -0.4502  0.1814 -0.1168
 3308SOL    HW121383   4.431   0.554  14.856 -0.4993  0.5521 -1.2068
 3308SOL    HW221384   4.496   0.486  14.743  1.3116 -0.9458 -0.1781
 3309SOL     OW21385   0.456   2.387  12.735  0.4998  0.3900 -0.0989
 3309SOL    HW121386   0.470   2.460  12.795 -0.2736  0.6547 -0.2441
 3309SOL    HW221387   0.362   2.389  12.716  0.2536 -0.6836  0.9535
 3310SOL     OW21388   2.633   1.907  11.807  0.1055  0.5076  0.3755
 3310SOL    HW121389   2.630   1.987  11.755 -2.5425 -0.5062 -1.0374
 3310SOL    HW221390   2.648   1.841  11.739 -1.2447  0.7976 -0.2003
 3311SOL     OW21391   0.499   2.516   7.259 -0.3142  0.2258  0.0613
 3311SOL    HW121392   0.542   2.458   7.322  0.1105  0.1300 -0.3117
 3311SOL    HW221393   0.507   2.599   7.306 -1.6348  1.2791 -1.5870
 3312SOL     OW21394   0.167   3.336  17.684 -0.5816 -0.2677  0.5341
 3312SOL    HW121395   0.125   3.418   0.017  1.2735  0.2149  2.0752
 3312SOL    HW221396   0.260   3.362  17.684 -0.3280 -1.2045  0.7554
 3313SOL     OW21397   3.827   0.363   8.340  0.3317 -0.4377 -0.2181
 3313SOL    HW121398   3.915   0.398   8.351 -0.2581  1.5177 -1.9192
 3313SOL    HW221399   3.817   0.312   8.421  0.1777  1.7144  1.1089
 3314SOL     OW21400   2.387   1.311   1.996  0.5952  0.4244  0.2131
 3314SOL    HW121401   2.475   1.296   1.962  0.7090  0.8108  0.3460
 3314SOL    HW221402   2.357   1.397   1.967  1.5453  0.2999 -1.1886
 3315SOL     OW21403   2.325   2.733   2.415  0.0354  0.1611 -0.2714
 3315SOL    HW121404   2.295   2.822   2.398  2.0303  0.8554 -0.1773
 3315SOL    HW221405   2.411   2.742   2.456  0.2858 -0.2215 -0.7224
 3316SOL     OW21406   0.330   2.142   7.340  0.0096  0.3912 -0.4829
 3316SOL    HW121407   0.298   2.087   7.269 -1.3068 -0.4133  0.7209
 3316SOL    HW221408   0.411   2.097   7.364 -0.0587  0.3289 -0.3662
 3317SOL     OW21409   1.997   2.170   1.493 -0.5043 -0.4965 -0.3283
 3317SOL    HW121410   2.078   2.160   1.444 -1.4877 -1.2621 -1.8188
 3317SOL    HW221411   1.976   2.264   1.493 -1.6551 -0.7645 -2.0625
 3318SOL     OW21412   3.583   2.559   6.463 -0.2404 -1.0021 -0.3422
 3318SOL    HW121413   3.669   2.599   6.472 -0.9359  0.5596 -0.6415
 3318SOL    HW221414   3.544   2.596   6.384  3.8561  2.3113 -0.7730
 3319SOL     OW21415   4.205   0.699   7.836  0.4597  0.3332 -0.5999
 3319SOL    HW121416   4.178   0.664   7.751  2.8361 -3.3720  0.1519
 3319SOL    HW221417   4.193   0.790   7.810  0.2929  1.1861  2.4678
 3320SOL     OW21418   2.164   3.010   6.458  0.2192 -0.0044 -0.1589
 3320SOL    HW121419   2.147   3.084   6.399  2.5205  0.2984 -0.4541
 3320SOL    HW221420   2.206   2.941   6.407  0.7184  0.3093 -0.1757
 3321SOL     OW21421   1.907   2.559  17.086  0.2775 -0.5684  0.0335
 3321SOL    HW121422   1.912   2.520  17.173  2.0880  3.2229  1.6212
 3321SOL    HW221423   1.955   2.489  17.042  0.3098 -0.3684 -0.2518
 3322SOL     OW21424   4.389   1.346  12.378  0.2290  0.1771 -0.6549
 3322SOL    HW121425   4.362   1.428  12.418  0.7107 -0.8043  1.7508
 3322SOL    HW221426   4.380   1.297  12.460 -0.1811  2.5517  0.7188
 3323SOL     OW21427   1.403   2.645  17.351  0.1594 -0.2111 -0.2078
 3323SOL    HW121428   1.374   2.669  17.263  2.1589  0.1189 -0.7764
 3323SOL    HW221429   1.465   2.575  17.329 -0.5570 -0.5723 -1.0694
 3324SOL     OW21430   2.357   0.063  10.622 -0.4759 -0.4161  0.2672
 3324SOL    HW121431   2.421   0.055  10.552  1.1947 -1.6523  1.9386
 3324SOL    HW221432   2.352   4.694  10.648  1.6212 -1.1149 -1.9061
 3325SOL     OW21433   4.067   2.069   6.808  0.5518 -0.4017 -0.3105
 3325SOL    HW121434   4.138   2.021   6.765  1.5716 -1.0614  2.1025
 3325SOL    HW221435   4.060   2.017   6.888  0.7766 -0.4798 -0.3416
 3326SOL     OW21436   1.021   1.297   5.787 -0.5816 -0.2518  0.2429
 3326SOL    HW121437   1.030   1.204   5.804  0.7788 -0.3239 -0.8860
 3326SOL    HW221438   1.039   1.335   5.874 -1.0104 -0.6838  0.5181
 3327SOL     OW21439   0.140   0.643   2.494 -0.1442 -0.5005 -0.9992
 3327SOL    HW121440   0.180   0.557   2.478  0.1947 -0.6681  0.7106
 3327SOL    HW221441   0.058   0.634   2.446 -0.4705  1.4259 -0.7860
 3328SOL     OW21442   0.389   4.630   1.699 -0.4839  0.2138  0.2581
 3328SOL    HW121443   0.424   4.547   1.669  0.9409  1.8805 -2.7013
 3328SOL    HW221444   0.308   4.635   1.647  0.4836  1.8581 -1.0896
 3329SOL     OW21445   3.745   0.322   4.743 -0.1415  0.2513  0.2208
 3329SOL    HW121446   3.753   0.281   4.657 -0.1017  2.2238 -0.7126
 3329SOL    HW221447   3.719   0.241   4.786 -1.2017  0.4887  0.0379
 3330SOL     OW21448   0.146   3.024  12.170 -0.0754  0.3058 -0.2899
 3330SOL    HW121449   0.157   3.119  12.178  1.1264  0.2367 -1.2734
 3330SOL    HW221450   0.159   3.016  12.076 -0.6377 -0.9449 -0.2642
 3331SOL     OW21451   2.557   2.271   0.100 -0.1460 -0.1641  0.1524
 3331SOL    HW121452   2.516   2.357   0.088 -0.9255 -0.5916 -0.2776
 3331SOL    HW221453   2.540   2.245   0.190 -0.5940 -0.1087  0.0869
 3332SOL     OW21454   4.023   1.324   3.508 -0.4694  0.5433 -0.1713
 3332SOL    HW121455   3.970   1.251   3.540 -0.2310  0.6611  0.4993
 3332SOL    HW221456   3.980   1.323   3.422 -1.2151  3.0451  0.1631
 3333SOL     OW21457   4.528   1.648   6.053 -0.7012  0.2028 -0.5240
 3333SOL    HW121458   4.440   1.685   6.043 -0.7500  0.2570  0.1131
 3333SOL    HW221459   4.578   1.730   6.049  0.4321 -0.4745 -0.4334
 3334SOL     OW21460   3.281   0.277   7.839 -0.5508  0.4415 -0.0951
 3334SOL    HW121461   3.342   0.272   7.912 -0.3190  2.5352 -0.1417
 3334SOL    HW221462   3.236   0.194   7.853  2.4750 -0.9550  1.2316
 3335SOL     OW21463   1.209   1.055  16.184  0.5560  0.4552 -0.6454
 3335SOL    HW121464   1.174   1.093  16.264  1.1349 -0.3280 -0.0230
 3335SOL    HW221465   1.206   1.138  16.136  1.1585  0.8371 -0.0105
 3336SOL     OW21466   0.927   2.604   4.749  0.4639  0.1862 -0.3841
 3336SOL    HW121467   0.902   2.590   4.657 -2.6559 -2.0567  0.8054
 3336SOL    HW221468   0.856   2.662   4.777  0.2137 -1.7034  2.8450
 3337SOL     OW21469   0.359   1.435   7.279 -0.1314  0.2559 -0.3499
 3337SOL    HW121470   0.424   1.471   7.340 -0.5637  2.9791 -1.4884
 3337SOL    HW221471   0.290   1.410   7.340  0.4017 -0.8511 -0.1994
 3338SOL     OW21472   3.059   1.210   6.994 -0.0178  0.1258 -0.4709
 3338SOL    HW121473   3.107   1.225   6.913 -0.7031 -1.1054 -1.1003
 3338SOL    HW221474   3.015   1.293   7.009 -0.7938 -0.0692 -1.6776
 3339SOL     OW21475   0.215   3.318   1.759 -0.3191  0.2106 -0.1232
 3339SOL    HW121476   0.224   3.406   1.722 -0.2371 -0.0209 -0.6577
 3339SOL    HW221477   0.217   3.265   1.680 -0.1786 -0.4504  0.3255
 3340SOL     OW21478   2.674   1.280   9.258 -0.4528 -0.2432 -0.2957
 3340SOL    HW121479   2.622   1.360   9.269 -0.3634 -0.2602  0.2337
 3340SOL    HW221480   2.628   1.218   9.314  0.7872 -1.5568 -0.7602
 3341SOL     OW21481   0.538   3.235   8.209  0.0070  0.0956  0.6733
 3341SOL    HW121482   0.446   3.259   8.210  0.2685  1.1294 -1.0744
 3341SOL    HW221483   0.584   3.311   8.174 -2.5006  0.9872 -0.6582
 3342SOL     OW21484   0.003   0.782  13.027  0.0555  0.9748  0.6189
 3342SOL    HW121485   0.022   0.741  12.942  1.1208  1.4519  0.6270
 3342SOL    HW221486   0.074   0.750  13.083  0.1186 -1.1251 -0.6267
 3343SOL     OW21487   0.644   2.647   3.352 -0.7581 -0.0971 -0.0069
 3343SOL    HW121488   0.681   2.732   3.330  0.4855 -0.8674 -0.8306
 3343SOL    HW221489   0.627   2.606   3.267 -1.1022  3.1076 -1.4660
 3344SOL     OW21490   2.508   2.383   4.543 -0.1439  0.3909 -0.0802
 3344SOL    HW121491   2.521   2.456   4.604 -1.8248  0.6372 -0.0031
 3344SOL    HW221492   2.427   2.342   4.574  0.3907 -1.5632 -1.2720
 3345SOL     OW21493   3.811   1.183   8.103  0.1325 -0.3665  0.1302
 3345SOL    HW121494   3.766   1.242   8.043  1.4052  0.0981 -0.3682
 3345SOL    HW221495   3.865   1.250   8.145 -1.0329 -0.7209  2.1916
 3346SOL     OW21496   2.819   1.028   7.065 -0.1311  0.3610 -0.2663
 3346SOL    HW121497   2.903   0.993   7.036 -0.2369 -0.8090  0.8064
 3346SOL    HW221498   2.760   0.992   6.998  0.4481 -3.7900  1.4298
 3347SOL     OW21499   4.626   4.636  11.770  0.0028 -0.2737 -0.2515
 3347SOL    HW121500   4.682   4.647  11.694 -0.5727  0.7191 -0.5325
 3347SOL    HW221501   4.565   4.569  11.739 -0.1151 -0.9254  1.3694
 3348SOL     OW21502   0.871   0.572   9.300  0.0383  0.2111 -0.1035
 3348SOL    HW121503   0.871   0.596   9.393 -0.1822  0.2899 -0.1225
 3348SOL    HW221504   0.777   0.555   9.293  0.0003  0.7156 -0.8790
 3349SOL     OW21505   1.180   2.750   7.694 -0.0058  0.3786  0.5913
 3349SOL    HW121506   1.184   2.812   7.621 -0.4798  0.4797  0.6490
 3349SOL    HW221507   1.137   2.677   7.649  1.1115  1.3278 -1.9772
 3350SOL     OW21508   0.218   4.462   5.446 -0.0450 -0.3578  0.5620
 3350SOL    HW121509   0.263   4.378   5.453 -1.5269 -1.2152 -0.2338
 3350SOL    HW221510   0.292   4.523   5.439 -0.1125 -0.3169  0.2019
 3351SOL     OW21511   4.453   3.504   9.606  0.3743  0.0938  0.0458
 3351SOL    HW121512   4.503   3.499   9.688  2.2784  0.4326 -1.1078
 3351SOL    HW221513   4.522   3.477   9.545 -2.0629 -1.9255 -1.7823
 3352SOL     OW21514   2.464   1.024   2.488 -0.1833  0.5845  0.0380
 3352SOL    HW121515   2.551   0.998   2.518 -0.0120  1.9068  0.6661
 3352SOL    HW221516   2.477   1.118   2.473 -0.3712  0.7332  0.8274
 3353SOL     OW21517   2.793   2.706  15.505 -0.4002  0.5704 -0.3068
 3353SOL    HW121518   2.773   2.800  15.506  1.6524  1.0236 -1.8120
 3353SOL    HW221519   2.863   2.704  15.439  1.4942  0.2170  1.6867
 3354SOL     OW21520   4.008   2.778  12.717 -0.1344  0.2534  0.0035
 3354SOL    HW121521   3.987   2.860  12.672 -1.1071 -0.0990 -0.1912
 3354SOL    HW221522   3.934   2.726  12.686 -0.7715  1.4957 -0.5417
 3355SOL     OW21523   3.571   4.255   4.228  0.2035  1.1874  0.1420
 3355SOL    HW121524   3.586   4.278   4.137  1.2574  1.1389  0.2985
 3355SOL    HW221525   3.665   4.247   4.244 -0.5014 -0.4669  3.5365
 3356SOL     OW21526   1.533   2.945   8.360 -0.1494 -0.2222  0.3919
 3356SOL    HW121527   1.576   2.861   8.375  3.4890  1.5875  0.0563
 3356SOL    HW221528   1.478   2.907   8.291  2.4700  0.6821 -2.1937
 3357SOL     OW21529   4.022   2.711   4.696  0.0417  0.8999 -0.2998
 3357SOL    HW121530   3.958   2.661   4.646  0.3970 -0.1806  0.3364
 3357SOL    HW221531   3.973   2.791   4.714  2.9089  2.3901  0.8336
 3358SOL     OW21532   0.460   2.304   6.019  0.3751  0.5505 -0.0838
 3358SOL    HW121533   0.534   2.358   5.990  0.4727  0.2572 -0.3903
 3358SOL    HW221534   0.489   2.290   6.109  0.1399 -0.3534 -0.1478
 3359SOL     OW21535   4.193   1.692   8.174 -0.0933 -0.0792  0.2602
 3359SOL    HW121536   4.240   1.634   8.235 -0.4801 -1.0167 -0.3411
 3359SOL    HW221537   4.141   1.630   8.123  1.5607 -1.3365  0.0961
 3360SOL     OW21538   1.937   1.219  12.821  0.0021 -0.2826 -0.9316
 3360SOL    HW121539   1.907   1.289  12.880 -1.0609 -0.6778 -1.0059
 3360SOL    HW221540   1.976   1.155  12.880  1.9610  1.4051 -0.3791
 3361SOL     OW21541   3.685   3.495  12.965  0.4295  0.1485 -0.4045
 3361SOL    HW121542   3.659   3.403  12.951 -0.4983  0.2826  0.3952
 3361SOL    HW221543   3.607   3.536  12.926  0.1185 -0.1782 -0.1330
 3362SOL     OW21544   1.608   4.428   5.189  0.5078  0.1252 -0.6708
 3362SOL    HW121545   1.665   4.390   5.122  0.8899 -1.2285  0.4278
 3362SOL    HW221546   1.643   4.371   5.258 -1.1152  1.9421  1.6823
 3363SOL     OW21547   1.040   0.057   5.348 -0.1052 -0.1686 -0.0792
 3363SOL    HW121548   0.982   0.133   5.347  1.2847  0.9160  1.6716
 3363SOL    HW221549   1.050   0.043   5.443 -1.6710 -3.7797 -0.4364
 3364SOL     OW21550   0.168   2.980   0.477 -0.6491  0.0792  0.2742
 3364SOL    HW121551   0.182   2.886   0.481  0.0507  0.1562 -0.2448
 3364SOL    HW221552   0.124   2.989   0.561 -1.2506  0.0637 -0.0429
 3365SOL     OW21553   3.634   4.267   5.315 -0.6044  0.5742 -0.2264
 3365SOL    HW121554   3.580   4.204   5.266  1.4410 -1.9495  0.7575
 3365SOL    HW221555   3.598   4.251   5.402 -0.8407 -0.5690 -0.5235
 3366SOL     OW21556   2.568   2.183   2.475  0.1055 -0.0699 -0.3877
 3366SOL    HW121557   2.661   2.169   2.459  0.1444 -0.6058  0.3028
 3366SOL    HW221558   2.564   2.275   2.450  0.0343 -0.0977 -0.4798
 3367SOL     OW21559   1.887   1.314   2.052 -0.0710 -0.1716 -0.2091
 3367SOL    HW121560   1.906   1.387   1.994  2.3479 -0.6325  0.0204
 3367SOL    HW221561   1.856   1.243   1.996  0.1444 -0.5078  0.0960
 3368SOL     OW21562   1.304   0.683   0.640  0.4174  0.6101  0.8371
 3368SOL    HW121563   1.321   0.637   0.558 -0.7056  1.3559  0.1859
 3368SOL    HW221564   1.355   0.763   0.627  1.0898 -0.3691 -2.7381
 3369SOL     OW21565   2.927   0.392  10.946 -0.3445 -0.1561  0.5038
 3369SOL    HW121566   2.893   0.439  10.871  0.6502 -0.4980 -0.1643
 3369SOL    HW221567   2.877   0.436  11.014  0.9031  0.0191  1.3205
 3370SOL     OW21568   4.267   1.044   7.164 -0.5351 -0.2658 -0.2376
 3370SOL    HW121569   4.194   0.986   7.188  0.1374 -1.0322 -0.0523
 3370SOL    HW221570   4.330   1.022   7.232 -0.4909 -1.3044 -0.6077
 3371SOL     OW21571   3.575   0.516   2.894  0.2499  0.6108  0.1687
 3371SOL    HW121572   3.632   0.586   2.861 -1.0103  0.9569 -1.2425
 3371SOL    HW221573   3.490   0.529   2.851  0.0966 -1.9703 -0.3202
 3372SOL     OW21574   4.186   3.870   6.213 -0.1538  0.0057  0.5852
 3372SOL    HW121575   4.240   3.796   6.185  1.1497  0.5006  1.7966
 3372SOL    HW221576   4.188   3.871   6.309 -2.0287 -2.7256  0.6613
 3373SOL     OW21577   1.722   0.640   9.643  0.1189  0.0626  0.0356
 3373SOL    HW121578   1.654   0.600   9.696  0.6281 -0.7247  0.1010
 3373SOL    HW221579   1.801   0.616   9.691  1.2953  0.8068 -1.5092
 3374SOL     OW21580   3.192   0.391   3.193  0.2546 -0.0330  0.0708
 3374SOL    HW121581   3.134   0.316   3.203  1.1228 -0.3650  2.6073
 3374SOL    HW221582   3.251   0.367   3.121 -0.7484 -1.5455 -0.2261
 3375SOL     OW21583   3.886   0.839   3.836 -0.2482  0.2913  0.0175
 3375SOL    HW121584   3.799   0.848   3.797 -0.3349 -0.8664 -0.0781
 3375SOL    HW221585   3.903   0.746   3.818 -1.0703  0.4214 -1.4435
 3376SOL     OW21586   4.106   0.248   1.017  0.1291 -0.1894  0.3382
 3376SOL    HW121587   4.032   0.190   1.029  0.3377 -0.9453 -1.9753
 3376SOL    HW221588   4.168   0.200   0.962  1.5770  0.4603  1.4092
 3377SOL     OW21589   1.448   2.429   9.344  0.5076 -0.0288 -0.0519
 3377SOL    HW121590   1.459   2.442   9.438 -1.2654  1.3542 -0.0334
 3377SOL    HW221591   1.419   2.517   9.318  1.3203  0.7469  1.6986
 3378SOL     OW21592   0.877   2.458   6.759 -0.0805  0.0029 -0.8032
 3378SOL    HW121593   0.841   2.431   6.843 -1.6801  0.8294 -1.2288
 3378SOL    HW221594   0.944   2.389   6.753  0.5991  0.8729 -3.3505
 3379SOL     OW21595   0.312   3.680   4.256  0.0011 -0.2668  0.3883
 3379SOL    HW121596   0.365   3.729   4.320 -2.8287  0.0215  2.4938
 3379SOL    HW221597   0.312   3.742   4.183 -1.3718 -2.4697 -1.4765
 3380SOL     OW21598   1.241   3.437  10.511  0.0352 -0.2525  0.3182
 3380SOL    HW121599   1.178   3.461  10.578 -0.3977 -0.3078 -0.0694
 3380SOL    HW221600   1.178   3.391  10.455  1.1117  0.4741 -1.5067
 3381SOL     OW21601   0.909   1.985  12.012  0.3919 -0.0168 -0.0139
 3381SOL    HW121602   1.004   1.974  12.017  0.5098 -0.7331 -3.3486
 3381SOL    HW221603   0.881   1.956  12.098  1.2334 -0.0117  0.2648
 3382SOL     OW21604   4.324   1.917   7.967  0.0091  0.2148 -0.1037
 3382SOL    HW121605   4.293   1.992   7.916 -0.3442 -0.9560 -1.6058
 3382SOL    HW221606   4.249   1.864   7.993  0.4655 -0.6956 -0.6475
 3383SOL     OW21607   0.358   4.160   0.706 -0.6389  0.3220 -0.7124
 3383SOL    HW121608   0.370   4.143   0.612 -1.5827  0.7948 -0.9117
 3383SOL    HW221609   0.368   4.255   0.706  1.5598  0.0832  0.9112
 3384SOL     OW21610   3.350   2.545  13.397  0.0453 -0.0554  0.6263
 3384SOL    HW121611   3.325   2.459  13.430 -0.0408 -0.8331 -1.5079
 3384SOL    HW221612   3.423   2.527  13.338 -0.1384 -0.8083  0.6397
 3385SOL     OW21613   2.692   3.342   7.301 -0.1804 -0.0735  0.0854
 3385SOL    HW121614   2.609   3.347   7.349 -0.5489 -0.2920 -0.5280
 3385SOL    HW221615   2.746   3.331   7.379  3.0099 -0.6998 -2.1809
 3386SOL     OW21616   4.187   1.489  15.783  0.1884  0.2769 -0.0549
 3386SOL    HW121617   4.252   1.440  15.832 -0.2979  0.7003  1.0144
 3386SOL    HW221618   4.178   1.566  15.840  2.0240  0.8248 -0.5065
 3387SOL     OW21619   3.989   2.733   3.155  0.0580  0.4197  0.3058
 3387SOL    HW121620   3.958   2.791   3.085 -1.2523 -1.7120 -0.8807
 3387SOL    HW221621   4.021   2.803   3.212 -0.7930  1.0216  0.0512
 3388SOL     OW21622   1.511   4.205  14.574  0.1485 -0.1733 -0.0114
 3388SOL    HW121623   1.522   4.281  14.630 -0.0625 -0.9072  1.0382
 3388SOL    HW221624   1.422   4.177  14.596 -1.1426  1.0742 -3.6354
 3389SOL     OW21625   3.273   2.038   4.470 -0.0815 -0.0423 -0.0847
 3389SOL    HW121626   3.214   2.051   4.396 -0.6991  0.5289  0.5068
 3389SOL    HW221627   3.239   2.096   4.539  1.9810 -1.3101  2.0013
 3390SOL     OW21628   0.769   1.914  12.237  0.3381 -0.4307  0.0702
 3390SOL    HW121629   0.684   1.871  12.226  1.2345 -1.9100 -1.0872
 3390SOL    HW221630   0.730   1.995  12.268 -1.1736 -0.9236 -0.5696
 3391SOL     OW21631   1.240   3.801   2.554  0.1168  0.0108 -0.1635
 3391SOL    HW121632   1.149   3.773   2.545 -0.4817  1.4589  1.3711
 3391SOL    HW221633   1.263   3.753   2.633  0.6228  2.0755  0.9492
 3392SOL     OW21634   2.524   4.646  10.427 -0.5830 -0.1815  0.8852
 3392SOL    HW121635   2.469   4.573  10.400 -1.9330  1.3057 -0.4472
 3392SOL    HW221636   2.602   4.627  10.375 -1.2757 -2.3222  0.6243
 3393SOL     OW21637   0.078   2.693   7.883 -0.2332  0.0437 -0.0210
 3393SOL    HW121638   4.718   2.673   7.927  1.3049 -1.3150  2.2296
 3393SOL    HW221639   0.124   2.735   7.956  0.5855 -2.5026  0.9207
 3394SOL     OW21640   4.144   0.084   4.597  0.7386  0.0149  0.6564
 3394SOL    HW121641   4.059   0.129   4.593  0.6157 -0.3669 -0.7474
 3394SOL    HW221642   4.110   4.718   4.593 -1.4174  0.8983 -0.3158
 3395SOL     OW21643   2.635   4.229   3.438  0.2627 -0.0383  0.3563
 3395SOL    HW121644   2.687   4.199   3.513  1.7804 -0.3637 -0.8450
 3395SOL    HW221645   2.548   4.240   3.476  0.4518 -1.9348  1.3351
 3396SOL     OW21646   4.552   0.877   4.024 -0.3836 -0.4846  0.4314
 3396SOL    HW121647   4.523   0.808   3.965 -3.1850  2.0478 -1.1538
 3396SOL    HW221648   4.639   0.840   4.035  0.5080  0.9375 -1.9528
 3397SOL     OW21649   1.538   3.589   5.738  0.0917  0.0750  0.1587
 3397SOL    HW121650   1.517   3.630   5.822  1.0956 -0.7538  0.8174
 3397SOL    HW221651   1.560   3.500   5.763  0.6648  0.5467  1.3572
 3398SOL     OW21652   3.214   0.199   7.414 -0.1274  0.5428 -0.1983
 3398SOL    HW121653   3.264   0.221   7.335  0.1976  0.0125 -0.1408
 3398SOL    HW221654   3.240   0.110   7.438  1.5791  0.7567 -1.2207
 3399SOL     OW21655   1.474   2.310   8.270  0.0905  0.0033 -0.2042
 3399SOL    HW121656   1.421   2.385   8.296 -0.8566 -0.9696  0.7140
 3399SOL    HW221657   1.552   2.353   8.234  0.5738  0.9510  1.9693
 3400SOL     OW21658   4.357   2.145   8.142 -0.2050  0.0793 -0.4435
 3400SOL    HW121659   4.365   2.052   8.120 -0.3453 -0.5118  1.9152
 3400SOL    HW221660   4.266   2.165   8.119  0.1905  0.7313 -1.4305
 3401SOL     OW21661   2.711   3.089   7.134 -0.3349 -0.0064 -0.1705
 3401SOL    HW121662   2.627   3.084   7.088  1.0176 -1.0826 -2.5396
 3401SOL    HW221663   2.682   3.149   7.202  0.1054 -0.0426  0.0434
 3402SOL     OW21664   4.416   4.476   5.995  0.1723  0.2649 -0.6583
 3402SOL    HW121665   4.386   4.389   6.021  1.6821  0.2475  1.1020
 3402SOL    HW221666   4.351   4.499   5.929 -0.6115 -1.5739 -0.5316
 3403SOL     OW21667   4.007   3.764   6.717  0.1590 -0.1063  0.6336
 3403SOL    HW121668   4.044   3.693   6.770  1.7848 -1.6784 -2.5591
 3403SOL    HW221669   3.944   3.800   6.779 -0.6253 -3.1639  1.6234
 3404SOL     OW21670   2.713   0.329   5.475  0.4360  0.4385 -0.3888
 3404SOL    HW121671   2.744   0.244   5.506 -1.0843  1.6036  4.2517
 3404SOL    HW221672   2.677   0.363   5.556 -1.8028 -1.0258 -0.7800
 3405SOL     OW21673   2.568   2.363  13.341  0.3150  0.2325 -0.0447
 3405SOL    HW121674   2.605   2.354  13.253 -0.8552  0.6683 -0.5808
 3405SOL    HW221675   2.650   2.393  13.381  1.4242 -1.9880 -0.6150
 3406SOL     OW21676   0.299   3.453   3.402 -0.3232 -0.3993  0.0369
 3406SOL    HW121677   0.230   3.440   3.337 -0.5740  1.2994 -0.0426
 3406SOL    HW221678   0.384   3.438   3.361  0.9952  0.8742  2.3005
 3407SOL     OW21679   1.479   1.673   6.343 -0.1498  0.2929  0.0689
 3407SOL    HW121680   1.493   1.651   6.251  0.1072  1.2916 -0.1362
 3407SOL    HW221681   1.538   1.610   6.383 -1.3215 -0.1021  1.1837
 3408SOL     OW21682   4.351   3.674  10.854  0.0610  0.0913  0.2663
 3408SOL    HW121683   4.335   3.580  10.843  1.2512 -0.0791 -0.0196
 3408SOL    HW221684   4.322   3.708  10.769 -0.7227 -0.8380  0.1682
 3409SOL     OW21685   4.076   3.940   1.707  0.7539 -0.2859  0.4986
 3409SOL    HW121686   4.075   3.908   1.797 -0.3724 -0.1825  0.5252
 3409SOL    HW221687   4.076   3.857   1.660 -0.4238 -0.2474  0.4235
 3410SOL     OW21688   0.869   1.101   6.055  0.1733 -0.3956  0.1415
 3410SOL    HW121689   0.785   1.067   6.023  0.2368  0.7353 -1.2174
 3410SOL    HW221690   0.863   1.098   6.151 -0.3284  0.5680  0.1381
 3411SOL     OW21691   2.167   1.014   9.712  0.0772  0.0074 -0.2107
 3411SOL    HW121692   2.154   0.956   9.787  0.6882 -0.3865 -0.4096
 3411SOL    HW221693   2.083   1.042   9.675 -1.0849  0.5704  2.8998
 3412SOL     OW21694   1.325   3.229  16.084  0.2955  0.3130 -0.4545
 3412SOL    HW121695   1.334   3.315  16.043  0.1087  0.8091  0.5236
 3412SOL    HW221696   1.336   3.172  16.009  0.2458 -1.4300  0.8536
 3413SOL     OW21697   2.343   0.258   9.064  0.1183 -0.2223 -0.0432
 3413SOL    HW121698   2.391   0.200   9.122 -2.0213 -2.8550 -0.9233
 3413SOL    HW221699   2.282   0.280   9.135  1.9737 -1.1548  1.8323
 3414SOL     OW21700   0.840   4.324   9.563 -0.2680  0.7650  0.5784
 3414SOL    HW121701   0.778   4.335   9.635 -1.7184 -1.9246 -0.2768
 3414SOL    HW221702   0.789   4.371   9.496  0.6780 -0.1917 -0.7985
 3415SOL     OW21703   0.931   3.304  14.454 -0.1437  0.4723 -0.1285
 3415SOL    HW121704   0.984   3.277  14.529  0.0711 -1.5943 -1.0337
 3415SOL    HW221705   0.892   3.223  14.421  3.6153 -0.4821 -2.1546
 3416SOL     OW21706   0.778   4.225   1.103 -0.5079  0.6254  0.2333
 3416SOL    HW121707   0.712   4.269   1.050 -2.4839  1.5572  3.4274
 3416SOL    HW221708   0.719   4.176   1.161  2.6940 -1.6735  1.5100
 3417SOL     OW21709   4.718   2.134   5.958  0.0627 -0.1128  0.3061
 3417SOL    HW121710   0.036   2.057   5.998 -0.2824 -0.4707 -0.0377
 3417SOL    HW221711   4.696   2.192   6.031  0.3298  1.8776 -1.1868
 3418SOL     OW21712   2.848   0.422  13.023 -0.1045 -0.3693 -0.5409
 3418SOL    HW121713   2.857   0.488  13.091 -1.0518  0.5290 -1.2803
 3418SOL    HW221714   2.787   0.356  13.057  2.4607 -0.5564  3.6390
 3419SOL     OW21715   2.198   1.030   4.009 -0.0911 -0.1296  0.7843
 3419SOL    HW121716   2.122   1.076   4.044 -0.1496  0.8899 -0.6740
 3419SOL    HW221717   2.270   1.092   4.025 -1.0941  1.5348 -1.1675
 3420SOL     OW21718   3.325   1.773  16.523  0.0821  0.1730 -0.2056
 3420SOL    HW121719   3.263   1.720  16.573  0.0002 -0.7432 -1.2856
 3420SOL    HW221720   3.365   1.702  16.473  1.6508  0.3984  0.7259
 3421SOL     OW21721   2.148   4.189  10.337  0.2404  0.6166  0.1326
 3421SOL    HW121722   2.192   4.242  10.270 -0.6401 -0.5796 -1.4026
 3421SOL    HW221723   2.215   4.198  10.404  0.9249 -0.1631 -0.4505
 3422SOL     OW21724   4.245   3.559   4.234  0.5509 -0.2622 -0.3226
 3422SOL    HW121725   4.289   3.510   4.164  0.9031  0.1959 -0.4248
 3422SOL    HW221726   4.250   3.648   4.198 -2.0753  0.5191  1.2849
 3423SOL     OW21727   2.307   1.471   1.113 -0.3973  0.5332  0.2712
 3423SOL    HW121728   2.303   1.376   1.107  0.0638  0.5171  0.2366
 3423SOL    HW221729   2.256   1.494   1.035  0.6704 -1.0163 -0.8756
 3424SOL     OW21730   3.050   2.059   5.872 -0.0152  0.1372 -0.2031
 3424SOL    HW121731   3.052   2.015   5.786 -0.5493 -0.4440  0.0780
 3424SOL    HW221732   3.074   1.992   5.936  0.6996  0.3813 -0.2191
 3425SOL     OW21733   3.220   3.490   0.287 -0.2634  0.2162 -0.4654
 3425SOL    HW121734   3.165   3.435   0.232  1.5418  0.8329 -2.8842
 3425SOL    HW221735   3.179   3.467   0.371 -0.9124 -0.3507 -0.9429
 3426SOL     OW21736   0.948   2.026   6.479  0.3854 -0.1103 -0.5181
 3426SOL    HW121737   0.928   2.008   6.571  1.7649 -0.0065 -0.2052
 3426SOL    HW221738   0.879   1.970   6.443  0.8977  0.1897 -1.9975
 3427SOL     OW21739   1.417   1.713  14.906  0.4721  0.2920 -0.2690
 3427SOL    HW121740   1.376   1.701  14.992 -0.5094 -0.5117 -0.8422
 3427SOL    HW221741   1.369   1.643  14.861 -0.5875 -0.2502  1.6955
 3428SOL     OW21742   4.294   0.054   7.810 -0.6167 -0.4739  0.6735
 3428SOL    HW121743   4.287   0.036   7.904  0.0933  0.1145  0.8370
 3428SOL    HW221744   4.286   4.686   7.778  2.1372  0.0077 -1.3985
 3429SOL     OW21745   3.214   3.012  15.706  0.1930 -0.1626 -0.2408
 3429SOL    HW121746   3.226   3.048  15.618  0.5578 -0.9846 -0.5294
 3429SOL    HW221747   3.294   3.050  15.743 -1.5307 -0.0083  3.2995
 3430SOL     OW21748   1.125   3.618   4.844  0.0057  0.6444 -0.3118
 3430SOL    HW121749   1.151   3.673   4.918 -0.6976 -0.8402  1.0491
 3430SOL    HW221750   1.034   3.593   4.861  0.5935 -1.0148  0.3986
 3431SOL     OW21751   1.031   3.022   4.506  0.0523 -0.0240  0.2425
 3431SOL    HW121752   1.116   3.066   4.519 -0.0746 -0.2503  1.9041
 3431SOL    HW221753   0.968   3.072   4.559  0.2448  1.5923 -1.0464
 3432SOL     OW21754   1.631   1.801  15.059  0.5609  0.3080  0.8204
 3432SOL    HW121755   1.544   1.797  15.018  1.8344 -0.2018 -1.8777
 3432SOL    HW221756   1.656   1.712  15.034  0.6777  0.3848  0.6608
 3433SOL     OW21757   1.377   1.543   5.215 -0.4178 -0.1111 -0.0640
 3433SOL    HW121758   1.370   1.465   5.159  1.2227 -0.2480 -0.0806
 3433SOL    HW221759   1.315   1.599   5.169  1.5124  1.6445 -0.5090
 3434SOL     OW21760   2.943   0.902   5.266 -0.9880 -0.0212  0.2099
 3434SOL    HW121761   3.004   0.881   5.194 -0.6530  1.4601  0.0693
 3434SOL    HW221762   2.874   0.946   5.217 -1.4713  0.3830  1.2735
 3435SOL     OW21763   2.237   4.643   2.476 -0.3784  0.4091  0.2632
 3435SOL    HW121764   2.301   4.655   2.406 -0.8718 -1.4131 -0.5020
 3435SOL    HW221765   2.157   4.642   2.424 -1.0200 -0.8120  1.2648
 3436SOL     OW21766   1.258   0.758   6.851 -0.5250  0.2360  0.3128
 3436SOL    HW121767   1.224   0.846   6.864  0.8171  0.6883  0.7574
 3436SOL    HW221768   1.211   0.703   6.913 -2.7496  1.0947 -0.6159
 3437SOL     OW21769   2.803   2.195   8.242 -0.3530 -0.2202 -0.4831
 3437SOL    HW121770   2.834   2.202   8.152  0.6054  0.8354 -0.0680
 3437SOL    HW221771   2.724   2.246   8.222 -0.1090 -0.6416 -2.4451
 3438SOL     OW21772   2.426   3.364   8.959 -0.0629 -0.6237 -0.2584
 3438SOL    HW121773   2.354   3.400   9.011  0.0532  0.1171 -0.6159
 3438SOL    HW221774   2.499   3.410   8.999  0.1562  0.4749 -1.9511
 3439SOL     OW21775   1.445   0.255   9.412 -0.1016  0.3886 -0.0745
 3439SOL    HW121776   1.382   0.247   9.340 -0.6430 -0.3911  0.4878
 3439SOL    HW221777   1.382   0.251   9.484 -1.1943  0.1898 -1.0319
 3440SOL     OW21778   2.923   4.059   9.243  0.3599 -0.7701  0.1396
 3440SOL    HW121779   2.866   4.026   9.313 -0.1017 -2.8310 -1.1890
 3440SOL    HW221780   3.008   4.073   9.283  0.0656 -2.4708  1.3599
 3441SOL     OW21781   2.087   2.823  16.377  0.8141 -0.0094  0.2740
 3441SOL    HW121782   2.099   2.729  16.381 -1.4101 -0.2506  1.4776
 3441SOL    HW221783   2.072   2.850  16.468 -0.5697  0.6352 -0.1298
 3442SOL     OW21784   1.326   4.326   4.848 -0.1946  0.3622  0.0248
 3442SOL    HW121785   1.231   4.328   4.853 -0.1599  0.3994  0.5899
 3442SOL    HW221786   1.334   4.290   4.759 -0.8927  2.8354 -1.0494
 3443SOL     OW21787   1.553   0.733  10.634  0.3108  0.0029  0.0009
 3443SOL    HW121788   1.466   0.767  10.657  0.0234 -0.2316 -0.7454
 3443SOL    HW221789   1.604   0.812  10.619  2.0625 -0.8112  1.7003
 3444SOL     OW21790   0.706   3.141   3.169  0.1615 -0.4048 -0.5335
 3444SOL    HW121791   0.748   3.077   3.112 -0.4815  0.5322 -2.0460
 3444SOL    HW221792   0.623   3.154   3.124  0.2766 -1.1868 -0.9531
 3445SOL     OW21793   3.346   3.278   5.526  0.3984  0.2062  0.5040
 3445SOL    HW121794   3.438   3.286   5.553  1.4985 -2.3034 -2.4911
 3445SOL    HW221795   3.307   3.356   5.564  0.0142  0.4045 -0.3023
 3446SOL     OW21796   1.231   4.339  11.426  0.6346  0.8433 -0.1103
 3446SOL    HW121797   1.220   4.264  11.484  0.2871 -0.1852 -1.4877
 3446SOL    HW221798   1.184   4.305  11.350  0.7812 -0.7254  0.5013
 3447SOL     OW21799   4.291   1.636   0.898  0.3629 -0.3301  0.1025
 3447SOL    HW121800   4.378   1.672   0.880  0.5305  0.5044  2.7148
 3447SOL    HW221801   4.306   1.575   0.969 -0.5870 -1.0353 -0.3028
 3448SOL     OW21802   4.060   0.083   7.260  0.0302  0.5753 -0.0729
 3448SOL    HW121803   4.029   0.077   7.170 -3.2292 -1.6059  1.2249
 3448SOL    HW221804   4.131   0.021   7.247 -1.8081 -1.7924  1.2655
 3449SOL     OW21805   2.217   1.225   5.920  0.0469  0.7753  0.2898
 3449SOL    HW121806   2.293   1.266   5.961  0.1500  0.7670  0.1020
 3449SOL    HW221807   2.181   1.292   5.863  1.8037  0.5490 -1.0709
 3450SOL     OW21808   4.708   4.184   4.692  0.5001 -0.1873 -0.0804
 3450SOL    HW121809   0.023   4.225   4.770 -0.1419 -0.3757  0.3192
 3450SOL    HW221810   4.687   4.100   4.732 -0.4351  0.3573  0.5585
 3451SOL     OW21811   1.959   2.408   6.534 -0.0046 -0.1104  0.0201
 3451SOL    HW121812   1.973   2.501   6.554  0.5547 -0.0668 -0.5583
 3451SOL    HW221813   1.997   2.395   6.447 -0.8271 -0.9672 -0.2063
 3452SOL     OW21814   1.022   4.533   7.772  0.5745 -0.0437  0.4036
 3452SOL    HW121815   0.979   4.469   7.715  1.8030  1.9369 -2.7310
 3452SOL    HW221816   0.952   4.523   7.836  2.1749 -0.5765  2.0701
 3453SOL     OW21817   1.844   0.170  13.254  0.3236 -0.3855  0.2066
 3453SOL    HW121818   1.795   0.222  13.318  0.5567  0.1174 -0.0223
 3453SOL    HW221819   1.921   0.163  13.311  1.3161 -1.7615 -1.2973
 3454SOL     OW21820   1.223   2.350   8.730  0.1825 -0.8528  0.1418
 3454SOL    HW121821   1.217   2.288   8.657  0.1539  0.5163 -1.0161
 3454SOL    HW221822   1.263   2.430   8.696 -1.4977  0.1679  0.5725
 3455SOL     OW21823   2.039   0.656   9.053  0.4022  0.1828  0.3985
 3455SOL    HW121824   1.959   0.694   9.016  0.4653 -0.9660 -0.9419
 3455SOL    HW221825   2.064   0.611   8.972 -0.2544  0.9521 -0.2289
 3456SOL     OW21826   3.474   4.526   8.880  0.8794 -0.3687 -0.0629
 3456SOL    HW121827   3.520   4.453   8.838  1.6934 -0.5327  1.0877
 3456SOL    HW221828   3.442   4.577   8.806  0.3648  1.4387  1.4130
 3457SOL     OW21829   2.082   0.407  14.485 -0.0008  0.0664  0.4874
 3457SOL    HW121830   2.138   0.465  14.434 -0.4855  0.5902  0.5413
 3457SOL    HW221831   2.118   0.413  14.574  2.3766 -1.8728 -0.3695
 3458SOL     OW21832   3.751   4.090   7.598 -0.3983  0.6622  0.6059
 3458SOL    HW121833   3.770   4.182   7.615  1.7419 -0.0392  1.9825
 3458SOL    HW221834   3.703   4.065   7.678 -1.0313 -0.8246 -0.2383
 3459SOL     OW21835   4.254   0.966  13.358 -0.1635 -0.2490 -0.4212
 3459SOL    HW121836   4.258   0.941  13.266 -0.4729 -0.4783 -0.3713
 3459SOL    HW221837   4.226   1.058  13.350 -0.6951 -0.2840  1.0488
 3460SOL     OW21838   2.888   4.337   3.485  0.1608  0.0984  0.3006
 3460SOL    HW121839   2.793   4.341   3.475 -0.1366 -2.3068  2.1548
 3460SOL    HW221840   2.915   4.337   3.394  2.1094  0.6829  0.8704
 3461SOL     OW21841   3.816   4.682   3.684  0.4758 -0.3385 -0.4301
 3461SOL    HW121842   3.839   0.019   3.613 -1.0084 -1.8372 -2.1598
 3461SOL    HW221843   3.895   4.698   3.735 -0.0973 -1.0303  0.6693
 3462SOL     OW21844   3.787   0.199   1.053  0.2141  0.1392 -0.0759
 3462SOL    HW121845   3.696   0.171   1.064  0.0192  0.5559 -0.6319
 3462SOL    HW221846   3.791   0.208   0.958 -2.7903  1.2769 -0.1117
 3463SOL     OW21847   4.612   2.130   2.337  0.2366 -0.3717 -0.0877
 3463SOL    HW121848   4.636   2.050   2.290 -0.1075 -0.1728 -0.5975
 3463SOL    HW221849   4.680   2.187   2.301 -1.3931 -0.2937 -3.0218
 3464SOL     OW21850   2.612   3.378   0.797 -0.0856 -0.2877 -0.2171
 3464SOL    HW121851   2.535   3.323   0.781 -1.4408  1.4778  0.2344
 3464SOL    HW221852   2.643   3.393   0.708  0.0758  1.2949  0.1013
 3465SOL     OW21853   3.049   4.578   7.802  0.0944 -0.4823 -0.0139
 3465SOL    HW121854   3.013   4.548   7.718 -2.2438  0.6410  0.5889
 3465SOL    HW221855   3.009   4.510   7.856 -4.9626  1.0948 -1.7542
 3466SOL     OW21856   2.204   1.348  16.541  0.1576  0.1328 -0.7324
 3466SOL    HW121857   2.211   1.396  16.624 -1.5395 -1.4264  0.3311
 3466SOL    HW221858   2.247   1.267  16.564 -0.7998  0.2189  1.3725
 3467SOL     OW21859   4.656   4.240   0.495 -0.0966 -0.3366  0.4590
 3467SOL    HW121860   4.623   4.278   0.577 -2.3483 -0.2774 -0.4605
 3467SOL    HW221861   0.004   4.185   0.528 -2.1319 -1.2333  3.3694
 3468SOL     OW21862   2.706   4.402   5.564 -0.3957  0.2412 -0.5305
 3468SOL    HW121863   2.616   4.368   5.553 -0.3927  0.0892 -0.0790
 3468SOL    HW221864   2.744   4.317   5.541  1.3104  0.7812  0.3807
 3469SOL     OW21865   0.561   1.140   4.027  0.5099 -0.3377 -0.4822
 3469SOL    HW121866   0.506   1.062   4.031  0.9953 -0.7092 -1.0940
 3469SOL    HW221867   0.504   1.199   4.076 -0.1148  0.0217 -1.6584
 3470SOL     OW21868   3.543   0.102   1.954 -0.3162 -0.1689  0.1702
 3470SOL    HW121869   3.596   0.089   2.032 -0.4533 -0.1111  0.2724
 3470SOL    HW221870   3.467   0.051   1.983  0.9362 -2.6203 -0.7753
 3471SOL     OW21871   0.503   3.759   2.296 -0.2928  0.5740  0.1125
 3471SOL    HW121872   0.479   3.678   2.251  0.8664  0.3164 -0.0601
 3471SOL    HW221873   0.448   3.741   2.373 -0.5846  3.3377  0.5538
 3472SOL     OW21874   3.825   3.253   8.768 -0.1726 -0.5330 -0.8208
 3472SOL    HW121875   3.820   3.348   8.754 -3.7844 -0.3835  1.5160
 3472SOL    HW221876   3.916   3.235   8.746  0.1471  0.6184 -0.4857
 3473SOL     OW21877   3.656   1.497   5.631  0.3616  0.0125  0.1569
 3473SOL    HW121878   3.750   1.500   5.649  0.2027 -0.2353  0.9991
 3473SOL    HW221879   3.655   1.423   5.570  1.1511  0.0357  0.1153
 3474SOL     OW21880   4.005   1.716   5.955  0.4174 -0.4638 -0.4532
 3474SOL    HW121881   3.937   1.654   5.981  1.0697 -0.0089  2.2689
 3474SOL    HW221882   3.962   1.788   6.000  0.1094 -2.1477  1.9266
 3475SOL     OW21883   2.576   0.925   8.407  0.5383  0.0450  0.2533
 3475SOL    HW121884   2.558   0.839   8.370 -1.5069  0.9304 -0.7916
 3475SOL    HW221885   2.577   0.904   8.501  2.0602  1.6157  0.5852
 3476SOL     OW21886   3.372   0.740   5.199 -0.0862  0.6656 -0.2569
 3476SOL    HW121887   3.305   0.726   5.132 -1.9175  0.7095  1.5644
 3476SOL    HW221888   3.356   0.663   5.254  0.8107  0.4693 -0.2791
 3477SOL     OW21889   3.564   0.317   7.934 -0.1615 -0.2957 -0.4576
 3477SOL    HW121890   3.612   0.354   8.008  1.9505 -1.3965 -1.2555
 3477SOL    HW221891   3.606   0.365   7.863 -0.2599 -0.4273 -0.6031
 3478SOL     OW21892   3.873   3.773   7.542  0.2806  0.0724  0.6504
 3478SOL    HW121893   3.936   3.718   7.495  0.7653  0.1391  1.2271
 3478SOL    HW221894   3.796   3.764   7.486  1.0856 -0.2823 -0.3990
 3479SOL     OW21895   0.579   3.297   5.187 -0.0044  0.2063  0.9537
 3479SOL    HW121896   0.603   3.345   5.108 -1.9904 -0.3307  0.0406
 3479SOL    HW221897   0.543   3.361   5.249 -0.4130  0.4101  0.4998
 3480SOL     OW21898   4.688   4.688  11.452  0.1147 -0.3136  0.6550
 3480SOL    HW121899   4.648   0.052  11.451  1.5991  0.3375 -2.8167
 3480SOL    HW221900   0.047   4.719  11.412  0.2964  0.1585  1.4032
 3481SOL     OW21901   1.746   2.048  15.027  0.4776  0.0056 -0.2701
 3481SOL    HW121902   1.840   2.050  15.045  0.3332 -0.2556  0.5046
 3481SOL    HW221903   1.730   1.961  15.062 -0.1702  0.4862  0.6139
 3482SOL     OW21904   2.816   4.241   9.072 -0.1198 -0.0455 -0.3471
 3482SOL    HW121905   2.883   4.181   9.105  2.0313  1.4441 -2.0176
 3482SOL    HW221906   2.763   4.272   9.146 -0.0921 -1.6346  0.3415
 3483SOL     OW21907   1.314   1.750  12.885  0.3585 -0.3268 -0.1679
 3483SOL    HW121908   1.362   1.783  12.809  0.3808  0.0880  0.0287
 3483SOL    HW221909   1.383   1.770  12.949 -0.8892  1.8258  0.4840
 3484SOL     OW21910   1.805   1.574   6.199 -0.2758 -0.1958  0.1851
 3484SOL    HW121911   1.719   1.571   6.158  1.0677  0.7791 -2.7288
 3484SOL    HW221912   1.841   1.504   6.145  0.4899 -0.2024  0.7028
 3485SOL     OW21913   2.826   1.337   6.352 -0.3638 -0.3327 -0.0755
 3485SOL    HW121914   2.916   1.307   6.361 -0.6714 -0.6637  1.8684
 3485SOL    HW221915   2.808   1.316   6.261 -0.8451 -0.2801  0.0081
 3486SOL     OW21916   3.571   0.162   0.375 -0.4698 -0.0626  0.4977
 3486SOL    HW121917   3.534   0.077   0.350 -0.4878 -0.5285  2.0804
 3486SOL    HW221918   3.660   0.132   0.396 -1.2684 -1.8008  1.3934
 3487SOL     OW21919   3.193   2.910   2.363  0.8206 -0.0243 -0.0306
 3487SOL    HW121920   3.190   3.005   2.349  2.9114  0.0923  0.3313
 3487SOL    HW221921   3.102   2.891   2.387  1.7137 -2.0716  1.7061
 3488SOL     OW21922   0.223   1.287   2.953 -0.1523 -0.3178  0.3782
 3488SOL    HW121923   0.257   1.343   3.023 -1.4550 -0.6512  1.2825
 3488SOL    HW221924   0.201   1.348   2.883 -0.3448  0.4500  1.0950
 3489SOL     OW21925   1.561   3.478  12.963 -0.1567 -0.0672  0.4962
 3489SOL    HW121926   1.608   3.555  12.994 -1.4665  0.1842  1.8060
 3489SOL    HW221927   1.616   3.417  13.011  2.1818  1.1752 -0.5845
 3490SOL     OW21928   2.865   2.794   0.567 -0.3751  0.6197  0.3920
 3490SOL    HW121929   2.815   2.862   0.522 -0.2246  1.0420  0.8731
 3490SOL    HW221930   2.798   2.751   0.620 -0.9915 -0.5701 -1.3680
 3491SOL     OW21931   3.843   0.838   7.389  0.1937  0.1451  0.1847
 3491SOL    HW121932   3.846   0.840   7.484 -1.3147  0.8248  0.2093
 3491SOL    HW221933   3.825   0.931   7.372 -0.4542 -0.1328 -0.6564
 3492SOL     OW21934   2.247   1.112   7.481 -0.3373  0.4208 -0.5187
 3492SOL    HW121935   2.310   1.058   7.528  0.2456  1.5613  0.0215
 3492SOL    HW221936   2.176   1.111   7.545  1.0722 -0.6786  1.0238
 3493SOL     OW21937   4.295   1.794   1.321  0.1730  0.2437 -0.3936
 3493SOL    HW121938   4.229   1.734   1.357  0.5068  0.1160  0.0009
 3493SOL    HW221939   4.260   1.802   1.232 -0.6294 -0.7993 -0.1761
 3494SOL     OW21940   3.393   3.888   8.650  0.1249  0.6051 -0.1055
 3494SOL    HW121941   3.355   3.885   8.738  0.2316  2.1198 -0.0047
 3494SOL    HW221942   3.338   3.953   8.606 -0.1302 -0.4756 -1.3785
 3495SOL     OW21943   1.522   1.006   8.490 -0.6592  0.0383 -0.1177
 3495SOL    HW121944   1.482   0.944   8.429  1.8983  2.2363 -4.0404
 3495SOL    HW221945   1.447   1.050   8.529  0.6290  1.7331  0.4380
 3496SOL     OW21946   1.267   3.594  15.050  0.2182 -0.1762  0.5276
 3496SOL    HW121947   1.351   3.582  15.094  2.3407  2.9219 -2.7113
 3496SOL    HW221948   1.253   3.683  15.081 -1.7827 -0.4334  0.3755
 3497SOL     OW21949   1.842   3.437   6.977 -0.1044  0.6343 -0.1736
 3497SOL    HW121950   1.869   3.350   6.946 -0.2417 -0.6902  3.4894
 3497SOL    HW221951   1.751   3.410   6.969  0.0211 -0.2202  1.4111
 3498SOL     OW21952   1.937   2.819  10.483  0.5579 -0.2114  0.3278
 3498SOL    HW121953   1.966   2.876  10.554 -0.4288 -0.0752  0.6257
 3498SOL    HW221954   1.850   2.792  10.512 -0.6528  1.6434 -1.6220
 3499SOL     OW21955   2.569   0.164   5.149  0.5691  0.1751  0.2383
 3499SOL    HW121956   2.660   0.167   5.122  1.0368 -0.3411  1.7695
 3499SOL    HW221957   2.568   0.094   5.214 -2.5237  1.6444  1.8060
 3500SOL     OW21958   2.490   0.926   7.930 -0.0943 -0.7648 -0.1035
 3500SOL    HW121959   2.457   0.927   8.020  0.6317  1.3054  0.1444
 3500SOL    HW221960   2.584   0.917   7.949 -0.0427  0.7840  0.3741
 3501SOL     OW21961   1.086   1.260   6.046  0.0050 -0.0350  0.2333
 3501SOL    HW121962   1.029   1.184   6.057 -0.1166  0.2136  1.3644
 3501SOL    HW221963   1.159   1.222   5.998  0.7860 -0.9346  2.1317
 3502SOL     OW21964   0.817   1.274   1.013  0.2227 -0.2005 -0.5691
 3502SOL    HW121965   0.722   1.285   1.017  0.0126 -1.0071 -3.4410
 3502SOL    HW221966   0.834   1.263   1.107  0.8641  2.2384 -0.4049
 3503SOL     OW21967   3.274   3.063   8.950 -0.5200  0.0082 -0.1326
 3503SOL    HW121968   3.305   2.973   8.948  1.8888  0.7942  1.6506
 3503SOL    HW221969   3.210   3.057   8.878 -0.3172  1.7785 -0.4745
 3504SOL     OW21970   4.456   3.606  14.584 -0.0189 -0.3679  0.2923
 3504SOL    HW121971   4.465   3.511  14.591 -2.2993 -0.5469  0.7396
 3504SOL    HW221972   4.527   3.631  14.642 -0.8728 -1.5014  1.7978
 3505SOL     OW21973   0.236   0.377   7.813 -0.7203 -0.0905  0.3641
 3505SOL    HW121974   0.223   0.384   7.719 -1.2511 -0.0215  0.4442
 3505SOL    HW221975   0.241   0.465   7.851 -0.0141 -0.4129  1.0173
 3506SOL     OW21976   2.370   3.546   2.613 -0.3185 -0.3981  0.6905
 3506SOL    HW121977   2.310   3.592   2.554  0.5587 -0.7358 -0.4677
 3506SOL    HW221978   2.367   3.602   2.691 -0.8871  0.1294  0.2934
 3507SOL     OW21979   3.791   2.568   1.477 -0.3576 -0.1426  0.1217
 3507SOL    HW121980   3.708   2.607   1.502 -0.5616 -0.1657 -0.5230
 3507SOL    HW221981   3.848   2.643   1.496  1.4663 -0.4897 -3.8506
 3508SOL     OW21982   3.101   1.590   8.381  0.3217  0.0111  0.2112
 3508SOL    HW121983   3.151   1.603   8.301 -1.5102 -1.4324 -1.1566
 3508SOL    HW221984   3.126   1.666   8.435 -1.7621  1.4282 -0.8196
 3509SOL     OW21985   3.948   4.544  16.013 -0.0799  0.1895 -0.6283
 3509SOL    HW121986   3.863   4.503  16.008  0.7463 -1.7389  1.3176
 3509SOL    HW221987   3.929   4.630  15.975 -0.4995  0.7157  0.7818
 3510SOL     OW21988   2.185   3.019  11.175  0.1454  1.0494 -0.3664
 3510SOL    HW121989   2.096   3.041  11.200  0.0425  0.1783  0.0689
 3510SOL    HW221990   2.229   3.050  11.254  1.8380  0.9407 -1.2602
 3511SOL     OW21991   2.540   4.089   1.660  0.4519 -0.3812  0.0250
 3511SOL    HW121992   2.460   4.038   1.665 -0.2884  0.8300  0.4592
 3511SOL    HW221993   2.594   4.073   1.738  0.2497 -1.7904 -0.1270
 3512SOL     OW21994   1.857   1.594   5.762  0.3015 -0.2738 -0.1969
 3512SOL    HW121995   1.775   1.545   5.769  1.8222 -2.9777 -1.5287
 3512SOL    HW221996   1.835   1.668   5.819 -0.0696 -0.5093 -0.0352
 3513SOL     OW21997   1.629   1.383   8.748 -0.2990 -0.3367 -0.5183
 3513SOL    HW121998   1.658   1.293   8.760  1.7475  0.4731  0.5951
 3513SOL    HW221999   1.537   1.379   8.774  0.2846  0.2719  1.5997
 3514SOL     OW22000   1.957   3.872   7.505 -0.3103 -0.1700 -0.2744
 3514SOL    HW122001   2.015   3.929   7.455  0.0524  1.7791  2.3733
 3514SOL    HW222002   2.005   3.803   7.549 -0.2523  1.3442  2.0345
 3515SOL     OW22003   3.269   0.202   6.707  0.6698 -0.0665 -0.5804
 3515SOL    HW122004   3.187   0.227   6.663  1.7295  2.3824 -1.1656
 3515SOL    HW222005   3.299   0.289   6.731  2.9784 -1.3964  1.3423
 3516SOL     OW22006   4.157   4.632   4.920  0.6713  0.1758  0.1052
 3516SOL    HW122007   4.225   4.585   4.871 -1.3175 -1.5590 -0.9974
 3516SOL    HW222008   4.149   4.574   4.995 -0.6508  0.5839  0.2759
 3517SOL     OW22009   0.501   1.296   3.102  0.5576  0.1622 -0.3259
 3517SOL    HW122010   0.489   1.389   3.120 -3.1992 -0.7998  2.1408
 3517SOL    HW222011   0.569   1.296   3.034  0.0550  0.0051 -0.8303
 3518SOL     OW22012   0.823   3.147   0.716 -0.2527  0.4751 -0.2135
 3518SOL    HW122013   0.813   3.190   0.802 -1.5956 -0.3803  0.0589
 3518SOL    HW222014   0.874   3.069   0.738 -0.5536 -0.0784 -1.5023
 3519SOL     OW22015   1.887   4.677   8.849 -0.1130  0.0959 -0.2374
 3519SOL    HW122016   1.925   4.700   8.764 -2.4854 -0.1473 -1.3659
 3519SOL    HW222017   1.838   4.600   8.822  1.1329 -0.1795 -1.7147
 3520SOL     OW22018   4.175   2.868   3.640  0.1454  0.0373  0.7214
 3520SOL    HW122019   4.105   2.805   3.629 -0.8988  0.6340  3.9696
 3520SOL    HW222020   4.188   2.870   3.735  2.2240 -1.0528  0.4668
 3521SOL     OW22021   2.046   1.831   7.098  0.3866 -0.1541  0.3024
 3521SOL    HW122022   2.124   1.862   7.145  0.4768  0.1933 -0.0770
 3521SOL    HW222023   2.032   1.906   7.040  1.2187 -0.1332  0.1194
 3522SOL     OW22024   4.546   0.408   7.585 -0.3186 -0.2949 -0.0911
 3522SOL    HW122025   4.451   0.398   7.577 -0.4822  0.6405  0.5874
 3522SOL    HW222026   4.584   0.379   7.503  1.8424 -0.4287  0.9465
 3523SOL     OW22027   0.215   3.592   5.550 -0.8963  0.1189 -0.0420
 3523SOL    HW122028   0.222   3.587   5.455  0.6112  0.3765  0.0507
 3523SOL    HW222029   0.297   3.641   5.556 -0.7544 -0.2837  1.3610
 3524SOL     OW22030   1.891   4.211   5.940  0.1124  0.5762  0.2609
 3524SOL    HW122031   1.892   4.267   6.018  0.1480  0.4395  0.3588
 3524SOL    HW222032   1.925   4.272   5.874 -1.6151 -0.1934 -1.3383
 3525SOL     OW22033   0.570   4.128  14.597 -0.4216  0.3644  0.0176
 3525SOL    HW122034   0.660   4.131  14.628 -0.1095 -1.0510 -0.7692
 3525SOL    HW222035   0.535   4.199  14.651  0.8518  0.9097  0.1158
 3526SOL     OW22036   2.331   4.338   2.795 -0.1002  0.6643 -0.7251
 3526SOL    HW122037   2.275   4.260   2.795 -1.7020  1.8234 -0.9954
 3526SOL    HW222038   2.417   4.302   2.819 -0.1633  0.5132 -0.7216
 3527SOL     OW22039   0.667   0.531   8.478 -0.8341  0.0508 -0.8293
 3527SOL    HW122040   0.660   0.579   8.560  3.3992 -0.4176 -0.1657
 3527SOL    HW222041   0.737   0.471   8.505  0.3349  0.0098 -3.8765
 3528SOL     OW22042   1.501   3.467   8.838 -0.5918 -0.3712 -0.5728
 3528SOL    HW122043   1.593   3.473   8.813  0.3986 -0.7372  3.0004
 3528SOL    HW222044   1.495   3.371   8.835  1.4973 -0.4883 -0.7196
 3529SOL     OW22045   1.147   1.662  17.167 -0.3322 -0.0392 -0.1250
 3529SOL    HW122046   1.220   1.717  17.196 -0.6625  0.2418  0.1656
 3529SOL    HW222047   1.082   1.702  17.225  0.1871  0.4920  0.0904
 3530SOL     OW22048   2.541   3.582   3.676  0.1961 -0.8669 -0.4433
 3530SOL    HW122049   2.515   3.496   3.709  3.1759 -1.4344  0.3409
 3530SOL    HW222050   2.636   3.576   3.667  0.3361  1.6974 -0.7094
 3531SOL     OW22051   3.964   4.282   2.444 -0.1210 -0.6157  0.4632
 3531SOL    HW122052   3.893   4.287   2.508 -0.2232  0.8545  0.2136
 3531SOL    HW222053   3.965   4.362   2.392  3.1013 -1.1549 -0.3334
 3532SOL     OW22054   2.880   0.389   0.868  0.4154 -0.2847  0.1069
 3532SOL    HW122055   2.848   0.388   0.958 -1.3475  1.9435 -0.4899
 3532SOL    HW222056   2.860   0.301   0.834 -1.5223  0.9296 -1.9108
 3533SOL     OW22057   3.393   3.802  13.489 -0.3406 -0.7222  0.0517
 3533SOL    HW122058   3.445   3.829  13.565  0.0139  2.0983 -1.2140
 3533SOL    HW222059   3.422   3.865  13.424 -3.1084  2.3877  1.8278
 3534SOL     OW22060   3.582   4.282   7.173  0.0630  0.4840 -0.1122
 3534SOL    HW122061   3.511   4.285   7.237  1.3768 -3.8779  1.6000
 3534SOL    HW222062   3.546   4.210   7.120 -0.6365  0.3837  0.5065
 3535SOL     OW22063   1.722   4.591   5.933 -0.1607 -0.5263 -0.1502
 3535SOL    HW122064   1.770   4.553   5.859  1.2991  0.2353  0.4009
 3535SOL    HW222065   1.791   4.649   5.964  0.3177 -0.0204 -2.1185
 3536SOL     OW22066   1.802   2.689  17.419 -0.0581 -1.0824  0.5765
 3536SOL    HW122067   1.734   2.638  17.461 -0.4910 -1.5288 -0.6688
 3536SOL    HW222068   1.868   2.699  17.488  0.9331 -2.3827 -0.1744
 3537SOL     OW22069   1.003   4.622   6.740 -0.0491  0.6171 -0.0315
 3537SOL    HW122070   0.981   4.648   6.829 -1.6553 -1.6896  0.2332
 3537SOL    HW222071   1.078   4.679   6.720 -0.5088  1.2067 -0.0471
 3538SOL     OW22072   2.896   0.552   8.153 -0.2799 -0.2615  0.0467
 3538SOL    HW122073   2.929   0.533   8.241 -1.1246 -1.4518  0.0993
 3538SOL    HW222074   2.969   0.517   8.101 -1.4161 -0.1985 -1.5874
 3539SOL     OW22075   4.699   1.690  13.664 -0.1342 -0.2899  0.1878
 3539SOL    HW122076   4.618   1.680  13.714  0.6867 -1.3777  1.2884
 3539SOL    HW222077   0.006   1.780  13.679 -1.2347 -0.1757  1.7734
 3540SOL     OW22078   3.150   2.062   7.796  0.3549 -0.0791 -0.5140
 3540SOL    HW122079   3.176   2.090   7.708  1.9289  0.9672  0.2840
 3540SOL    HW222080   3.055   2.062   7.782  0.0073 -0.9781  1.8568
 3541SOL     OW22081   1.127   1.056   1.965 -0.0289 -0.0467  0.5183
 3541SOL    HW122082   1.185   1.132   1.968 -1.7920  1.2882  0.9570
 3541SOL    HW222083   1.126   1.029   2.057  2.1425 -2.8135 -0.2662
 3542SOL     OW22084   4.686   3.119   8.810 -0.5114 -0.5455 -0.6181
 3542SOL    HW122085   4.626   3.048   8.831  0.2662 -1.1255 -0.3552
 3542SOL    HW222086   4.643   3.164   8.737  2.3287  2.4190 -0.5183
 3543SOL     OW22087   4.056   0.013   3.810  0.2758 -0.0501 -0.1524
 3543SOL    HW122088   4.131   4.690   3.847 -0.1875  0.1744  1.0718
 3543SOL    HW222089   4.097   0.100   3.818 -0.8992  0.4889  0.0315
 3544SOL     OW22090   2.048   2.871   0.639  0.3513  0.0730  0.7237
 3544SOL    HW122091   1.991   2.924   0.584 -0.5952 -1.7246 -0.0261
 3544SOL    HW222092   2.081   2.824   0.562 -2.3169 -0.5941  0.0173
 3545SOL     OW22093   1.380   3.012   0.404 -0.5342  0.1778  0.0445
 3545SOL    HW122094   1.450   2.964   0.359  0.3754  2.3512 -0.8566
 3545SOL    HW222095   1.415   3.097   0.429 -0.1423 -0.0748  0.3638
 3546SOL     OW22096   4.056   4.662   6.530 -0.3818 -0.1495 -0.2254
 3546SOL    HW122097   4.041   4.576   6.492 -2.2414  0.6825 -1.3597
 3546SOL    HW222098   4.054   4.712   6.449 -0.0195  0.7321  0.2976
 3547SOL     OW22099   1.186   0.322   5.529 -0.8703 -0.2002 -0.3421
 3547SOL    HW122100   1.130   0.259   5.483 -0.2995  0.0249 -1.3431
 3547SOL    HW222101   1.274   0.286   5.522 -0.7188  0.4094 -1.5765
 3548SOL     OW22102   0.363   1.371   5.059  0.0325 -0.2513  0.0897
 3548SOL    HW122103   0.357   1.279   5.035  0.6337  0.1042 -1.4723
 3548SOL    HW222104   0.458   1.383   5.050  0.2053 -0.9740  1.0110
 3549SOL     OW22105   2.429   0.353   5.780  0.1083  0.5984  0.5638
 3549SOL    HW122106   2.340   0.387   5.775 -0.5243 -1.3454 -1.0979
 3549SOL    HW222107   2.440   0.289   5.851 -2.8245 -0.5120 -0.0185
 3550SOL     OW22108   0.494   2.732   3.815 -0.1443 -0.2013 -0.0023
 3550SOL    HW122109   0.489   2.691   3.729  0.3246  1.4217 -0.8204
 3550SOL    HW222110   0.580   2.774   3.811 -0.5983  0.8131  0.7455
 3551SOL     OW22111   3.026   3.990   8.860  0.6395 -0.1534  0.2099
 3551SOL    HW122112   3.025   3.984   8.765  0.7436 -1.6042  0.2985
 3551SOL    HW222113   3.116   3.964   8.878  0.6123 -1.0182 -0.9256
 3552SOL     OW22114   0.601   2.592   7.916  0.5445  0.4972  0.2567
 3552SOL    HW122115   0.529   2.566   7.858 -1.3216  1.9249  1.9106
 3552SOL    HW222116   0.665   2.525   7.891  1.5214  0.5243  2.6322
 3553SOL     OW22117   2.501   0.155   4.681 -0.2410  0.2190 -0.1050
 3553SOL    HW122118   2.592   0.141   4.705 -0.6012 -4.0357 -1.2203
 3553SOL    HW222119   2.492   0.248   4.703 -1.2105  0.0508  0.2108
 3554SOL     OW22120   0.848   3.348   3.757 -0.7600 -0.0503 -0.1576
 3554SOL    HW122121   0.766   3.393   3.778 -1.8396 -1.7924 -0.6426
 3554SOL    HW222122   0.900   3.422   3.725 -0.2179  0.8784  2.8187
 3555SOL     OW22123   2.377   0.995   4.861  0.5351 -0.1925 -0.4833
 3555SOL    HW122124   2.344   1.032   4.942  3.7364  0.0456  0.7056
 3555SOL    HW222125   2.299   0.960   4.817 -0.8196  1.7422  0.4006
 3556SOL     OW22126   4.256   2.580  13.072  0.4006 -0.6900 -0.3453
 3556SOL    HW122127   4.346   2.571  13.041  0.7493 -3.0066  1.3658
 3556SOL    HW222128   4.225   2.631  12.997  1.3272  4.0929  2.5492
 3557SOL     OW22129   3.662   3.669  16.821 -0.4325 -0.0308  0.1426
 3557SOL    HW122130   3.654   3.762  16.801 -2.4438  0.1210  1.6758
 3557SOL    HW222131   3.585   3.664  16.877 -0.5224  0.6847  0.0774
 3558SOL     OW22132   3.755   1.565   2.887  0.3645 -0.1246 -0.6834
 3558SOL    HW122133   3.678   1.609   2.921  1.7966  1.0863  1.0163
 3558SOL    HW222134   3.813   1.638   2.867  0.1476 -0.2080 -1.6446
 3559SOL     OW22135   1.878   1.084   7.304  0.7541 -0.5500  0.4651
 3559SOL    HW122136   1.797   1.054   7.346  0.6561 -0.3438  0.4217
 3559SOL    HW222137   1.883   1.177   7.325  1.5034 -0.3415 -0.6202
 3560SOL     OW22138   1.702   0.259   3.173 -0.3019 -0.2431  0.1091
 3560SOL    HW122139   1.637   0.274   3.104 -1.3725  0.2044  1.2224
 3560SOL    HW222140   1.769   0.206   3.130  1.0564 -0.6772  2.7677
 3561SOL     OW22141   4.013   1.281   3.881  0.1905  0.1073  0.1570
 3561SOL    HW122142   4.028   1.200   3.832 -0.3662 -1.7230  3.0449
 3561SOL    HW222143   3.958   1.331   3.820 -0.1472  0.8081  1.0330
 3562SOL     OW22144   4.080   4.371   8.976 -0.3956  0.9694  0.0564
 3562SOL    HW122145   4.129   4.428   9.036  2.1697 -0.3299 -0.7759
 3562SOL    HW222146   4.035   4.316   9.041 -2.0735  0.1682 -1.7824
 3563SOL     OW22147   2.566   0.520   7.903 -0.2532  0.2279 -0.2268
 3563SOL    HW122148   2.579   0.543   7.995  0.6408  0.1751 -0.3345
 3563SOL    HW222149   2.507   0.446   7.916  1.1873 -0.9710 -0.5701
 3564SOL     OW22150   3.858   2.590   8.197 -0.2159 -0.3333 -0.2795
 3564SOL    HW122151   3.782   2.534   8.181 -0.1400 -0.9315  1.5025
 3564SOL    HW222152   3.922   2.544   8.142  0.7865  0.1260  0.4960
 3565SOL     OW22153   4.259   1.271   3.647 -0.2501 -0.3267  0.0917
 3565SOL    HW122154   4.247   1.223   3.728  2.1264 -2.0072 -0.5475
 3565SOL    HW222155   4.168   1.273   3.615  0.3276  1.9402 -1.4822
 3566SOL     OW22156   1.108   3.761   4.583  0.0678 -0.3471 -0.1868
 3566SOL    HW122157   1.172   3.704   4.539  1.7359  1.3666  0.0434
 3566SOL    HW222158   1.123   3.746   4.676  0.4539  1.2089 -0.0117
 3567SOL     OW22159   3.272   1.273   8.207  0.1935 -0.0677 -0.1884
 3567SOL    HW122160   3.337   1.339   8.233  0.5805 -0.7834  0.6635
 3567SOL    HW222161   3.324   1.210   8.157  0.4044  0.3112 -0.4452
 3568SOL     OW22162   2.971   3.011   3.829 -0.0968  0.0226  0.6658
 3568SOL    HW122163   3.036   2.940   3.827  0.9391  1.0403 -2.2917
 3568SOL    HW222164   3.007   3.053   3.750  1.8895 -0.0305  1.5317
 3569SOL     OW22165   0.591   4.483   3.450  0.0785  0.0329 -0.0597
 3569SOL    HW122166   0.607   4.553   3.387  3.2895 -1.2081 -0.6338
 3569SOL    HW222167   0.663   4.499   3.511 -1.7263 -1.4817  2.4884
 3570SOL     OW22168   1.649   4.000   7.387  0.5216  0.0084 -0.2069
 3570SOL    HW122169   1.625   4.090   7.411 -0.4866 -0.4286  0.4324
 3570SOL    HW222170   1.743   4.007   7.400  0.6453  1.8981 -2.0817
 3571SOL     OW22171   1.106   1.104   6.347 -0.2500 -0.3872  0.4171
 3571SOL    HW122172   1.160   1.114   6.425  0.7896 -0.9836 -0.2176
 3571SOL    HW222173   1.109   1.192   6.309 -2.0823  0.4350  2.1680
 3572SOL     OW22174   4.114   3.227   1.369  0.1621  0.0582 -0.0490
 3572SOL    HW122175   4.074   3.301   1.415  0.6170 -0.2731  0.8611
 3572SOL    HW222176   4.055   3.156   1.394  1.0971 -0.2624  1.2067
 3573SOL     OW22177   3.037   4.602   6.085 -0.2673  0.1471  0.3995
 3573SOL    HW122178   2.981   4.528   6.109 -0.4113  0.2016  0.2257
 3573SOL    HW222179   2.980   4.659   6.034  1.0615 -1.6154 -3.0863
 3574SOL     OW22180   0.191   1.142   4.110  0.5810  0.2585 -0.1330
 3574SOL    HW122181   0.255   1.210   4.129 -0.3429  1.0307  0.2160
 3574SOL    HW222182   0.138   1.155   4.188  2.5631 -2.2708  1.6264
 3575SOL     OW22183   2.888   3.116   7.915  0.0105 -0.5272 -0.8518
 3575SOL    HW122184   2.831   3.046   7.946  1.9323 -1.3788  0.7606
 3575SOL    HW222185   2.904   3.170   7.992 -0.8930  0.7609 -1.5706
 3576SOL     OW22186   0.813   1.678   4.077 -0.2635  0.0172  0.6879
 3576SOL    HW122187   0.852   1.717   4.155  0.2471  1.3093 -0.2138
 3576SOL    HW222188   0.876   1.703   4.010 -0.1072 -0.5678  0.6171
 3577SOL     OW22189   4.377   1.814  15.965 -0.5249  0.4506 -0.7089
 3577SOL    HW122190   4.329   1.830  15.884 -1.1305 -0.8414 -0.5925
 3577SOL    HW222191   4.345   1.890  16.014  1.2197  0.3483  0.6077
 3578SOL     OW22192   0.472   2.369   7.705 -0.2965 -1.0798 -0.2119
 3578SOL    HW122193   0.421   2.295   7.738  0.5900 -0.9550  1.4519
 3578SOL    HW222194   0.395   2.426   7.704  1.1451  0.9081  1.4464
 3579SOL     OW22195   3.698   0.024   4.010 -0.0801 -0.3220  0.4854
 3579SOL    HW122196   3.722   4.709   3.926  0.3181  1.6503 -0.2756
 3579SOL    HW222197   3.627   4.694   4.048  0.1766  0.1113  1.5861
 3580SOL     OW22198   4.485   2.193  17.163 -0.1680 -0.3229  0.2655
 3580SOL    HW122199   4.447   2.111  17.194 -1.5345  1.5491  3.5871
 3580SOL    HW222200   4.413   2.254  17.180 -0.5316  0.0967 -2.8384
 3581SOL     OW22201   0.527   2.238   5.632  0.1323  0.2559  0.1375
 3581SOL    HW122202   0.477   2.311   5.669 -1.0699 -1.1256  1.2181
 3581SOL    HW222203   0.458   2.192   5.584  0.5880  0.6647 -0.9111
 3582SOL     OW22204   4.037   3.700   8.342 -0.4804 -0.3715 -0.3815
 3582SOL    HW122205   4.047   3.771   8.406 -0.5163 -0.0888 -0.6919
 3582SOL    HW222206   4.114   3.644   8.352 -1.6755 -2.1824 -1.3011
 3583SOL     OW22207   1.245   4.062   2.069 -0.1684  0.3125  0.3080
 3583SOL    HW122208   1.159   4.083   2.033 -0.0296  1.4340  0.6485
 3583SOL    HW222209   1.223   3.991   2.129  0.8994 -1.0891 -0.9618
 3584SOL     OW22210   1.422   3.284  12.825  0.1310 -0.3068 -0.3068
 3584SOL    HW122211   1.455   3.358  12.876  0.2647 -0.7595  0.2623
 3584SOL    HW222212   1.342   3.321  12.789 -0.6935 -0.5671  1.2619
 3585SOL     OW22213   0.512   4.421   1.558 -0.5822  0.1883  0.2750
 3585SOL    HW122214   0.467   4.446   1.477 -0.4380 -1.1480 -0.2230
 3585SOL    HW222215   0.601   4.452   1.540 -1.2533  0.8633 -1.8937
 3586SOL     OW22216   3.094   0.922   6.570 -0.1907 -0.1735  0.3521
 3586SOL    HW122217   3.008   0.946   6.538 -0.5255  0.5451  1.8066
 3586SOL    HW222218   3.144   1.002   6.555  1.6067 -1.1914  0.7763
 3587SOL     OW22219   3.882   3.353  12.130  0.2702  1.0963 -0.4108
 3587SOL    HW122220   3.927   3.294  12.069 -0.3045 -0.1477  0.3919
 3587SOL    HW222221   3.837   3.407  12.065 -1.1433 -0.4591 -0.7120
 3588SOL     OW22222   0.154   0.538   3.640 -0.4642  0.3901 -1.0161
 3588SOL    HW122223   0.110   0.624   3.643 -0.8979  0.0681  1.3671
 3588SOL    HW222224   0.151   0.518   3.546 -3.6350 -1.4648 -0.5150
 3589SOL     OW22225   0.242   0.702   1.654  0.3425 -0.8781 -0.7218
 3589SOL    HW122226   0.158   0.656   1.651 -0.4532  0.3615  1.7779
 3589SOL    HW222227   0.303   0.639   1.618 -0.6635 -2.5782  0.5405
 3590SOL     OW22228   2.214   3.571   4.507 -0.1598 -0.1097 -0.5305
 3590SOL    HW122229   2.180   3.636   4.447 -0.5970  0.6667  0.5754
 3590SOL    HW222230   2.140   3.565   4.567  1.3622  1.6082  1.5116
 3591SOL     OW22231   3.826   2.674   6.440 -0.3971 -0.2037  0.2673
 3591SOL    HW122232   3.758   2.741   6.430 -1.5759 -1.1706  1.8122
 3591SOL    HW222233   3.900   2.729   6.468  0.1086 -0.6993 -0.0936
 3592SOL     OW22234   0.635   1.318   6.196 -0.8383  0.4441 -0.1854
 3592SOL    HW122235   0.575   1.243   6.203 -0.3513  0.3471  2.9484
 3592SOL    HW222236   0.710   1.287   6.247 -1.5915  1.4384  1.5317
 3593SOL     OW22237   4.095   2.182   8.104  0.0830 -0.1451  0.2421
 3593SOL    HW122238   4.050   2.098   8.107 -0.5352  0.2101  0.9712
 3593SOL    HW222239   4.085   2.187   8.199 -2.6695 -0.8649 -0.0069
 3594SOL     OW22240   4.199   1.151   1.351 -0.5823 -0.3933  0.3427
 3594SOL    HW122241   4.238   1.064   1.361  0.4036  0.0930  0.6778
 3594SOL    HW222242   4.145   1.153   1.430 -0.5875 -0.3241  0.3370
 3595SOL     OW22243   4.241   0.934  17.390  0.1126 -0.2511  0.3215
 3595SOL    HW122244   4.229   0.947  17.296 -1.6919  1.0527  0.7437
 3595SOL    HW222245   4.268   1.022  17.416  1.6031 -0.5118 -0.3171
 3596SOL     OW22246   1.393   2.005   7.906 -0.3635  0.3991  0.1268
 3596SOL    HW122247   1.456   1.936   7.925 -0.8794  0.5312  2.2502
 3596SOL    HW222248   1.360   2.038   7.990 -0.7726  0.8384 -0.2012
 3597SOL     OW22249   0.417   1.310   4.169  0.0348 -0.3990 -0.6716
 3597SOL    HW122250   0.497   1.349   4.204 -0.2318 -0.3876 -0.0781
 3597SOL    HW222251   0.377   1.383   4.122 -2.2681 -1.2330 -0.0127
 3598SOL     OW22252   4.287   3.354   6.646 -0.3395 -0.2650 -0.0649
 3598SOL    HW122253   4.233   3.431   6.664  0.8759  0.5152  0.2851
 3598SOL    HW222254   4.346   3.384   6.577 -0.4267  0.9024  0.3640
 3599SOL     OW22255   1.731   0.282  12.948  0.0818  0.2437  0.3816
 3599SOL    HW122256   1.712   0.375  12.941  0.6330  0.1505 -2.0438
 3599SOL    HW222257   1.758   0.258  12.860 -3.0030 -0.7706 -0.3127
 3600SOL     OW22258   1.199   3.924   7.459 -0.6163  0.4086  0.7366
 3600SOL    HW122259   1.287   3.890   7.474  0.8359  3.5605 -0.7332
 3600SOL    HW222260   1.208   3.968   7.374  2.6397 -0.4087  0.6780
 3601SOL     OW22261   0.862   4.042  15.467 -0.0493 -0.2626 -0.0631
 3601SOL    HW122262   0.800   3.975  15.495 -1.3250  0.6867 -0.5853
 3601SOL    HW222263   0.861   4.107  15.538  1.9761  1.5358 -1.6867
 3602SOL     OW22264   3.246   2.685   4.551  0.5164 -0.1262 -0.3306
 3602SOL    HW122265   3.294   2.748   4.605  0.3069  0.2889 -0.6306
 3602SOL    HW222266   3.213   2.739   4.479 -2.0562 -0.1332  0.8309
 3603SOL     OW22267   3.321   3.499   7.734 -0.0681  0.1232 -0.0486
 3603SOL    HW122268   3.360   3.413   7.754  0.4360  0.6883  1.3644
 3603SOL    HW222269   3.332   3.530   7.824  0.2845  0.0938 -0.0818
 3604SOL     OW22270   2.354   2.479   9.016 -0.2063 -0.6501 -0.0029
 3604SOL    HW122271   2.322   2.408   8.960  0.3254 -1.0355  0.1797
 3604SOL    HW222272   2.307   2.464   9.098 -0.2082 -0.7679 -0.0252
 3605SOL     OW22273   0.297   2.066  11.230  0.1168 -0.1559  0.0135
 3605SOL    HW122274   0.259   2.004  11.167 -2.7005  2.9161 -1.3351
 3605SOL    HW222275   0.382   2.022  11.233 -0.4404 -1.4030 -2.0992
 3606SOL     OW22276   1.886   2.687   1.968 -0.1043  0.0951 -0.1926
 3606SOL    HW122277   1.858   2.598   1.990 -0.3539 -0.0789 -1.2541
 3606SOL    HW222278   1.979   2.688   1.992 -0.4037 -3.3414  1.0803
 3607SOL     OW22279   3.745   0.707   5.632 -0.1415  0.3395  0.0317
 3607SOL    HW122280   3.677   0.640   5.625 -0.1365  0.4386 -0.9992
 3607SOL    HW222281   3.823   0.669   5.672  0.3250 -0.0994 -1.2928
 3608SOL     OW22282   3.968   2.266   6.276 -0.1537 -0.8843  0.2108
 3608SOL    HW122283   3.894   2.317   6.308  0.5078  0.8307 -0.9890
 3608SOL    HW222284   3.929   2.229   6.197 -2.2755  3.5724 -0.8224
 3609SOL     OW22285   0.227   4.591  12.624  0.3045  0.1980  0.5015
 3609SOL    HW122286   0.238   4.542  12.543 -1.0348 -1.8125  1.5169
 3609SOL    HW222287   0.264   4.677  12.603  1.4926 -0.2029  0.9335
 3610SOL     OW22288   2.583   4.168   5.971  0.1908  0.6910  0.4971
 3610SOL    HW122289   2.548   4.079   5.978  0.9309  0.1650 -2.6729
 3610SOL    HW222290   2.506   4.215   6.003 -1.0638 -0.4889 -0.7894
 3611SOL     OW22291   2.006   1.259   2.784 -0.1505  0.0070  0.0636
 3611SOL    HW122292   2.030   1.216   2.702  3.2780  0.4906  0.8133
 3611SOL    HW222293   2.087   1.306   2.801 -1.3392  1.9967  0.1779
 3612SOL     OW22294   0.186   1.940   6.686  0.3131  0.0348  0.5929
 3612SOL    HW122295   0.212   1.891   6.764 -0.2843 -1.2239 -0.0051
 3612SOL    HW222296   0.232   2.022   6.704  0.9530 -0.1083 -0.3785
 3613SOL     OW22297   4.378   0.819   8.851 -0.0846 -0.7455  0.1876
 3613SOL    HW122298   4.396   0.903   8.809  0.3576  0.0161  1.9249
 3613SOL    HW222299   4.402   0.832   8.942  3.4714 -0.8094 -0.7354
 3614SOL     OW22300   3.247   2.021  10.286  0.1977  1.0544 -0.3900
 3614SOL    HW122301   3.287   1.959  10.346 -2.0980  1.5414  1.6687
 3614SOL    HW222302   3.195   1.962  10.231  1.1246  1.3834 -1.6180
 3615SOL     OW22303   0.657   1.000  14.849 -0.2788 -0.5032 -0.5389
 3615SOL    HW122304   0.663   1.025  14.757 -0.4318  1.1362 -0.0971
 3615SOL    HW222305   0.748   1.011  14.879 -0.2655  2.2589 -1.5944
 3616SOL     OW22306   1.115   4.352   9.278  0.2708  0.5374 -0.4634
 3616SOL    HW122307   1.118   4.434   9.326 -2.3021 -0.5172  1.4872
 3616SOL    HW222308   1.135   4.293   9.350 -1.8899  0.7103  0.2598
 3617SOL     OW22309   0.797   3.710   7.649 -0.7514  0.1702 -0.1874
 3617SOL    HW122310   0.854   3.776   7.609  0.9634 -2.0174 -1.3088
 3617SOL    HW222311   0.736   3.707   7.576 -2.2235  0.0449  1.0445
 3618SOL     OW22312   3.221   1.494   3.412  0.5932  0.2206  0.4007
 3618SOL    HW122313   3.199   1.458   3.326  0.5449 -0.5372  0.7359
 3618SOL    HW222314   3.219   1.589   3.399 -0.5876  0.7382  4.5387
 3619SOL     OW22315   3.348   1.548   6.937  0.6593 -0.4229  0.1000
 3619SOL    HW122316   3.357   1.493   7.015  0.5824  0.5707  0.8162
 3619SOL    HW222317   3.256   1.542   6.913  1.3977  0.5929 -3.0295
 3620SOL     OW22318   0.107   4.681   2.860 -0.4133 -0.6136  0.3536
 3620SOL    HW122319   0.068   4.651   2.777 -1.1545  1.6132 -0.1110
 3620SOL    HW222320   0.072   4.625   2.929 -0.1635 -0.1770  0.8261
 3621SOL     OW22321   2.430   4.322   3.600 -0.3205  0.6965  0.5500
 3621SOL    HW122322   2.389   4.262   3.662  1.7193 -1.2369  0.0109
 3621SOL    HW222323   2.416   4.406   3.644  1.1883  1.5462 -0.6184
 3622SOL     OW22324   3.928   3.774  16.176 -0.3862  0.0558 -0.1206
 3622SOL    HW122325   3.868   3.814  16.113  0.7222  4.2495  1.5054
 3622SOL    HW222326   3.964   3.711  16.113 -0.7139 -0.3748  0.1250
 3623SOL     OW22327   1.316   1.417   3.133 -0.2692  0.6963  0.1543
 3623SOL    HW122328   1.291   1.497   3.179  2.3336  1.0737  0.9326
 3623SOL    HW222329   1.278   1.348   3.188 -0.0250  1.3481  1.1544
 3624SOL     OW22330   0.614   0.784   9.531 -0.3437  0.8640 -0.0653
 3624SOL    HW122331   0.525   0.754   9.515 -0.7631  1.3012  1.3813
 3624SOL    HW222332   0.660   0.747   9.456  0.7530  0.9699  0.5446
 3625SOL     OW22333   3.456   1.726  13.862  0.0391  0.0692  0.4454
 3625SOL    HW122334   3.542   1.762  13.840  0.5954 -1.5149  0.0044
 3625SOL    HW222335   3.481   1.660  13.926 -0.2973 -0.4780  0.0144
 3626SOL     OW22336   1.549   3.598   6.029 -0.0511 -0.1133  0.2643
 3626SOL    HW122337   1.627   3.596   6.085 -0.2833  0.1812  0.5940
 3626SOL    HW222338   1.495   3.538   6.081 -1.1758 -0.1119 -0.9113
 3627SOL     OW22339   4.655   1.816   4.106  0.2029  0.0259  0.1502
 3627SOL    HW122340   4.612   1.878   4.165  0.4052 -0.3408  0.6807
 3627SOL    HW222341   4.573   1.783   4.069  0.8219 -0.8094 -0.4932
 3628SOL     OW22342   3.384   2.627   3.599 -0.1023  0.4589  0.5768
 3628SOL    HW122343   3.337   2.584   3.529  0.3314 -0.6589  0.9736
 3628SOL    HW222344   3.468   2.591   3.572 -0.2480 -1.0230  2.1030
 3629SOL     OW22345   1.391   1.262   3.670  0.3037 -0.4359  0.4928
 3629SOL    HW122346   1.343   1.321   3.612  0.9928 -1.5600 -1.2184
 3629SOL    HW222347   1.389   1.322   3.745 -0.9605 -0.3032  0.3509
 3630SOL     OW22348   3.622   4.510   1.430 -0.4952  0.4280 -0.3767
 3630SOL    HW122349   3.583   4.593   1.403 -2.4492  0.0111  1.1362
 3630SOL    HW222350   3.676   4.532   1.506 -2.3551  1.5299  0.6287
 3631SOL     OW22351   2.039   2.474  17.566  0.8181  0.0854  0.6725
 3631SOL    HW122352   2.037   2.570  17.566 -3.1893 -0.0041  0.4449
 3631SOL    HW222353   2.132   2.460  17.582  0.7490  1.8355  2.6361
 3632SOL     OW22354   1.307   2.813   7.911  0.4488 -0.0296 -0.3585
 3632SOL    HW122355   1.354   2.881   7.864 -2.0464  2.3634  0.6172
 3632SOL    HW222356   1.254   2.783   7.837 -0.7183  1.0418  0.0514
 3633SOL     OW22357   1.751   0.481   4.472 -0.3369 -0.0888  0.4760
 3633SOL    HW122358   1.821   0.493   4.407 -0.2222  1.9922  0.9844
 3633SOL    HW222359   1.693   0.412   4.439  0.0307 -0.5182  0.7366
 3634SOL     OW22360   2.624   4.680   4.397 -0.0625 -0.0583  0.1022
 3634SOL    HW122361   2.602   4.653   4.308 -1.6779 -2.9857  1.4227
 3634SOL    HW222362   2.565   0.031   4.416 -0.0176  0.2655 -1.0295
 3635SOL     OW22363   1.633   0.928  17.361  0.0914  0.2069 -0.4246
 3635SOL    HW122364   1.691   0.933  17.437  0.2411  0.1154 -0.5323
 3635SOL    HW222365   1.598   1.017  17.366  2.6601  1.1901 -0.0477
 3636SOL     OW22366   2.289   2.956  16.214 -0.0996  0.0341 -0.2417
 3636SOL    HW122367   2.231   2.903  16.268  1.1642  0.0839  1.1594
 3636SOL    HW222368   2.297   2.899  16.138  0.6863 -0.8099  0.4787
 3637SOL     OW22369   2.907   2.366   3.862  0.2929  0.6059  0.2528
 3637SOL    HW122370   2.922   2.285   3.812 -0.8166  0.0304  0.8408
 3637SOL    HW222371   2.820   2.398   3.840  0.4431  1.6041  1.1124
 3638SOL     OW22372   4.533   0.921  14.146 -0.2842 -0.2023 -0.1602
 3638SOL    HW122373   4.610   0.975  14.125  0.4674 -1.7288 -1.4158
 3638SOL    HW222374   4.494   0.932  14.059  1.1323  2.7684 -0.4427
 3639SOL     OW22375   1.159   1.958   4.831  0.2106 -0.2280  0.3810
 3639SOL    HW122376   1.092   1.968   4.898 -2.5463 -0.7631 -2.2629
 3639SOL    HW222377   1.226   2.014   4.868 -0.3056 -0.0428  1.0416
 3640SOL     OW22378   0.646   4.672   6.606  0.2891 -0.0359  0.0930
 3640SOL    HW122379   0.729   4.628   6.588 -0.2244 -0.6131 -0.8438
 3640SOL    HW222380   0.646   4.664   6.701 -1.2693  2.1374  0.2717
 3641SOL     OW22381   0.761   2.706   5.214  0.7790 -0.0906 -0.3945
 3641SOL    HW122382   0.783   2.664   5.297  0.2362  1.0897  0.3430
 3641SOL    HW222383   0.786   2.635   5.154 -0.5443  1.0010 -2.2357
 3642SOL     OW22384   1.212   1.485   1.837 -0.1120 -0.3146 -0.1793
 3642SOL    HW122385   1.216   1.453   1.747 -0.7633  0.1154 -0.3596
 3642SOL    HW222386   1.275   1.426   1.878  0.6645  0.4657 -0.2555
 3643SOL     OW22387   3.173   3.510   4.952 -0.2751 -0.2621  0.6465
 3643SOL    HW122388   3.088   3.529   4.912 -0.0358 -0.9343 -0.1691
 3643SOL    HW222389   3.165   3.415   4.949  0.1270 -0.2345 -1.3873
 3644SOL     OW22390   3.103   0.884  10.258 -0.2604  1.0048 -0.1986
 3644SOL    HW122391   3.142   0.808  10.302 -1.3400 -0.3422 -1.5862
 3644SOL    HW222392   3.177   0.941  10.279  0.6059 -0.6401  1.2932
 3645SOL     OW22393   3.937   0.557   4.159 -0.4743 -0.3662 -1.0022
 3645SOL    HW122394   3.976   0.630   4.206  0.4479 -2.2117  1.1155
 3645SOL    HW222395   3.890   0.618   4.102  0.2085  0.7301 -0.3899
 3646SOL     OW22396   2.093   3.580   7.964  0.0018 -0.0701  0.3367
 3646SOL    HW122397   2.099   3.567   8.058 -0.8594 -2.1443  0.1089
 3646SOL    HW222398   2.086   3.491   7.929  1.2330  1.2604 -3.3562
 3647SOL     OW22399   2.490   0.504   9.069 -0.1648  0.1715 -0.1496
 3647SOL    HW122400   2.514   0.528   8.979 -0.4170 -1.9637 -0.7781
 3647SOL    HW222401   2.430   0.432   9.052 -1.1607  1.1065 -0.5939
 3648SOL     OW22402   3.677   4.194   4.531  0.1591  0.3106 -0.5876
 3648SOL    HW122403   3.601   4.140   4.509  0.4181 -0.0245 -0.6604
 3648SOL    HW222404   3.700   4.159   4.616 -0.4494  1.1464 -0.0736
 3649SOL     OW22405   3.598   4.399   2.230  0.2454  0.0510  0.2823
 3649SOL    HW122406   3.653   4.337   2.182 -1.4036 -1.8532  0.8332
 3649SOL    HW222407   3.652   4.468   2.269  2.1723 -1.1196 -0.3373
 3650SOL     OW22408   0.167   2.654  15.678  0.2113 -1.0507 -0.5476
 3650SOL    HW122409   0.211   2.571  15.660  1.0454 -0.1360 -2.7008
 3650SOL    HW222410   0.080   2.624  15.703 -0.0510 -0.4883 -0.7837
 3651SOL     OW22411   1.047   0.995   5.826  0.1124 -0.3034  0.0403
 3651SOL    HW122412   0.994   0.990   5.906 -0.5090 -1.1760 -0.4351
 3651SOL    HW222413   1.075   0.904   5.815 -0.4751 -0.1698 -2.5268
 3652SOL     OW22414   3.143   1.959   2.273  0.2118  0.8620 -0.2859
 3652SOL    HW122415   3.159   1.921   2.186 -0.5613  0.5435 -0.2863
 3652SOL    HW222416   3.054   1.994   2.265  1.1530  3.7263  1.8977
 3653SOL     OW22417   0.772   2.411   0.044  0.5210  0.6293  0.1007
 3653SOL    HW122418   0.808   2.479  17.678  1.8382  0.9217  1.2502
 3653SOL    HW222419   0.774   2.331  17.684  0.0563 -0.0708  1.1681
 3654SOL     OW22420   0.249   0.275   3.924  0.3857 -0.6186 -0.2429
 3654SOL    HW122421   0.232   0.366   3.899 -0.5741 -0.9672 -0.8816
 3654SOL    HW222422   0.344   0.276   3.908  0.7740 -2.2612  2.0195
 3655SOL     OW22423   0.342   1.529  11.250  0.1407 -0.7411 -0.4167
 3655SOL    HW122424   0.299   1.586  11.187  2.5275 -0.2444 -1.5983
 3655SOL    HW222425   0.406   1.499  11.185 -0.2093  0.5792 -1.3571
 3656SOL     OW22426   1.176   2.937   6.186  0.0135 -0.2976 -0.0535
 3656SOL    HW122427   1.091   2.906   6.155 -1.0352  1.0583  1.4832
 3656SOL    HW222428   1.231   2.874   6.139 -0.2673 -1.1308  0.7187
 3657SOL     OW22429   0.444   2.266   8.316  0.6360  0.0186  0.2360
 3657SOL    HW122430   0.501   2.247   8.242 -0.1485  0.6775 -0.5270
 3657SOL    HW222431   0.361   2.300   8.282  0.2941  1.0368  2.0913
 3658SOL     OW22432   1.453   2.619   0.457 -0.0513  0.0311 -0.3999
 3658SOL    HW122433   1.440   2.532   0.496 -0.6209  0.4321  0.3184
 3658SOL    HW222434   1.408   2.677   0.519 -3.7746 -2.3252 -0.9286
 3659SOL     OW22435   1.931   0.995   9.501 -0.1394 -0.2995 -0.1332
 3659SOL    HW122436   1.867   0.932   9.469 -0.9416  0.4371 -0.0098
 3659SOL    HW222437   1.875   1.044   9.563 -1.2206 -1.5003 -0.1510
 3660SOL     OW22438   4.316   0.390   5.677 -0.1042 -0.3515  0.0844
 3660SOL    HW122439   4.363   0.463   5.637 -2.6146  0.4339 -1.4359
 3660SOL    HW222440   4.262   0.437   5.741  0.1690 -0.3338  0.2997
 3661SOL     OW22441   1.812   3.793   1.095  0.5932 -0.0940 -0.1413
 3661SOL    HW122442   1.894   3.844   1.089 -0.9331  2.4842  0.9926
 3661SOL    HW222443   1.847   3.708   1.120 -2.6791 -1.6070 -0.7342
 3662SOL     OW22444   3.487   4.486   5.781 -0.1763  0.5251 -0.6214
 3662SOL    HW122445   3.568   4.517   5.739  0.9405  0.7324  1.6647
 3662SOL    HW222446   3.522   4.402   5.812 -2.1431 -1.1403 -2.8899
 3663SOL     OW22447   1.042   1.151   3.983 -0.4246  0.0363  0.0015
 3663SOL    HW122448   1.122   1.123   3.939 -0.1038 -1.1844  1.3770
 3663SOL    HW222449   0.998   1.207   3.918 -0.4075  0.0475 -0.0004
 3664SOL     OW22450   0.566   0.067   1.014 -0.0903 -0.2877  0.4675
 3664SOL    HW122451   0.554   4.702   0.976 -0.2139  0.6312 -1.6164
 3664SOL    HW222452   0.538   0.046   1.103  0.7342  1.9492  1.2466
 3665SOL     OW22453   2.187   4.043   4.726  0.2690  0.4617  0.2842
 3665SOL    HW122454   2.227   3.967   4.770 -4.9980 -1.8104  1.1712
 3665SOL    HW222455   2.184   4.096   4.806  1.5085  0.3916  0.3846
 3666SOL     OW22456   1.550   2.609   0.944  0.4619  0.1015  0.2100
 3666SOL    HW122457   1.574   2.665   0.871  0.5573 -0.5314 -0.2481
 3666SOL    HW222458   1.614   2.539   0.930  0.7383  0.7157 -1.5609
 3667SOL     OW22459   2.548   2.365  17.343 -0.0202 -0.1507 -0.0302
 3667SOL    HW122460   2.632   2.398  17.310 -0.9787  2.6042  0.2411
 3667SOL    HW222461   2.567   2.293  17.402  1.8382  2.5217  2.5717
 3668SOL     OW22462   1.344   0.549   9.824 -0.5693 -0.4733 -0.4127
 3668SOL    HW122463   1.326   0.642   9.810  1.2641 -0.0882 -0.2487
 3668SOL    HW222464   1.430   0.568   9.862 -0.5276  0.2077 -0.8516
 3669SOL     OW22465   2.118   2.583  16.669 -0.7599  0.0064 -0.2180
 3669SOL    HW122466   2.212   2.566  16.657 -0.4318  1.2569  0.5897
 3669SOL    HW222467   2.124   2.678  16.662 -0.1500  0.1462  1.9484
 3670SOL     OW22468   4.108   1.975   3.089  0.3091  0.4282 -0.5654
 3670SOL    HW122469   4.168   2.006   3.020 -1.8370  3.4857 -1.0532
 3670SOL    HW222470   4.137   1.886   3.110 -2.4806  0.2425  2.4315
 3671SOL     OW22471   3.280   3.012  17.146 -0.1911 -0.5300  0.0146
 3671SOL    HW122472   3.242   2.995  17.060  2.6034 -2.0103 -0.9155
 3671SOL    HW222473   3.200   3.011  17.199 -0.4878  0.7891 -0.3894
 3672SOL     OW22474   2.396   1.247   4.375  0.0495 -0.4236  0.4800
 3672SOL    HW122475   2.317   1.299   4.360 -0.4645 -1.4201 -0.2540
 3672SOL    HW222476   2.358   1.184   4.435 -1.0134  0.0196  0.2782
 3673SOL     OW22477   2.505   3.659   6.437 -0.4367 -0.5301  0.0505
 3673SOL    HW122478   2.591   3.638   6.474 -0.0261 -0.6726 -0.9890
 3673SOL    HW222479   2.466   3.697   6.516  0.3705  0.7763 -0.1659
 3674SOL     OW22480   3.787   1.373   6.197  0.9324 -0.1989 -0.4777
 3674SOL    HW122481   3.776   1.436   6.127 -0.1682 -0.5221 -0.5858
 3674SOL    HW222482   3.700   1.334   6.197  0.1289  1.6068 -1.9289
 3675SOL     OW22483   3.412   4.381  14.734  0.1515  0.1588  0.5754
 3675SOL    HW122484   3.452   4.468  14.743 -0.4848  0.4360  0.7465
 3675SOL    HW222485   3.427   4.371  14.640  1.8572  5.3732  0.3293
 3676SOL     OW22486   3.746   4.000   5.723  0.1528  0.3575 -0.1760
 3676SOL    HW122487   3.754   3.980   5.817  4.0229 -2.8210 -1.2095
 3676SOL    HW222488   3.701   4.084   5.727  0.0158  0.2105  1.6774
 3677SOL     OW22489   2.645   0.437   4.304 -0.3898 -0.4774  0.3541
 3677SOL    HW122490   2.566   0.461   4.353  0.5226  1.1653  1.0212
 3677SOL    HW222491   2.610   0.374   4.242  1.7476 -0.5685 -0.7512
 3678SOL     OW22492   1.278   2.824   5.821  0.1118 -0.1490  0.3045
 3678SOL    HW122493   1.288   2.768   5.898 -0.9090 -0.5573  0.1500
 3678SOL    HW222494   1.223   2.900   5.841  0.4572  0.1509  0.0973
 3679SOL     OW22495   0.543   1.739   4.712  0.5105  0.5943 -0.1555
 3679SOL    HW122496   0.549   1.660   4.766 -0.6672 -1.7499 -3.4804
 3679SOL    HW222497   0.564   1.701   4.627  0.4359 -2.3822  1.1552
 3680SOL     OW22498   2.262   3.633  11.822  0.5228  0.7004 -0.1210
 3680SOL    HW122499   2.230   3.544  11.810  0.2043  0.5445  1.8862
 3680SOL    HW222500   2.225   3.677  11.746 -1.9295 -0.5652  0.3484
 3681SOL     OW22501   4.338   4.036   3.772  0.6154  0.2756 -0.2261
 3681SOL    HW122502   4.245   4.041   3.749  0.6785 -0.3551 -0.6099
 3681SOL    HW222503   4.369   3.985   3.697  1.2987  2.8984 -1.7094
 3682SOL     OW22504   1.079   2.387   3.706 -0.0032  0.2006  0.0884
 3682SOL    HW122505   1.074   2.478   3.737 -2.5460  0.6735 -1.6577
 3682SOL    HW222506   1.009   2.341   3.752  1.9530 -1.2316  1.6058
 3683SOL     OW22507   0.575   4.160   2.822 -0.6349  0.1395 -0.3152
 3683SOL    HW122508   0.492   4.203   2.842 -0.1517  0.6675  0.5396
 3683SOL    HW222509   0.620   4.170   2.906  0.4223 -0.3823 -0.8105
 3684SOL     OW22510   1.630   3.077   9.170 -0.0606  0.0286 -0.2590
 3684SOL    HW122511   1.595   2.993   9.139 -0.5824  0.5308 -1.0463
 3684SOL    HW222512   1.669   3.113   9.090 -3.6609  1.9245 -1.1980
 3685SOL     OW22513   3.087   3.054   3.583  0.4332  0.1337 -0.1128
 3685SOL    HW122514   3.042   3.036   3.501  1.1691 -1.2516 -0.2203
 3685SOL    HW222515   3.113   3.145   3.573 -1.6539  0.5660 -1.4894
 3686SOL     OW22516   3.589   2.120  15.994 -0.2228 -0.0811  0.4361
 3686SOL    HW122517   3.531   2.063  15.943 -0.4584  0.6442 -0.1053
 3686SOL    HW222518   3.669   2.103  15.945 -0.7178  0.1028 -0.4245
 3687SOL     OW22519   0.543   2.978   4.877  0.4944 -0.3630  0.5508
 3687SOL    HW122520   0.584   2.996   4.961 -0.5297 -0.7771  1.1513
 3687SOL    HW222521   0.449   2.986   4.895  0.5802  2.4568 -0.3744
 3688SOL     OW22522   3.242   0.232   6.307  0.1900 -0.6805 -1.0857
 3688SOL    HW122523   3.183   0.244   6.233 -0.7500  0.0495 -0.2062
 3688SOL    HW222524   3.323   0.252   6.259  0.7412 -2.2506 -0.8287
 3689SOL     OW22525   0.186   0.523   4.139 -0.0311 -0.1767 -0.0609
 3689SOL    HW122526   0.259   0.538   4.200  1.2457  0.4106 -1.7306
 3689SOL    HW222527   0.231   0.523   4.055  1.8633 -3.3458  0.9526
 3690SOL     OW22528   2.711   4.567   9.754  0.3221  0.3977  0.5989
 3690SOL    HW122529   2.624   4.605   9.760  0.4737  0.4320  2.7252
 3690SOL    HW222530   2.742   4.609   9.674  0.4024  0.4341  0.6487
 3691SOL     OW22531   4.050   3.151   1.991  0.1664  0.4634  0.4968
 3691SOL    HW122532   3.997   3.131   2.068  0.1056 -0.4702  0.2140
 3691SOL    HW222533   4.059   3.063   1.953  0.2538  0.6176  0.1602
 3692SOL     OW22534   2.539   3.731  16.251  0.3614  0.1027 -0.0262
 3692SOL    HW122535   2.633   3.718  16.251  0.6077  1.8280 -2.8535
 3692SOL    HW222536   2.527   3.689  16.166 -0.9529  0.5819 -0.0841
 3693SOL     OW22537   1.769   0.733   0.837  0.6550 -0.1506  0.2868
 3693SOL    HW122538   1.811   0.774   0.761  0.5439 -0.5330  0.0167
 3693SOL    HW222539   1.737   0.806   0.890  0.5383 -0.8674  1.2061
 3694SOL     OW22540   0.227   2.058   6.121  0.1517 -0.8942  0.3140
 3694SOL    HW122541   0.195   2.043   6.209 -0.4680  0.8994  0.3935
 3694SOL    HW222542   0.313   2.094   6.143  1.4372 -2.7547 -1.5992
 3695SOL     OW22543   3.621   4.617   5.114  0.5065 -0.2468 -0.1825
 3695SOL    HW122544   3.545   4.566   5.087  0.6578 -0.5115 -0.1134
 3695SOL    HW222545   3.607   4.625   5.209  0.1936 -0.2665 -0.2268
 3696SOL     OW22546   0.331   0.409   0.138  0.5760  0.3905  0.3160
 3696SOL    HW122547   0.426   0.412   0.148  0.3931  1.1948  1.7766
 3696SOL    HW222548   0.309   0.441   0.225 -0.6368 -2.0973  0.9232
 3697SOL     OW22549   1.208   0.223  16.110  0.4170  0.5127 -0.4077
 3697SOL    HW122550   1.286   0.278  16.104 -0.0164  1.1463 -0.2906
 3697SOL    HW222551   1.142   0.289  16.090 -2.9134 -2.5230  0.5039
 3698SOL     OW22552   0.357   4.285   3.761  0.2930 -0.1470 -0.1837
 3698SOL    HW122553   0.453   4.288   3.762  0.2208  2.1037  0.4464
 3698SOL    HW222554   0.330   4.286   3.670  0.2662 -0.5908 -0.1777
 3699SOL     OW22555   2.524   2.643   2.735 -0.0323 -0.2604  0.7784
 3699SOL    HW122556   2.616   2.618   2.724  0.5706  1.2576  2.2439
 3699SOL    HW222557   2.518   2.738   2.739  1.0624 -0.2113  1.3688
 3700SOL     OW22558   0.173   4.086   1.996 -0.0143 -0.5470  0.4132
 3700SOL    HW122559   0.268   4.091   2.009  0.0776  0.1630 -0.5475
 3700SOL    HW222560   0.148   4.178   1.998  0.3578 -0.4519  0.8515
 3701SOL     OW22561   2.307   3.049   0.558  0.4738  0.1673 -0.3503
 3701SOL    HW122562   2.236   3.077   0.501 -0.8079 -2.4105  0.0091
 3701SOL    HW222563   2.343   2.973   0.513 -1.2147 -1.4059  0.9960
 3702SOL     OW22564   3.033   4.675  13.390 -0.0232  0.4417  0.1808
 3702SOL    HW122565   3.067   4.645  13.474 -2.9678  1.7653  1.8302
 3702SOL    HW222566   3.085   4.637  13.319  0.2950  0.6942  0.2814
 3703SOL     OW22567   2.936   3.468   0.234  0.3414  0.1380 -0.4175
 3703SOL    HW122568   2.964   3.442   0.321  0.7725 -1.3183 -0.9909
 3703SOL    HW222569   2.854   3.421   0.218 -0.1131  0.9954 -0.6250
 3704SOL     OW22570   2.453   3.112   4.635  0.0725  0.1990  0.0170
 3704SOL    HW122571   2.391   3.052   4.677  0.0296  0.0829 -0.2142
 3704SOL    HW222572   2.479   3.059   4.560 -0.5267 -0.2421  0.1188
 3705SOL     OW22573   1.633   3.536   0.386 -0.0090 -0.5658 -0.2911
 3705SOL    HW122574   1.670   3.570   0.305 -0.7034 -0.8120 -0.7147
 3705SOL    HW222575   1.625   3.606   0.451  1.4404 -0.7907  0.1132
 3706SOL     OW22576   0.359   3.233   3.609  0.1998 -0.3572 -0.2185
 3706SOL    HW122577   0.342   3.312   3.558 -1.5456 -1.8233 -1.8908
 3706SOL    HW222578   0.362   3.277   3.694  0.1027  0.7218 -0.7774
 3707SOL     OW22579   1.850   1.466   4.304 -0.1434  0.5439 -0.0445
 3707SOL    HW122580   1.833   1.462   4.210 -0.1183  2.6875 -0.1264
 3707SOL    HW222581   1.931   1.420   4.326  1.2005  2.5005 -0.9613
 3708SOL     OW22582   0.945   2.420   7.776  0.1374  0.0956  0.3979
 3708SOL    HW122583   1.015   2.444   7.715 -0.3116 -1.2334 -0.6679
 3708SOL    HW222584   0.983   2.465   7.851 -0.8795  0.8420  0.4622
 3709SOL     OW22585   0.420   1.827   3.947  0.0703  0.5600  0.0904
 3709SOL    HW122586   0.378   1.871   3.873  0.1247  0.7888  0.1950
 3709SOL    HW222587   0.367   1.859   4.020 -0.6668  0.5852 -0.4496
 3710SOL     OW22588   0.101   1.788   7.085 -0.2732  0.1811  0.0786
 3710SOL    HW122589   0.100   1.699   7.049  1.2360  1.1238 -2.2340
 3710SOL    HW222590   0.052   1.775   7.167  1.5101 -1.4555  0.8916
 3711SOL     OW22591   1.926   0.048   2.430 -0.2195 -0.5284 -0.4753
 3711SOL    HW122592   1.878   4.718   2.366 -0.2223  0.4847 -1.3138
 3711SOL    HW222593   1.900   0.001   2.509  1.9784 -2.2167 -0.7626
 3712SOL     OW22594   2.672   1.136   3.057  0.0567 -0.5199 -0.4706
 3712SOL    HW122595   2.759   1.160   3.088  0.5183  0.3814 -2.5014
 3712SOL    HW222596   2.643   1.094   3.139 -1.4449 -0.2661 -0.8810
 3713SOL     OW22597   4.161   4.501  16.270 -0.1223 -0.0385  0.4684
 3713SOL    HW122598   4.119   4.581  16.302  2.5451  2.1585 -1.5483
 3713SOL    HW222599   4.107   4.497  16.191  0.4000 -2.5467  0.2508
 3714SOL     OW22600   3.974   0.460  14.177  0.2887  0.4507 -0.0827
 3714SOL    HW122601   4.028   0.381  14.175 -0.5826 -0.1334 -0.5577
 3714SOL    HW222602   3.889   0.446  14.134  0.0882 -2.9405  1.3810
 3715SOL     OW22603   1.991   0.016   2.840 -0.1186 -0.5778  0.0620
 3715SOL    HW122604   2.058   4.673   2.822 -0.0102 -0.3576 -0.3208
 3715SOL    HW222605   2.040   0.081   2.890 -0.8637  0.5976 -0.7411
 3716SOL     OW22606   4.411   0.405   8.727 -0.5307 -0.9057 -0.1001
 3716SOL    HW122607   4.460   0.456   8.792  2.3300 -0.8778 -2.2920
 3716SOL    HW222608   4.398   0.480   8.668 -1.1684 -1.6441 -0.8967
 3717SOL     OW22609   0.770   4.269   5.556  0.3392 -0.4233 -0.4026
 3717SOL    HW122610   0.715   4.253   5.632  1.1383  0.8947  0.4542
 3717SOL    HW222611   0.838   4.314   5.607 -2.0219  0.0899  2.2803
 3718SOL     OW22612   2.375   2.284  13.790 -0.2492 -0.1416 -0.2888
 3718SOL    HW122613   2.313   2.323  13.729  1.3488  1.7288 -0.7317
 3718SOL    HW222614   2.338   2.197  13.782 -1.7364  0.4854 -0.2274
 3719SOL     OW22615   4.006   4.383   6.926 -0.2575  0.3361 -0.3379
 3719SOL    HW122616   4.078   4.381   6.863  0.7620  1.4229  0.7901
 3719SOL    HW222617   3.933   4.391   6.864 -1.3825  0.7112  1.0344
 3720SOL     OW22618   2.195   1.596   4.555 -0.1377 -0.0193 -0.5376
 3720SOL    HW122619   2.177   1.575   4.647  1.8778 -0.0553 -0.1640
 3720SOL    HW222620   2.107   1.593   4.517 -0.2679  0.8920 -0.3258
 3721SOL     OW22621   4.585   4.612  13.961  0.4324 -0.1014  0.2221
 3721SOL    HW122622   4.565   4.644  14.049 -2.9963 -1.5390 -0.0313
 3721SOL    HW222623   4.619   4.524  13.978  0.6729  0.6147  3.3436
 3722SOL     OW22624   0.003   3.024   4.489  0.4650 -0.0899  0.2047
 3722SOL    HW122625   0.003   2.958   4.420  0.9379  1.5594 -1.3665
 3722SOL    HW222626   0.026   3.098   4.433  2.4084  0.6474  1.9342
 3723SOL     OW22627   3.558   0.095   3.449 -0.0203  0.4394 -0.5676
 3723SOL    HW122628   3.646   0.099   3.484 -1.1663 -0.0102  2.3359
 3723SOL    HW222629   3.565   0.163   3.382 -0.2218  0.7538 -0.2686
 3724SOL     OW22630   1.500   3.090   3.852  0.5905 -0.5693 -0.2347
 3724SOL    HW122631   1.559   3.158   3.818  0.9789 -0.9186 -0.2630
 3724SOL    HW222632   1.499   3.027   3.780  1.8712 -0.7319 -0.1253
 3725SOL     OW22633   0.637   2.680   7.509 -0.1038  0.4612  0.0257
 3725SOL    HW122634   0.560   2.734   7.490  0.8343  1.8708  0.2201
 3725SOL    HW222635   0.685   2.754   7.546  0.7390 -0.6768  1.2182
 3726SOL     OW22636   1.667   3.121  11.192  0.2030  0.4833 -0.2287
 3726SOL    HW122637   1.591   3.164  11.229  0.8455  2.6689 -1.4540
 3726SOL    HW222638   1.696   3.183  11.125  0.4629 -0.7460 -1.2717
 3727SOL     OW22639   0.982   3.285   0.542 -0.2867 -0.0730  0.3155
 3727SOL    HW122640   1.024   3.202   0.522 -2.0114 -0.7373 -0.5938
 3727SOL    HW222641   0.901   3.251   0.582  0.1054  0.7557  1.8024
 3728SOL     OW22642   0.346   2.676   5.146 -0.2591 -0.0837 -0.0749
 3728SOL    HW122643   0.369   2.646   5.058 -1.8846 -2.1563  0.2288
 3728SOL    HW222644   0.251   2.692   5.147 -0.0713  1.0551  0.1011
 3729SOL     OW22645   1.910   0.826  15.021  0.3641 -0.4797 -0.0027
 3729SOL    HW122646   1.929   0.830  14.928  0.7715 -1.1624  0.0481
 3729SOL    HW222647   1.832   0.881  15.021  1.4384  1.0558  0.6484
 3730SOL     OW22648   0.968   4.626   5.120  0.5822  0.2176 -0.2431
 3730SOL    HW122649   0.924   4.706   5.092  1.6342  0.9705  0.2733
 3730SOL    HW222650   1.000   4.659   5.204  0.5677  0.9281 -0.5212
 3731SOL     OW22651   2.741   3.441   8.490  0.2740  0.2657 -0.5535
 3731SOL    HW122652   2.759   3.355   8.527 -0.2292 -0.9161 -3.1043
 3731SOL    HW222653   2.820   3.480   8.529 -0.3277  1.0897 -0.1535
 3732SOL     OW22654   0.144   4.404   2.340  0.0634  0.5763 -0.2915
 3732SOL    HW122655   0.121   4.324   2.292 -1.7579  1.3207 -0.6496
 3732SOL    HW222656   0.239   4.406   2.341  0.0691  1.1182 -2.5001
 3733SOL     OW22657   1.338   4.694  17.443  0.8306  0.2976 -0.0039
 3733SOL    HW122658   1.366   4.653  17.361 -0.5906 -1.1325  0.2384
 3733SOL    HW222659   1.289   4.632  17.497  0.1769 -0.2670 -1.2453
 3734SOL     OW22660   0.727   2.838  10.711 -0.7650  0.0333 -0.2445
 3734SOL    HW122661   0.704   2.768  10.650 -0.0979 -0.1626 -0.2697
 3734SOL    HW222662   0.804   2.797  10.751 -0.9154 -0.2134 -0.2073
 3735SOL     OW22663   0.215   1.268   6.213 -0.2200 -0.0907 -0.3921
 3735SOL    HW122664   0.168   1.293   6.134  1.5156 -0.6250 -1.5981
 3735SOL    HW222665   0.160   1.195   6.238  0.7816 -0.9944 -0.8056
 3736SOL     OW22666   2.088   4.524  11.121  0.0261 -0.2430 -0.0707
 3736SOL    HW122667   2.176   4.559  11.128 -0.1861  0.2348  0.1822
 3736SOL    HW222668   2.041   4.588  11.174  1.2584  1.2251 -0.7744
 3737SOL     OW22669   0.249   2.985  17.469 -1.0483  0.2151  0.1455
 3737SOL    HW122670   0.292   3.070  17.480 -1.9229  0.7008 -0.1144
 3737SOL    HW222671   0.159   3.005  17.495 -1.6418 -2.5681  0.2047
 3738SOL     OW22672   0.167   3.338  12.611 -0.4214 -0.0299 -0.0038
 3738SOL    HW122673   0.090   3.357  12.556  0.9360  0.4275 -1.7401
 3738SOL    HW222674   0.234   3.315  12.547  0.2280 -1.3458  1.1583
 3739SOL     OW22675   1.854   3.064   0.801 -0.9866  0.2508 -0.6780
 3739SOL    HW122676   1.917   3.067   0.730 -1.2950 -3.3441 -1.0965
 3739SOL    HW222677   1.879   2.997   0.866  3.2590  0.4382 -2.1434
 3740SOL     OW22678   0.315   1.603   7.911  0.4340  0.2667 -0.1777
 3740SOL    HW122679   0.375   1.571   7.844 -0.5672  0.2415 -1.0535
 3740SOL    HW222680   0.230   1.615   7.870  0.6858  1.0918 -0.4719
 3741SOL     OW22681   2.581   4.062   9.184  0.1566 -0.2330 -0.5404
 3741SOL    HW122682   2.574   4.018   9.268  0.0934  1.6365  0.4448
 3741SOL    HW222683   2.670   4.044   9.153  0.0411  0.0934 -1.0688
 3742SOL     OW22684   1.189   1.570  12.600 -0.2135 -0.0390 -0.3493
 3742SOL    HW122685   1.145   1.521  12.531  0.5524 -0.7217 -0.3567
 3742SOL    HW222686   1.158   1.529  12.681 -0.2664  3.6228  1.4888
 3743SOL     OW22687   2.355   1.798   6.013  0.2883  0.3530 -1.0878
 3743SOL    HW122688   2.348   1.892   6.031 -1.5914 -0.4529  2.4530
 3743SOL    HW222689   2.272   1.786   5.967 -0.4592 -0.7795  0.5587
 3744SOL     OW22690   0.863   2.822   0.857 -0.0150 -0.1792 -0.3067
 3744SOL    HW122691   0.770   2.841   0.873  0.0111  0.4537 -0.9291
 3744SOL    HW222692   0.849   2.757   0.788  1.6265 -1.0964  0.2255
 3745SOL     OW22693   3.804   0.361   1.669 -0.0889 -0.0616 -0.4318
 3745SOL    HW122694   3.805   0.278   1.621 -4.1017  0.2696 -1.0852
 3745SOL    HW222695   3.811   0.335   1.761 -2.0973 -1.2673 -0.6149
 3746SOL     OW22696   3.286   4.033   3.909 -0.0752  0.3726  0.3795
 3746SOL    HW122697   3.350   4.005   3.974 -0.2854  1.1366  0.9066
 3746SOL    HW222698   3.315   4.003   3.822 -1.0871  0.1108  0.1336
 3747SOL     OW22699   2.989   3.396   8.544 -0.3573  0.0427  0.3919
 3747SOL    HW122700   3.078   3.423   8.521  0.6908 -2.7686  1.1678
 3747SOL    HW222701   2.995   3.374   8.637  3.2124  0.8787  0.3484
 3748SOL     OW22702   0.162   3.618   6.541 -0.2767  0.0234  0.1865
 3748SOL    HW122703   0.232   3.645   6.481  1.7937 -4.0591  0.7430
 3748SOL    HW222704   0.143   3.525   6.523 -2.8301  0.5050  0.3822
 3749SOL     OW22705   1.243   0.599   2.439 -0.3849 -0.4911 -0.2780
 3749SOL    HW122706   1.172   0.652   2.474 -1.2925 -1.6820 -0.2957
 3749SOL    HW222707   1.233   0.525   2.500 -1.8404 -1.3983 -1.6000
 3750SOL     OW22708   3.791   4.323   3.158 -1.1465 -0.3523  0.1313
 3750SOL    HW122709   3.774   4.298   3.249  0.4123 -0.3846  0.4089
 3750SOL    HW222710   3.730   4.264   3.114 -1.2596 -0.2209  0.1085
 3751SOL     OW22711   1.495   1.028   6.255  0.6958  0.0854  0.2465
 3751SOL    HW122712   1.565   0.993   6.309  0.7748 -0.3622 -0.1415
 3751SOL    HW222713   1.474   1.110   6.300 -2.2602 -0.8347  0.5670
 3752SOL     OW22714   4.429   2.796   3.043 -0.6443 -0.3637  0.1110
 3752SOL    HW122715   4.418   2.808   3.138 -1.3574 -1.4998  0.1751
 3752SOL    HW222716   4.377   2.865   3.001 -0.0876  1.4546  2.4164
 3753SOL     OW22717   2.024   2.582   2.575 -0.2521  0.6966  0.1630
 3753SOL    HW122718   2.087   2.622   2.635  2.8937 -1.0189 -2.0010
 3753SOL    HW222719   1.945   2.583   2.630 -1.2674  0.8468 -1.2951
 3754SOL     OW22720   1.195   0.360   5.151  0.0593  0.1114  0.2398
 3754SOL    HW122721   1.132   0.347   5.222 -0.5659  0.1084 -0.3228
 3754SOL    HW222722   1.261   0.400   5.208  1.2825 -1.1750 -0.2858
 3755SOL     OW22723   4.569   3.726   4.149  0.1148  0.1444 -0.2343
 3755SOL    HW122724   4.636   3.659   4.137 -0.1671 -0.1736 -0.0542
 3755SOL    HW222725   4.534   3.700   4.234 -2.4459 -1.6110 -1.8433
 3756SOL     OW22726   1.372   1.416   6.233 -0.0790 -0.0483  1.2059
 3756SOL    HW122727   1.410   1.337   6.272  0.8798 -0.3186 -0.2543
 3756SOL    HW222728   1.364   1.469   6.312  2.2721  2.6251 -0.3715
 3757SOL     OW22729   3.754   0.878   7.669 -0.9441  0.4286  0.6775
 3757SOL    HW122730   3.781   0.952   7.723 -0.2214 -0.7216  1.8813
 3757SOL    HW222731   3.768   0.805   7.729  1.6651 -0.4113 -0.9889
 3758SOL     OW22732   2.752   3.345   8.911 -0.9054 -0.2783 -0.0491
 3758SOL    HW122733   2.734   3.430   8.951 -1.0417 -0.8996  1.1995
 3758SOL    HW222734   2.845   3.349   8.889 -0.9196  1.5081  0.2429
 3759SOL     OW22735   2.482   4.695   5.327  0.1462  0.6262 -0.0411
 3759SOL    HW122736   2.443   0.006   5.408 -0.3368  0.7812 -0.3320
 3759SOL    HW222737   2.421   4.623   5.311  0.9840 -0.1865  0.5269
 3760SOL     OW22738   3.900   3.809   2.203  0.5552 -0.8602  0.6324
 3760SOL    HW122739   3.975   3.754   2.228  0.2287 -1.1474  0.9754
 3760SOL    HW222740   3.930   3.895   2.233  0.1188 -1.1527  1.8993
 3761SOL     OW22741   0.206   3.917   2.242  0.0586  0.4188  0.1499
 3761SOL    HW122742   0.184   3.952   2.155 -1.5981 -0.6339  0.1438
 3761SOL    HW222743   0.301   3.907   2.245 -0.1030 -1.1586 -0.1738
 3762SOL     OW22744   3.698   0.499   8.138  0.2042  0.0716  0.0272
 3762SOL    HW122745   3.725   0.436   8.205 -0.0924  1.0077  1.0404
 3762SOL    HW222746   3.737   0.584   8.162  0.2136  0.3591 -1.0082
 3763SOL     OW22747   4.398   3.712   5.044  0.1852 -0.1327  0.3736
 3763SOL    HW122748   4.481   3.698   4.999  1.1632  1.8287  1.5239
 3763SOL    HW222749   4.388   3.647   5.113 -0.5097 -1.9085 -1.4268
 3764SOL     OW22750   1.482   4.588  16.690 -0.0534  0.1890 -0.0972
 3764SOL    HW122751   1.554   4.641  16.725  1.9147 -2.1818 -0.6021
 3764SOL    HW222752   1.423   4.651  16.647  0.3677 -0.1041 -1.1060
 3765SOL     OW22753   1.717   3.480   2.014  0.0556  0.2427 -0.0223
 3765SOL    HW122754   1.645   3.456   2.072 -1.0289 -1.1941 -1.9945
 3765SOL    HW222755   1.680   3.558   1.972 -3.7371 -0.8885  1.2753
 3766SOL     OW22756   3.384   3.502   4.177  0.0721 -0.0534 -0.6508
 3766SOL    HW122757   3.382   3.500   4.272  0.9856  0.4045 -0.6210
 3766SOL    HW222758   3.324   3.575   4.158 -1.0590 -0.7953  0.1427
 3767SOL     OW22759   2.001   3.343   5.413 -0.4506  0.3362  0.5105
 3767SOL    HW122760   1.997   3.437   5.398 -2.9770 -0.1235 -1.7948
 3767SOL    HW222761   1.938   3.311   5.348 -1.1999  0.8864  0.9607
 3768SOL     OW22762   3.204   2.923   8.303  0.2897  0.1583  0.2674
 3768SOL    HW122763   3.290   2.957   8.326 -0.2219  1.3110  0.4948
 3768SOL    HW222764   3.226   2.830   8.297 -0.1092  0.0152  1.0649
 3769SOL     OW22765   3.215   0.400   5.081  0.2320  0.0502 -0.0849
 3769SOL    HW122766   3.271   0.346   5.136  0.8305  1.3422  0.5854
 3769SOL    HW222767   3.281   0.468   5.066  0.5510 -0.1695  0.3444
 3770SOL     OW22768   4.492   2.880   3.594 -0.1595  0.0893 -0.1398
 3770SOL    HW122769   4.404   2.850   3.615  0.0761 -0.6559 -0.1826
 3770SOL    HW222770   4.476   2.949   3.530 -1.2118 -2.2245 -2.3435
 3771SOL     OW22771   1.576   2.288   5.805 -0.1081  0.5562  0.2336
 3771SOL    HW122772   1.561   2.193   5.797 -0.3025  0.6036  0.0351
 3771SOL    HW222773   1.517   2.320   5.874 -0.0661  0.5180  0.2875
 3772SOL     OW22774   3.476   4.040   4.407 -0.8164 -0.1061  0.4425
 3772SOL    HW122775   3.465   4.122   4.358 -0.2323 -1.3469 -1.7742
 3772SOL    HW222776   3.429   3.980   4.349 -0.4247 -1.7414  1.8355
 3773SOL     OW22777   1.297   0.754   4.692 -0.2486  0.1486 -0.2164
 3773SOL    HW122778   1.311   0.775   4.600 -1.1182  0.4777 -0.2702
 3773SOL    HW222779   1.348   0.673   4.687 -1.3932 -0.4881 -1.3787
 3774SOL     OW22780   3.996   4.151   3.385  0.0543  0.2942  0.0442
 3774SOL    HW122781   4.058   4.188   3.321 -0.8764  0.9278 -0.4930
 3774SOL    HW222782   3.996   4.228   3.443  1.1149 -1.0694  1.8335
 3775SOL     OW22783   3.429   2.850  16.887 -0.1341  0.1618 -0.2972
 3775SOL    HW122784   3.344   2.885  16.915 -1.6922 -1.0555 -3.4333
 3775SOL    HW222785   3.398   2.803  16.810 -0.2642 -1.1236  0.5430
 3776SOL     OW22786   2.921   2.708  16.959  0.8026 -0.1257  0.1456
 3776SOL    HW122787   3.013   2.685  16.954  1.1771  1.1281  1.4389
 3776SOL    HW222788   2.910   2.667  17.045 -0.7162 -0.8252 -0.3730
 3777SOL     OW22789   1.580   3.203   3.237  0.7369 -0.0194  0.8819
 3777SOL    HW122790   1.613   3.116   3.214  0.8841 -0.2352  1.9340
 3777SOL    HW222791   1.485   3.198   3.223  0.5925 -0.7951  2.0933
 3778SOL     OW22792   0.317   3.159  10.930  0.0161  0.1221  0.2397
 3778SOL    HW122793   0.271   3.094  10.876  0.8132 -0.2343 -0.0055
 3778SOL    HW222794   0.285   3.234  10.880  1.8821 -0.3253 -1.6369
 3779SOL     OW22795   2.667   0.387  12.824  0.2049 -0.0156  0.4650
 3779SOL    HW122796   2.696   0.427  12.742 -1.2111  0.9463  0.4414
 3779SOL    HW222797   2.722   0.422  12.894  3.0370 -0.7032 -1.3961
 3780SOL     OW22798   3.377   2.431  16.084  0.0550 -0.2867  0.1174
 3780SOL    HW122799   3.429   2.410  16.006  2.2238  0.1551  1.4612
 3780SOL    HW222800   3.391   2.353  16.137  2.1123 -0.3943 -0.5532
 3781SOL     OW22801   0.768   1.659  13.618  0.1609  0.4037  0.1186
 3781SOL    HW122802   0.841   1.693  13.670 -0.5667 -0.3652  1.6370
 3781SOL    HW222803   0.766   1.566  13.637 -1.5366  0.2112 -0.9498
 3782SOL     OW22804   4.423   4.228   4.345 -0.0936  0.2283 -0.0302
 3782SOL    HW122805   4.379   4.302   4.303 -0.9776 -0.9116 -1.1471
 3782SOL    HW222806   4.516   4.239   4.327 -0.6483  2.4236 -1.5172
 3783SOL     OW22807   1.338   3.050  15.873 -0.6050  0.1699 -0.3617
 3783SOL    HW122808   1.294   3.059  15.789 -1.1816  0.0364 -0.0715
 3783SOL    HW222809   1.271   3.005  15.924 -1.1426  0.1614 -1.0815
 3784SOL     OW22810   1.136   1.429  17.440  0.4528 -0.7271 -0.4112
 3784SOL    HW122811   1.079   1.450  17.365  1.3682 -1.3150 -1.2752
 3784SOL    HW222812   1.222   1.423  17.399 -0.1283 -3.0096 -1.3019
 3785SOL     OW22813   1.619   3.569  10.922 -0.6545  0.0964 -0.0442
 3785SOL    HW122814   1.707   3.584  10.956 -0.9409  2.4494 -0.3529
 3785SOL    HW222815   1.629   3.609  10.835 -0.3170  2.7700  1.2363
 3786SOL     OW22816   3.959   2.576   3.935 -0.6932 -0.0950 -0.7331
 3786SOL    HW122817   3.970   2.671   3.932 -1.0697 -0.0894 -2.0651
 3786SOL    HW222818   3.883   2.578   3.994  0.8345  1.8339  1.1495
 3787SOL     OW22819   3.375   2.241   3.224 -0.0604  0.1058  0.3339
 3787SOL    HW122820   3.397   2.159   3.269  1.1750  0.6167  0.6668
 3787SOL    HW222821   3.448   2.257   3.165  0.9834  0.1364  1.6226
 3788SOL     OW22822   2.723   1.457   7.400 -0.5633 -0.0646  0.4405
 3788SOL    HW122823   2.801   1.502   7.367 -0.0108 -0.3364  1.3781
 3788SOL    HW222824   2.711   1.394   7.329 -0.2290 -0.5174  0.7818
 3789SOL     OW22825   0.533   2.194   3.816  0.2115 -0.2969  0.4938
 3789SOL    HW122826   0.456   2.137   3.822  0.5853 -1.0230 -1.5991
 3789SOL    HW222827   0.497   2.281   3.833  2.1462  0.4238  0.9132
 3790SOL     OW22828   2.978   3.936   7.527 -0.6603 -0.2241 -0.7418
 3790SOL    HW122829   2.963   3.871   7.595 -1.4703  1.3472  0.5860
 3790SOL    HW222830   3.072   3.955   7.537 -0.9733  0.8515  0.2997
 3791SOL     OW22831   2.227   0.626   8.329  0.0592 -0.0520 -0.9490
 3791SOL    HW122832   2.320   0.615   8.348 -0.4767 -0.2466  1.5544
 3791SOL    HW222833   2.211   0.554   8.268  0.0482 -1.7136  1.0079
 3792SOL     OW22834   0.236   1.290   9.204 -0.0319  0.9356 -0.5795
 3792SOL    HW122835   0.189   1.310   9.123  2.0560 -0.3870 -2.0929
 3792SOL    HW222836   0.277   1.375   9.219  1.8576 -0.3983  1.8542
 3793SOL     OW22837   1.176   0.611   2.724  0.6557 -0.5119 -0.0397
 3793SOL    HW122838   1.108   0.644   2.666 -0.9610 -2.6621  0.6666
 3793SOL    HW222839   1.232   0.687   2.741  1.2739 -1.3826  1.8545
 3794SOL     OW22840   0.895   0.724   6.586 -0.0977  0.2887 -0.2977
 3794SOL    HW122841   0.825   0.707   6.522 -1.0889  0.1948  0.8090
 3794SOL    HW222842   0.890   0.819   6.574 -0.3031  0.0750 -1.9434
 3795SOL     OW22843   0.057   1.062   7.353 -0.4227 -0.1611 -0.0444
 3795SOL    HW122844   0.004   1.105   7.285  0.2094  2.7061  1.2784
 3795SOL    HW222845   0.141   1.074   7.309 -0.4122  3.6521  0.9957
 3796SOL     OW22846   4.423   1.704   3.997 -0.1122 -0.1323  0.0822
 3796SOL    HW122847   4.424   1.609   4.007  0.3641  0.1169  2.2221
 3796SOL    HW222848   4.333   1.715   4.029 -0.3822 -1.5525 -0.1971
 3797SOL     OW22849   1.215   0.762  10.596  0.1232  0.0738 -0.1929
 3797SOL    HW122850   1.158   0.838  10.583 -0.9137 -1.0498 -2.1723
 3797SOL    HW222851   1.168   0.723  10.670 -0.6771 -1.6735 -1.6280
 3798SOL     OW22852   3.079   3.063   2.880 -0.0380  0.3301  0.1826
 3798SOL    HW122853   3.128   3.074   2.962  0.9022  0.3569 -0.3782
 3798SOL    HW222854   3.043   3.148   2.854  2.2949  0.9476 -1.0118
 3799SOL     OW22855   0.158   4.586   4.660 -0.1115  0.3854  0.5206
 3799SOL    HW122856   0.117   4.634   4.588  0.0596  1.8046  1.3720
 3799SOL    HW222857   0.099   4.607   4.733 -0.1436  1.7091  0.1190
 3800SOL     OW22858   1.036   0.753   0.746  0.4701  0.6274  0.4584
 3800SOL    HW122859   1.121   0.724   0.713 -0.1109  0.8107 -1.2304
 3800SOL    HW222860   1.067   0.775   0.834  1.8727  1.3001 -0.2113
 3801SOL     OW22861   1.553   1.361   2.977 -0.0141 -0.2327 -0.4779
 3801SOL    HW122862   1.536   1.315   2.894 -1.8494 -0.2957 -0.0736
 3801SOL    HW222863   1.493   1.435   2.978  1.8935  1.3103 -1.5632
 3802SOL     OW22864   0.508   3.206   2.003 -0.0823 -0.2739 -0.5503
 3802SOL    HW122865   0.595   3.220   1.964  1.0613  1.5108  2.6941
 3802SOL    HW222866   0.533   3.152   2.079  0.1875 -0.6352 -0.8909
 3803SOL     OW22867   1.222   0.327   2.525 -0.2179  0.1546 -0.1727
 3803SOL    HW122868   1.277   0.273   2.468 -0.3437 -0.2747  0.1175
 3803SOL    HW222869   1.142   0.311   2.476 -0.9000  2.5910  0.1731
 3804SOL     OW22870   1.642   1.757   9.005 -0.2527 -0.1536  0.2889
 3804SOL    HW122871   1.694   1.836   9.016  2.4113 -1.7136 -1.2408
 3804SOL    HW222872   1.720   1.704   8.987  0.5717  0.0147  3.4186
 3805SOL     OW22873   4.663   1.197  12.762  0.1524  0.1933 -0.1592
 3805SOL    HW122874   4.711   1.181  12.680  1.6254  1.2073  0.5151
 3805SOL    HW222875   4.644   1.288  12.739 -0.4461  0.5370  1.7529
 3806SOL     OW22876   2.038   3.576   8.779 -0.2549 -0.0895 -0.4458
 3806SOL    HW122877   2.068   3.510   8.716  1.6147 -1.9633  2.3836
 3806SOL    HW222878   1.989   3.521   8.841  1.7511 -0.1370  1.1067
 3807SOL     OW22879   0.960   4.610  15.470 -0.2260  0.0594 -0.0905
 3807SOL    HW122880   1.014   4.684  15.444  1.3945 -1.0567  0.1260
 3807SOL    HW222881   0.980   4.543  15.405 -1.9576 -1.1656  0.6083
 3808SOL     OW22882   2.822   3.604   3.726  0.8766 -0.3951  0.0395
 3808SOL    HW122883   2.882   3.668   3.687  0.1031  0.7015  0.6595
 3808SOL    HW222884   2.849   3.623   3.815  0.9103 -1.2284  0.2022
 3809SOL     OW22885   4.025   3.353  11.104 -0.4634 -0.6109  0.8621
 3809SOL    HW122886   4.043   3.286  11.039  0.0721  0.5913 -0.2248
 3809SOL    HW222887   4.111   3.390  11.124 -0.7953  0.5605  0.1333
 3810SOL     OW22888   0.293   4.710  14.347 -0.4231  0.1997 -0.2212
 3810SOL    HW122889   0.232   4.655  14.297  0.3988 -0.2587 -0.7095
 3810SOL    HW222890   0.329   4.645  14.407 -0.2234 -2.5425 -3.3229
 3811SOL     OW22891   3.070   3.662   6.374 -0.6113  0.3444  0.3029
 3811SOL    HW122892   2.999   3.715   6.338 -0.6077  0.0491 -0.1359
 3811SOL    HW222893   3.100   3.721   6.443  0.9849  0.5919 -0.5840
 3812SOL     OW22894   1.315   4.262   3.680 -0.0313  0.4942  0.3909
 3812SOL    HW122895   1.392   4.219   3.643 -0.5397  1.5828 -1.9808
 3812SOL    HW222896   1.328   4.224   3.767  1.0353  0.8516  0.3799
 3813SOL     OW22897   1.731   4.362   6.531 -0.6479  0.1215  0.5497
 3813SOL    HW122898   1.724   4.430   6.465 -1.3779  1.3375  1.8818
 3813SOL    HW222899   1.810   4.318   6.499 -1.2881 -1.3239  0.9449
 3814SOL     OW22900   4.206   1.889  17.454 -0.7728 -0.4123 -0.1223
 3814SOL    HW122901   4.271   1.830  17.493  1.1724  0.9915 -1.2297
 3814SOL    HW222902   4.254   1.919  17.377  2.1922  1.5122  2.4683
 3815SOL     OW22903   3.310   4.409   3.812  0.1591 -0.8556  0.1405
 3815SOL    HW122904   3.277   4.377   3.728  3.1510  0.4157 -1.5521
 3815SOL    HW222905   3.267   4.354   3.876 -2.6974  1.8387  0.5247
 3816SOL     OW22906   0.739   3.328   5.505  0.0018  0.1231 -0.6396
 3816SOL    HW122907   0.825   3.371   5.502  0.3389 -0.4581  0.5543
 3816SOL    HW222908   0.758   3.246   5.460 -1.0815 -0.1751 -0.5556
 3817SOL     OW22909   1.214   3.081  12.973 -0.3976 -0.3735 -0.3683
 3817SOL    HW122910   1.216   3.000  12.922  0.3133 -0.3691 -0.3459
 3817SOL    HW222911   1.260   3.134  12.909  1.1597 -1.2967 -0.0094
 3818SOL     OW22912   0.434   2.830  10.479  0.3463  0.0755  0.0974
 3818SOL    HW122913   0.353   2.844  10.430  0.9423  1.4318 -0.5163
 3818SOL    HW222914   0.438   2.915  10.522  0.9164 -0.6994  1.5567
 3819SOL     OW22915   2.501   1.118   9.383 -0.1265 -0.4069  0.5785
 3819SOL    HW122916   2.417   1.079   9.358 -0.1556  1.5264 -2.3544
 3819SOL    HW222917   2.464   1.195   9.426 -0.2512 -0.5365  0.7054
 3820SOL     OW22918   3.455   0.534  15.611  0.1700 -0.4082 -0.1454
 3820SOL    HW122919   3.457   0.520  15.706  0.9000 -0.3333 -0.1460
 3820SOL    HW222920   3.402   0.610  15.588  0.2700 -0.3827 -0.2937
 3821SOL     OW22921   2.121   2.011   3.454  0.7493  0.0470 -0.3613
 3821SOL    HW122922   2.125   1.958   3.375  1.5815  1.4757 -1.2859
 3821SOL    HW222923   2.200   2.062   3.437  0.1144  1.2866  0.3929
 3822SOL     OW22924   3.503   0.121  15.722  0.2214  0.1610  0.3091
 3822SOL    HW122925   3.572   0.165  15.772 -0.0391  0.2866  0.5597
 3822SOL    HW222926   3.542   0.035  15.705 -0.0882 -0.0396  0.6287
 3823SOL     OW22927   3.550   3.819  11.490 -0.0474 -0.0024  0.7127
 3823SOL    HW122928   3.467   3.772  11.498 -0.6085  1.0048  0.7132
 3823SOL    HW222929   3.605   3.750  11.454 -0.9152  0.7604 -2.0833
 3824SOL     OW22930   4.392   3.627  12.885  0.0959  0.0911 -0.1226
 3824SOL    HW122931   4.319   3.588  12.837  1.1816 -2.0009 -0.0867
 3824SOL    HW222932   4.381   3.708  12.835 -1.4252  0.6458  1.1154
 3825SOL     OW22933   2.748   4.259   4.015 -0.4641  0.1092 -0.0669
 3825SOL    HW122934   2.653   4.251   4.003 -0.7588  0.9505  1.6726
 3825SOL    HW222935   2.778   4.305   3.937  0.2513 -0.7576 -0.2997
 3826SOL     OW22936   0.421   2.980  10.091  0.5046  0.2178 -0.1009
 3826SOL    HW122937   0.377   3.018  10.014  2.7816  1.7165 -0.6459
 3826SOL    HW222938   0.481   3.052  10.109  2.2487 -1.3521  0.3036
 3827SOL     OW22939   0.251   4.556   7.298  0.0283  0.2297  0.0363
 3827SOL    HW122940   0.183   4.491   7.313  2.3078 -2.1159  0.2339
 3827SOL    HW222941   0.318   4.533   7.362 -1.1920  1.0512  1.6076
 3828SOL     OW22942   1.449   2.407   4.324 -0.3662  0.2216 -0.2516
 3828SOL    HW122943   1.431   2.347   4.251 -1.6560 -0.4159  0.6052
 3828SOL    HW222944   1.491   2.481   4.280 -0.8990  0.1766 -0.8272
 3829SOL     OW22945   0.575   0.229   6.523  0.2440 -0.3426 -0.3802
 3829SOL    HW122946   0.527   0.251   6.603  2.8185  0.0434  1.0578
 3829SOL    HW222947   0.598   0.137   6.532  0.0438 -0.5773 -2.3527
 3830SOL     OW22948   1.671   3.684   7.286  0.8071  0.1059  0.0804
 3830SOL    HW122949   1.724   3.647   7.357 -0.4480  0.5795  1.2764
 3830SOL    HW222950   1.731   3.749   7.252 -0.0031  1.3568  1.0593
 3831SOL     OW22951   4.401   1.769   4.845 -0.2878 -0.0513 -0.6670
 3831SOL    HW122952   4.339   1.786   4.774  0.0349 -1.9739 -1.4006
 3831SOL    HW222953   4.447   1.850   4.821  1.1267 -1.1296 -1.5600
 3832SOL     OW22954   0.417   2.300   2.980 -0.0072  0.1359  0.4131
 3832SOL    HW122955   0.510   2.313   2.959  0.6993 -1.9814  2.2197
 3832SOL    HW222956   0.371   2.365   2.927 -1.4385  0.2647  1.8228
 3833SOL     OW22957   0.252   1.211  13.674  0.0283 -0.1376 -0.0302
 3833SOL    HW122958   0.222   1.260  13.750 -0.5514 -1.9246  0.8948
 3833SOL    HW222959   0.265   1.279  13.608  2.3029 -0.4015  0.1382
 3834SOL     OW22960   3.393   4.456   3.465 -0.1244  0.4118  0.5413
 3834SOL    HW122961   3.308   4.418   3.487 -0.0165 -0.6344 -0.8706
 3834SOL    HW222962   3.452   4.401   3.517 -1.9285 -0.4433  1.6909
 3835SOL     OW22963   2.926   0.659   4.472  0.3351  0.5576  0.3078
 3835SOL    HW122964   3.012   0.648   4.431  0.2308  1.0255 -0.0378
 3835SOL    HW222965   2.925   0.750   4.500  1.3250  0.3695  0.9200
 3836SOL     OW22966   0.726   0.638   3.094  0.3047 -0.1953 -0.1223
 3836SOL    HW122967   0.763   0.654   3.007  0.3420 -4.1283 -0.8377
 3836SOL    HW222968   0.631   0.644   3.084  0.0919 -3.1210  0.1863
 3837SOL     OW22969   3.602   2.813   6.786  0.0968 -0.4267  0.2588
 3837SOL    HW122970   3.621   2.893   6.738  0.7741 -2.2109 -2.4430
 3837SOL    HW222971   3.507   2.804   6.778  0.4867 -3.8803 -0.4686
 3838SOL     OW22972   1.984   2.984  14.438  0.7032  0.1787  0.5190
 3838SOL    HW122973   1.895   2.949  14.434  1.2377 -0.9291 -1.6912
 3838SOL    HW222974   1.960   3.077  14.427 -0.2734  0.0284  1.3408
 3839SOL     OW22975   1.764   2.027   8.936 -0.1785 -0.1495  0.4152
 3839SOL    HW122976   1.687   2.071   8.901 -0.7290 -3.0661 -2.0575
 3839SOL    HW222977   1.790   1.976   8.858 -0.3364  1.1574 -0.4838
 3840SOL     OW22978   2.427   2.589   3.172 -0.1642  0.5135  0.5131
 3840SOL    HW122979   2.479   2.560   3.247 -2.6130  0.9682  2.3947
 3840SOL    HW222980   2.494   2.636   3.123 -1.5977  2.0263  0.0134
 3841SOL     OW22981   1.151   1.794   7.493 -0.3078 -0.5549  0.0277
 3841SOL    HW122982   1.138   1.884   7.524  0.0383 -0.4403 -0.1565
 3841SOL    HW222983   1.081   1.800   7.427  0.3826  1.3241 -0.5310
 3842SOL     OW22984   4.674   0.343   7.015  0.5282  0.2202 -0.1294
 3842SOL    HW122985   4.699   0.256   7.047 -1.1951 -0.1353  0.2317
 3842SOL    HW222986   0.037   0.380   7.037  0.4166  0.5795 -0.2983
 3843SOL     OW22987   2.841   0.154   5.109  0.0179 -0.1060 -0.0205
 3843SOL    HW122988   2.905   0.163   5.039 -1.5521  0.6959 -1.3793
 3843SOL    HW222989   2.891   0.137   5.189  0.3959 -0.3759 -0.3204
 3844SOL     OW22990   3.624   4.134   3.054 -0.6300 -0.8016 -0.7943
 3844SOL    HW122991   3.590   4.051   3.089  0.2662 -1.3541 -1.2473
 3844SOL    HW222992   3.587   4.130   2.966  0.5112  1.9574 -1.4077
 3845SOL     OW22993   0.701   1.670   2.951  0.3587 -0.1493  0.4651
 3845SOL    HW122994   0.706   1.746   3.008  2.7529  1.3768 -1.7733
 3845SOL    HW222995   0.735   1.706   2.869 -0.8599 -1.3267 -0.5608
 3846SOL     OW22996   2.054   1.247   6.598 -0.1208  0.3549  0.1904
 3846SOL    HW122997   2.033   1.312   6.531 -1.2997 -0.5709 -0.3484
 3846SOL    HW222998   1.976   1.192   6.597  1.5273 -1.9496 -0.3707
 3847SOL     OW22999   4.277   0.037  12.287 -0.5138  0.4193  0.0177
 3847SOL    HW123000   4.356   0.059  12.336  0.4484 -1.7237 -0.5667
 3847SOL    HW223001   4.239   4.683  12.330 -0.2174 -0.3739 -1.1408
 3848SOL     OW23002   3.992   2.905   1.851  0.1898 -0.1103  0.1708
 3848SOL    HW123003   4.008   2.948   1.767  0.0869  0.8486  0.6409
 3848SOL    HW223004   3.898   2.888   1.846  0.0025  0.4013  1.9294
 3849SOL     OW23005   3.666   0.209  10.761  0.3211  0.7682 -0.0676
 3849SOL    HW123006   3.678   0.290  10.810  1.2389  0.4786  0.1767
 3849SOL    HW223007   3.573   0.215  10.740  0.2421 -0.3593 -0.0326
 3850SOL     OW23008   3.504   3.236   7.152  0.0141  0.3524 -0.6374
 3850SOL    HW123009   3.427   3.187   7.180 -0.5974  2.2498  1.0414
 3850SOL    HW223010   3.549   3.176   7.092  0.4549  1.1111 -1.0690
 3851SOL     OW23011   0.394   2.311  11.438  0.6917 -0.1642 -0.3068
 3851SOL    HW123012   0.356   2.260  11.509 -0.9939 -1.8431 -2.3955
 3851SOL    HW223013   0.474   2.259  11.442 -0.2649 -1.7146 -1.1223
 3852SOL     OW23014   1.444   2.018   6.142 -0.4595  0.0012  0.3931
 3852SOL    HW123015   1.387   1.948   6.173  2.7224 -2.7395  0.0421
 3852SOL    HW223016   1.392   2.092   6.174  0.4257  0.8775 -0.1897
 3853SOL     OW23017   0.078   2.276   2.220 -0.7114  0.4001  0.0870
 3853SOL    HW123018   0.154   2.259   2.165 -1.3814 -1.4129 -0.2611
 3853SOL    HW223019   0.055   2.365   2.193 -2.1185 -0.0718 -0.2665
 3854SOL     OW23020   1.394   3.527   7.703  0.1520 -0.2061 -0.5198
 3854SOL    HW123021   1.321   3.489   7.751  0.6829 -0.7393 -0.1510
 3854SOL    HW223022   1.353   3.614   7.696 -0.7889 -0.7574 -1.9099
 3855SOL     OW23023   1.298   4.380   5.139  0.5892  0.3161 -0.0496
 3855SOL    HW123024   1.307   4.372   5.044  1.9527  0.6647  0.0520
 3855SOL    HW223025   1.282   4.288   5.163  1.4151 -0.0469 -0.8781
 3856SOL     OW23026   2.746   0.851   7.992  0.0865 -0.0759 -0.1965
 3856SOL    HW123027   2.821   0.819   7.942 -0.3429  0.0020 -0.9041
 3856SOL    HW223028   2.783   0.847   8.080  1.5498 -0.0242 -0.8191
 3857SOL     OW23029   0.042   0.238   1.974 -0.6875  0.3303 -0.6343
 3857SOL    HW123030   4.717   0.308   1.930 -0.5315 -0.3733 -1.8963
 3857SOL    HW223031   4.697   0.180   2.008  0.5393 -1.3784 -1.1303
 3858SOL     OW23032   0.409   4.252   6.878 -0.0430  0.4906  0.7616
 3858SOL    HW123033   0.478   4.220   6.821 -1.6313  1.9191 -1.9244
 3858SOL    HW223034   0.455   4.272   6.960  1.2161  2.2526 -0.3902
 3859SOL     OW23035   0.087   0.772  10.919 -0.0452  0.1437 -0.3829
 3859SOL    HW123036   0.164   0.771  10.862  0.2365  0.5988 -0.0089
 3859SOL    HW223037   0.028   0.724  10.861  0.2720 -1.0094  0.2522
 3860SOL     OW23038   2.162   2.869   2.981  0.0889 -0.5753 -0.1913
 3860SOL    HW123039   2.180   2.958   3.012  0.9472 -1.1626  0.9863
 3860SOL    HW223040   2.213   2.844   2.904 -0.5073 -1.3030 -0.3539
 3861SOL     OW23041   2.295   1.914   7.227  0.0131 -0.1746 -0.1742
 3861SOL    HW123042   2.316   1.836   7.278  0.5328  0.3629  0.4339
 3861SOL    HW223043   2.375   1.921   7.174  0.3505  0.8155  0.4627
 3862SOL     OW23044   3.748   1.583  12.211  0.5476  0.0625  1.2774
 3862SOL    HW123045   3.817   1.572  12.276  0.9942  1.1548  0.9993
 3862SOL    HW223046   3.796   1.544  12.137 -1.9813 -2.0266  0.7550
 3863SOL     OW23047   4.096   0.483   7.097 -0.1636  0.1446 -0.6399
 3863SOL    HW123048   4.008   0.503   7.127 -0.0690 -0.3449 -0.0419
 3863SOL    HW223049   4.152   0.474   7.174 -0.9140 -0.2005 -0.1332
 3864SOL     OW23050   3.204   3.668   7.250 -0.1730 -0.0344  0.0885
 3864SOL    HW123051   3.112   3.644   7.242 -0.0491 -0.4020 -0.2316
 3864SOL    HW223052   3.256   3.589   7.237 -0.5672 -0.2677 -0.0779
 3865SOL     OW23053   0.455   0.631   8.783 -0.3024 -0.4636 -0.4147
 3865SOL    HW123054   0.420   0.628   8.871  0.1770  3.4542 -0.0727
 3865SOL    HW223055   0.536   0.677   8.808  0.3324 -2.1384  0.6110
 3866SOL     OW23056   0.821   1.152   2.795  1.1764 -0.5935 -0.1358
 3866SOL    HW123057   0.867   1.155   2.711  0.7363 -1.1647 -0.4014
 3866SOL    HW223058   0.800   1.244   2.814  0.2690 -0.6063 -1.0346
 3867SOL     OW23059   0.481   2.743   6.678  1.0402 -0.0760 -0.3094
 3867SOL    HW123060   0.428   2.821   6.690 -1.6496 -2.2766  2.0769
 3867SOL    HW223061   0.417   2.676   6.654 -0.7352  1.4965  0.1192
 3868SOL     OW23062   1.878   1.938  10.852 -0.5596 -0.6732 -0.0611
 3868SOL    HW123063   1.887   1.860  10.798  0.0736 -0.0877 -0.8112
 3868SOL    HW223064   1.971   1.943  10.873 -0.9045 -2.1248  1.7706
 3869SOL     OW23065   3.258   0.424  14.648 -0.3877 -0.2979  0.4794
 3869SOL    HW123066   3.330   0.398  14.591 -1.5940  0.7966 -1.5801
 3869SOL    HW223067   3.284   0.516  14.658 -3.2742  0.4033  1.5706
 3870SOL     OW23068   2.433   1.172  12.971 -0.1544 -0.2435 -0.0916
 3870SOL    HW123069   2.396   1.249  12.928 -0.1571 -0.0804  0.2009
 3870SOL    HW223070   2.369   1.104  12.951 -0.8398  0.2744  0.3551
 3871SOL     OW23071   0.194   2.779   4.826 -0.3596  0.3492 -0.3658
 3871SOL    HW123072   0.207   2.837   4.901  0.6288 -1.0128  0.5092
 3871SOL    HW223073   0.276   2.791   4.778  0.5811  1.2791  1.4656
 3872SOL     OW23074   0.610   3.648  10.772 -0.2684 -0.3856 -0.0238
 3872SOL    HW123075   0.596   3.553  10.777 -0.2536 -0.2473  2.3237
 3872SOL    HW223076   0.693   3.648  10.819 -0.1437 -0.9827 -0.2392
 3873SOL     OW23077   1.170   3.874   0.258  0.2603 -0.1741 -0.6454
 3873SOL    HW123078   1.094   3.838   0.210  0.8205 -1.7380 -0.3671
 3873SOL    HW223079   1.122   3.912   0.332 -0.4999 -1.5385 -0.4341
 3874SOL     OW23080   2.251   3.810   9.183  0.5065  0.7186 -0.8424
 3874SOL    HW123081   2.329   3.773   9.143 -0.3471 -0.8575 -1.0404
 3874SOL    HW223082   2.178   3.751   9.164  1.7440 -1.3156  0.7964
 3875SOL     OW23083   0.656   4.242   4.655  0.2205 -0.2213 -0.4420
 3875SOL    HW123084   0.717   4.209   4.721 -0.3843 -2.1803 -0.8854
 3875SOL    HW223085   0.677   4.335   4.669  0.5504 -0.5119  1.0024
 3876SOL     OW23086   2.040   1.724  17.511 -0.0016  0.0429  0.3078
 3876SOL    HW123087   2.128   1.756  17.491  0.0492 -0.5107 -0.3554
 3876SOL    HW223088   2.019   1.790  17.577 -1.1286 -0.5071  0.4808
 3877SOL     OW23089   4.284   3.290   2.991 -0.2507 -0.1394 -0.1217
 3877SOL    HW123090   4.252   3.279   3.081 -0.9599 -1.6813 -0.5593
 3877SOL    HW223091   4.270   3.384   2.983  2.3143  0.2011 -0.8024
 3878SOL     OW23092   1.710   3.555   4.400  0.0936  0.0364  1.0952
 3878SOL    HW123093   1.735   3.505   4.323  0.1986  1.2688  0.3202
 3878SOL    HW223094   1.687   3.483   4.459 -1.9477 -1.0125 -1.0005
 3879SOL     OW23095   0.952   1.528  12.472 -0.0509  0.3357  0.0720
 3879SOL    HW123096   1.009   1.464  12.431 -0.8390  2.2835 -4.0283
 3879SOL    HW223097   0.871   1.476  12.475 -0.8145  1.7002  2.7810
 3880SOL     OW23098   2.924   4.700  11.343 -0.2246  0.2358  0.2411
 3880SOL    HW123099   2.937   0.025  11.426 -1.2544  1.6345 -0.4054
 3880SOL    HW223100   2.940   0.044  11.276  1.5600 -0.7436 -0.2945
 3881SOL     OW23101   2.223   3.701   6.202 -0.0158 -0.3782  0.3805
 3881SOL    HW123102   2.147   3.719   6.258 -0.4314  0.8994 -0.6089
 3881SOL    HW223103   2.281   3.768   6.236 -0.4790  0.1307  0.1736
 3882SOL     OW23104   4.598   2.440   8.600 -0.1519 -0.0172  0.3638
 3882SOL    HW123105   4.590   2.461   8.693  0.4761  0.9047  0.2192
 3882SOL    HW223106   4.581   2.347   8.610  0.3653  0.0274  1.6517
 3883SOL     OW23107   4.126   4.583  10.261 -0.0238  0.4249  0.6232
 3883SOL    HW123108   4.188   4.540  10.201  0.3974 -0.8421  1.9757
 3883SOL    HW223109   4.042   4.539  10.242 -1.1816  2.9862 -0.2184
 3884SOL     OW23110   0.817   1.110   6.326 -0.5230  0.1197  0.2382
 3884SOL    HW123111   0.782   1.071   6.406 -0.8930  0.9392  0.4740
 3884SOL    HW223112   0.912   1.104   6.339 -0.5614 -1.1839 -0.1259
 3885SOL     OW23113   1.911   3.151   8.579  0.0719  0.4982 -0.3044
 3885SOL    HW123114   1.940   3.131   8.490  0.7441 -0.6024  0.1575
 3885SOL    HW223115   1.952   3.081   8.630  0.9485  1.7898  0.7517
 3886SOL     OW23116   3.295   3.163  15.441  0.1754 -0.0570  0.3771
 3886SOL    HW123117   3.221   3.113  15.408 -0.9556  0.9533  1.4147
 3886SOL    HW223118   3.355   3.142  15.369  0.7667 -0.3215  0.9444
 3887SOL     OW23119   2.861   3.787   7.754  0.2042 -0.1784  0.0273
 3887SOL    HW123120   2.907   3.721   7.807 -0.3756 -0.4487  0.1915
 3887SOL    HW223121   2.811   3.844   7.812  1.1711  1.5676 -0.8419
 3888SOL     OW23122   2.554   2.165   2.116  0.8014  0.1670 -0.4571
 3888SOL    HW123123   2.475   2.129   2.156  0.6789 -0.8775 -1.6369
 3888SOL    HW223124   2.618   2.095   2.122 -0.4386 -0.7730  1.7524
 3889SOL     OW23125   4.443   2.853   8.607  0.1008  0.0811 -0.0960
 3889SOL    HW123126   4.386   2.785   8.642 -0.5019 -0.3940 -2.0039
 3889SOL    HW223127   4.450   2.827   8.515 -0.2924 -2.4805  0.6049
 3890SOL     OW23128   0.604   2.170   3.557  0.8116 -0.0657 -0.3033
 3890SOL    HW123129   0.516   2.150   3.525  0.8454 -0.1847 -0.3223
 3890SOL    HW223130   0.601   2.179   3.652 -0.0325 -0.7660 -0.2559
 3891SOL     OW23131   1.106   4.001  12.233 -0.1080 -0.4103  0.0416
 3891SOL    HW123132   1.152   4.083  12.253 -2.0975  0.7167  0.0603
 3891SOL    HW223133   1.068   3.984  12.319  1.8490  2.0156  1.3640
 3892SOL     OW23134   1.257   0.230   2.816 -0.1591  0.3995  0.5776
 3892SOL    HW123135   1.238   0.206   2.726  2.2365  0.9081 -0.0626
 3892SOL    HW223136   1.347   0.204   2.839 -0.6199 -1.3291  0.4632
 3893SOL     OW23137   1.867   3.979   5.300 -0.7341 -0.1234  0.1068
 3893SOL    HW123138   1.923   3.987   5.377 -0.5455 -1.7130  0.1361
 3893SOL    HW223139   1.917   4.027   5.234 -0.9196 -1.7490 -1.2012
 3894SOL     OW23140   0.402   3.381   2.387 -0.3097 -0.0859  0.1973
 3894SOL    HW123141   0.437   3.433   2.315 -0.5764 -1.4820 -0.9468
 3894SOL    HW223142   0.309   3.394   2.370  0.0522  1.4634 -0.5248
 3895SOL     OW23143   1.134   2.062   1.963  0.3922 -0.0066 -0.0638
 3895SOL    HW123144   1.108   2.134   1.906  2.1702  2.1558  1.8822
 3895SOL    HW223145   1.194   2.012   1.907 -1.4925 -1.1400 -1.0778
 3896SOL     OW23146   3.400   2.006   6.730  0.1146 -0.0367 -0.0841
 3896SOL    HW123147   3.463   1.980   6.663  0.7839  1.6938 -0.1319
 3896SOL    HW223148   3.452   2.069   6.781 -0.1564 -0.9997  1.3679
 3897SOL     OW23149   1.495   3.576  12.625 -0.3646 -0.1819 -0.0553
 3897SOL    HW123150   1.444   3.531  12.557 -0.4847 -0.5622  0.2840
 3897SOL    HW223151   1.583   3.554  12.595 -0.8768 -0.5822 -1.2672
 3898SOL     OW23152   0.087   3.993   1.761 -0.5994  0.3210 -0.2141
 3898SOL    HW123153   0.104   4.023   1.851  1.2897  3.3640 -1.5829
 3898SOL    HW223154   0.018   3.933   1.789 -0.3250 -0.2082 -0.6835
 3899SOL     OW23155   3.414   1.803   1.196 -0.2254  0.3071  0.0908
 3899SOL    HW123156   3.428   1.719   1.240  1.5283  1.5237  1.8506
 3899SOL    HW223157   3.362   1.780   1.119 -0.9334  1.8504  0.0996
 3900SOL     OW23158   1.954   4.116   4.330 -0.0637  0.0828  0.3253
 3900SOL    HW123159   1.954   4.086   4.421  1.4883 -2.5786 -0.5255
 3900SOL    HW223160   1.962   4.210   4.346 -0.3297  0.3938 -1.4060
 3901SOL     OW23161   2.882   3.444   4.582 -0.5262 -0.6867 -0.6524
 3901SOL    HW123162   2.951   3.379   4.592 -1.2512 -1.0754  1.7178
 3901SOL    HW223163   2.946   3.507   4.549  0.8293 -1.8430 -0.2080
 3902SOL     OW23164   0.447   3.443   4.226  0.1589 -0.2290 -0.1372
 3902SOL    HW123165   0.403   3.528   4.229 -0.2606 -0.4622  0.4651
 3902SOL    HW223166   0.513   3.458   4.294 -0.9085 -2.8721  1.4838
 3903SOL     OW23167   2.943   2.868   2.470  0.0780  0.1654  0.0554
 3903SOL    HW123168   2.921   2.891   2.560  0.7539 -0.9345  0.4937
 3903SOL    HW223169   2.871   2.902   2.416  1.0375  2.4303  0.1793
 3904SOL     OW23170   0.514   4.014  16.444 -0.6191 -0.5004  0.4234
 3904SOL    HW123171   0.457   4.044  16.515  0.0202  2.4163 -0.2684
 3904SOL    HW223172   0.453   4.026  16.371  0.0014 -0.0987 -0.0337
 3905SOL     OW23173   3.163   4.056   4.317 -0.2765  0.3333 -0.1639
 3905SOL    HW123174   3.140   4.046   4.225  1.0492 -2.7898 -0.1624
 3905SOL    HW223175   3.137   3.971   4.352 -4.1545  0.6433 -2.2293
 3906SOL     OW23176   2.487   4.545   6.849 -0.3433 -0.4799 -0.0397
 3906SOL    HW123177   2.490   4.449   6.852 -0.0572 -0.4241  1.7144
 3906SOL    HW223178   2.458   4.568   6.761 -0.1830  0.5172  0.1687
 3907SOL     OW23179   3.521   4.576   6.800  0.2719  0.0773  0.1259
 3907SOL    HW123180   3.427   4.574   6.813 -0.0113 -0.1686 -1.9071
 3907SOL    HW223181   3.528   4.663   6.761  0.5530  0.7086  1.5829
 3908SOL     OW23182   2.310   2.736  11.387  0.7762  0.3226 -0.2591
 3908SOL    HW123183   2.365   2.660  11.364  0.2797 -0.3247  0.7009
 3908SOL    HW223184   2.232   2.726  11.332  1.2741  0.7584 -1.0405
 3909SOL     OW23185   0.358   1.372   5.405 -0.1517 -0.7563 -0.0358
 3909SOL    HW123186   0.431   1.427   5.434 -0.5445 -0.3397  0.1545
 3909SOL    HW223187   0.351   1.315   5.482 -0.4952  1.8728  1.8872
 3910SOL     OW23188   2.794   3.462  16.426  0.7527 -0.1814 -0.5870
 3910SOL    HW123189   2.741   3.429  16.354  0.6715  0.6195 -0.8940
 3910SOL    HW223190   2.728   3.467  16.496  1.4884  0.6445  0.0500
 3911SOL     OW23191   2.695   0.955   9.289  0.3485 -0.2277  0.6284
 3911SOL    HW123192   2.630   1.024   9.300  2.3916  2.5114 -4.3477
 3911SOL    HW223193   2.720   0.934   9.379  1.9417 -0.7075  0.0751
 3912SOL     OW23194   1.896   2.784   7.358 -0.5047  0.3515 -0.3217
 3912SOL    HW123195   1.939   2.815   7.438 -3.2854  2.9483  0.1595
 3912SOL    HW223196   1.874   2.692   7.374 -2.6286  1.2190  1.8120
 3913SOL     OW23197   2.698   3.754  11.434  0.3106 -0.0925  0.5343
 3913SOL    HW123198   2.659   3.668  11.449  0.0328  0.1457  1.1717
 3913SOL    HW223199   2.788   3.736  11.408  0.7516  0.0217  2.0018
 3914SOL     OW23200   1.537   0.376   3.611 -0.2823 -0.6413 -0.2492
 3914SOL    HW123201   1.572   0.440   3.549 -0.7876  0.1702  0.3061
 3914SOL    HW223202   1.543   0.296   3.558  1.7254 -0.2977 -0.5435
 3915SOL     OW23203   4.010   3.570   6.909 -0.4239 -0.0451  0.0707
 3915SOL    HW123204   4.009   3.483   6.948 -1.3145  0.2403  0.6586
 3915SOL    HW223205   4.006   3.621   6.989  0.5363  1.6754 -0.9692
 3916SOL     OW23206   1.911   3.520   8.316 -0.0371 -0.4338 -0.2146
 3916SOL    HW123207   1.866   3.596   8.280  1.2913  0.9666  1.0945
 3916SOL    HW223208   1.842   3.466   8.355  0.5357  0.2888  1.7901
 3917SOL     OW23209   2.581   2.599   9.572  0.4519 -0.0296 -0.3970
 3917SOL    HW123210   2.512   2.639   9.519  0.0470  0.5067  0.5326
 3917SOL    HW223211   2.612   2.525   9.520  1.8394 -1.2212  2.1689
 3918SOL     OW23212   2.306   1.295   9.140 -0.0413  0.0586 -0.1833
 3918SOL    HW123213   2.349   1.358   9.082  4.3359 -2.0751  0.7147
 3918SOL    HW223214   2.363   1.295   9.217 -2.7516 -1.6389  1.8358
 3919SOL     OW23215   0.887   4.044  14.621  0.1567  0.5764  0.0343
 3919SOL    HW123216   0.905   3.976  14.557 -1.2416  1.1488 -0.9750
 3919SOL    HW223217   0.963   4.032  14.678 -0.7802  0.9831  1.4007
 3920SOL     OW23218   0.707   4.579  10.916  0.4661  0.0835  0.3298
 3920SOL    HW123219   0.643   4.578  10.845  0.8635  0.6320 -0.0295
 3920SOL    HW223220   0.791   4.561  10.875  0.3795  2.7869 -0.9997
 3921SOL     OW23221   0.257   3.424   8.459  0.0555  0.3881 -1.0273
 3921SOL    HW123222   0.297   3.391   8.379 -2.2578 -0.7173 -1.7267
 3921SOL    HW223223   0.257   3.517   8.434 -1.0531  0.6704 -0.0075
 3922SOL     OW23224   0.396   2.338   4.127 -1.2112 -0.2858  0.0641
 3922SOL    HW123225   0.363   2.410   4.072 -0.0741 -0.8572 -1.3825
 3922SOL    HW223226   0.468   2.307   4.072 -0.0325 -0.3559  1.6622
 3923SOL     OW23227   0.079   0.143  15.935  0.3312 -0.1290 -0.1950
 3923SOL    HW123228   0.016   0.162  16.005  1.1998  0.8874  0.3265
 3923SOL    HW223229   0.096   0.053  15.961 -1.8359 -0.4115  0.2081
 3924SOL     OW23230   0.606   2.059  11.131 -0.2685  0.6159  0.7254
 3924SOL    HW123231   0.567   2.141  11.101 -1.0563  0.8560  2.3930
 3924SOL    HW223232   0.698   2.082  11.147 -0.6093  3.8679 -2.0955
 3925SOL     OW23233   3.785   3.256   2.933  0.0998  0.4488 -0.0984
 3925SOL    HW123234   3.863   3.312   2.930 -0.0922  0.6786 -0.8325
 3925SOL    HW223235   3.754   3.264   2.843  1.0934 -0.8297 -0.5554
 3926SOL     OW23236   4.416   0.979   4.850  0.1382 -0.2195 -0.2368
 3926SOL    HW123237   4.486   1.033   4.811  1.2241 -1.0802  0.5138
 3926SOL    HW223238   4.351   0.987   4.780  0.0079 -1.2924 -0.2306
 3927SOL     OW23239   0.340   4.257   2.958  0.0866 -0.4075 -0.3682
 3927SOL    HW123240   0.357   4.289   3.046 -1.4438 -2.2028  0.5811
 3927SOL    HW223241   0.265   4.201   2.978 -0.6656 -0.1210 -2.4122
 3928SOL     OW23242   2.006   3.248  13.573  0.8062  0.6359 -0.0429
 3928SOL    HW123243   2.063   3.231  13.648 -3.3722 -1.3622  2.7227
 3928SOL    HW223244   1.948   3.173  13.589 -0.3120  1.3089 -0.9053
 3929SOL     OW23245   0.792   0.286   3.718 -0.0061 -0.6096  0.3941
 3929SOL    HW123246   0.872   0.288   3.771  0.1598  0.8555  0.1036
 3929SOL    HW223247   0.797   0.369   3.670  0.8316 -0.3802  0.8693
 3930SOL     OW23248   4.664   2.870   2.702 -0.6537  0.1044  0.6400
 3930SOL    HW123249   4.652   2.776   2.708 -0.5216 -0.0361 -1.2304
 3930SOL    HW223250   4.660   2.886   2.796 -0.6614 -0.2250  0.6952
 3931SOL     OW23251   1.590   0.436  15.792  0.4586 -0.5295  0.5047
 3931SOL    HW123252   1.509   0.452  15.744  0.7044 -0.2047  0.1965
 3931SOL    HW223253   1.644   0.509  15.761 -0.8553  1.0350  1.9002
 3932SOL     OW23254   4.672   0.300   7.365 -0.4228  0.1620 -0.0060
 3932SOL    HW123255   4.589   0.263   7.334 -0.3301  0.1080 -0.1913
 3932SOL    HW223256   0.002   0.220   7.377  1.2067  1.3350  0.6860
 3933SOL     OW23257   0.813   3.555   6.773  0.5655  0.0388  0.5094
 3933SOL    HW123258   0.874   3.572   6.702  2.8914  1.1965  2.7572
 3933SOL    HW223259   0.842   3.467   6.797  3.2240  1.0490  0.9582
 3934SOL     OW23260   3.585   0.890   3.734 -0.0607 -0.0685 -0.2210
 3934SOL    HW123261   3.556   0.810   3.691  4.6742 -1.4623 -0.8678
 3934SOL    HW223262   3.515   0.944   3.699  1.7806  2.8929  0.6221
 3935SOL     OW23263   4.380   2.556  12.728 -0.2962 -0.0717 -0.2488
 3935SOL    HW123264   4.352   2.588  12.643 -2.4606 -0.4411  0.3244
 3935SOL    HW223265   4.353   2.635  12.774  2.4278  0.8077 -0.1732
 3936SOL     OW23266   0.969   0.909  16.994  0.0618  0.1535  0.4102
 3936SOL    HW123267   1.006   0.938  17.077 -0.3580  3.8964 -0.6734
 3936SOL    HW223268   0.881   0.885  17.021  0.1515 -0.7229 -0.1041
 3937SOL     OW23269   2.186   2.584   4.772 -0.0979  0.1732 -0.5193
 3937SOL    HW123270   2.242   2.527   4.719  0.8913  0.6442  0.0148
 3937SOL    HW223271   2.102   2.542   4.757  1.1963 -3.1165  1.3934
 3938SOL     OW23272   3.351   3.552   2.109  0.2402 -0.8035  0.2813
 3938SOL    HW123273   3.360   3.582   2.199 -1.6684  3.2455 -0.8801
 3938SOL    HW223274   3.308   3.622   2.061 -0.9786 -1.4987  0.3667
 3939SOL     OW23275   3.697   4.541   9.897  0.4283 -0.4175  0.3736
 3939SOL    HW123276   3.669   4.571   9.810  0.6753 -0.1951  0.3702
 3939SOL    HW223277   3.612   4.534   9.941  0.1895 -1.0519 -0.1918
 3940SOL     OW23278   0.451   3.321   5.739  0.1457  0.1662  0.0415
 3940SOL    HW123279   0.525   3.303   5.797 -1.4683 -1.0079  1.7236
 3940SOL    HW223280   0.431   3.232   5.708 -3.2269  2.0900 -3.4087
 3941SOL     OW23281   0.172   3.185  11.156  0.0446  0.5420  0.3307
 3941SOL    HW123282   0.125   3.267  11.138  0.7418  1.2897  1.8993
 3941SOL    HW223283   0.232   3.175  11.083  1.7902 -0.6026  1.9273
 3942SOL     OW23284   3.831   0.676   6.564  0.1043 -0.0614 -0.5590
 3942SOL    HW123285   3.899   0.734   6.596 -2.5431  1.5501  2.0999
 3942SOL    HW223286   3.881   0.601   6.595  0.1219 -0.5061 -1.6718
 3943SOL     OW23287   0.316   0.942   3.676  0.1864 -0.1944 -0.0510
 3943SOL    HW123288   0.247   0.962   3.612  1.1084  0.8013 -0.7361
 3943SOL    HW223289   0.261   0.905   3.745 -1.5348 -0.8997 -1.8013
 3944SOL     OW23290   2.154   2.537   1.359 -0.3475 -0.4793 -0.5892
 3944SOL    HW123291   2.188   2.614   1.405  2.0818 -3.2937  2.3375
 3944SOL    HW223292   2.100   2.579   1.293  0.2812 -1.9859 -2.0467
 3945SOL     OW23293   1.673   3.373   0.712 -0.5993  0.0771  0.0051
 3945SOL    HW123294   1.626   3.447   0.675  1.1504  0.6836 -1.0060
 3945SOL    HW223295   1.620   3.339   0.784  0.2235 -0.0643  0.5484
 3946SOL     OW23296   2.287   4.621  16.125 -0.1037  0.5994 -0.3116
 3946SOL    HW123297   2.215   4.671  16.085 -0.7907  0.0859  0.2855
 3946SOL    HW223298   2.355   4.669  16.078 -0.1080 -0.2920 -1.2097
 3947SOL     OW23299   2.413   3.770   3.833 -0.4209 -0.1227 -0.0699
 3947SOL    HW123300   2.441   3.714   3.760  1.4931  1.0728 -0.2522
 3947SOL    HW223301   2.449   3.721   3.907 -1.1706 -0.6199 -0.0332
 3948SOL     OW23302   3.250   3.329   8.098 -0.0518 -0.2429  0.1481
 3948SOL    HW123303   3.307   3.386   8.045  0.7719 -0.1030  1.1869
 3948SOL    HW223304   3.302   3.249   8.105 -0.0920 -0.1896  0.9984
 3949SOL     OW23305   2.593   0.660   3.853  0.4567  0.0406  0.3166
 3949SOL    HW123306   2.559   0.579   3.891 -0.1605  0.0288 -0.2589
 3949SOL    HW223307   2.523   0.719   3.882  0.3285 -0.2460  0.5812
 3950SOL     OW23308   4.363   2.667   9.305  0.3971 -0.2810 -0.5204
 3950SOL    HW123309   4.455   2.673   9.328  0.6902 -3.3699 -0.9020
 3950SOL    HW223310   4.348   2.753   9.264 -1.3141  0.4719  1.6787
 3951SOL     OW23311   2.999   1.815   8.013 -0.3564  0.1216 -0.4633
 3951SOL    HW123312   2.965   1.729   8.034  0.1654 -0.1924 -0.9164
 3951SOL    HW223313   2.966   1.866   8.088  2.2123  2.1673 -0.7253
 3952SOL     OW23314   4.716   0.212   3.494  0.2358  0.3358  0.6760
 3952SOL    HW123315   4.677   0.174   3.415 -0.4422  1.8894  0.2613
 3952SOL    HW223316   4.644   0.238   3.551 -0.4431 -2.2229  0.9670
 3953SOL     OW23317   3.673   3.633   3.634  0.4117  0.2708  0.2862
 3953SOL    HW123318   3.655   3.544   3.605 -4.7721  1.6371 -0.7326
 3953SOL    HW223319   3.667   3.619   3.729 -0.3690  1.1050  0.3649
 3954SOL     OW23320   1.270   2.565   5.025 -0.1164 -0.2739 -0.2914
 3954SOL    HW123321   1.231   2.487   4.987 -0.5443 -1.0671  1.7658
 3954SOL    HW223322   1.249   2.630   4.958  0.0032 -0.0389 -0.1028
 3955SOL     OW23323   3.377   2.471   1.790  0.3294  0.3239 -0.2884
 3955SOL    HW123324   3.291   2.460   1.832  1.3714 -0.7973  1.5497
 3955SOL    HW223325   3.426   2.445   1.868 -0.1543 -0.5202 -0.2586
 3956SOL     OW23326   1.555   2.539   6.501  0.0869 -0.4385  0.0705
 3956SOL    HW123327   1.641   2.581   6.496 -0.4434  0.5281 -0.9599
 3956SOL    HW223328   1.550   2.505   6.590 -2.1030  0.0950  0.1396
 3957SOL     OW23329   2.484   3.494  12.911 -0.2457  0.0651  0.1909
 3957SOL    HW123330   2.488   3.480  13.005 -0.1762 -2.9351 -0.2669
 3957SOL    HW223331   2.417   3.561  12.895 -0.8868 -1.3039 -2.8288
 3958SOL     OW23332   1.553   0.938   5.303  0.2526 -0.0872  0.2790
 3958SOL    HW123333   1.498   0.907   5.231  1.6913 -0.3347 -0.7056
 3958SOL    HW223334   1.584   0.857   5.344 -3.6977 -2.0099 -0.4731
 3959SOL     OW23335   3.643   0.030   2.619 -0.0431 -0.9832 -0.0835
 3959SOL    HW123336   3.564   0.071   2.655  0.6415  0.5542 -0.3560
 3959SOL    HW223337   3.665   0.080   2.541  0.8757  1.9847  2.0599
 3960SOL     OW23338   1.149   3.208   6.916 -0.0546  0.2118 -0.0034
 3960SOL    HW123339   1.218   3.251   6.866  0.0395 -0.4360 -0.4351
 3960SOL    HW223340   1.158   3.115   6.893 -0.7686 -0.0893  0.9044
 3961SOL     OW23341   1.871   0.407   5.678 -0.1315  0.5848 -0.4034
 3961SOL    HW123342   1.884   0.501   5.693 -0.8489  0.3333  1.7547
 3961SOL    HW223343   1.865   0.394   5.583  0.4373  1.3204 -0.5451
 3962SOL     OW23344   0.508   0.280   3.126 -0.3180 -0.1759 -0.1084
 3962SOL    HW123345   0.592   0.265   3.081 -1.0125  0.6011 -1.6559
 3962SOL    HW223346   0.452   0.220   3.077  0.0554 -1.7592  1.4119
 3963SOL     OW23347   0.695   1.231   5.254 -0.5252 -0.3847 -0.1130
 3963SOL    HW123348   0.674   1.150   5.208  0.6318  1.8178 -4.6093
 3963SOL    HW223349   0.775   1.258   5.208 -0.6089 -2.4447 -1.4627
 3964SOL     OW23350   4.558   4.482  13.495 -0.1219  0.5330 -0.1230
 3964SOL    HW123351   4.623   4.478  13.566  1.2629  0.9634 -1.3536
 3964SOL    HW223352   4.507   4.561  13.515  1.5368  1.2904  1.1453
 3965SOL     OW23353   0.442   0.670   5.453  0.5309 -0.1389 -0.1130
 3965SOL    HW123354   0.364   0.628   5.415 -0.2698  0.1004  1.2691
 3965SOL    HW223355   0.408   0.757   5.473  0.8454  0.1126 -0.6691
 3966SOL     OW23356   2.056   2.316  17.022 -0.3386  0.3820 -0.1607
 3966SOL    HW123357   2.076   2.308  17.116  1.0267 -2.1766 -0.6677
 3966SOL    HW223358   2.131   2.269  16.987 -3.0924 -0.4734 -4.8956
 3967SOL     OW23359   1.084   1.560   8.606  0.7352 -0.1630  0.2817
 3967SOL    HW123360   1.043   1.524   8.684 -0.4068  1.0076  0.2267
 3967SOL    HW223361   1.021   1.627   8.579 -1.2039 -2.3146 -0.5669
 3968SOL     OW23362   0.418   3.108  12.709 -0.3000  0.1857  0.0057
 3968SOL    HW123363   0.442   3.133  12.620 -1.3516  1.9774  0.2291
 3968SOL    HW223364   0.418   3.192  12.754 -1.3057 -0.1579  0.6385
 3969SOL     OW23365   3.871   3.313  17.019  0.3224  0.8743  0.5197
 3969SOL    HW123366   3.850   3.345  16.931 -1.7832 -0.7513  0.4363
 3969SOL    HW223367   3.948   3.368  17.027  1.0900 -0.3218  1.3182
 3970SOL     OW23368   1.445   2.178   8.594 -0.2217 -0.1412  0.7676
 3970SOL    HW123369   1.505   2.187   8.520 -1.9843  1.6619 -0.4506
 3970SOL    HW223370   1.364   2.179   8.543 -1.2346  1.6049  2.3897
 3971SOL     OW23371   0.298   0.670  10.770 -0.4144  0.3852  0.9155
 3971SOL    HW123372   0.347   0.729  10.713 -0.2141 -0.5632  0.1015
 3971SOL    HW223373   0.292   0.595  10.712  1.9716 -1.0222  2.4640
 3972SOL     OW23374   3.616   2.662   5.525  0.2926  0.0330 -0.3569
 3972SOL    HW123375   3.701   2.695   5.496 -0.0802 -0.1913 -1.7347
 3972SOL    HW223376   3.622   2.662   5.620 -0.8814  1.2372 -0.2842
 3973SOL     OW23377   4.283   3.371  10.960  0.0208  0.2761  0.0384
 3973SOL    HW123378   4.219   3.383  10.889  0.7113  0.1982 -0.5956
 3973SOL    HW223379   4.303   3.279  10.940 -0.9156  0.0715  0.0578
 3974SOL     OW23380   1.108   3.355   0.999  0.7618 -0.3366  0.1995
 3974SOL    HW123381   1.107   3.403   0.916 -2.3107  1.2159  1.1463
 3974SOL    HW223382   1.070   3.412   1.066 -1.3728 -0.5038 -0.8691
 3975SOL     OW23383   2.054   2.829   7.152  0.3755 -0.0358  0.0539
 3975SOL    HW123384   2.102   2.748   7.167 -2.0432 -1.5630 -0.6221
 3975SOL    HW223385   2.014   2.842   7.238 -2.0356 -0.5727 -1.0034
 3976SOL     OW23386   1.617   2.029   6.826  0.1604 -0.6548  0.4365
 3976SOL    HW123387   1.664   2.112   6.823  1.8171 -1.5650  1.2301
 3976SOL    HW223388   1.670   1.975   6.767  0.8016  0.5093 -0.0590
 3977SOL     OW23389   4.064   0.839   7.196 -0.3391  0.0632  0.2569
 3977SOL    HW123390   3.989   0.846   7.255 -0.2653  0.8064  0.2694
 3977SOL    HW223391   4.094   0.749   7.203 -0.6736  0.0342  1.3062
 3978SOL     OW23392   1.128   1.466   3.668  0.2831 -0.3008 -0.1814
 3978SOL    HW123393   1.062   1.411   3.711  1.4301 -1.7318 -0.2578
 3978SOL    HW223394   1.085   1.552   3.671 -1.4715 -1.2043  0.3771
 3979SOL     OW23395   2.179   4.437   4.801  0.1337 -0.3030 -0.0831
 3979SOL    HW123396   2.206   4.528   4.809 -0.3267 -0.1054 -0.8141
 3979SOL    HW223397   2.221   4.398   4.878  1.7028  2.8940  0.6904
 3980SOL     OW23398   0.128   0.945  10.661  0.2690 -0.3419  0.3913
 3980SOL    HW123399   0.147   1.033  10.630 -0.7534 -0.3395 -0.2335
 3980SOL    HW223400   0.217   0.910  10.657  0.1245 -1.1990  4.0161
 3981SOL     OW23401   4.026   0.843   6.702 -0.4303  0.3022  0.1350
 3981SOL    HW123402   4.091   0.857   6.771 -0.2049  1.1323 -0.2425
 3981SOL    HW223403   4.075   0.870   6.624 -3.4234  0.6878 -1.5886
 3982SOL     OW23404   2.304   0.867   5.235  0.0235 -0.2627 -0.0891
 3982SOL    HW123405   2.330   0.778   5.210  1.2213 -0.0452  0.3987
 3982SOL    HW223406   2.281   0.853   5.327 -0.9930 -0.0404 -0.3072
 3983SOL     OW23407   0.105   2.869   7.120  0.4828  0.0800 -0.1141
 3983SOL    HW123408   0.102   2.785   7.075  0.0250  0.7718 -1.3721
 3983SOL    HW223409   0.124   2.928   7.047  1.9334 -0.5643 -0.2570
 3984SOL     OW23410   3.190   2.029   1.861 -0.1240  0.4005  0.0311
 3984SOL    HW123411   3.207   1.958   1.923  0.6359  0.5271 -0.0337
 3984SOL    HW223412   3.226   2.103   1.910 -1.7313  1.4148 -0.3190
 3985SOL     OW23413   1.902   1.957   6.186  0.4446 -0.3623  0.2680
 3985SOL    HW123414   1.973   2.007   6.147 -0.1394  1.2459  1.2210
 3985SOL    HW223415   1.856   2.024   6.236 -2.4171 -2.2193  0.1400
 3986SOL     OW23416   2.936   1.125   6.014 -0.2957 -0.1355  0.2817
 3986SOL    HW123417   2.936   1.032   5.993  0.8737 -0.3865  1.4006
 3986SOL    HW223418   3.010   1.133   6.074  0.7142 -1.3607 -0.7927
 3987SOL     OW23419   1.438   0.737   6.384  0.3048 -0.4634  0.8231
 3987SOL    HW123420   1.487   0.762   6.462 -0.2438 -1.1324  1.3846
 3987SOL    HW223421   1.373   0.807   6.384  2.1244  1.2125  1.0778
 3988SOL     OW23422   0.818   0.366   5.044 -0.0963  0.0276 -0.6992
 3988SOL    HW123423   0.736   0.362   5.092 -0.0315 -2.3615 -0.7907
 3988SOL    HW223424   0.792   0.400   4.958  0.6156 -0.1233 -0.9750
 3989SOL     OW23425   2.861   3.722  11.719  0.3499 -0.2076 -0.0347
 3989SOL    HW123426   2.889   3.683  11.636  0.1550 -0.4937  0.0361
 3989SOL    HW223427   2.766   3.729  11.709  0.0740 -0.9434  2.1578
 3990SOL     OW23428   4.163   2.763   1.331 -0.4444 -0.8008  0.0581
 3990SOL    HW123429   4.131   2.741   1.419 -0.7693  0.1675  0.1800
 3990SOL    HW223430   4.080   2.746   1.286 -1.2702  3.5653 -0.1060
 3991SOL     OW23431   2.135   2.523  12.079  0.4950  0.5127  0.0365
 3991SOL    HW123432   2.124   2.617  12.089  0.9598  0.6282 -0.5453
 3991SOL    HW223433   2.228   2.500  12.080  0.3083 -0.3093 -0.9374
 3992SOL     OW23434   0.748   0.619  16.927  0.2923  0.0333 -0.0937
 3992SOL    HW123435   0.705   0.585  17.006  0.3868  1.1785  0.4405
 3992SOL    HW223436   0.710   0.706  16.917  0.4026 -0.1639 -2.2220
 3993SOL     OW23437   0.656   0.629   5.751  0.3051  0.0498  0.0994
 3993SOL    HW123438   0.602   0.586   5.818  0.6449 -0.3343  0.1316
 3993SOL    HW223439   0.614   0.579   5.680  1.3114 -0.6945  0.0222
 3994SOL     OW23440   1.026   0.333   1.287 -0.6168 -0.1299  0.4892
 3994SOL    HW123441   1.058   0.403   1.344 -1.5019  0.4090  0.3220
 3994SOL    HW223442   0.948   0.377   1.255  1.7250  3.9769  0.4041
 3995SOL     OW23443   3.502   4.234   7.489 -0.3454  0.1773 -0.6588
 3995SOL    HW123444   3.473   4.170   7.554  0.6405  1.1439  0.7486
 3995SOL    HW223445   3.589   4.208   7.458 -1.3803 -1.2679 -2.3099
 3996SOL     OW23446   1.611   0.961   3.773 -0.4384  0.1365  0.2181
 3996SOL    HW123447   1.587   0.884   3.825 -0.4523  0.9565  1.4374
 3996SOL    HW223448   1.656   1.013   3.839 -1.5255  1.4772 -0.0990
 3997SOL     OW23449   2.296   3.690   7.050  0.0140 -0.4825 -0.2698
 3997SOL    HW123450   2.300   3.786   7.054 -3.7598 -0.3395  0.5071
 3997SOL    HW223451   2.203   3.667   7.060 -0.0309  0.3037  1.2057
 3998SOL     OW23452   0.205   0.034   4.387  0.1367  0.2623 -0.3291
 3998SOL    HW123453   0.186   0.052   4.295 -1.0490  1.2760  0.1149
 3998SOL    HW223454   0.225   0.124   4.415 -0.6878  0.2208  0.3936
 3999SOL     OW23455   0.127   1.708   2.766 -0.1326 -0.4499 -0.1679
 3999SOL    HW123456   0.069   1.715   2.841 -0.0490 -0.9278 -0.0585
 3999SOL    HW223457   0.209   1.666   2.794 -0.3540  0.1121  1.3230
 4000SOL     OW23458   3.429   2.034   5.971  0.1160 -0.3994  0.0254
 4000SOL    HW123459   3.406   2.029   5.879 -0.4606 -0.2067  0.1584
 4000SOL    HW223460   3.350   2.030   6.025  0.6593  1.9780  1.0029
 4001SOL     OW23461   3.200   0.026   3.070  0.1275  0.2462 -0.0672
 4001SOL    HW123462   3.235   4.708   3.150  1.2419 -2.5566 -1.9913
 4001SOL    HW223463   3.130   0.077   3.110  1.1763  2.3245 -0.8921
 4002SOL     OW23464   2.074   4.155   8.663  0.2375 -0.3385 -0.0025
 4002SOL    HW123465   2.132   4.087   8.629 -1.5451 -1.3918 -0.9234
 4002SOL    HW223466   2.140   4.198   8.718  0.8223  1.4432 -2.0979
 4003SOL     OW23467   0.125   1.145   8.883  0.5873 -0.3497 -0.1869
 4003SOL    HW123468   0.085   1.229   8.906  1.9315 -0.0723  1.1193
 4003SOL    HW223469   0.072   1.081   8.930 -0.2631 -1.4613 -2.6145
 4004SOL     OW23470   2.142   2.012  16.585  0.3287 -0.0409  0.6458
 4004SOL    HW123471   2.230   2.008  16.549  0.6938 -0.1813  1.5419
 4004SOL    HW223472   2.108   2.101  16.578 -0.2819 -0.2133  1.3035
 4005SOL     OW23473   0.419   0.477   6.414  0.5723  0.4312  0.2967
 4005SOL    HW123474   0.341   0.459   6.467  0.5274  1.5843  0.6296
 4005SOL    HW223475   0.449   0.387   6.402 -0.9717 -0.2156  1.2499
 4006SOL     OW23476   2.600   1.847   3.446 -0.0744  0.2189  0.0247
 4006SOL    HW123477   2.518   1.849   3.495 -0.2011  1.4237 -0.2496
 4006SOL    HW223478   2.573   1.874   3.358 -0.7323 -3.8202 -1.0095
 4007SOL     OW23479   1.323   1.023   5.713  0.5213 -0.1023  0.2076
 4007SOL    HW123480   1.321   1.072   5.795 -0.4830 -0.5936  0.4746
 4007SOL    HW223481   1.228   1.019   5.724  0.3389  0.5630 -1.0711
 4008SOL     OW23482   4.077   3.086   1.664 -0.0382  0.1320 -0.2888
 4008SOL    HW123483   4.020   3.153   1.626  1.1592  0.7836 -0.9310
 4008SOL    HW223484   4.165   3.118   1.645  1.4133 -3.0269  1.1901
 4009SOL     OW23485   1.990   1.200   7.641  0.4469  0.3063 -0.1853
 4009SOL    HW123486   1.939   1.132   7.686 -0.9688  2.0650  0.8615
 4009SOL    HW223487   1.921   1.263   7.619  1.4292  0.9018 -1.5754
 4010SOL     OW23488   2.165   0.193   4.968  0.1186  0.0811 -0.3612
 4010SOL    HW123489   2.216   0.112   4.967  1.8386  1.1815  0.8479
 4010SOL    HW223490   2.230   0.244   5.016  1.3410 -0.4856 -1.4028
 4011SOL     OW23491   4.510   0.704   5.905 -1.0009 -0.2876  0.4587
 4011SOL    HW123492   4.420   0.737   5.897  0.0423  2.7494  1.2601
 4011SOL    HW223493   4.553   0.779   5.947  0.9895 -1.1354 -0.0938
 4012SOL     OW23494   2.965   0.578   8.430 -0.6339  0.4530 -0.2668
 4012SOL    HW123495   2.895   0.630   8.470  0.0381  0.7709  0.5229
 4012SOL    HW223496   3.021   0.563   8.507  0.1288 -0.2700 -0.9612
 4013SOL     OW23497   2.160   2.172   3.854 -0.0263  0.1616  0.4291
 4013SOL    HW123498   2.136   2.141   3.767  2.4515  2.4358 -1.0301
 4013SOL    HW223499   2.212   2.101   3.891 -0.6668  0.6988  2.3542
 4014SOL     OW23500   0.651   4.523   4.118  0.0927 -0.2371 -0.1071
 4014SOL    HW123501   0.572   4.471   4.099 -0.6150  1.0291 -0.5886
 4014SOL    HW223502   0.622   4.582   4.187 -0.7419 -1.3744  0.5254
 4015SOL     OW23503   1.059   0.768   9.874  0.2974  0.0448 -0.2422
 4015SOL    HW123504   1.089   0.695   9.928 -1.9743 -0.7909 -0.1407
 4015SOL    HW223505   1.145   0.802   9.846  0.1291  0.8945  0.2877
 4016SOL     OW23506   1.442   4.552  16.241  0.2370  0.0485  0.1045
 4016SOL    HW123507   1.445   4.482  16.176  2.5600  1.0188 -0.8225
 4016SOL    HW223508   1.420   4.626  16.185  0.5935 -1.0016 -1.4155
 4017SOL     OW23509   1.846   3.867  15.999 -0.2354  0.0754 -0.4295
 4017SOL    HW123510   1.797   3.901  15.924 -0.2048 -3.3156 -1.9667
 4017SOL    HW223511   1.810   3.923  16.068 -0.4550  1.5396 -1.7071
 4018SOL     OW23512   3.554   2.109  14.146 -0.3411 -0.3837  0.0104
 4018SOL    HW123513   3.558   2.040  14.211 -2.0508 -1.4203 -0.9630
 4018SOL    HW223514   3.476   2.080  14.097 -0.4128 -1.0999  0.5491
 4019SOL     OW23515   3.072   2.293   2.459 -0.1352 -0.0981 -0.1622
 4019SOL    HW123516   3.113   2.277   2.544  0.0368  0.9660 -0.0544
 4019SOL    HW223517   2.983   2.264   2.482 -0.3802  1.0304  0.3142
 4020SOL     OW23518   3.201   1.206   3.201 -0.0552 -0.5554  1.0356
 4020SOL    HW123519   3.131   1.217   3.266 -2.2158 -0.9402 -1.2390
 4020SOL    HW223520   3.200   1.287   3.150  0.4076 -0.5051  1.1080
 4021SOL     OW23521   1.288   4.147   2.967  0.1539  0.1589 -0.6456
 4021SOL    HW123522   1.241   4.082   3.020 -1.5564  2.8241  1.0799
 4021SOL    HW223523   1.378   4.117   2.957 -0.3770 -1.1684 -1.4893
 4022SOL     OW23524   3.880   1.084   7.829 -0.2643  0.3262  0.1697
 4022SOL    HW123525   3.892   1.097   7.923 -1.5348  0.7337  0.2772
 4022SOL    HW223526   3.965   1.043   7.811 -0.3568  0.9055 -1.5802
 4023SOL     OW23527   3.198   1.066  15.062  0.6011  0.2223  0.2091
 4023SOL    HW123528   3.167   1.130  14.998 -0.9174  0.2745  1.0073
 4023SOL    HW223529   3.281   1.034  15.026  0.9612 -0.1449  1.3887
 4024SOL     OW23530   1.521   2.375   6.720  0.1226  0.6418  0.1375
 4024SOL    HW123531   1.432   2.382   6.754  0.0568  2.9684 -0.5316
 4024SOL    HW223532   1.502   2.318   6.645  1.0969 -1.0906  1.1822
 4025SOL     OW23533   4.141   3.777   4.939 -0.4690  0.1673 -0.1946
 4025SOL    HW123534   4.155   3.792   4.845 -0.1226  0.4274 -0.1005
 4025SOL    HW223535   4.233   3.756   4.956 -0.7325  0.1922  1.2280
 4026SOL     OW23536   2.271   1.340   7.016  0.4550  0.1338  0.1026
 4026SOL    HW123537   2.200   1.393   7.051 -1.1495 -1.2807 -1.0103
 4026SOL    HW223538   2.277   1.275   7.087  1.1913 -1.2181 -1.1857
 4027SOL     OW23539   4.607   1.468   0.022 -0.6026  0.3276 -0.2514
 4027SOL    HW123540   4.591   1.458   0.116 -0.6957  0.3245 -0.2681
 4027SOL    HW223541   4.611   1.563   0.016  1.2358  0.2088 -1.0188
 4028SOL     OW23542   0.080   0.205   6.276 -0.5377  0.2001  0.3317
 4028SOL    HW123543   4.707   0.207   6.278 -0.5700 -0.7817  0.0675
 4028SOL    HW223544   0.085   0.185   6.182  1.3068 -1.3153  0.7338
 4029SOL     OW23545   1.221   3.400   7.879 -0.3163  0.3471  0.3307
 4029SOL    HW123546   1.135   3.385   7.840 -0.9509  0.1609  1.7947
 4029SOL    HW223547   1.194   3.462   7.947 -0.0928  1.9940 -1.0823
 4030SOL     OW23548   2.847   3.088   0.325  0.0975 -0.6774 -0.0683
 4030SOL    HW123549   2.807   3.151   0.266 -0.6332  0.9299  2.1459
 4030SOL    HW223550   2.926   3.065   0.275  1.5752  0.1121  1.9066
 4031SOL     OW23551   0.197   1.391  17.560  0.4234 -0.4307  0.1218
 4031SOL    HW123552   0.249   1.311  17.555  1.0945  0.0428 -0.4409
 4031SOL    HW223553   0.139   1.356  17.627 -2.4317  1.3161 -1.3873
 4032SOL     OW23554   1.609   1.457   4.441  0.4190 -0.2023  0.3400
 4032SOL    HW123555   1.565   1.541   4.433  0.9937  0.1356  0.7466
 4032SOL    HW223556   1.683   1.462   4.380  0.5619  0.7794  0.6059
 4033SOL     OW23557   0.904   1.776   7.769 -0.0323  0.2421  0.2150
 4033SOL    HW123558   0.944   1.830   7.701  1.3058 -2.3563 -1.0586
 4033SOL    HW223559   0.957   1.803   7.845 -0.0068  1.1277 -0.1126
 4034SOL     OW23560   1.664   3.916   5.758 -0.8830 -0.1486  0.0935
 4034SOL    HW123561   1.647   3.928   5.851  1.6189  3.0251  0.1407
 4034SOL    HW223562   1.615   3.995   5.734 -1.6360 -1.2287 -1.8489
 4035SOL     OW23563   2.750   2.971   7.654 -0.4241 -0.5438  0.4808
 4035SOL    HW123564   2.657   2.953   7.668 -0.8925  1.2422 -0.3382
 4035SOL    HW223565   2.787   3.013   7.732 -0.2586 -0.2531  0.2471
 4036SOL     OW23566   3.037   0.113   9.194  0.3110  0.5425  0.0799
 4036SOL    HW123567   2.956   0.065   9.177  1.6850 -2.0229  0.6832
 4036SOL    HW223568   3.084   0.061   9.260 -1.4120 -0.9774  0.1409
 4037SOL     OW23569   0.576   0.994   7.753  0.6057  0.3048 -0.1611
 4037SOL    HW123570   0.666   0.969   7.734  1.2366  1.3243  1.4739
 4037SOL    HW223571   0.597   1.054   7.824  1.6719  0.2903 -0.4711
 4038SOL     OW23572   4.539   3.171   7.690  0.1507  0.0825 -0.0742
 4038SOL    HW123573   4.493   3.093   7.659  0.4129 -0.6675  1.3885
 4038SOL    HW223574   4.547   3.215   7.606  2.2244  0.8291  0.5010
 4039SOL     OW23575   4.084   3.737  16.382  0.1878  0.2382  0.1596
 4039SOL    HW123576   4.050   3.771  16.465 -0.7656 -0.4210  0.0304
 4039SOL    HW223577   4.028   3.779  16.317  0.6559  0.2913 -0.2101
 4040SOL     OW23578   1.136   3.614   8.008 -0.0951 -0.3223  0.1676
 4040SOL    HW123579   1.072   3.605   8.079  1.2450 -1.4985  1.2241
 4040SOL    HW223580   1.219   3.624   8.055 -0.8222  3.7810  0.6234
 4041SOL     OW23581   3.003   2.197  17.111 -0.2996 -0.0318 -0.2291
 4041SOL    HW123582   2.971   2.221  17.198  1.6070  2.5340 -0.2212
 4041SOL    HW223583   3.092   2.232  17.116 -0.3678  0.1353 -0.1692
 4042SOL     OW23584   3.159   4.173   5.573  0.6636 -0.4605  0.2853
 4042SOL    HW123585   3.245   4.132   5.569  0.9950  0.3973 -1.1242
 4042SOL    HW223586   3.176   4.250   5.628 -3.6708  0.2814  0.5871
 4043SOL     OW23587   2.911   0.684   2.905  0.7240  0.1384 -0.3124
 4043SOL    HW123588   2.948   0.610   2.857 -2.6486 -1.9751  0.2591
 4043SOL    HW223589   2.848   0.709   2.837  0.2754 -0.4207 -0.1111
 4044SOL     OW23590   0.425   1.349   3.415 -0.3978  0.3031  0.5906
 4044SOL    HW123591   0.520   1.352   3.421 -0.4158  0.2314  0.9618
 4044SOL    HW223592   0.406   1.428   3.467  0.5083  0.0838  1.2524
 4045SOL     OW23593   2.131   0.549   7.904  0.4516  0.4482  0.1247
 4045SOL    HW123594   2.205   0.606   7.885 -1.5752  2.8267 -0.7108
 4045SOL    HW223595   2.112   0.594   7.986  1.5552  0.4749  0.3636
 4046SOL     OW23596   3.201   1.449   2.626 -0.3458 -0.1979  0.1458
 4046SOL    HW123597   3.247   1.509   2.567 -1.1974 -0.5724 -0.8879
 4046SOL    HW223598   3.280   1.397   2.641 -0.2464  0.5006  2.0724
 4047SOL     OW23599   4.594   2.405   6.803 -0.2130 -0.3850 -0.4012
 4047SOL    HW123600   4.669   2.429   6.749  0.7069  1.0915  1.5161
 4047SOL    HW223601   4.518   2.426   6.750  1.3264  2.4358 -1.4726
 4048SOL     OW23602   3.833   2.305   4.712 -0.2432 -0.1979 -0.3028
 4048SOL    HW123603   3.881   2.374   4.758 -1.7627  0.3714  0.4022
 4048SOL    HW223604   3.758   2.350   4.675 -0.5742 -1.7645 -1.5536
 4049SOL     OW23605   3.522   3.749   9.273 -0.3490 -0.3874  0.1027
 4049SOL    HW123606   3.592   3.807   9.303 -2.1463  1.8616 -0.0322
 4049SOL    HW223607   3.537   3.680   9.337  1.6439 -0.4656 -0.4312
 4050SOL     OW23608   2.069   1.791   0.750 -0.3314 -0.4972 -0.2117
 4050SOL    HW123609   2.078   1.731   0.676  1.8757  0.7947 -1.0006
 4050SOL    HW223610   1.975   1.794   0.766 -0.4204  1.0826 -1.0765
 4051SOL     OW23611   3.075   1.726   7.107 -0.5348  0.3964 -0.3554
 4051SOL    HW123612   3.151   1.777   7.080 -0.0926 -0.1785 -0.1916
 4051SOL    HW223613   3.021   1.786   7.159  0.3648  1.0969 -0.2214
 4052SOL     OW23614   2.276   0.968  11.350  0.0521 -0.0985  0.4419
 4052SOL    HW123615   2.337   0.952  11.277  1.0934  3.3466  0.5845
 4052SOL    HW223616   2.319   1.038  11.398  1.6946 -0.6443 -0.2091
 4053SOL     OW23617   1.819   2.410  11.791  0.3538  1.1186 -0.5092
 4053SOL    HW123618   1.911   2.430  11.774  0.4657  1.6218  0.7462
 4053SOL    HW223619   1.780   2.495  11.810 -0.6047  0.4122  0.6670
 4054SOL     OW23620   1.362   4.437   6.180 -0.4801  0.3653  0.0027
 4054SOL    HW123621   1.348   4.523   6.219 -0.3102  0.2971  0.2110
 4054SOL    HW223622   1.451   4.445   6.148  0.3000  1.7454  2.5102
 4055SOL     OW23623   4.474   0.182   3.677 -0.4004  0.3200  0.2723
 4055SOL    HW123624   4.474   0.086   3.677 -1.8257  0.3154 -1.0027
 4055SOL    HW223625   4.458   0.186   3.771  3.4984 -1.3335  0.9943
 4056SOL     OW23626   4.500   2.002   4.242 -0.4223  0.1163  0.0453
 4056SOL    HW123627   4.464   2.017   4.329 -1.5803  1.7245 -0.6907
 4056SOL    HW223628   4.471   2.078   4.190  1.0880  1.5766  1.3347
 4057SOL     OW23629   0.877   4.227   6.351 -0.4319 -0.0826  0.1097
 4057SOL    HW123630   0.955   4.266   6.313 -0.1699 -1.2708 -0.5662
 4057SOL    HW223631   0.909   4.211   6.440  0.4088  0.2802 -0.1331
 4058SOL     OW23632   4.552   2.709   2.423  0.4679  0.2752  0.4427
 4058SOL    HW123633   4.630   2.654   2.433  0.0453 -0.5258 -0.6713
 4058SOL    HW223634   4.588   2.784   2.376  0.5389 -0.5573 -0.8180
 4059SOL     OW23635   2.932   3.019   4.123 -0.6855  0.0260 -0.0048
 4059SOL    HW123636   2.859   3.081   4.121  1.7848  2.9331  0.1903
 4059SOL    HW223637   2.945   3.018   4.028 -2.1865 -0.8321 -0.1995
 4060SOL     OW23638   0.838   1.188   2.314  0.0941  0.3930 -0.0279
 4060SOL    HW123639   0.760   1.195   2.368 -1.3422  2.1355 -2.3005
 4060SOL    HW223640   0.858   1.282   2.315 -1.1385  0.6303  3.5815
 4061SOL     OW23641   1.049   2.067  15.261  0.4218 -0.5837 -0.3973
 4061SOL    HW123642   1.123   2.034  15.312 -1.4671 -1.0852  2.0074
 4061SOL    HW223643   1.096   2.101  15.185  1.1975 -1.8592 -0.4783
 4062SOL     OW23644   3.821   1.444   7.258 -0.0532 -0.6282  0.5896
 4062SOL    HW123645   3.904   1.401   7.237 -0.2577  1.0394 -3.7290
 4062SOL    HW223646   3.791   1.486   7.177  0.4835  1.9727  1.7308
 4063SOL     OW23647   3.499   3.495   3.921 -0.8714 -0.2074  0.0507
 4063SOL    HW123648   3.491   3.515   4.014  0.9304  0.4514  0.0602
 4063SOL    HW223649   3.513   3.400   3.915 -0.2376 -0.1331  0.3778
 4064SOL     OW23650   0.704   2.669   9.709  0.5937 -0.7168  0.2715
 4064SOL    HW123651   0.666   2.756   9.707  2.9744  0.3021 -1.1629
 4064SOL    HW223652   0.742   2.674   9.797 -1.3110  2.2472  0.9207
 4065SOL     OW23653   2.532   4.415   3.101  0.5334 -0.1218 -0.4417
 4065SOL    HW123654   2.479   4.383   3.174  1.8723  1.2897  1.1440
 4065SOL    HW223655   2.459   4.440   3.044  0.1264 -0.5379 -0.1082
 4066SOL     OW23656   1.721   4.433   7.027 -0.3096  0.4165  0.0004
 4066SOL    HW123657   1.709   4.443   7.121 -1.7442  2.2264 -0.3818
 4066SOL    HW223658   1.812   4.402   7.023 -0.5504 -0.1908 -0.8026
 4067SOL     OW23659   2.147   3.129   0.354  0.1999 -0.2360  0.5155
 4067SOL    HW123660   2.086   3.202   0.358 -0.2708 -0.5837 -0.2064
 4067SOL    HW223661   2.220   3.170   0.308 -0.9235  0.7108 -0.4410
 4068SOL     OW23662   2.700   1.311   6.958 -0.0111 -0.4933  0.0078
 4068SOL    HW123663   2.697   1.281   7.049  0.2438 -0.9637 -0.1380
 4068SOL    HW223664   2.774   1.268   6.915 -2.3079 -3.5882 -0.8835
 4069SOL     OW23665   2.389   4.372  16.955  0.0978  0.7331  0.3412
 4069SOL    HW123666   2.448   4.297  16.960 -0.2085  0.4959  0.4055
 4069SOL    HW223667   2.303   4.335  16.974  0.8673 -0.1924  1.9749
 4070SOL     OW23668   2.439   1.286   2.426  0.2277 -0.0357 -0.2852
 4070SOL    HW123669   2.417   1.370   2.466  1.0027  0.0746 -0.0910
 4070SOL    HW223670   2.374   1.283   2.356  0.7196  0.7144 -0.7802
 4071SOL     OW23671   1.769   0.024  13.042 -0.2548 -0.7100 -0.1673
 4071SOL    HW123672   1.828   0.025  13.117 -0.3888 -0.2112 -0.0704
 4071SOL    HW223673   1.761   0.118  13.027  0.7141 -0.7656 -1.0615
 4072SOL     OW23674   3.680   3.860   5.406 -0.0483 -0.2706 -0.1499
 4072SOL    HW123675   3.685   3.791   5.340 -0.6014 -1.3707  0.9567
 4072SOL    HW223676   3.594   3.900   5.389  0.1472 -0.2214 -1.0703
 4073SOL     OW23677   3.976   4.540   4.282  0.0086  0.3768 -0.3049
 4073SOL    HW123678   3.985   4.474   4.213  1.4325 -1.5367  1.7245
 4073SOL    HW223679   3.922   4.489   4.343 -2.1026  3.1499  0.1766
 4074SOL     OW23680   4.382   0.761   4.281  0.5560 -0.1310 -0.3104
 4074SOL    HW123681   4.419   0.847   4.302  0.7630 -0.0678 -0.9358
 4074SOL    HW223682   4.418   0.715   4.357 -2.0272 -2.6128 -0.5975
 4075SOL     OW23683   1.008   2.376   1.702 -0.0739 -0.0900 -0.2925
 4075SOL    HW123684   0.981   2.467   1.691  0.3326  0.1034  0.2985
 4075SOL    HW223685   0.991   2.368   1.796  1.1152 -1.1966 -0.1759
 4076SOL     OW23686   1.111   3.528   0.761 -0.1949 -0.0546 -0.6356
 4076SOL    HW123687   1.043   3.541   0.695 -0.1187  1.7710 -0.3573
 4076SOL    HW223688   1.186   3.516   0.702 -0.5256  0.7926 -1.2302
 4077SOL     OW23689   2.235   2.992   4.403  0.0704 -0.4385  0.1450
 4077SOL    HW123690   2.263   2.910   4.363 -1.1488 -0.3850 -0.8343
 4077SOL    HW223691   2.269   3.058   4.343 -2.7259  2.4695  1.7431
 4078SOL     OW23692   4.328   3.774   2.874 -0.2716  0.0027 -0.5121
 4078SOL    HW123693   4.404   3.752   2.929  1.4858  1.2424 -2.4503
 4078SOL    HW223694   4.351   3.862   2.845  1.1438 -0.7905 -1.8315
 4079SOL     OW23695   2.825   0.536  12.646 -0.8174 -0.2754  0.9632
 4079SOL    HW123696   2.915   0.514  12.673 -0.3506 -0.9546 -1.1784
 4079SOL    HW223697   2.818   0.497  12.559  0.5269 -0.3496  0.8770
 4080SOL     OW23698   4.463   4.342   7.982 -0.4854  0.4651  0.4304
 4080SOL    HW123699   4.504   4.257   7.997 -1.6419 -0.1118  0.3493
 4080SOL    HW223700   4.488   4.352   7.890 -1.9642  1.9502  0.1915
 4081SOL     OW23701   3.351   3.172   0.637  0.2481  0.1074 -0.0463
 4081SOL    HW123702   3.407   3.198   0.710  2.8641 -0.1930 -1.9442
 4081SOL    HW223703   3.265   3.164   0.678  1.2301 -2.1725  1.5580
 4082SOL     OW23704   3.308   1.820   8.051 -0.5029 -0.1041 -0.6661
 4082SOL    HW123705   3.218   1.821   8.020 -1.2807  1.2869  1.6242
 4082SOL    HW223706   3.331   1.913   8.060 -2.9554  0.2886  1.5152
 4083SOL     OW23707   3.493   0.526   1.392 -0.1996 -0.3311  1.1166
 4083SOL    HW123708   3.561   0.470   1.354  1.7082  0.7470  2.9312
 4083SOL    HW223709   3.431   0.464   1.432 -0.9010 -0.6463 -0.4684
 4084SOL     OW23710   1.232   3.402   0.500  0.0145 -0.1151 -0.1730
 4084SOL    HW123711   1.183   3.474   0.461  3.5798  0.7461 -3.0810
 4084SOL    HW223712   1.162   3.344   0.530 -0.9504  0.5745 -1.0881
 4085SOL     OW23713   4.428   0.984   7.729 -0.4597  0.1348 -0.2893
 4085SOL    HW123714   4.500   0.975   7.667 -0.6997 -0.7177 -0.4362
 4085SOL    HW223715   4.470   1.047   7.788  1.7929 -1.3821 -0.2633
 4086SOL     OW23716   0.681   3.030   1.047  0.1883 -0.6277  0.1815
 4086SOL    HW123717   0.731   3.112   1.039  0.6268 -0.9532 -0.4009
 4086SOL    HW223718   0.677   2.998   0.957  0.1449  0.3481 -0.1699
 4087SOL     OW23719   1.153   1.776  12.300  0.0017  0.0202  0.1324
 4087SOL    HW123720   1.248   1.769  12.297 -0.1195 -0.9199 -1.2178
 4087SOL    HW223721   1.127   1.807  12.214 -3.0877  0.7488  1.3204
 4088SOL     OW23722   0.270   0.897  16.635  0.5058  0.2703  0.0444
 4088SOL    HW123723   0.317   0.969  16.677 -0.7211  1.5163 -0.7412
 4088SOL    HW223724   0.296   0.819  16.684  0.5088 -0.2787 -0.8351
 4089SOL     OW23725   4.259   1.828  11.298  0.0242  0.2002  0.0662
 4089SOL    HW123726   4.171   1.792  11.282  0.7180 -1.0598 -0.8434
 4089SOL    HW223727   4.251   1.910  11.250 -1.6807  1.0047  1.6797
 4090SOL     OW23728   1.624   0.038   2.719  0.1669  0.4084  0.5656
 4090SOL    HW123729   1.541   0.030   2.672  0.6069  1.9715 -0.4878
 4090SOL    HW223730   1.687   4.708   2.669 -0.3715 -0.3742  0.7177
 4091SOL     OW23731   0.552   3.639   8.429  0.0886 -0.4334  0.5336
 4091SOL    HW123732   0.569   3.696   8.354  4.0480 -3.0826 -0.5424
 4091SOL    HW223733   0.462   3.663   8.451 -0.5094 -1.2198 -1.0515
 4092SOL     OW23734   0.868   1.869  13.098 -0.6499  0.2163  0.3457
 4092SOL    HW123735   0.846   1.866  13.191  0.9094  0.2967  0.7294
 4092SOL    HW223736   0.964   1.859  13.100 -0.5696  1.1948  1.2043
 4093SOL     OW23737   2.368   3.979  14.941  0.2268 -0.1291  0.0758
 4093SOL    HW123738   2.460   3.960  14.923 -0.5269 -1.8527 -1.8711
 4093SOL    HW223739   2.347   4.038  14.869  1.0576  1.2997  0.9908
 4094SOL     OW23740   1.037   2.617   2.911  0.1045 -0.4715 -0.2908
 4094SOL    HW123741   1.129   2.591   2.915  0.4756  0.6586 -1.6376
 4094SOL    HW223742   1.041   2.695   2.856  2.7316 -0.3180  0.0907
 4095SOL     OW23743   3.565   2.237   2.267  0.4038  0.2573 -0.1657
 4095SOL    HW123744   3.481   2.273   2.298 -0.6608 -1.9724 -0.4750
 4095SOL    HW223745   3.617   2.317   2.274 -0.2012  0.6217  0.1721
 4096SOL     OW23746   1.950   4.066   5.589  0.1807  0.5081  0.0639
 4096SOL    HW123747   1.889   4.134   5.618 -0.5638  0.6744 -1.8890
 4096SOL    HW223748   1.944   3.986   5.641  2.3361  0.5778  0.4390
 4097SOL     OW23749   4.299   1.301   4.836  0.3179 -0.0149  0.0297
 4097SOL    HW123750   4.385   1.333   4.862  0.0147  1.4361 -0.7347
 4097SOL    HW223751   4.285   1.348   4.754  0.0584  1.0158  0.6631
 4098SOL     OW23752   1.090   3.120   1.154 -0.0935 -0.2761  0.4270
 4098SOL    HW123753   1.092   3.206   1.112 -0.2892 -0.9810 -1.0031
 4098SOL    HW223754   1.109   3.063   1.079 -0.8130 -0.1290  0.1351
 4099SOL     OW23755   2.521   1.503   3.455 -0.2450 -0.2701 -0.0040
 4099SOL    HW123756   2.453   1.437   3.446  0.4645 -1.0463  0.3336
 4099SOL    HW223757   2.583   1.444   3.413 -0.6969 -1.3116  0.7968
 4100SOL     OW23758   4.689   1.868   5.116 -0.3918 -0.1843 -0.3611
 4100SOL    HW123759   4.645   1.947   5.147  0.7047 -0.3747  1.6817
 4100SOL    HW223760   4.617   1.805   5.115 -0.6463  0.1036  0.1464
 4101SOL     OW23761   2.805   0.014   6.333  0.3583 -0.2574 -0.4413
 4101SOL    HW123762   2.826   4.685   6.411  0.8563  3.6890  1.9927
 4101SOL    HW223763   2.826   0.101   6.365  0.8451 -0.9984  1.2236
 4102SOL     OW23764   0.573   1.549  16.261  0.6129  0.6843  0.0088
 4102SOL    HW123765   0.541   1.610  16.195 -1.0102  1.8319  1.8374
 4102SOL    HW223766   0.662   1.578  16.280  0.4009  0.2592  1.6847
 4103SOL     OW23767   0.406   2.495   7.022  0.3361 -0.0730  0.1570
 4103SOL    HW123768   0.427   2.502   7.115  0.3661 -0.9713  0.2180
 4103SOL    HW223769   0.475   2.552   6.987  1.4907 -0.3624  2.0055
 4104SOL     OW23770   3.964   3.736  16.871 -0.8883  0.1445 -0.0290
 4104SOL    HW123771   3.870   3.739  16.854 -0.8249 -0.5044 -0.4882
 4104SOL    HW223772   4.005   3.744  16.785  0.6985  0.4942  0.7506
 4105SOL     OW23773   4.508   1.592   1.583  0.2296  0.3560  0.0216
 4105SOL    HW123774   4.535   1.683   1.596  0.4289  0.2216  0.5508
 4105SOL    HW223775   4.415   1.602   1.600  0.0674 -1.6984  0.2728
 4106SOL     OW23776   0.632   4.355   8.784 -0.4697 -0.5003  0.5582
 4106SOL    HW123777   0.651   4.448   8.795  2.0028 -0.9599  0.1361
 4106SOL    HW223778   0.710   4.328   8.833 -1.1838 -1.3880  1.2213
 4107SOL     OW23779   1.395   1.383  17.328  0.2866 -0.3819 -0.2017
 4107SOL    HW123780   1.339   1.382  17.251  1.8209 -1.9138 -1.2792
 4107SOL    HW223781   1.451   1.460  17.315  0.2187 -0.3259 -0.1629
 4108SOL     OW23782   2.665   0.751  12.712  0.3290 -0.2823  0.3524
 4108SOL    HW123783   2.717   0.680  12.675  1.7566  0.6076  0.6437
 4108SOL    HW223784   2.715   0.771  12.792  2.7686  0.0169 -1.2439
 4109SOL     OW23785   2.167   0.895   8.730  0.3790 -0.0113  0.0750
 4109SOL    HW123786   2.239   0.958   8.728  1.5916 -1.3900 -0.1532
 4109SOL    HW223787   2.214   0.824   8.776 -1.1502 -1.1067 -0.0579
 4110SOL     OW23788   2.806   4.320   7.119  1.0783 -0.0767  0.4713
 4110SOL    HW123789   2.895   4.305   7.088  0.4956 -0.5806 -0.9605
 4110SOL    HW223790   2.821   4.327   7.213  1.4537  0.7868  0.3441
 4111SOL     OW23791   2.490   3.711   5.784  0.1721 -0.2188 -0.4807
 4111SOL    HW123792   2.520   3.723   5.875  1.4720  2.2133 -1.2149
 4111SOL    HW223793   2.395   3.721   5.789 -0.1530 -3.5347  0.2375
 4112SOL     OW23794   3.333   3.526   6.854  0.0421  0.4500  0.1997
 4112SOL    HW123795   3.246   3.566   6.860 -0.2559  0.1304 -1.8963
 4112SOL    HW223796   3.355   3.540   6.762  1.1216 -1.8056  0.1201
 4113SOL     OW23797   2.626   2.208   5.874  0.1650  0.1210 -0.0642
 4113SOL    HW123798   2.719   2.216   5.890  0.6294  0.1499 -2.7533
 4113SOL    HW223799   2.594   2.167   5.955 -0.8357 -1.3728 -1.2050
 4114SOL     OW23800   1.681   0.857  16.776 -0.2381  0.1082 -0.7711
 4114SOL    HW123801   1.620   0.882  16.846  0.2399  1.5559 -0.8715
 4114SOL    HW223802   1.642   0.914  16.710 -2.1415  1.6321  1.6540
 4115SOL     OW23803   2.657   2.051  15.117 -0.2663  0.5928  0.2762
 4115SOL    HW123804   2.681   1.994  15.044  0.1903  1.0086  0.0950
 4115SOL    HW223805   2.701   1.999  15.185  0.0173  0.3513 -0.0910
 4116SOL     OW23806   1.030   2.237   6.773 -0.3918  0.1230 -0.4068
 4116SOL    HW123807   0.986   2.153   6.758 -0.8715 -0.0836  2.0727
 4116SOL    HW223808   1.058   2.222   6.864 -0.8188 -2.7086 -0.7566
 4117SOL     OW23809   2.312   1.848   2.619 -0.5510  0.1502  0.1066
 4117SOL    HW123810   2.265   1.878   2.541 -1.8160 -1.8774  0.0741
 4117SOL    HW223811   2.255   1.876   2.691 -1.3498  0.4591 -0.6366
 4118SOL     OW23812   2.100   1.673   0.214 -0.1295  0.5328  0.9140
 4118SOL    HW123813   2.082   1.606   0.148 -0.8746 -0.1827  1.8365
 4118SOL    HW223814   2.023   1.676   0.271 -1.2840  0.8784 -0.6771
 4119SOL     OW23815   4.614   1.143   6.662 -0.5307 -0.3604  0.3692
 4119SOL    HW123816   4.530   1.189   6.670 -0.1161  1.0379 -3.3188
 4119SOL    HW223817   4.675   1.209   6.695  0.4248  0.0790 -2.2218
 4120SOL     OW23818   3.910   1.561  14.285  0.5846  0.2731 -0.7929
 4120SOL    HW123819   3.975   1.539  14.352  0.6514 -0.0541 -0.9672
 4120SOL    HW223820   3.862   1.479  14.294 -0.7379  0.7550 -3.5683
 4121SOL     OW23821   0.749   0.204   2.987 -1.0069 -0.2138 -0.9837
 4121SOL    HW123822   0.737   0.276   2.925  0.8814  0.1657 -0.9098
 4121SOL    HW223823   0.845   0.209   2.986 -1.0526  0.7892 -0.0493
 4122SOL     OW23824   0.347   0.991  12.980 -0.5445 -0.3710 -0.0759
 4122SOL    HW123825   0.267   1.043  12.992 -1.1193 -1.5512  1.1731
 4122SOL    HW223826   0.326   0.942  12.901  0.3623 -0.9892  0.0702
 4123SOL     OW23827   2.808   4.081   5.082 -0.0262 -0.3409 -0.2338
 4123SOL    HW123828   2.797   4.156   5.024  1.3251 -0.1428 -0.2446
 4123SOL    HW223829   2.758   4.017   5.031  0.6629  0.7410 -2.2573
 4124SOL     OW23830   4.267   1.077  15.692 -0.1580 -0.9475 -0.3086
 4124SOL    HW123831   4.314   1.064  15.609 -0.0303 -0.4322 -0.3215
 4124SOL    HW223832   4.333   1.129  15.737 -1.0941 -0.4157  0.4586
 4125SOL     OW23833   2.501   2.867  16.671 -0.3375  0.4581 -0.4567
 4125SOL    HW123834   2.450   2.786  16.669  0.1708  0.1055  1.1231
 4125SOL    HW223835   2.591   2.845  16.693 -0.4586 -0.8287 -1.2297
 4126SOL     OW23836   0.508   4.415   7.348 -0.1135  0.2262 -0.5604
 4126SOL    HW123837   0.569   4.478   7.386  0.8657  0.2642 -2.1562
 4126SOL    HW223838   0.508   4.345   7.413  0.1509  1.0879  0.3539
 4127SOL     OW23839   0.546   3.395   3.253 -0.2375  0.7160 -0.6358
 4127SOL    HW123840   0.571   3.308   3.283 -0.6770  1.1205  0.8877
 4127SOL    HW223841   0.573   3.378   3.163  0.6196 -0.2879 -0.1862
 4128SOL     OW23842   2.051   2.745  13.699  0.0420 -0.4206 -0.1280
 4128SOL    HW123843   2.021   2.810  13.763  0.7235  0.4416 -0.6983
 4128SOL    HW223844   2.117   2.695  13.747 -1.0718 -1.2261  0.5779
 4129SOL     OW23845   2.047   0.058   4.769 -0.3283 -0.5325  0.2219
 4129SOL    HW123846   2.113   0.071   4.701  0.4578 -1.0068  0.8905
 4129SOL    HW223847   2.057   0.137   4.822  2.9257  0.2644 -1.5900
 4130SOL     OW23848   3.851   3.262   2.524 -0.0232 -0.2409  0.4037
 4130SOL    HW123849   3.927   3.286   2.577  0.9032 -0.0023 -1.0363
 4130SOL    HW223850   3.787   3.330   2.546 -2.3041 -1.7369 -1.5886
 4131SOL     OW23851   4.649   2.401  11.647  0.5629  0.3160  0.2923
 4131SOL    HW123852   4.706   2.344  11.699  0.6901 -0.6421 -0.8990
 4131SOL    HW223853   4.680   2.490  11.665  0.6998  0.0233  1.5143
 4132SOL     OW23854   1.786   3.348   5.655  0.3128  0.0840 -0.0965
 4132SOL    HW123855   1.871   3.356   5.613 -0.3272 -0.6797 -1.5423
 4132SOL    HW223856   1.735   3.382   5.581 -2.3397 -1.3126  1.0975
 4133SOL     OW23857   2.714   0.158  13.064 -0.4110 -0.4174 -0.2755
 4133SOL    HW123858   2.742   0.107  13.140 -0.5138  0.4129  0.3166
 4133SOL    HW223859   2.642   0.101  13.036 -2.0009  0.3400  2.3463
 4134SOL     OW23860   4.546   1.578   3.380  0.2796  0.0321 -0.5133
 4134SOL    HW123861   4.546   1.674   3.385  0.8200 -0.0359  0.7639
 4134SOL    HW223862   4.522   1.541   3.465  1.4844 -0.5491 -0.4378
 4135SOL     OW23863   4.616   0.396   4.607 -0.9095  0.3346  0.1890
 4135SOL    HW123864   4.693   0.423   4.658 -1.1764  4.9760 -1.8751
 4135SOL    HW223865   4.591   0.306   4.627 -1.1488  0.3678  0.0324
 4136SOL     OW23866   0.599   1.036   2.482 -0.2268 -0.3426 -0.9173
 4136SOL    HW123867   0.512   1.000   2.463 -0.7938  0.5873 -0.0873
 4136SOL    HW223868   0.571   1.122   2.515  0.0935 -0.9131  0.8224
 4137SOL     OW23869   2.723   3.086   5.157  0.2130 -0.9188 -0.0409
 4137SOL    HW123870   2.708   3.061   5.248  1.0003  2.2503  0.9653
 4137SOL    HW223871   2.633   3.076   5.127  1.5776  0.1023 -4.5362
 4138SOL     OW23872   4.016   2.999   7.523 -0.2148 -0.3834  0.4628
 4138SOL    HW123873   4.012   2.904   7.534 -0.5549 -0.4550 -0.3132
 4138SOL    HW223874   3.947   3.005   7.457  0.1155 -1.5436  0.0230
 4139SOL     OW23875   2.226   4.007   9.339 -0.5267 -0.2154  0.0035
 4139SOL    HW123876   2.274   4.078   9.295 -0.1165 -0.5856 -0.1472
 4139SOL    HW223877   2.236   3.935   9.276 -2.0144 -0.5159  0.1063
 4140SOL     OW23878   0.349   4.423   0.672  0.0470  0.0869  0.1938
 4140SOL    HW123879   0.266   4.470   0.659  0.0572 -0.1184 -0.5900
 4140SOL    HW223880   0.382   4.423   0.583 -1.8962  1.2206 -0.5282
 4141SOL     OW23881   4.558   1.079   4.414 -0.7892  0.8525  0.3531
 4141SOL    HW123882   4.514   1.013   4.469  0.0213 -0.1213 -0.1702
 4141SOL    HW223883   4.621   1.109   4.480  0.4187 -1.3704  0.2094
 4142SOL     OW23884   0.283   0.906   2.396 -0.3584  0.1995 -0.5326
 4142SOL    HW123885   0.328   0.883   2.315  0.0864  0.0645 -0.2470
 4142SOL    HW223886   0.212   0.842   2.392 -0.7307  0.7264 -2.3668
 4143SOL     OW23887   0.411   0.079   8.390  0.2712  0.0474 -0.7089
 4143SOL    HW123888   0.440   0.091   8.300  0.4984 -1.2653 -0.8103
 4143SOL    HW223889   0.493   0.100   8.434 -0.6513  0.5873  0.7586
 4144SOL     OW23890   2.824   1.057   1.276 -0.3979 -0.0313 -0.4703
 4144SOL    HW123891   2.802   1.127   1.215  0.7717  0.7623  0.0165
 4144SOL    HW223892   2.864   1.108   1.346 -0.5717  1.2966 -1.3398
 4145SOL     OW23893   2.103   1.115   9.071 -0.4722  0.5738  0.1966
 4145SOL    HW123894   2.182   1.165   9.090  0.4603 -1.8111  2.5935
 4145SOL    HW223895   2.128   1.038   9.122  1.6179  1.4492  0.4771
 4146SOL     OW23896   2.110   4.480   1.085 -1.0404 -0.0195 -0.2687
 4146SOL    HW123897   2.020   4.485   1.118 -0.8058  0.1417  0.3434
 4146SOL    HW223898   2.141   4.408   1.140 -1.4480 -1.3092 -1.7085
 4147SOL     OW23899   1.417   3.484   4.571  0.0004 -0.4232  0.4261
 4147SOL    HW123900   1.495   3.436   4.544 -0.9675 -0.8118 -1.6609
 4147SOL    HW223901   1.382   3.499   4.483  0.5416  0.6434  0.3922
 4148SOL     OW23902   4.716   1.273   5.672 -0.3307 -0.5193  0.5576
 4148SOL    HW123903   0.071   1.276   5.615 -1.0941 -1.2196 -0.5094
 4148SOL    HW223904   0.001   1.354   5.723  2.3101 -1.3477  1.5321
 4149SOL     OW23905   4.260   0.087   0.879  0.0207 -0.0738 -0.0751
 4149SOL    HW123906   4.355   0.094   0.893 -0.1203  1.5329  0.1507
 4149SOL    HW223907   4.247   0.017   0.815  0.8211 -0.7728  0.5345
 4150SOL     OW23908   2.028   3.057   3.398  0.1075 -0.1284 -0.6466
 4150SOL    HW123909   1.981   2.981   3.365  2.3020 -1.2513 -1.2000
 4150SOL    HW223910   2.119   3.037   3.374  0.3135 -0.8052  0.6782
 4151SOL     OW23911   4.091   0.077   5.231  0.0455 -0.3250 -0.8152
 4151SOL    HW123912   4.150   0.152   5.223  0.7292 -0.4254  3.4427
 4151SOL    HW223913   4.021   0.097   5.169 -0.1989 -1.0517 -0.7817
 4152SOL     OW23914   2.912   3.711   5.827  0.6412 -0.3476  0.1606
 4152SOL    HW123915   2.971   3.715   5.752 -0.4272  0.8757 -0.6165
 4152SOL    HW223916   2.962   3.765   5.888  1.0542  1.1601 -1.5166
 4153SOL     OW23917   1.204   3.356   1.827 -0.0768 -0.2835  0.4079
 4153SOL    HW123918   1.246   3.439   1.847 -0.8063  0.4431 -1.0512
 4153SOL    HW223919   1.276   3.298   1.852 -0.2329  0.4049  2.4281
 4154SOL     OW23920   2.401   3.031   7.927 -0.0356  0.1671 -0.0159
 4154SOL    HW123921   2.428   3.087   8.000  1.7740 -0.1554 -0.4522
 4154SOL    HW223922   2.487   3.006   7.894 -0.4425  0.2711 -1.1387
 4155SOL     OW23923   2.896   3.467   2.207  0.1707 -0.0509 -0.3105
 4155SOL    HW123924   2.884   3.415   2.286 -0.2178  1.5180  0.6543
 4155SOL    HW223925   2.806   3.498   2.202 -0.2890 -1.0112  1.9734
 4156SOL     OW23926   2.231   3.251   3.790  0.5999  0.8383 -0.5450
 4156SOL    HW123927   2.250   3.337   3.827 -0.9979  1.7988 -1.9609
 4156SOL    HW223928   2.140   3.239   3.817  0.7643  0.7861 -0.0125
 4157SOL     OW23929   2.247   0.463   1.645  0.1089  0.4284 -0.8157
 4157SOL    HW123930   2.176   0.419   1.692  1.0960  1.0622  1.2869
 4157SOL    HW223931   2.321   0.427   1.694 -1.1882  0.1661  0.9261
 4158SOL     OW23932   0.922   1.950   8.316 -0.3880 -0.5265 -0.1446
 4158SOL    HW123933   0.829   1.941   8.339 -0.6596 -0.0525 -1.0629
 4158SOL    HW223934   0.917   1.992   8.231 -1.2633 -0.4765 -0.0751
 4159SOL     OW23935   2.907   1.677   2.867  0.5140  0.1595  0.0820
 4159SOL    HW123936   2.828   1.623   2.865  0.3252  0.4400  0.0015
 4159SOL    HW223937   2.898   1.714   2.779 -0.2456 -1.6285 -0.5783
 4160SOL     OW23938   2.240   2.641  15.273  0.4579 -0.2037  0.4447
 4160SOL    HW123939   2.330   2.631  15.243  0.3798 -1.1725  0.5466
 4160SOL    HW223940   2.189   2.632  15.192  3.8264 -1.7211 -1.5081
 4161SOL     OW23941   2.215   3.003  15.317 -0.5649 -0.0806  0.3962
 4161SOL    HW123942   2.307   2.996  15.293 -0.2814  1.0496  1.1904
 4161SOL    HW223943   2.185   3.088  15.285 -0.0363  0.0300  0.1992
 4162SOL     OW23944   3.596   1.541  14.054  0.0403  0.0787 -0.1486
 4162SOL    HW123945   3.689   1.534  14.032  0.5309  1.2114  1.6187
 4162SOL    HW223946   3.603   1.503  14.142 -0.3408 -1.3531 -0.7265
 4163SOL     OW23947   2.417   1.749  11.636 -0.0623 -0.1145  0.4148
 4163SOL    HW123948   2.400   1.841  11.615 -3.7066 -1.1117 -1.1203
 4163SOL    HW223949   2.454   1.721  11.552  2.3763  3.0762  0.4161
 4164SOL     OW23950   3.510   3.862  10.018  0.1572  0.7388  0.2799
 4164SOL    HW123951   3.480   3.814   9.942  3.9313  0.5746 -1.1267
 4164SOL    HW223952   3.575   3.921   9.979  0.0444 -0.3112 -1.4876
 4165SOL     OW23953   2.577   4.057   8.548  0.3976 -0.4493 -0.1772
 4165SOL    HW123954   2.616   4.144   8.536 -0.5081 -0.0043  0.1443
 4165SOL    HW223955   2.539   4.040   8.462 -0.6407 -1.7180  0.5457
 4166SOL     OW23956   0.989   2.822   8.200  0.7271 -0.1343  0.0978
 4166SOL    HW123957   0.957   2.830   8.110  0.4986 -0.1400  0.1810
 4166SOL    HW223958   1.043   2.901   8.205  0.3790  0.0520  0.9266
 4167SOL     OW23959   0.376   0.999   8.933  0.1475  0.0432  0.7952
 4167SOL    HW123960   0.375   0.966   9.022  0.2687  0.7814  1.0714
 4167SOL    HW223961   0.292   1.045   8.936  0.0470 -0.2026  1.6595
 4168SOL     OW23962   1.093   1.435   5.264 -0.4749  0.2878 -0.2705
 4168SOL    HW123963   1.174   1.487   5.264 -0.6698  0.5842  0.8108
 4168SOL    HW223964   1.062   1.461   5.350  2.4405 -1.3754  1.2855
 4169SOL     OW23965   4.283   2.789  12.513  0.2848 -0.6530  0.1951
 4169SOL    HW123966   4.376   2.798  12.533 -0.1589  1.6442  1.2014
 4169SOL    HW223967   4.245   2.854  12.572  1.2240 -1.3962  1.6296
 4170SOL     OW23968   2.443   1.510   9.047  0.2328  0.4934  1.1337
 4170SOL    HW123969   2.421   1.603   9.040  1.0402  0.4445 -2.2808
 4170SOL    HW223970   2.500   1.508   9.124  2.3426 -1.7960 -0.4627
 4171SOL     OW23971   1.376   0.761   1.737  0.2767 -0.2687 -0.4345
 4171SOL    HW123972   1.295   0.725   1.702  0.9315 -2.7575  0.6345
 4171SOL    HW223973   1.439   0.706   1.690  1.3231  1.2399 -0.8420
 4172SOL     OW23974   4.702   4.558   5.500 -0.1761 -0.9539 -0.1136
 4172SOL    HW123975   0.061   4.513   5.480 -0.1339 -1.6786  1.7083
 4172SOL    HW223976   4.644   4.483   5.505 -0.7575 -0.3897  1.5520
 4173SOL     OW23977   3.820   4.416   4.829  0.4238 -0.1942 -0.0643
 4173SOL    HW123978   3.849   4.484   4.768  1.1175 -0.3954  0.0434
 4173SOL    HW223979   3.874   4.340   4.813 -0.3870 -0.8389  0.2397
 4174SOL     OW23980   1.948   0.763   2.297 -0.0905 -0.2652  0.1560
 4174SOL    HW123981   1.944   0.804   2.383  0.0875 -0.9539  0.4957
 4174SOL    HW223982   2.026   0.707   2.309 -0.1867 -0.5769 -0.6151
 4175SOL     OW23983   3.308   4.561   7.660  0.6544 -0.3108  0.1619
 4175SOL    HW123984   3.328   4.597   7.746  2.4713  0.7326 -0.7136
 4175SOL    HW223985   3.215   4.543   7.676  0.4331  1.2362  0.6088
 4176SOL     OW23986   0.067   3.626  10.979 -0.2532  0.3103 -0.1363
 4176SOL    HW123987   0.092   3.624  10.886  1.4109  1.9016  0.2592
 4176SOL    HW223988   0.122   3.701  11.005  0.2562 -0.8817  2.1511
 4177SOL     OW23989   4.203   0.072   0.529  0.2707 -0.0201 -0.1236
 4177SOL    HW123990   4.149   0.147   0.502  0.6874  1.2396  2.5118
 4177SOL    HW223991   4.140   0.000   0.532  1.8623 -1.4903 -2.2675
 4178SOL     OW23992   1.078   4.592   9.096  0.0631 -0.8575 -0.3839
 4178SOL    HW123993   1.171   4.601   9.077 -0.1350 -0.1307 -0.9826
 4178SOL    HW223994   1.072   4.509   9.144  0.6478  0.3114  1.7038
 4179SOL     OW23995   1.833   4.564   7.655 -0.1419  0.0321  0.5725
 4179SOL    HW123996   1.875   4.478   7.654 -0.5471 -0.1623  0.5403
 4179SOL    HW223997   1.754   4.556   7.708 -0.8820  1.6883 -0.2666
 4180SOL     OW23998   4.364   3.235   6.048 -0.4194  0.2698 -0.0453
 4180SOL    HW123999   4.405   3.321   6.045  0.8831 -0.4110 -2.2755
 4180SOL    HW224000   4.394   3.191   5.968  0.6792  0.0154  0.5071
 4181SOL     OW24001   1.969   2.415   0.514 -0.0978  0.1180 -0.3934
 4181SOL    HW124002   1.901   2.453   0.569  0.7063 -1.6164  1.7781
 4181SOL    HW224003   1.932   2.329   0.497 -2.2742  1.0716 -0.5278
 4182SOL     OW24004   4.218   3.000   2.952  0.0276 -0.1316  0.3229
 4182SOL    HW124005   4.254   3.084   2.982  1.6245 -1.6062  2.5228
 4182SOL    HW224006   4.150   3.002   3.018 -1.3262  1.0327 -1.1182
 4183SOL     OW24007   3.806   0.170   3.476  0.8017  0.5926  0.2586
 4183SOL    HW124008   3.892   0.156   3.437  1.1212 -0.2026  1.2469
 4183SOL    HW224009   3.829   0.233   3.544 -1.5796 -1.1184  2.6706
 4184SOL     OW24010   1.035   0.807   3.235 -0.2657  0.2009 -0.6820
 4184SOL    HW124011   1.033   0.801   3.139  2.6497 -0.1017 -0.7443
 4184SOL    HW224012   1.028   0.900   3.253 -1.2067 -0.4239  2.1082
 4185SOL     OW24013   1.307   1.094   8.652 -0.2776 -0.0920  0.4032
 4185SOL    HW124014   1.232   1.073   8.596  0.5949 -0.1721 -0.7239
 4185SOL    HW224015   1.294   1.030   8.722 -1.1376  0.0487  0.3816
 4186SOL     OW24016   4.460   0.042   6.503  0.0739 -0.2362 -0.4198
 4186SOL    HW124017   4.419   0.053   6.588  0.6275 -1.2645 -0.0217
 4186SOL    HW224018   4.417   0.117   6.462 -2.3426 -1.9137 -0.9814
 4187SOL     OW24019   2.976   1.590   2.211  0.1032  0.1885 -0.6346
 4187SOL    HW124020   2.975   1.657   2.143  0.6145  0.4735 -0.3564
 4187SOL    HW224021   3.072   1.597   2.218  0.4112 -2.2190 -2.2182
 4188SOL     OW24022   0.643   4.496  10.023 -1.0235  0.3011 -0.4650
 4188SOL    HW124023   0.678   4.585  10.029  2.2889 -1.1594  1.8509
 4188SOL    HW224024   0.711   4.457  10.077 -0.9620 -0.4754 -1.1029
 4189SOL     OW24025   4.481   0.825   9.111  0.1463 -0.0399  0.2378
 4189SOL    HW124026   4.542   0.790   9.176  0.4446  3.3515  1.7909
 4189SOL    HW224027   4.405   0.845   9.166 -0.7946 -0.2380 -0.9709
 4190SOL     OW24028   2.311   0.819   4.563 -0.3609  0.1069  0.4521
 4190SOL    HW124029   2.298   0.910   4.587  1.7247 -0.1554  2.5640
 4190SOL    HW224030   2.386   0.823   4.503  0.2740 -1.6672  1.1149
 4191SOL     OW24031   4.346   3.116   8.616 -0.7601  0.0462 -0.5306
 4191SOL    HW124032   4.371   3.024   8.606 -1.1618  0.0294 -1.4138
 4191SOL    HW224033   4.426   3.164   8.638 -0.5032 -0.6021 -0.0426
 4192SOL     OW24034   2.407   2.095  15.330  0.4308  0.1555 -0.1215
 4192SOL    HW124035   2.439   2.176  15.292 -0.0793 -0.2371 -1.3887
 4192SOL    HW224036   2.460   2.069  15.405 -2.0104 -0.0251  1.5623
 4193SOL     OW24037   0.101   2.235   6.444 -0.3390  0.4707  0.8077
 4193SOL    HW124038   0.169   2.174   6.475 -0.7478 -0.8982 -0.9618
 4193SOL    HW224039   0.023   2.180   6.452  0.0712  0.0917  2.1911
 4194SOL     OW24040   2.638   2.728   0.714 -0.0427  0.3582  0.3164
 4194SOL    HW124041   2.626   2.670   0.788  3.3082 -0.8075 -0.0608
 4194SOL    HW224042   2.569   2.690   0.658  0.6964 -1.7993  0.9006
 4195SOL     OW24043   1.489   3.418  17.143  0.0690 -0.5105 -0.0864
 4195SOL    HW124044   1.402   3.417  17.184  0.1945  0.0295  0.1988
 4195SOL    HW224045   1.495   3.323  17.131 -1.9891 -0.7575  0.7750
 4196SOL     OW24046   3.186   4.662   2.368 -0.1497 -0.1225  0.2886
 4196SOL    HW124047   3.172   4.663   2.273 -0.1035  0.5992  0.2955
 4196SOL    HW224048   3.116   4.721   2.394  0.1119  0.8657 -1.2408
 4197SOL     OW24049   2.246   1.428  17.211 -0.5110  0.6950 -0.0575
 4197SOL    HW124050   2.165   1.480  17.215 -1.2058 -0.4048  0.2842
 4197SOL    HW224051   2.215   1.338  17.205 -2.4013  1.3695 -0.5076
 4198SOL     OW24052   3.126   4.290   9.437  0.0772 -0.1184  0.3016
 4198SOL    HW124053   3.208   4.297   9.486  0.8522  3.4610 -1.5070
 4198SOL    HW224054   3.136   4.209   9.388 -2.4126  1.2982 -2.5903
 4199SOL     OW24055   0.823   1.725   3.240 -0.6067  0.3145  0.2606
 4199SOL    HW124056   0.783   1.669   3.307  0.7935 -3.0087 -1.6544
 4199SOL    HW224057   0.754   1.781   3.205 -2.0967 -1.3363  0.5791
 4200SOL     OW24058   3.557   1.764  12.148  0.5662 -0.0411  0.2033
 4200SOL    HW124059   3.530   1.820  12.221  1.7238  1.2544 -0.3597
 4200SOL    HW224060   3.618   1.700  12.185  0.3479 -0.3889 -0.0418
 4201SOL     OW24061   2.889   0.006   6.608 -0.0443 -0.2401  0.1032
 4201SOL    HW124062   2.853   4.710   6.695  0.4547 -1.1598  0.1191
 4201SOL    HW224063   2.926   0.094   6.607 -1.5971  0.3957 -1.3869
 4202SOL     OW24064   2.695   0.853   4.726 -0.4821 -0.1592  0.5573
 4202SOL    HW124065   2.604   0.828   4.708  0.2952 -1.9325 -0.9457
 4202SOL    HW224066   2.687   0.927   4.786  0.0342  0.5122 -0.2012
 4203SOL     OW24067   4.150   4.157   9.455  0.1312 -0.1169  0.4854
 4203SOL    HW124068   4.104   4.240   9.448 -0.6355 -0.7527 -2.1616
 4203SOL    HW224069   4.239   4.192   9.453 -0.0395  0.3604  1.3443
 4204SOL     OW24070   1.461   3.889   3.890  0.3687 -0.5991  0.7157
 4204SOL    HW124071   1.430   3.904   3.801 -1.0656  0.9696  1.4746
 4204SOL    HW224072   1.463   3.794   3.888  0.4504 -0.5923  0.4437
 4205SOL     OW24073   0.664   1.202   4.658 -0.3812 -0.4448 -0.0661
 4205SOL    HW124074   0.633   1.161   4.577  1.1041  1.3233 -1.5349
 4205SOL    HW224075   0.622   1.288   4.664 -0.3137 -0.4629  0.6286
 4206SOL     OW24076   3.854   1.536   4.425  0.2704  0.0311 -0.4993
 4206SOL    HW124077   3.810   1.594   4.487 -1.7314  1.0023 -2.8800
 4206SOL    HW224078   3.830   1.451   4.463  2.5067 -1.4055 -2.3228
 4207SOL     OW24079   1.330   2.575   8.046  0.4438 -0.2099 -0.6230
 4207SOL    HW124080   1.315   2.665   8.017  0.8097 -0.3203 -1.1401
 4207SOL    HW224081   1.335   2.529   7.962  0.2221 -1.2513 -0.0696
 4208SOL     OW24082   2.705   2.774   8.490 -0.2733  0.1362  0.3524
 4208SOL    HW124083   2.628   2.718   8.480 -0.8059  0.9327 -0.0801
 4208SOL    HW224084   2.664   2.852   8.452 -0.2068  0.5308  1.0952
 4209SOL     OW24085   0.800   0.517   1.493  0.1906 -0.0625  0.4175
 4209SOL    HW124086   0.759   0.493   1.410 -0.3341 -1.8626  1.2169
 4209SOL    HW224087   0.896   0.524   1.485  0.2098  1.2482  1.6851
 4210SOL     OW24088   4.209   4.467   9.465  0.4059  0.5206  0.3140
 4210SOL    HW124089   4.245   4.553   9.487 -1.9226  1.9065 -1.2109
 4210SOL    HW224090   4.275   4.428   9.408 -0.9561 -2.4423  0.7804
 4211SOL     OW24091   0.776   0.002  10.074 -0.4114  0.2344 -0.5414
 4211SOL    HW124092   0.783   0.036  10.163  0.4700 -1.3860  0.0245
 4211SOL    HW224093   0.864   0.030  10.048 -0.4001 -1.0055 -1.8733
 4212SOL     OW24094   3.789   4.475   8.171  0.0195  0.2186 -0.0586
 4212SOL    HW124095   3.868   4.426   8.192 -0.4128 -0.2035  0.5714
 4212SOL    HW224096   3.782   4.545   8.237 -1.9721  0.1542 -0.2043
 4213SOL     OW24097   2.124   4.443   8.935 -0.3116  0.6681  0.3229
 4213SOL    HW124098   2.043   4.401   8.966  0.6291  0.8681  3.0398
 4213SOL    HW224099   2.099   4.475   8.848 -0.8546  1.6109  0.8296
 4214SOL     OW24100   1.542   1.657   8.250  0.3433  0.4779  0.3278
 4214SOL    HW124101   1.597   1.586   8.216 -0.2559 -1.0976  2.5956
 4214SOL    HW224102   1.500   1.612   8.324  0.5451 -0.7654 -0.3053
 4215SOL     OW24103   0.048   4.342  11.648 -0.0795  0.3705  0.4942
 4215SOL    HW124104   0.102   4.299  11.581 -0.2258  0.9981 -0.0176
 4215SOL    HW224105   0.105   4.415  11.673 -1.6642  1.0638  2.0662
 4216SOL     OW24106   1.972   0.094   8.596  0.3901  0.1030  0.3552
 4216SOL    HW124107   1.955   0.183   8.625 -0.3584 -0.3691  1.3610
 4216SOL    HW224108   1.881   0.082   8.569  0.4350  0.7569 -0.0713
 4217SOL     OW24109   3.436   2.279   7.585 -0.7514 -0.3870  0.1530
 4217SOL    HW124110   3.471   2.356   7.629  0.1710  0.1178 -1.4679
 4217SOL    HW224111   3.341   2.281   7.594 -0.8944  1.8285 -1.7086
 4218SOL     OW24112   3.683   2.086   6.088 -0.2647  0.5613  0.0610
 4218SOL    HW124113   3.591   2.063   6.077  0.8963 -2.6115 -2.7802
 4218SOL    HW224114   3.677   2.171   6.133  0.7137  1.2782 -1.1647
 4219SOL     OW24115   0.406   0.009  16.921 -0.1828  0.9574 -0.2057
 4219SOL    HW124116   0.406   0.006  17.017  0.0960  1.0143 -0.2027
 4219SOL    HW224117   0.361   0.090  16.895 -1.4021  0.4501  0.3514
 4220SOL     OW24118   1.677   0.797   2.720  0.3443 -0.1574  0.2014
 4220SOL    HW124119   1.741   0.745   2.768 -0.3171  0.1651  1.4152
 4220SOL    HW224120   1.603   0.737   2.721 -1.4516  2.0562  0.8987
 4221SOL     OW24121   1.773   1.147   1.603  0.4408 -0.1112 -0.3230
 4221SOL    HW124122   1.749   1.167   1.512 -0.7884  0.0067  0.0293
 4221SOL    HW224123   1.860   1.109   1.589  0.4035  0.8850 -3.4173
 4222SOL     OW24124   3.380   3.543   4.691 -0.0547  0.5235 -0.1528
 4222SOL    HW124125   3.417   3.501   4.769  1.2398 -1.0699 -1.6245
 4222SOL    HW224126   3.410   3.633   4.703 -3.4738  1.6099  0.0354
 4223SOL     OW24127   4.001   1.276   6.008 -0.0272  0.5119  0.1740
 4223SOL    HW124128   3.983   1.306   6.098 -1.5482 -1.7796  0.6234
 4223SOL    HW224129   4.074   1.334   5.986 -0.4413  0.5659 -1.0300
 4224SOL     OW24130   0.116   2.180  11.654 -0.0504 -0.5188  0.7722
 4224SOL    HW124131   0.204   2.150  11.675  0.4734 -0.6418 -1.6241
 4224SOL    HW224132   0.109   2.179  11.558 -2.6352 -0.5912  0.9601
 4225SOL     OW24133   3.308   0.713   1.385  0.5253 -0.1170  0.0313
 4225SOL    HW124134   3.263   0.639   1.426 -0.7406  1.8670  2.2153
 4225SOL    HW224135   3.392   0.669   1.374  0.1927 -0.9373  0.7992
 4226SOL     OW24136   0.978   1.693   3.632  0.1413 -0.3363  0.1955
 4226SOL    HW124137   0.949   1.700   3.723  0.8523 -2.5539  0.6168
 4226SOL    HW224138   0.898   1.711   3.583  0.1818 -2.2169 -0.5608
 4227SOL     OW24139   0.287   2.408  11.209 -0.0662  0.5363 -0.2222
 4227SOL    HW124140   0.291   2.374  11.298  1.5813  0.7749 -0.1937
 4227SOL    HW224141   0.368   2.381  11.166 -1.2920 -1.2559 -1.3501
 4228SOL     OW24142   3.390   0.571   2.693 -0.2409 -0.5477  0.4716
 4228SOL    HW124143   3.442   0.585   2.614  0.3921  1.0044  1.1754
 4228SOL    HW224144   3.330   0.646   2.697  0.2811 -0.0501 -0.8228
 4229SOL     OW24145   3.964   4.272   4.119 -0.4681  0.0651  0.0218
 4229SOL    HW124146   4.034   4.217   4.084 -1.0005 -0.3209 -0.4348
 4229SOL    HW224147   3.935   4.211   4.187 -0.3226  0.8835  0.8100
 4230SOL     OW24148   0.352   1.197   5.628  0.1520  0.4157  0.0269
 4230SOL    HW124149   0.377   1.263   5.692 -2.6243  2.1835 -0.7347
 4230SOL    HW224150   0.438   1.153   5.626 -0.1943 -0.3045  1.1743
 4231SOL     OW24151   3.513   2.138  10.891  0.4923 -0.3928  0.1342
 4231SOL    HW124152   3.539   2.117  10.802  0.1298 -0.7560  0.1175
 4231SOL    HW224153   3.505   2.048  10.920  3.7130 -0.6411  0.2314
 4232SOL     OW24154   2.470   1.337   3.008  0.1181  0.4268  0.1886
 4232SOL    HW124155   2.539   1.272   3.020 -1.8559 -1.8915 -1.0379
 4232SOL    HW224156   2.516   1.419   3.026  0.0068  0.3541  0.7940
 4233SOL     OW24157   0.247   1.511   6.388  0.5992 -0.1427 -0.3977
 4233SOL    HW124158   0.178   1.455   6.423 -0.0462  1.0815  0.2884
 4233SOL    HW224159   0.271   1.456   6.313 -2.0355 -1.4227 -0.3052
 4234SOL     OW24160   1.774   1.637  10.930  0.0570  0.1386 -0.4160
 4234SOL    HW124161   1.793   1.711  10.988 -1.4432  2.4495 -2.8745
 4234SOL    HW224162   1.692   1.620  10.975  0.0505  1.6358  0.1371
 4235SOL     OW24163   2.014   1.570   7.758 -0.5421 -0.1535 -0.5927
 4235SOL    HW124164   2.044   1.601   7.673 -2.2781 -1.9954 -1.8987
 4235SOL    HW224165   2.090   1.519   7.785 -1.4290 -1.0896  0.1830
 4236SOL     OW24166   2.019   1.978  16.364  0.1985  0.2368  0.3251
 4236SOL    HW124167   2.044   1.938  16.447  2.2292  1.5976  0.3466
 4236SOL    HW224168   1.980   2.056  16.404  1.7470  0.0398  2.2265
 4237SOL     OW24169   4.371   3.384   6.902  0.6384 -0.0115 -0.2972
 4237SOL    HW124170   4.337   3.382   6.813  1.3781  0.9128 -0.5949
 4237SOL    HW224171   4.305   3.324   6.936 -1.5053  1.3075 -2.1667
 4238SOL     OW24172   3.536   1.447   4.213 -0.8659  0.0944 -0.5524
 4238SOL    HW124173   3.524   1.540   4.230  0.9512  0.1035  0.7188
 4238SOL    HW224174   3.632   1.446   4.209 -0.7529  1.4557  1.6474
 4239SOL     OW24175   1.089   2.234  13.307 -0.8158  0.1236 -0.0152
 4239SOL    HW124176   1.100   2.139  13.304 -0.7778  0.1492 -0.7187
 4239SOL    HW224177   1.033   2.244  13.230  0.3354 -1.3601 -1.0391
 4240SOL     OW24178   3.710   3.411   2.119  0.0335  0.2523  0.6732
 4240SOL    HW124179   3.625   3.370   2.105  0.5569 -0.6698  0.1709
 4240SOL    HW224180   3.686   3.502   2.137  1.0380  0.7255 -0.3411
 4241SOL     OW24181   2.378   0.877  14.052 -0.3286 -0.4204  0.0375
 4241SOL    HW124182   2.413   0.790  14.037 -1.9968 -0.9104 -1.0159
 4241SOL    HW224183   2.286   0.853  14.046 -0.6053  1.6565 -4.1492
 4242SOL     OW24184   0.619   0.425  17.578  0.5513  0.7146  0.1472
 4242SOL    HW124185   0.686   0.450  17.641  1.1302  0.9527 -0.5590
 4242SOL    HW224186   0.579   0.350  17.621 -0.2602  3.1290  3.5368
 4243SOL     OW24187   1.927   1.062  12.333 -0.0745 -0.0926  0.0013
 4243SOL    HW124188   1.905   0.969  12.325  0.3260 -0.1209 -0.6844
 4243SOL    HW224189   1.909   1.085  12.424 -1.0094  0.7032 -0.3856
 4244SOL     OW24190   3.207   1.513   8.017  0.3553  0.3538  0.1082
 4244SOL    HW124191   3.231   1.436   7.965 -2.5709 -0.4331 -0.0755
 4244SOL    HW224192   3.201   1.462   8.098 -2.0357 -0.5604 -0.6326
 4245SOL     OW24193   4.453   3.646  12.400 -0.4081 -0.2757  0.2334
 4245SOL    HW124194   4.378   3.705  12.393 -0.8075 -1.0643 -1.9200
 4245SOL    HW224195   4.476   3.678  12.488 -0.0926 -0.4540  0.2154
 4246SOL     OW24196   3.395   3.561   6.034 -0.0373  0.2361 -0.2689
 4246SOL    HW124197   3.477   3.514   6.015 -0.1916 -0.3437  0.4965
 4246SOL    HW224198   3.424   3.650   6.053 -2.8963  1.1750 -0.3292
 4247SOL     OW24199   1.620   2.682  13.664  0.3411  0.1844 -0.1027
 4247SOL    HW124200   1.598   2.608  13.608  1.3385 -0.5783  0.5125
 4247SOL    HW224201   1.635   2.644  13.750 -2.5827 -0.2992  0.1731
 4248SOL     OW24202   2.954   3.477   0.722  0.1660 -0.8413 -0.2143
 4248SOL    HW124203   2.946   3.561   0.768  1.0226 -0.8592 -0.0236
 4248SOL    HW224204   2.986   3.427   0.797  1.6456  0.7926  0.2549
 4249SOL     OW24205   3.177   3.749   4.724 -0.0871 -0.0290  0.2332
 4249SOL    HW124206   3.237   3.675   4.716  0.8289  0.5959  1.3421
 4249SOL    HW224207   3.191   3.768   4.816 -0.1799 -0.4543  0.3337
 4250SOL     OW24208   3.643   1.342   4.747  0.0312 -0.2922  0.2195
 4250SOL    HW124209   3.569   1.281   4.739 -1.1021  1.4306 -2.4859
 4250SOL    HW224210   3.709   1.315   4.684 -0.9430  1.3574 -1.4903
 4251SOL     OW24211   4.139   2.661   7.253 -0.0318 -0.4095 -0.2024
 4251SOL    HW124212   4.129   2.573   7.216  2.3192 -0.6675 -0.1927
 4251SOL    HW224213   4.068   2.655   7.316  0.9776  0.6593  1.0267
 4252SOL     OW24214   2.671   0.575   6.006 -0.2430 -0.2524 -0.4559
 4252SOL    HW124215   2.580   0.574   6.035 -0.5247  3.8067 -1.1188
 4252SOL    HW224216   2.667   0.630   5.928 -2.3756  0.0709 -0.1146
 4253SOL     OW24217   4.273   0.013   1.147  0.0053  0.3302 -0.2231
 4253SOL    HW124218   4.249   0.051   1.062  0.1425 -1.4607 -1.0616
 4253SOL    HW224219   4.366   4.719   1.132 -0.9298 -4.2955 -1.0935
 4254SOL     OW24220   2.839   3.009   6.699  0.2739  0.3527 -0.2387
 4254SOL    HW124221   2.753   2.972   6.719  0.1276  1.2209  0.7615
 4254SOL    HW224222   2.901   2.947   6.737  1.7776  2.5702  0.9723
 4255SOL     OW24223   3.158   3.924   9.819  0.5970  0.1112 -0.3346
 4255SOL    HW124224   3.126   3.900   9.732  1.7657 -0.4472 -0.6070
 4255SOL    HW224225   3.093   3.993   9.834  0.1077 -0.2036 -0.9979
 4256SOL     OW24226   4.471   2.822   7.831 -0.0473  0.2487  0.2301
 4256SOL    HW124227   4.401   2.875   7.792  0.3630 -0.2809 -1.2182
 4256SOL    HW224228   4.516   2.777   7.760  0.7404 -0.1896  1.0086
 4257SOL     OW24229   4.576   2.710  15.769  0.0721 -0.3537 -0.7301
 4257SOL    HW124230   4.618   2.796  15.769  0.7186 -0.6654 -2.4308
 4257SOL    HW224231   4.504   2.723  15.831  0.1152 -1.3377 -0.4783
 4258SOL     OW24232   1.206   3.201  13.291  0.1242  0.0925 -0.5522
 4258SOL    HW124233   1.139   3.211  13.358  0.6773 -1.1818  0.2045
 4258SOL    HW224234   1.245   3.117  13.317  0.2300 -0.3212 -2.0970
 4259SOL     OW24235   3.740   2.739   7.194 -0.2126 -0.3404  0.6432
 4259SOL    HW124236   3.723   2.645   7.202  2.6182 -0.8449  0.8340
 4259SOL    HW224237   3.663   2.762   7.142  0.2642 -0.7258 -0.2388
 4260SOL     OW24238   0.099   4.671   8.849 -0.0239 -0.1410  0.3812
 4260SOL    HW124239   0.171   4.719   8.890 -0.0671 -0.4860  0.8543
 4260SOL    HW224240   0.125   4.670   8.757  0.6942  1.2612  0.5590
 4261SOL     OW24241   0.676   4.637   4.938 -0.3562  0.7210  0.2730
 4261SOL    HW124242   0.630   4.646   5.021 -0.7225  0.8013  0.0585
 4261SOL    HW224243   0.743   4.705   4.948 -0.2936  1.0977 -2.6611
 4262SOL     OW24244   4.109   3.487   3.141 -0.0548  0.0464  0.1978
 4262SOL    HW124245   4.093   3.554   3.208  0.1340 -1.2054  1.5097
 4262SOL    HW224246   4.040   3.427   3.169  0.9946 -1.5969 -0.7786
 4263SOL     OW24247   1.667   1.761  15.559 -0.1210  0.3961  0.0232
 4263SOL    HW124248   1.677   1.775  15.465 -1.3786  0.7061 -0.0705
 4263SOL    HW224249   1.731   1.691  15.570 -2.1185 -1.5059 -0.3553
 4264SOL     OW24250   0.187   1.172  10.516  0.3021  0.1523 -0.1359
 4264SOL    HW124251   0.140   1.249  10.484  1.6577  0.5496 -1.1789
 4264SOL    HW224252   0.279   1.196  10.510  0.5798 -0.9413 -0.1889
 4265SOL     OW24253   1.528   0.239  13.131 -0.8048  0.3334  0.3017
 4265SOL    HW124254   1.603   0.256  13.073  0.5054  0.1407  1.9397
 4265SOL    HW224255   1.574   0.232  13.215 -2.2072 -0.1077  1.0296
 4266SOL     OW24256   3.672   3.219   9.450  0.6080  0.0694 -0.1004
 4266SOL    HW124257   3.731   3.178   9.514  0.8396 -2.1311 -1.7252
 4266SOL    HW224258   3.711   3.203   9.364 -1.0158 -1.0201 -0.6301
 4267SOL     OW24259   4.510   4.404   7.713 -0.0306 -0.6556  0.6645
 4267SOL    HW124260   4.451   4.471   7.677  1.7808 -0.1219 -1.3499
 4267SOL    HW224261   4.600   4.438   7.714 -0.3045  0.1281 -0.7341
 4268SOL     OW24262   3.587   1.945   7.825 -0.1108 -0.6613 -0.2191
 4268SOL    HW124263   3.615   1.970   7.913 -1.2577  1.1496 -0.3662
 4268SOL    HW224264   3.669   1.926   7.779 -0.3174 -0.3446 -0.7180
 4269SOL     OW24265   1.389   4.083   5.303 -0.1247  0.3585 -0.2365
 4269SOL    HW124266   1.329   4.105   5.231 -0.9823 -1.4890 -0.0886
 4269SOL    HW224267   1.391   3.987   5.298  1.9531  0.4359 -0.8319
 4270SOL     OW24268   0.923   1.443   2.343  0.2578 -0.1501  0.2283
 4270SOL    HW124269   0.998   1.502   2.356  0.8217 -0.4457 -1.6964
 4270SOL    HW224270   0.864   1.498   2.291 -1.1070 -0.1418  1.7819
 4271SOL     OW24271   2.603   3.212   5.624  0.4683  0.1205  0.0676
 4271SOL    HW124272   2.531   3.209   5.561  0.9994  2.5325 -0.6457
 4271SOL    HW224273   2.553   3.238   5.702  0.1313 -0.8845  0.1790
 4272SOL     OW24274   0.975   2.589   5.934 -0.0993 -0.5179 -0.0395
 4272SOL    HW124275   1.047   2.560   5.878 -0.1088 -0.1051 -0.2720
 4272SOL    HW224276   0.988   2.532   6.010  0.1898 -1.0272 -0.4726
 4273SOL     OW24277   3.904   3.714   5.815  0.1391 -0.0824  0.4073
 4273SOL    HW124278   3.865   3.788   5.861  1.6098  0.8916  0.0930
 4273SOL    HW224279   3.996   3.739   5.827 -0.1057  2.1585 -2.3095
 4274SOL     OW24280   1.377   2.135   7.105  0.2511 -0.1753  0.2448
 4274SOL    HW124281   1.449   2.197   7.092  0.2089 -0.0921  0.4130
 4274SOL    HW224282   1.435   2.073   7.149  0.2422 -0.9187 -0.7801
 4275SOL     OW24283   0.753   2.013  11.541 -0.1552  0.2204 -0.1682
 4275SOL    HW124284   0.707   1.943  11.587 -1.0862 -0.1068 -1.5806
 4275SOL    HW224285   0.816   2.045  11.606  0.1910 -1.6035  0.3895
 4276SOL     OW24286   1.309   0.818   3.770  0.7216  0.5269  0.1842
 4276SOL    HW124287   1.386   0.778   3.728  0.1609 -0.4066  0.0496
 4276SOL    HW224288   1.322   0.784   3.859 -3.5495 -1.1011  0.1946
 4277SOL     OW24289   1.250   1.419  17.098  0.4841 -0.4540 -0.1899
 4277SOL    HW124290   1.217   1.507  17.116  0.9338 -0.8813  2.6993
 4277SOL    HW224291   1.219   1.408  17.008 -0.7597  0.5823  0.1208
 4278SOL     OW24292   2.304   4.616   9.155 -0.1641  0.0423  0.3894
 4278SOL    HW124293   2.220   4.644   9.118  0.5985  1.1919 -0.4679
 4278SOL    HW224294   2.308   4.523   9.133 -0.9054  0.4938 -1.6833
 4279SOL     OW24295   4.531   4.439   5.231 -0.1556 -0.6952 -0.3259
 4279SOL    HW124296   4.518   4.531   5.208 -0.6544 -1.3024 -2.4381
 4279SOL    HW224297   4.627   4.430   5.231  0.0400  1.4625 -0.4658
 4280SOL     OW24298   4.702   4.450   8.924 -0.6002 -0.1869  0.2899
 4280SOL    HW124299   4.636   4.472   8.858 -0.2172  0.6293  0.1723
 4280SOL    HW224300   0.052   4.511   8.907 -1.9556  1.1598 -0.6525
 4281SOL     OW24301   1.706   4.503  15.180 -0.4463  0.1690  0.0676
 4281SOL    HW124302   1.741   4.592  15.189  2.5484 -0.9137 -1.0944
 4281SOL    HW224303   1.791   4.459  15.178 -0.7892 -0.4422 -1.5106
 4282SOL     OW24304   1.882   2.436   1.205  0.3098 -0.3206 -0.0570
 4282SOL    HW124305   1.886   2.521   1.162 -0.4628 -0.6006 -0.6930
 4282SOL    HW224306   1.961   2.393   1.173  0.0233 -0.3193 -0.7623
 4283SOL     OW24307   2.879   0.727   7.199  0.4331 -0.2186  0.3063
 4283SOL    HW124308   2.798   0.737   7.150  0.0577  0.4522  1.0607
 4283SOL    HW224309   2.858   0.661   7.265 -0.7464  0.5515  0.6929
 4284SOL     OW24310   1.733   4.092   2.208  0.2943  0.3887 -0.2406
 4284SOL    HW124311   1.739   4.030   2.135  0.9899 -0.5737  0.6430
 4284SOL    HW224312   1.637   4.091   2.211  0.1346  2.5213 -3.3726
 4285SOL     OW24313   4.022   1.825  11.637 -0.2173  0.3232  0.3865
 4285SOL    HW124314   4.032   1.919  11.622  1.9786  0.1553  0.7056
 4285SOL    HW224315   4.003   1.805  11.545  2.3295 -0.5402  0.0359
 4286SOL     OW24316   1.003   2.019  14.106  0.0099 -0.2608 -0.0625
 4286SOL    HW124317   1.092   1.991  14.129  0.1917  2.6862  2.8749
 4286SOL    HW224318   0.943   1.960  14.152 -0.8194 -0.5180 -1.4898
 4287SOL     OW24319   0.868   1.323  13.365 -0.0461  0.1370  0.1018
 4287SOL    HW124320   0.910   1.366  13.290  1.4188 -0.3284  0.6739
 4287SOL    HW224321   0.786   1.372  13.370  0.6881  1.2905  0.8336
 4288SOL     OW24322   0.762   0.862   5.722  0.5111  0.0692  0.5384
 4288SOL    HW124323   0.719   0.777   5.732 -0.1083  0.4103  0.7968
 4288SOL    HW224324   0.837   0.845   5.666 -0.2228 -2.6170  0.3546
 4289SOL     OW24325   2.353   0.594   5.210 -0.5395 -0.8249  0.1655
 4289SOL    HW124326   2.286   0.525   5.211 -0.4949 -0.8898 -1.5076
 4289SOL    HW224327   2.431   0.538   5.212  1.2617  1.6157 -2.7321
 4290SOL     OW24328   4.498   4.536   3.975 -0.1022 -0.2600 -0.0188
 4290SOL    HW124329   4.576   4.543   4.031 -0.4429  2.9472  0.0272
 4290SOL    HW224330   4.446   4.605   4.016 -1.4165  1.2893 -4.3217
 4291SOL     OW24331   1.822   2.097  11.304 -0.0282  0.3469 -0.2036
 4291SOL    HW124332   1.884   2.168  11.285 -1.3222  1.5141 -0.0501
 4291SOL    HW224333   1.882   2.043  11.356 -1.2168  0.2288  1.0519
 4292SOL     OW24334   3.867   2.030   7.391  0.1978 -0.1630  0.0426
 4292SOL    HW124335   3.889   1.942   7.361 -1.7405  0.0471 -1.9665
 4292SOL    HW224336   3.813   2.004   7.465 -0.7100  1.0104 -0.2184
 4293SOL     OW24337   0.555   0.854  12.719  1.0137  0.0494  0.2710
 4293SOL    HW124338   0.586   0.935  12.680  2.3187  0.0937  1.4192
 4293SOL    HW224339   0.461   0.850  12.700  0.8120 -1.2494  1.5650
 4294SOL     OW24340   0.246   2.126  14.057 -0.2719  0.5131 -0.1282
 4294SOL    HW124341   0.341   2.124  14.060 -0.3360 -1.2467  1.0070
 4294SOL    HW224342   0.226   2.160  14.144  0.3542 -0.6464  0.4792
 4295SOL     OW24343   0.696   2.752   4.315 -0.0918 -0.5571 -0.2750
 4295SOL    HW124344   0.604   2.756   4.344 -0.7460 -0.0078 -2.4395
 4295SOL    HW224345   0.728   2.690   4.381  0.3790  1.3503  1.2717
 4296SOL     OW24346   0.868   4.118   4.780  0.4100  0.1571  0.3516
 4296SOL    HW124347   0.902   4.065   4.852 -0.9965 -0.2729  0.7148
 4296SOL    HW224348   0.878   4.059   4.706  0.0129  2.1191 -1.2530
 4297SOL     OW24349   3.051   2.431   4.253 -0.5370  0.0086 -0.0343
 4297SOL    HW124350   3.016   2.493   4.317 -0.3952 -0.6815  0.7074
 4297SOL    HW224351   3.039   2.480   4.171 -0.3410 -0.2555 -0.2203
 4298SOL     OW24352   2.203   2.977   2.402 -0.7460 -0.0363 -0.1411
 4298SOL    HW124353   2.218   3.054   2.348 -0.7002 -0.2384 -0.4149
 4298SOL    HW224354   2.108   2.967   2.404 -0.6971 -0.7033 -2.1454
 4299SOL     OW24355   4.362   3.624   3.821 -0.1418 -0.1191  0.1867
 4299SOL    HW124356   4.268   3.644   3.818 -0.5996 -2.1617  1.4818
 4299SOL    HW224357   4.397   3.681   3.752  0.0183  0.4769  0.7551
 4300SOL     OW24358   0.672   2.242   8.140  0.1281  0.3236 -0.9372
 4300SOL    HW124359   0.751   2.283   8.175  0.2667 -2.2439  1.7669
 4300SOL    HW224360   0.700   2.217   8.053  0.8961 -1.3248 -0.2187
 4301SOL     OW24361   4.177   2.038   8.566 -0.2082 -0.0589  0.0991
 4301SOL    HW124362   4.110   2.082   8.514 -1.2420 -1.9149 -0.1692
 4301SOL    HW224363   4.125   1.983   8.624  1.4664  1.4503  3.0108
 4302SOL     OW24364   3.314   2.211   6.459 -0.0157  0.5170  0.7966
 4302SOL    HW124365   3.355   2.239   6.378 -0.5761 -0.8682  0.0431
 4302SOL    HW224366   3.391   2.208   6.516  0.1148  1.6028  0.6769
 4303SOL     OW24367   4.088   0.008   9.281  0.4273 -0.0764  0.1543
 4303SOL    HW124368   4.104   0.016   9.375  1.7295  0.3891 -0.1121
 4303SOL    HW224369   3.992   0.009   9.275  0.3427 -1.0677  1.3306
 4304SOL     OW24370   3.148   3.575   5.230 -0.0989 -0.2655 -0.5378
 4304SOL    HW124371   3.155   3.526   5.148 -0.3723 -1.0265 -0.1067
 4304SOL    HW224372   3.095   3.516   5.283  1.0436 -1.9591 -1.2670
 4305SOL     OW24373   0.810   3.429  13.028  0.2810  0.5561 -0.1025
 4305SOL    HW124374   0.864   3.407  12.953  0.4194  2.6947 -0.6248
 4305SOL    HW224375   0.754   3.496  12.989 -1.4749 -1.4565 -1.0430
 4306SOL     OW24376   3.649   0.462  14.313  0.6049  0.1203  0.2705
 4306SOL    HW124377   3.635   0.421  14.227  0.8161  0.4951  0.0533
 4306SOL    HW224378   3.724   0.413  14.347 -0.0283 -1.1572 -0.1582
 4307SOL     OW24379   0.624   2.175  17.110 -0.6817  0.1106 -0.3060
 4307SOL    HW124380   0.544   2.133  17.143 -0.6978 -1.4643 -2.3417
 4307SOL    HW224381   0.653   2.238  17.176  0.6294  0.2151 -0.9906
 4308SOL     OW24382   2.858   1.868   4.603 -0.5034 -0.0196 -0.1888
 4308SOL    HW124383   2.772   1.831   4.623 -0.8049  0.2272 -1.0486
 4308SOL    HW224384   2.838   1.950   4.557 -1.4895 -2.1509 -3.5049
 4309SOL     OW24385   0.924   1.293  15.156 -0.1705  0.9993 -0.0025
 4309SOL    HW124386   0.940   1.355  15.227  0.9968  0.0874  0.5340
 4309SOL    HW224387   0.925   1.209  15.202 -0.0238  0.2513 -1.3686
 4310SOL     OW24388   2.333   0.109  15.405  0.2811 -0.1381  0.2703
 4310SOL    HW124389   2.364   0.070  15.487  0.6253  1.3171  0.8197
 4310SOL    HW224390   2.385   0.189  15.414  0.1586  0.2161 -2.0806
 4311SOL     OW24391   2.205   3.448  10.149  0.1376  0.2557  0.4080
 4311SOL    HW124392   2.144   3.433  10.077  0.1654 -0.1243  0.4630
 4311SOL    HW224393   2.280   3.469  10.095 -0.3404 -1.0074 -0.7517
 4312SOL     OW24394   1.756   2.947   4.640 -0.5290  0.2587  0.1367
 4312SOL    HW124395   1.758   2.851   4.641 -1.7999  0.2571  2.4762
 4312SOL    HW224396   1.836   2.969   4.594 -0.3842  0.2130  0.3681
 4313SOL     OW24397   2.513   1.212   2.719 -0.0440  0.4496  0.1158
 4313SOL    HW124398   2.580   1.219   2.787 -1.0330  0.7350  1.0657
 4313SOL    HW224399   2.551   1.277   2.660 -0.2159 -0.2742 -0.8074
 4314SOL     OW24400   1.361   0.339   8.732 -0.2506  0.8089  0.0455
 4314SOL    HW124401   1.348   0.296   8.817  1.4451  3.4400  1.6263
 4314SOL    HW224402   1.406   0.273   8.679 -0.1981 -0.4198  1.6337
 4315SOL     OW24403   1.315   0.363  10.453  0.0510 -0.2141  0.6678
 4315SOL    HW124404   1.404   0.398  10.451  0.0264 -0.1575  0.5619
 4315SOL    HW224405   1.341   0.274  10.475 -1.7039 -0.5822  1.2391
 4316SOL     OW24406   0.699   1.054   7.172 -0.3863  0.5505 -0.4513
 4316SOL    HW124407   0.739   0.967   7.165 -2.0617 -0.3676  1.4774
 4316SOL    HW224408   0.642   1.052   7.095 -0.5334 -0.1430 -0.3284
 4317SOL     OW24409   3.525   3.830  15.968  0.0115  0.0152 -0.0429
 4317SOL    HW124410   3.436   3.861  15.950 -0.4237 -1.5562 -0.5448
 4317SOL    HW224411   3.529   3.840  16.063 -1.7879 -0.2326  0.0688
 4318SOL     OW24412   4.640   2.410   2.992 -0.6415 -0.3677  0.0136
 4318SOL    HW124413   4.703   2.354   3.037 -0.1651 -0.6035 -0.9541
 4318SOL    HW224414   4.690   2.423   2.911 -0.0418  1.8981  0.7608
 4319SOL     OW24415   1.999   3.844   3.107 -0.2512 -0.2923  0.5317
 4319SOL    HW124416   2.020   3.756   3.136 -0.1985 -0.0858  1.1248
 4319SOL    HW224417   2.053   3.857   3.029  2.1153  0.8394  2.3682
 4320SOL     OW24418   0.886   4.343   5.116 -0.2980 -0.0806  0.0320
 4320SOL    HW124419   0.912   4.435   5.112 -2.4459  0.4701 -0.8213
 4320SOL    HW224420   0.923   4.320   5.202 -1.5287 -0.3662  0.4872
 4321SOL     OW24421   1.056   1.520   4.901  0.1131  0.1947  0.4084
 4321SOL    HW124422   1.005   1.584   4.851  2.0333  1.5249  0.1568
 4321SOL    HW224423   1.043   1.547   4.992 -1.1769  0.9739 -0.0081
 4322SOL     OW24424   3.787   4.403  15.758 -0.2637 -0.3498 -0.1647
 4322SOL    HW124425   3.841   4.329  15.784 -0.0199  0.7410  2.4192
 4322SOL    HW224426   3.705   4.370  15.720  0.2702  0.0787 -1.7167
 4323SOL     OW24427   2.004   2.519   7.217 -0.2818  0.8185 -0.4007
 4323SOL    HW124428   1.999   2.502   7.311 -1.1102  0.1649 -0.5730
 4323SOL    HW224429   1.924   2.470   7.199 -0.6856  0.6128  1.8770
 4324SOL     OW24430   0.913   3.235   5.766 -0.0383 -0.4796 -0.8349
 4324SOL    HW124431   0.820   3.225   5.788 -0.2727 -0.6544 -1.8966
 4324SOL    HW224432   0.913   3.322   5.725 -2.2612 -0.5134 -0.9068
 4325SOL     OW24433   3.776   3.546   4.323  0.8225 -0.4075 -0.4702
 4325SOL    HW124434   3.739   3.632   4.343  0.8335 -0.4791 -0.1424
 4325SOL    HW224435   3.696   3.498   4.304 -1.0239  2.4502  0.1103
 4326SOL     OW24436   0.570   4.434   2.307 -0.0319  0.0083 -0.2854
 4326SOL    HW124437   0.555   4.410   2.216  0.7724 -0.9482 -0.1747
 4326SOL    HW224438   0.496   4.386   2.345  0.6169  0.6597  1.7804
 4327SOL     OW24439   0.680   0.713   8.991  0.1220  0.0518 -0.2851
 4327SOL    HW124440   0.753   0.763   9.027  1.7024 -2.5964  0.2407
 4327SOL    HW224441   0.619   0.717   9.065  1.2631  0.2382  0.6410
 4328SOL     OW24442   2.426   2.790  12.624  0.1952 -0.2159  0.0079
 4328SOL    HW124443   2.470   2.767  12.706 -0.5836  0.0886  0.5180
 4328SOL    HW224444   2.378   2.709  12.603  1.6297 -1.3674  1.1579
 4329SOL     OW24445   3.275   0.905  14.792 -0.4125 -0.2298  0.0853
 4329SOL    HW124446   3.315   0.970  14.736 -0.3183 -1.0371 -0.7863
 4329SOL    HW224447   3.189   0.945  14.803  0.4084  1.6740 -0.5388
 4330SOL     OW24448   1.133   1.587   2.446 -0.4647  0.3142 -0.1107
 4330SOL    HW124449   1.151   1.671   2.402 -0.5628  0.3372 -0.1066
 4330SOL    HW224450   1.202   1.598   2.512  0.5843  1.4703 -1.3843
 4331SOL     OW24451   0.811   3.243   0.963  0.5070  0.1634 -0.3599
 4331SOL    HW124452   0.900   3.260   0.994  0.3645  0.4628 -0.1127
 4331SOL    HW224453   0.777   3.331   0.978  0.3059  0.2373 -1.2488
 4332SOL     OW24454   3.894   3.476   2.666 -0.3403  0.3406 -0.4632
 4332SOL    HW124455   3.928   3.548   2.612  0.1202  1.4242  1.2939
 4332SOL    HW224456   3.967   3.455   2.723 -0.3723  1.4476 -0.0073
 4333SOL     OW24457   1.378   3.213  10.826 -0.5843 -0.0576  0.4592
 4333SOL    HW124458   1.379   3.307  10.809 -0.7060 -0.3029 -0.8758
 4333SOL    HW224459   1.318   3.201  10.900 -1.6984 -1.5829 -0.7063
 4334SOL     OW24460   3.514   0.778  16.723 -0.5668 -0.7394 -0.5281
 4334SOL    HW124461   3.440   0.757  16.666 -0.5772 -2.0005 -0.0584
 4334SOL    HW224462   3.477   0.750  16.807 -0.2940 -0.6461 -0.3760
 4335SOL     OW24463   0.801   2.730  17.692  0.0122  0.5381 -0.7185
 4335SOL    HW124464   0.843   2.674  17.626 -0.9334 -0.6914 -0.2628
 4335SOL    HW224465   0.871   2.742   0.064 -1.6150  1.2573  0.9076
 4336SOL     OW24466   2.524   1.473   7.930  0.2089  0.2724  0.5165
 4336SOL    HW124467   2.573   1.528   7.991 -0.9747  1.3469  0.4852
 4336SOL    HW224468   2.598   1.419   7.899  1.3198  1.0700  1.7773
 4337SOL     OW24469   2.691   1.875   3.028 -0.4499 -0.1557  0.0909
 4337SOL    HW124470   2.771   1.914   3.063 -1.8309  1.7607  1.0996
 4337SOL    HW224471   2.723   1.865   2.938 -1.1458  0.3493 -0.2148
 4338SOL     OW24472   4.412   3.346  16.347  0.1959 -0.2034  0.3087
 4338SOL    HW124473   4.465   3.322  16.422 -1.0397 -0.7738  0.9938
 4338SOL    HW224474   4.387   3.433  16.378 -2.5917  0.5313 -3.8810
 4339SOL     OW24475   0.585   1.434   9.927  0.3821 -0.2090 -0.1527
 4339SOL    HW124476   0.559   1.499   9.992 -2.1728 -1.8806  0.5146
 4339SOL    HW224477   0.681   1.441   9.932  0.4698 -0.7054 -1.1195
 4340SOL     OW24478   3.368   2.525  14.101  0.1262 -0.1198  0.3564
 4340SOL    HW124479   3.376   2.529  14.197  0.5198  0.4359  0.2993
 4340SOL    HW224480   3.285   2.477  14.097  0.7049 -1.1620  0.7782
 4341SOL     OW24481   4.588   2.250   8.052  0.2141  0.2503  0.2424
 4341SOL    HW124482   4.602   2.165   8.095 -0.2273  0.6537  1.2002
 4341SOL    HW224483   4.499   2.248   8.088 -0.4830 -0.0238 -1.5299
 4342SOL     OW24484   1.955   1.784  16.143  0.9165 -0.2146 -0.1638
 4342SOL    HW124485   1.929   1.836  16.219  0.1433  1.8879 -1.8652
 4342SOL    HW224486   2.051   1.785  16.144  0.9185 -0.8800  0.0917
 4343SOL     OW24487   0.529   2.598  10.416 -0.5434  0.4295  0.2018
 4343SOL    HW124488   0.507   2.614  10.324  0.2629  1.0829  0.1188
 4343SOL    HW224489   0.509   2.681  10.458  2.4897  0.5401  1.4012
 4344SOL     OW24490   1.614   2.332  12.036  0.1203  0.0538 -0.2167
 4344SOL    HW124491   1.583   2.266  12.097  1.4890 -0.1117  0.2993
 4344SOL    HW224492   1.700   2.345  12.076  0.0626 -1.1799  0.2915
 4345SOL     OW24493   3.199   0.991   6.067 -0.8664 -0.1341 -0.1127
 4345SOL    HW124494   3.281   0.976   6.114  0.2265 -0.2272 -2.0638
 4345SOL    HW224495   3.148   0.961   6.142  1.7359  4.0314  3.3400
 4346SOL     OW24496   4.687   0.202   4.362  0.6687 -0.5344  0.5914
 4346SOL    HW124497   0.028   0.185   4.293 -0.7214 -0.2094 -0.7766
 4346SOL    HW224498   4.670   0.291   4.331  1.5457 -1.4169 -2.3806
 4347SOL     OW24499   0.114   4.391   1.270  0.5436  0.7078  0.5431
 4347SOL    HW124500   0.161   4.308   1.265 -1.1740 -0.1847 -0.9693
 4347SOL    HW224501   0.033   4.351   1.302  1.5682 -1.2130  0.7707
 4348SOL     OW24502   3.811   1.805   7.706 -0.4187  0.2330 -0.0283
 4348SOL    HW124503   3.853   1.721   7.721  1.2464  1.0757  0.0589
 4348SOL    HW224504   3.767   1.777   7.626  1.6577  0.2061 -1.1635
 4349SOL     OW24505   2.865   1.464  14.496 -0.1023 -0.5302  0.0568
 4349SOL    HW124506   2.847   1.552  14.529 -2.4481 -0.9941  0.0135
 4349SOL    HW224507   2.906   1.474  14.409 -0.2191  1.4337  0.2170
 4350SOL     OW24508   0.671   4.654   3.262 -0.2428  0.1559  0.0388
 4350SOL    HW124509   0.704   0.021   3.268 -0.6688  0.4173 -1.5818
 4350SOL    HW224510   0.700   4.625   3.176  0.4902  0.4141  0.2050
 4351SOL     OW24511   2.013   2.157   8.492  0.2991  0.2103 -0.3368
 4351SOL    HW124512   1.990   2.242   8.454  0.8147  0.7166  0.4866
 4351SOL    HW224513   2.045   2.183   8.578 -1.5611  1.3072  0.0050
 4352SOL     OW24514   4.229   4.097   6.064  0.0974 -0.1785  0.0804
 4352SOL    HW124515   4.233   4.065   5.974  3.0936 -0.5240  0.3655
 4352SOL    HW224516   4.228   4.013   6.109  0.4131  0.4198  1.1815
 4353SOL     OW24517   2.431   2.966   1.401 -0.0664 -0.1408  0.1846
 4353SOL    HW124518   2.513   2.987   1.446  0.2261 -0.5875 -0.1375
 4353SOL    HW224519   2.421   3.041   1.343  1.9765 -0.1152 -0.1382
 4354SOL     OW24520   1.448   1.221   6.436 -0.7298  0.1718 -0.2966
 4354SOL    HW124521   1.373   1.202   6.493 -0.8586  1.0669 -0.1738
 4354SOL    HW224522   1.502   1.259   6.505  0.7296 -1.4292 -0.5461
 4355SOL     OW24523   2.530   1.229  13.872  0.0473  0.1337 -0.0945
 4355SOL    HW124524   2.462   1.297  13.876 -0.9210 -0.8843  0.8371
 4355SOL    HW224525   2.475   1.163  13.831  1.9745 -1.8853  0.6144
 4356SOL     OW24526   4.392   4.480   0.489  0.3309  0.2353 -0.2046
 4356SOL    HW124527   4.392   4.398   0.440 -2.0061  0.4724 -0.5860
 4356SOL    HW224528   4.301   4.506   0.477 -0.0553 -0.4123  1.3032
 4357SOL     OW24529   0.510   1.836  15.138 -0.4073  0.1626 -0.1055
 4357SOL    HW124530   0.441   1.807  15.197  0.6669  1.5215  1.8153
 4357SOL    HW224531   0.461   1.891  15.077 -1.4021  0.3152  0.8290
 4358SOL     OW24532   2.045   1.933  11.677 -0.1967  0.1699 -0.0598
 4358SOL    HW124533   2.046   2.020  11.718 -0.0223 -0.1960  0.7133
 4358SOL    HW224534   2.117   1.891  11.724  0.1594  2.2207  1.2394
 4359SOL     OW24535   1.429   3.961   2.797  0.2284  0.4222 -0.0691
 4359SOL    HW124536   1.385   4.005   2.725  1.3714  1.7406  0.0497
 4359SOL    HW224537   1.382   3.877   2.791 -0.6271  1.1635 -3.1883
 4360SOL     OW24538   4.320   1.653   1.890  0.3678  0.6688  0.7323
 4360SOL    HW124539   4.256   1.721   1.908 -1.0265 -0.4278 -0.0994
 4360SOL    HW224540   4.280   1.610   1.815  2.1083  1.1561 -0.4686
 4361SOL     OW24541   3.076   3.850   9.557 -0.0582  0.3642  0.0989
 4361SOL    HW124542   3.108   3.766   9.523  0.1951 -0.3228  2.0643
 4361SOL    HW224543   2.981   3.849   9.543 -0.0036 -2.9412 -0.2201
 4362SOL     OW24544   0.598   2.309   7.456 -0.0570 -0.5459  0.1679
 4362SOL    HW124545   0.548   2.236   7.420 -0.1712  0.4909 -1.7361
 4362SOL    HW224546   0.549   2.338   7.533 -0.6077  2.0260 -1.1510
 4363SOL     OW24547   4.618   1.322   6.320 -0.1452  0.3744  0.0835
 4363SOL    HW124548   4.554   1.388   6.350 -1.1598 -0.2399 -0.7195
 4363SOL    HW224549   4.635   1.343   6.228 -2.2696  0.0962 -0.3687
 4364SOL     OW24550   2.119   3.166  14.109  0.5518  0.2656  0.2699
 4364SOL    HW124551   2.023   3.172  14.106  0.5120  0.3046  1.4488
 4364SOL    HW224552   2.128   3.073  14.089 -0.8563 -0.0362  0.9913
 4365SOL     OW24553   4.131   2.011  12.106  0.5388  0.5926 -0.5826
 4365SOL    HW124554   4.142   1.916  12.106  0.5925  0.5907  0.5311
 4365SOL    HW224555   4.087   2.026  12.023 -1.9545  1.6650  0.9365
 4366SOL     OW24556   3.874   1.303   5.123  0.0879  0.0045  0.0600
 4366SOL    HW124557   3.798   1.336   5.077  0.6679 -0.2311 -1.0591
 4366SOL    HW224558   3.846   1.220   5.162  1.7811 -0.6278 -0.0665
 4367SOL     OW24559   4.406   3.943   2.042  0.0192  0.2465  0.3723
 4367SOL    HW124560   4.459   4.005   2.092  2.1458 -1.4947  0.2674
 4367SOL    HW224561   4.376   4.009   1.980 -3.2681 -0.3540  1.3154
 4368SOL     OW24562   1.822   4.078   6.400  0.4061 -0.3562  0.5498
 4368SOL    HW124563   1.915   4.062   6.381  0.9251  3.5736 -0.1339
 4368SOL    HW224564   1.816   4.056   6.493 -0.7750  0.0702  0.5679
 4369SOL     OW24565   3.692   4.024   9.928 -0.8537 -0.4620  0.5355
 4369SOL    HW124566   3.728   4.095   9.981  0.4053 -0.9416  0.3217
 4369SOL    HW224567   3.773   3.976   9.911 -0.3732  0.1843  0.9954
 4370SOL     OW24568   1.077   3.185  14.645 -0.0179 -0.1047 -0.5647
 4370SOL    HW124569   1.113   3.199  14.732 -0.2245 -0.4683 -0.4199
 4370SOL    HW224570   1.151   3.216  14.593 -0.4254  0.4132 -0.8391
 4371SOL     OW24571   2.889   3.531   4.859 -0.2087  0.4064  0.0637
 4371SOL    HW124572   2.867   3.492   4.774  1.6386 -1.7386  0.5486
 4371SOL    HW224573   2.861   3.466   4.924  0.6919 -0.7110 -0.6663
 4372SOL     OW24574   0.714   0.987   6.836 -0.7937  0.0793  0.3426
 4372SOL    HW124575   0.637   1.042   6.825 -0.9302 -0.2592 -0.3789
 4372SOL    HW224576   0.675   0.902   6.859  0.1501 -0.8455 -1.4711
 4373SOL     OW24577   0.293   2.148   5.509  0.6495  0.1191 -0.1339
 4373SOL    HW124578   0.258   2.077   5.456  0.5682 -1.1114  1.5680
 4373SOL    HW224579   0.243   2.221   5.472 -0.3763 -1.3774 -1.6847
 4374SOL     OW24580   1.434   2.385   6.324  0.0734  0.4577 -0.1127
 4374SOL    HW124581   1.471   2.460   6.371 -1.0141  2.0556 -1.8321
 4374SOL    HW224582   1.463   2.312   6.379 -2.2033  0.7124  1.4306
 4375SOL     OW24583   3.311   2.452  16.903 -0.5452 -0.0839 -0.8363
 4375SOL    HW124584   3.401   2.462  16.933 -0.3128 -1.2789 -1.1249
 4375SOL    HW224585   3.269   2.426  16.985 -0.2224  0.2489 -0.5691
 4376SOL     OW24586   2.510   3.425   5.806  0.2329 -0.6413 -0.5152
 4376SOL    HW124587   2.597   3.439   5.844 -0.3623 -1.0857  1.0373
 4376SOL    HW224588   2.494   3.505   5.758 -1.6922 -0.9507 -0.3716
 4377SOL     OW24589   4.562   3.835   7.010 -0.8311 -0.3135  0.1096
 4377SOL    HW124590   4.578   3.743   6.986 -0.4503 -0.3656  0.5569
 4377SOL    HW224591   4.622   3.875   6.948 -0.2307 -1.7029 -0.2156
 4378SOL     OW24592   3.933   2.151   3.704  0.1542  0.4822 -0.1125
 4378SOL    HW124593   3.911   2.110   3.620  0.5045 -0.1032  0.0773
 4378SOL    HW224594   4.023   2.125   3.725 -0.0515 -0.3498 -0.2813
 4379SOL     OW24595   3.288   0.842   5.535  0.0815  0.1132  0.1045
 4379SOL    HW124596   3.306   0.892   5.455 -0.1313 -1.1470 -0.7404
 4379SOL    HW224597   3.222   0.896   5.578  1.0815  1.4876 -0.0962
 4380SOL     OW24598   2.146   3.800   4.344  0.3083 -0.0472  0.9211
 4380SOL    HW124599   2.065   3.802   4.396 -0.4584 -0.0399 -0.2889
 4380SOL    HW224600   2.169   3.893   4.344 -0.0645  0.0436  2.9906
 4381SOL     OW24601   4.100   0.499   5.262  0.4340  0.3128 -0.4396
 4381SOL    HW124602   4.119   0.572   5.204 -0.0647  3.0122  2.7764
 4381SOL    HW224603   4.081   0.425   5.205 -0.6072  0.6063 -0.4763
 4382SOL     OW24604   0.781   0.462   9.049  0.1838  0.0216  0.0532
 4382SOL    HW124605   0.746   0.543   9.012  0.2177  0.4698  0.9983
 4382SOL    HW224606   0.826   0.487   9.129  0.7881 -0.6604 -0.0763
 4383SOL     OW24607   2.841   2.341   7.545  0.0278 -0.2565 -0.2347
 4383SOL    HW124608   2.881   2.393   7.475  1.2493 -0.2914  0.4311
 4383SOL    HW224609   2.779   2.292   7.491  0.6287 -1.8053  0.4791
 4384SOL     OW24610   0.243   4.063  11.179  0.3280 -0.7087  1.1547
 4384SOL    HW124611   0.217   4.090  11.268 -0.4302 -0.1356  0.7559
 4384SOL    HW224612   0.255   4.154  11.151 -2.8606 -1.0767 -1.3585
 4385SOL     OW24613   0.469   2.014   4.694  0.4539 -0.0071 -0.1226
 4385SOL    HW124614   0.492   1.923   4.712  2.6095  0.4530 -0.5783
 4385SOL    HW224615   0.422   2.013   4.611  0.2478  0.1636 -0.0074
 4386SOL     OW24616   4.342   4.705   8.059  0.4414 -0.2127 -0.1537
 4386SOL    HW124617   4.373   4.720   8.148 -0.2238  0.0452  0.0397
 4386SOL    HW224618   4.262   4.655   8.074 -0.0607  0.7678  0.4634
 4387SOL     OW24619   3.315   0.189  10.467 -0.1089  0.3485 -0.2541
 4387SOL    HW124620   3.371   0.149  10.534  1.4311  1.1588 -1.0576
 4387SOL    HW224621   3.279   0.117  10.414  0.4170 -1.6522  2.1218
 4388SOL     OW24622   2.438   2.415   5.724  0.4264  0.2859  0.0442
 4388SOL    HW124623   2.461   2.507   5.734  3.5174 -0.0368 -3.9698
 4388SOL    HW224624   2.512   2.372   5.769  0.7408 -0.6356 -1.3480
 4389SOL     OW24625   2.521   1.628   7.690 -0.0142 -0.4351 -1.0643
 4389SOL    HW124626   2.549   1.555   7.636  0.7538  1.4020 -3.1438
 4389SOL    HW224627   2.478   1.588   7.766 -0.5749  0.3790 -0.9509
 4390SOL     OW24628   0.165   4.133   7.003  0.0239  0.2980  0.3159
 4390SOL    HW124629   0.249   4.173   6.982 -0.4175  0.1752 -1.6131
 4390SOL    HW224630   0.153   4.064   6.938 -0.8206  2.0015 -1.3118
 4391SOL     OW24631   2.015   3.668  16.005 -0.1173 -0.1155 -0.8755
 4391SOL    HW124632   2.068   3.743  16.035 -2.1828  0.7909  0.4702
 4391SOL    HW224633   1.936   3.721  15.998 -0.3382 -0.6320 -2.1923
 4392SOL     OW24634   2.981   0.498  13.415  0.3048 -0.2034 -0.0460
 4392SOL    HW124635   2.959   0.441  13.342 -0.3720  0.5038 -0.3954
 4392SOL    HW224636   2.952   0.448  13.490  1.8328 -0.1865  0.5632
 4393SOL     OW24637   0.094   2.373   8.155  0.2649  0.3174 -0.0165
 4393SOL    HW124638   0.165   2.314   8.130 -0.1050 -0.5260  0.9279
 4393SOL    HW224639   0.012   2.330   8.131  0.2270  1.0215 -1.1687
 4394SOL     OW24640   0.696   3.163   8.497  0.0613  0.0619  0.3637
 4394SOL    HW124641   0.717   3.251   8.464 -0.5821  0.0290 -0.1472
 4394SOL    HW224642   0.604   3.186   8.508 -0.3045 -0.5142 -1.3797
 4395SOL     OW24643   3.927   2.443   7.615 -0.5559  0.7143 -0.4680
 4395SOL    HW124644   3.936   2.358   7.657  2.9034  0.6049 -1.5143
 4395SOL    HW224645   3.904   2.418   7.526 -0.1393  1.0375 -0.6687
 4396SOL     OW24646   3.060   0.229   6.507 -0.3477  0.0363  0.1390
 4396SOL    HW124647   3.132   0.234   6.445 -1.0367 -1.7862 -0.8037
 4396SOL    HW224648   3.018   0.311   6.483 -1.0483  0.0085  1.2367
 4397SOL     OW24649   0.434   0.489  16.332  0.0666 -0.2381 -0.1540
 4397SOL    HW124650   0.395   0.404  16.351  1.1448 -0.5905  0.4969
 4397SOL    HW224651   0.376   0.550  16.377  1.1222  0.0879  0.7494
 4398SOL     OW24652   1.911   0.673   7.025 -0.4438  0.1279 -0.0499
 4398SOL    HW124653   1.836   0.650   6.970  0.2337  0.9839 -1.3311
 4398SOL    HW224654   1.878   0.657   7.113  2.4246 -2.6719  0.5010
 4399SOL     OW24655   1.498   2.879   6.854  0.5857  0.4582  0.1727
 4399SOL    HW124656   1.410   2.843   6.861  0.8558 -0.5747 -1.6770
 4399SOL    HW224657   1.476   2.970   6.835  2.4401  0.7193 -0.7762
 4400SOL     OW24658   4.495   1.915   7.231 -0.4217  0.6099 -1.3902
 4400SOL    HW124659   4.518   2.005   7.206  1.8042  0.2771 -0.5670
 4400SOL    HW224660   4.575   1.887   7.277 -1.2304 -0.1983 -0.4701
 4401SOL     OW24661   0.015   3.215   6.300  0.2844 -0.1196 -0.6888
 4401SOL    HW124662   4.647   3.246   6.288  0.9436  1.6884 -1.0400
 4401SOL    HW224663   0.055   3.282   6.355 -0.1794 -1.5218  1.3581
 4402SOL     OW24664   4.045   3.956  10.450 -0.5020 -0.0403  0.7178
 4402SOL    HW124665   4.134   3.977  10.475 -0.4168  0.1990  0.2138
 4402SOL    HW224666   4.024   4.036  10.401  1.9582 -1.5258 -2.6940
 4403SOL     OW24667   4.388   2.229   4.124  0.0433  0.1744  0.5653
 4403SOL    HW124668   4.305   2.268   4.099  0.8319  2.2698  1.2293
 4403SOL    HW224669   4.419   2.203   4.037  2.2027  2.9809  0.4822
 4404SOL     OW24670   0.749   2.133  12.385 -0.7376  0.0326 -0.4035
 4404SOL    HW124671   0.681   2.138  12.452 -0.7558 -2.6014 -0.2166
 4404SOL    HW224672   0.787   2.221  12.385 -1.9679  0.5629 -0.4644
 4405SOL     OW24673   0.488   2.122  15.768  0.1785  0.7807  0.2318
 4405SOL    HW124674   0.510   2.122  15.675 -1.9196  1.8886 -0.2582
 4405SOL    HW224675   0.457   2.032  15.767  2.0366  0.1295  0.2459
 4406SOL     OW24676   1.244   1.753   5.101 -0.2685  0.0654 -0.2688
 4406SOL    HW124677   1.275   1.823   5.159 -0.0716  0.9139 -1.3996
 4406SOL    HW224678   1.208   1.796   5.024 -0.8214  0.4204  0.1869
 4407SOL     OW24679   2.135   2.280   1.084  0.9382  0.3921  0.5358
 4407SOL    HW124680   2.101   2.212   1.026 -1.9719  1.6991  0.7111
 4407SOL    HW224681   2.222   2.297   1.047  0.3288 -1.1941 -1.6041
 4408SOL     OW24682   0.901   0.610   8.717  0.2938  0.7446 -0.2602
 4408SOL    HW124683   0.987   0.604   8.758  0.7123 -1.1629 -1.4536
 4408SOL    HW224684   0.860   0.684   8.762 -0.6044  0.2477 -0.2559
 4409SOL     OW24685   1.202   1.304   2.530  0.0879  0.3275  0.4145
 4409SOL    HW124686   1.238   1.369   2.589 -1.9986 -0.4533  2.5556
 4409SOL    HW224687   1.206   1.345   2.444 -1.3720 -0.0025  0.1833
 4410SOL     OW24688   1.937   0.018   6.023 -0.0506  0.2016  0.2633
 4410SOL    HW124689   2.012   0.031   5.966 -0.3253  0.6977  0.0193
 4410SOL    HW224690   1.918   0.111   6.033 -1.9225 -0.2354  0.8357
 4411SOL     OW24691   1.341   3.168   7.931 -0.0125  0.4780 -0.2268
 4411SOL    HW124692   1.323   3.262   7.923  1.0752  1.0501  3.6858
 4411SOL    HW224693   1.434   3.156   7.947  0.0928  3.1334  1.1948
 4412SOL     OW24694   3.414   0.865   6.530  0.7569 -0.0152 -0.0314
 4412SOL    HW124695   3.386   0.925   6.600  1.0711  0.7589 -0.5625
 4412SOL    HW224696   3.331   0.822   6.509  1.5497 -1.7894  0.4824
 4413SOL     OW24697   2.325   4.288   5.984  0.1783 -0.3841 -0.5821
 4413SOL    HW124698   2.289   4.374   6.004 -2.9361 -1.7028 -0.4990
 4413SOL    HW224699   2.250   4.232   6.003 -0.5925  0.5447 -0.8686
 4414SOL     OW24700   2.247   2.798   7.816  0.4919  0.2325  0.7468
 4414SOL    HW124701   2.181   2.864   7.837 -1.3135 -1.3291 -0.1429
 4414SOL    HW224702   2.301   2.832   7.888 -0.2321 -0.4198  1.5903
 4415SOL     OW24703   1.585   2.798   0.304 -0.3296 -0.6371  0.1474
 4415SOL    HW124704   1.674   2.777   0.331 -0.9959 -0.0645  2.7693
 4415SOL    HW224705   1.534   2.726   0.343 -0.6294 -0.7059 -0.3669
 4416SOL     OW24706   3.296   1.147  13.391  0.0693  0.3231 -0.0257
 4416SOL    HW124707   3.373   1.114  13.437 -0.6922 -0.0617  0.9678
 4416SOL    HW224708   3.237   1.162  13.464  0.2425 -1.3856  0.4656
 4417SOL     OW24709   4.282   4.499   3.637 -0.2782  1.0358  0.8094
 4417SOL    HW124710   4.360   4.550   3.662  0.6860  0.2220 -0.5236
 4417SOL    HW224711   4.238   4.495   3.722  0.7468 -1.1178  1.2595
 4418SOL     OW24712   0.740   2.504   3.800 -0.3893  0.0991 -0.4932
 4418SOL    HW124713   0.762   2.411   3.800  2.3743  0.7706  0.5178
 4418SOL    HW224714   0.763   2.524   3.709 -1.3753  1.5574 -0.4228
 4419SOL     OW24715   0.891   3.459   7.877 -0.0866  0.1492  0.0536
 4419SOL    HW124716   0.923   3.373   7.851 -1.1027 -0.2477  0.1150
 4419SOL    HW224717   0.887   3.503   7.792  0.4067 -1.7373 -0.9401
 4420SOL     OW24718   4.663   1.941  16.915  0.0690 -0.4376 -0.1951
 4420SOL    HW124719   4.722   1.868  16.894  0.8056  0.5278 -1.4865
 4420SOL    HW224720   0.003   2.011  16.934  0.1225 -1.0559  1.8694
 4421SOL     OW24721   0.767   3.246   1.927  0.2368  0.1241  0.3904
 4421SOL    HW124722   0.800   3.169   1.881  0.0170  0.7486 -0.8020
 4421SOL    HW224723   0.832   3.311   1.903 -0.3002 -0.3236 -2.2447
 4422SOL     OW24724   3.100   1.491   3.857 -0.0880 -0.1051  0.1457
 4422SOL    HW124725   3.017   1.504   3.902 -1.5144 -0.6781 -2.3174
 4422SOL    HW224726   3.155   1.489   3.936  0.1478 -0.7491 -0.0355
 4423SOL     OW24727   1.270   4.265  10.582 -0.1376 -0.2769 -0.7508
 4423SOL    HW124728   1.227   4.200  10.636 -0.8121  0.8270  0.0420
 4423SOL    HW224729   1.357   4.227  10.568 -0.1785 -0.6229 -0.0368
 4424SOL     OW24730   1.679   3.133   7.253  0.1470 -0.4329  0.7067
 4424SOL    HW124731   1.690   3.039   7.271  1.8024 -0.5635 -0.9796
 4424SOL    HW224732   1.700   3.135   7.160  0.8455 -0.2867  0.8709
 4425SOL     OW24733   2.249   1.884   5.568 -0.3445  0.0669 -0.9767
 4425SOL    HW124734   2.264   1.975   5.541  1.2094  0.1188  0.0171
 4425SOL    HW224735   2.283   1.835   5.493  1.1741 -0.8642  0.3089
 4426SOL     OW24736   3.122   1.500   2.890 -0.2798 -0.2633 -0.5791
 4426SOL    HW124737   3.055   1.566   2.872 -0.3419 -0.7356 -2.0875
 4426SOL    HW224738   3.149   1.471   2.803 -0.2163 -1.2930 -0.2210
 4427SOL     OW24739   1.084   2.946   2.955  0.4249  0.2465  0.4228
 4427SOL    HW124740   1.076   2.968   3.048  0.0885  0.0501  0.4394
 4427SOL    HW224741   1.010   2.984   2.907  1.4122 -0.6887 -1.8479
 4428SOL     OW24742   3.971   2.964  16.048 -0.0541 -0.0486 -0.1266
 4428SOL    HW124743   4.060   2.957  16.014 -0.3009  1.5074 -1.0852
 4428SOL    HW224744   3.951   3.051  16.013  1.9498 -0.1012 -1.3926
 4429SOL     OW24745   2.264   3.920  17.535 -0.3819 -0.3937 -0.6595
 4429SOL    HW124746   2.229   3.873  17.460  3.7015 -1.1654 -2.1234
 4429SOL    HW224747   2.333   3.969  17.490 -0.7957 -0.4597 -1.3606
 4430SOL     OW24748   3.541   4.544   7.516 -0.2018  0.3583 -0.4696
 4430SOL    HW124749   3.488   4.572   7.590 -2.4732  1.1327 -2.3753
 4430SOL    HW224750   3.500   4.458   7.504  0.9849 -0.5205  1.9871
 4431SOL     OW24751   1.469   3.192   1.866 -0.2580 -0.0679  0.4940
 4431SOL    HW124752   1.454   3.157   1.778 -1.0551 -3.2467  1.9049
 4431SOL    HW224753   1.456   3.118   1.925 -2.4585  0.7674  1.0566
 4432SOL     OW24754   3.412   3.128   6.869 -0.3521 -0.2669 -0.0428
 4432SOL    HW124755   3.367   3.045   6.880  0.2827 -0.5363  0.4956
 4432SOL    HW224756   3.338   3.188   6.858  0.5884  0.7831 -0.7114
 4433SOL     OW24757   0.205   2.744  10.283 -0.1693 -0.5135  0.5116
 4433SOL    HW124758   0.156   2.759  10.364 -0.6428  2.8556 -0.3766
 4433SOL    HW224759   0.145   2.702  10.222 -1.6195  0.9281  0.9231
 4434SOL     OW24760   2.302   1.341  16.875 -0.3622  0.4639  0.3464
 4434SOL    HW124761   2.279   1.433  16.884  0.2831  0.7065 -0.5202
 4434SOL    HW224762   2.217   1.297  16.866 -0.9171  1.5893  0.0892
 4435SOL     OW24763   2.000   0.833   4.627 -0.7212  0.1857  0.2649
 4435SOL    HW124764   2.094   0.817   4.613 -1.0465 -1.1659 -0.2745
 4435SOL    HW224765   2.006   0.854   4.720  1.9583 -1.3222  0.4265
 4436SOL     OW24766   3.044   2.074   1.062 -0.0370 -0.0015 -0.0115
 4436SOL    HW124767   2.988   2.107   0.991 -0.8817 -0.7572  0.3043
 4436SOL    HW224768   2.985   2.042   1.130  0.0854 -2.4374 -1.0469
 4437SOL     OW24769   4.607   2.376  10.187 -0.2753 -0.5144  0.8242
 4437SOL    HW124770   4.549   2.377  10.263  0.2874 -2.1162  1.2675
 4437SOL    HW224771   4.641   2.287  10.197 -1.7002 -1.0642  0.7521
 4438SOL     OW24772   2.037   2.498   4.143 -0.5112  0.1146 -0.4308
 4438SOL    HW124773   2.068   2.477   4.231 -0.3650  1.7432 -0.0985
 4438SOL    HW224774   2.116   2.503   4.089  1.0802 -1.0930  1.8064
 4439SOL     OW24775   1.313   1.995   5.195  0.3380  0.2990 -0.2701
 4439SOL    HW124776   1.401   1.998   5.234  0.6786 -0.0852 -1.0031
 4439SOL    HW224777   1.259   2.031   5.266 -0.7156 -0.7143 -0.5712
 4440SOL     OW24778   0.938   0.118   8.108  0.1630  0.4419  0.0960
 4440SOL    HW124779   0.850   0.085   8.126  0.4376  0.0107  0.6566
 4440SOL    HW224780   0.923   0.182   8.038  0.1523  0.4416  0.0981
 4441SOL     OW24781   2.230   2.815   5.827  0.1882 -0.2885 -0.4442
 4441SOL    HW124782   2.289   2.762   5.774  1.4591  0.6882  0.0058
 4441SOL    HW224783   2.166   2.849   5.764  1.1043  1.7986 -0.2459
 4442SOL     OW24784   4.655   3.330   9.016 -0.2243  0.2223 -0.0039
 4442SOL    HW124785   4.579   3.356   8.963  0.1049  0.6392 -0.2666
 4442SOL    HW224786   4.675   3.247   8.973  0.5989 -1.0846  2.9053
 4443SOL     OW24787   0.999   0.921   6.934 -0.0496  0.1247  0.4676
 4443SOL    HW124788   0.915   0.921   6.888 -0.0966  1.1372  0.5437
 4443SOL    HW224789   1.012   0.827   6.943 -1.2541 -0.2152 -1.3761
 4444SOL     OW24790   0.596   2.598   6.383 -0.9136  0.7737  0.1872
 4444SOL    HW124791   0.627   2.603   6.474 -1.8660  0.9194  0.5062
 4444SOL    HW224792   0.674   2.634   6.341 -0.8603  2.0161  1.3389
 4445SOL     OW24793   1.903   3.769   4.478  0.3174 -0.3191 -0.2577
 4445SOL    HW124794   1.863   3.683   4.492 -2.1664  0.7112 -1.0711
 4445SOL    HW224795   1.860   3.815   4.551  2.0055  0.1848  0.4179
 4446SOL     OW24796   4.553   3.671   3.321 -0.0887 -0.2130 -0.2683
 4446SOL    HW124797   4.628   3.661   3.379 -0.4580  1.6265  0.5299
 4446SOL    HW224798   4.478   3.658   3.380  0.0165 -0.3946 -0.1771
 4447SOL     OW24799   3.152   1.740  11.421 -0.3860  0.1977 -0.1737
 4447SOL    HW124800   3.174   1.744  11.514 -0.2812  1.4722 -0.2558
 4447SOL    HW224801   3.237   1.770  11.388 -0.3405  1.4771  1.0997
 4448SOL     OW24802   2.525   0.713   2.881  0.2511  0.0636  0.8430
 4448SOL    HW124803   2.436   0.692   2.910  1.1354 -2.6798  1.6155
 4448SOL    HW224804   2.516   0.806   2.862  2.7652  0.1469  0.0772
 4449SOL     OW24805   2.640   3.226  17.000 -0.3928  0.2718 -0.1885
 4449SOL    HW124806   2.591   3.182  16.931  0.5565 -0.8292 -0.1581
 4449SOL    HW224807   2.617   3.317  16.981  1.0439  0.7541  0.3855
 4450SOL     OW24808   4.719   0.825  14.928 -0.7147  0.7503 -0.1077
 4450SOL    HW124809   4.629   0.805  14.953 -0.9277  1.3876 -0.3612
 4450SOL    HW224810   4.712   0.855  14.837 -2.1230 -0.7022 -0.4703
 4451SOL     OW24811   1.592   4.416   0.569  0.3198  0.4133  0.2960
 4451SOL    HW124812   1.545   4.391   0.648 -0.2853 -0.2243 -0.2573
 4451SOL    HW224813   1.682   4.387   0.581  0.4369 -0.0523 -1.6410
 4452SOL     OW24814   0.420   2.174   1.138  0.0967  0.4744  0.1076
 4452SOL    HW124815   0.474   2.122   1.198  0.0152  0.4293  0.1429
 4452SOL    HW224816   0.411   2.259   1.182  3.6686  0.1457  1.4752
 4453SOL     OW24817   2.142   4.406  17.173 -0.1745 -0.5796  0.3370
 4453SOL    HW124818   2.130   4.436  17.264 -0.4773  0.4484 -0.0368
 4453SOL    HW224819   2.178   4.485  17.132  1.4850  0.0609  2.9942
 4454SOL     OW24820   2.885   0.190   0.553  0.0314  0.3921 -0.0405
 4454SOL    HW124821   2.962   0.180   0.608  0.3961 -0.9505 -0.7916
 4454SOL    HW224822   2.883   0.285   0.544  0.9044  0.3414 -0.7409
 4455SOL     OW24823   1.983   1.239   9.811 -0.0812 -0.2509  0.5742
 4455SOL    HW124824   1.901   1.268   9.850 -0.6249 -2.1236  0.7999
 4455SOL    HW224825   1.949   1.215   9.725  2.3278 -0.1690 -0.4203
 4456SOL     OW24826   4.138   0.611  12.927 -0.4203 -0.0781  0.3533
 4456SOL    HW124827   4.181   0.616  13.013  1.0533  0.1803 -0.3847
 4456SOL    HW224828   4.188   0.537  12.891  1.0835  0.6904  0.8427
 4457SOL     OW24829   2.378   0.164   2.882 -0.4237 -0.0509 -0.1379
 4457SOL    HW124830   2.340   0.161   2.795 -0.5773  1.8715 -0.1473
 4457SOL    HW224831   2.471   0.146   2.869 -0.6263 -2.9463  2.2837
 4458SOL     OW24832   4.354   1.413  16.879  1.0976  0.4231  0.1157
 4458SOL    HW124833   4.425   1.474  16.899 -0.7686  2.3956  0.8431
 4458SOL    HW224834   4.351   1.370  16.964  0.9947  0.1211 -0.0425
 4459SOL     OW24835   4.648   1.789   0.505 -0.1428 -0.3412  0.5554
 4459SOL    HW124836   4.645   1.694   0.497 -0.6717 -0.3871  1.3352
 4459SOL    HW224837   0.012   1.801   0.544 -0.4108  0.4984  0.8823
 4460SOL     OW24838   0.101   0.079   7.415 -0.7329  0.1102 -0.0583
 4460SOL    HW124839   0.055   0.043   7.491 -1.5268 -0.6020 -0.8772
 4460SOL    HW224840   0.161   0.006   7.399  0.0994  1.1002 -1.5293
 4461SOL     OW24841   1.881   4.215  17.308 -0.2392 -0.1949 -0.1527
 4461SOL    HW124842   1.839   4.290  17.350  1.8766  1.1453 -0.4097
 4461SOL    HW224843   1.900   4.155  17.380 -0.1534  0.5504  0.4458
 4462SOL     OW24844   4.486   3.745   6.005  0.1250  0.0062  0.1390
 4462SOL    HW124845   4.574   3.756   5.969  0.8612 -1.3528  1.5257
 4462SOL    HW224846   4.471   3.832   6.041  0.0806 -0.0751  0.3161
 4463SOL     OW24847   2.631   3.134  10.984 -0.5434  0.2368  0.2602
 4463SOL    HW124848   2.672   3.215  10.954  1.2984 -0.8640 -0.2176
 4463SOL    HW224849   2.575   3.161  11.057 -1.3881  1.4497 -0.8365
 4464SOL     OW24850   2.800   2.687  17.678  0.0942  0.5809  0.6191
 4464SOL    HW124851   2.852   2.739   0.047  2.2602 -1.2342  0.3103
 4464SOL    HW224852   2.782   2.749  17.607 -1.0133 -1.4998 -0.8972
 4465SOL     OW24853   1.113   1.956   9.540  0.0690 -0.0483  0.1618
 4465SOL    HW124854   1.138   2.021   9.475 -2.9301  0.6383 -0.3147
 4465SOL    HW224855   1.019   1.950   9.525  0.1780  3.2625 -1.8581
 4466SOL     OW24856   1.845   2.851   3.319  0.0123  0.5161 -0.6251
 4466SOL    HW124857   1.762   2.880   3.280 -1.8822  0.1588  3.0279
 4466SOL    HW224858   1.888   2.802   3.250  0.9811  0.4861 -0.0060
 4467SOL     OW24859   3.769   2.582   6.746  0.4512  0.0815 -0.3036
 4467SOL    HW124860   3.737   2.543   6.664  1.0758 -1.3870  0.1396
 4467SOL    HW224861   3.724   2.666   6.752  0.5649  0.3189 -2.7306
 4468SOL     OW24862   1.730   4.255   8.779  0.2616  0.0492 -0.1125
 4468SOL    HW124863   1.679   4.212   8.710  0.3801 -0.2296 -0.0283
 4468SOL    HW224864   1.747   4.340   8.738 -0.2598  0.6187  0.8614
 4469SOL     OW24865   4.366   1.497   6.777 -0.2712  0.5346  0.2354
 4469SOL    HW124866   4.408   1.521   6.694  0.2780  1.3687  0.7625
 4469SOL    HW224867   4.308   1.571   6.792  0.3439  1.2313 -0.8088
 4470SOL     OW24868   1.789   1.495   7.050 -0.4099 -0.2345 -0.3064
 4470SOL    HW124869   1.781   1.435   6.976  1.2808 -0.6675 -0.1493
 4470SOL    HW224870   1.773   1.583   7.018  2.3309  0.6621  0.7623
 4471SOL     OW24871   4.147   1.801  11.911  0.0369  0.3872 -0.6143
 4471SOL    HW124872   4.172   1.709  11.902 -0.0395  0.2979  0.0837
 4471SOL    HW224873   4.083   1.800  11.840 -0.0678  0.9724 -0.5221
 4472SOL     OW24874   1.512   0.185   0.548  0.1868  0.1456 -0.7087
 4472SOL    HW124875   1.574   0.167   0.619 -0.6890  2.3068  0.5973
 4472SOL    HW224876   1.496   0.099   0.509  1.2522 -0.7847  0.8817
 4473SOL     OW24877   1.883   1.708   3.565 -0.4711 -0.3440 -0.2119
 4473SOL    HW124878   1.950   1.655   3.609 -0.9310 -1.3152 -0.6725
 4473SOL    HW224879   1.884   1.669   3.477 -1.0130  1.0185 -0.8263
 4474SOL     OW24880   0.391   4.159   9.225  0.5709  0.0380  0.2364
 4474SOL    HW124881   0.357   4.155   9.136  3.7814 -2.8529 -0.8694
 4474SOL    HW224882   0.397   4.064   9.234  4.1650  0.3872  1.4773
 4475SOL     OW24883   3.682   0.591   8.463 -0.0612 -0.0806  0.2711
 4475SOL    HW124884   3.754   0.653   8.467  0.9885 -1.3295  0.8081
 4475SOL    HW224885   3.731   0.522   8.417  1.4880 -0.6358  2.7850
 4476SOL     OW24886   1.743   1.123  16.222  0.1113 -0.4099  0.0229
 4476SOL    HW124887   1.674   1.065  16.188 -0.2511  0.6962 -1.0999
 4476SOL    HW224888   1.769   1.064  16.293 -0.1997 -0.4976  0.0653
 4477SOL     OW24889   1.740   0.041  10.427 -0.6568  0.0237 -0.1109
 4477SOL    HW124890   1.771   0.125  10.460  1.0237  0.1371 -1.9933
 4477SOL    HW224891   1.697   0.008  10.506  1.4701 -2.0378  0.1825
 4478SOL     OW24892   0.409   1.081  14.961 -0.3584 -0.8547 -0.2967
 4478SOL    HW124893   0.354   1.084  14.883 -2.7941  0.9961  1.5105
 4478SOL    HW224894   0.494   1.061  14.921  0.5532  1.1263  0.6669
 4479SOL     OW24895   0.933   0.423   8.538 -0.1762 -0.2872  0.1318
 4479SOL    HW124896   0.961   0.360   8.604  0.8469  1.0783  1.0105
 4479SOL    HW224897   0.948   0.504   8.588  0.0176 -0.3128  0.1147
 4480SOL     OW24898   4.092   4.153  14.225  0.2468  0.7873  0.5115
 4480SOL    HW124899   4.179   4.125  14.255  0.5712  0.6113 -0.5780
 4480SOL    HW224900   4.041   4.078  14.255 -1.0958  0.9930 -1.2745
 4481SOL     OW24901   2.301   2.533  17.611  0.4525  0.4848  0.3878
 4481SOL    HW124902   2.332   2.592  17.680 -0.6037 -1.6614  2.7123
 4481SOL    HW224903   2.373   2.528  17.548  0.0988 -0.4278  0.0543
 4482SOL     OW24904   0.287   4.357  12.448  0.3201  0.6046 -0.1413
 4482SOL    HW124905   0.378   4.332  12.461  1.0598  1.0913 -4.2465
 4482SOL    HW224906   0.248   4.320  12.527 -2.3061  0.3226 -1.5598
 4483SOL     OW24907   1.487   3.729  11.147 -0.7196 -0.5650  0.7128
 4483SOL    HW124908   1.533   3.680  11.079 -0.2119  0.2469  0.4691
 4483SOL    HW224909   1.446   3.656  11.192  0.3910 -1.9206 -0.4854
 4484SOL     OW24910   1.628   3.050   5.164  0.0139 -0.2410 -0.6937
 4484SOL    HW124911   1.592   2.967   5.134  1.8358 -0.3366 -2.6451
 4484SOL    HW224912   1.716   3.042   5.126  0.7726 -1.3848  1.3484
 4485SOL     OW24913   2.827   1.611   3.485 -0.3174 -0.2493  0.0364
 4485SOL    HW124914   2.813   1.550   3.558  1.9854  1.6087  2.0321
 4485SOL    HW224915   2.745   1.659   3.497  1.0213  1.4799  2.3994
 4486SOL     OW24916   0.419   3.304   7.166 -0.0721 -0.2490 -0.1849
 4486SOL    HW124917   0.451   3.325   7.078 -0.2025 -1.3218 -0.4892
 4486SOL    HW224918   0.448   3.375   7.223 -1.8930  1.3344 -1.2180
 4487SOL     OW24919   0.858   1.924   9.436 -0.1586  0.1163 -0.1379
 4487SOL    HW124920   0.887   1.898   9.348 -1.2646 -0.6157 -0.2878
 4487SOL    HW224921   0.818   1.843   9.468 -1.8577  0.3014 -1.8462
 4488SOL     OW24922   0.397   3.360  12.798 -0.3755 -0.1227 -0.4426
 4488SOL    HW124923   0.303   3.360  12.776  0.2410  1.4341 -3.0616
 4488SOL    HW224924   0.403   3.360  12.893 -1.8079 -1.5933 -0.3438
 4489SOL     OW24925   3.557   3.008   7.523 -0.5779  0.0968  0.0582
 4489SOL    HW124926   3.562   3.004   7.619 -2.7653 -0.9506  0.1443
 4489SOL    HW224927   3.476   2.957   7.513 -0.1680 -0.3868 -0.7233
 4490SOL     OW24928   0.591   3.959   3.191  0.2876  0.3877  0.0896
 4490SOL    HW124929   0.541   3.877   3.189  1.2635 -0.2014  0.0145
 4490SOL    HW224930   0.576   4.000   3.106 -1.0810 -0.2942 -0.0004
 4491SOL     OW24931   4.612   3.115  12.944 -0.4147  0.6362 -0.2472
 4491SOL    HW124932   4.588   3.023  12.957 -2.0406  1.0835 -0.0700
 4491SOL    HW224933   4.581   3.153  13.026 -2.4112  1.5120 -1.4181
 4492SOL     OW24934   2.317   0.289  14.808  0.2565 -0.2569  0.1509
 4492SOL    HW124935   2.372   0.330  14.876 -0.9284 -0.6517  1.3356
 4492SOL    HW224936   2.290   0.369  14.763 -0.9050 -0.8940 -0.2553
 4493SOL     OW24937   1.319   3.703   8.506 -0.4224  0.1033  0.1947
 4493SOL    HW124938   1.299   3.697   8.600 -0.4185 -2.0219  0.0458
 4493SOL    HW224939   1.414   3.694   8.513 -0.3611  1.2293  0.9916
 4494SOL     OW24940   1.431   3.575   7.141 -0.1783  0.0874  0.5382
 4494SOL    HW124941   1.493   3.603   7.208 -1.1795  2.4815  0.4870
 4494SOL    HW224942   1.423   3.484   7.170  1.3690 -0.2646 -0.1784
 4495SOL     OW24943   1.333   3.627   2.038  0.3844  0.4568  0.2422
 4495SOL    HW124944   1.254   3.667   2.004  1.4711  1.5042 -1.0541
 4495SOL    HW224945   1.312   3.614   2.130 -1.5697  1.2445 -0.1094
 4496SOL     OW24946   3.015   4.493   3.019 -0.0326 -0.4096  0.2313
 4496SOL    HW124947   3.045   4.575   3.059 -1.7972  1.4427 -2.2097
 4496SOL    HW224948   2.922   4.517   3.011 -0.1589 -0.1524  2.5549
 4497SOL     OW24949   0.688   2.148   5.376 -0.3916 -0.1713 -0.1645
 4497SOL    HW124950   0.679   2.125   5.284  2.9611 -0.9393 -0.3255
 4497SOL    HW224951   0.680   2.061   5.417 -1.4915  0.4697  0.9611
 4498SOL     OW24952   2.441   0.242   3.427 -0.0716 -0.0107 -0.2932
 4498SOL    HW124953   2.519   0.291   3.452 -1.3088  2.0521 -0.4910
 4498SOL    HW224954   2.436   0.253   3.332  0.7181 -0.6534 -0.4047
 4499SOL     OW24955   1.518   2.025  10.998 -0.0004  0.1675 -0.3333
 4499SOL    HW124956   1.545   1.970  11.072  0.9224  1.0954  0.0195
 4499SOL    HW224957   1.539   2.110  11.037 -0.0505  0.1314 -0.2295
 4500SOL     OW24958   2.776   4.406   6.128  0.3462 -0.0787 -0.8119
 4500SOL    HW124959   2.773   4.367   6.040  1.1727 -0.3624 -0.7135
 4500SOL    HW224960   2.723   4.485   6.117 -1.2295 -0.9786  0.2073
 4501SOL     OW24961   4.385   1.024   8.144  0.4183 -0.1276 -0.1094
 4501SOL    HW124962   4.298   0.991   8.166  2.3735 -4.8055  0.7067
 4501SOL    HW224963   4.419   1.004   8.231  0.1647  0.8391  0.2022
 4502SOL     OW24964   1.042   2.137   1.585  0.3538 -0.4741 -0.1637
 4502SOL    HW124965   1.129   2.128   1.623  1.0699  2.3884 -1.1787
 4502SOL    HW224966   1.021   2.223   1.620 -1.9017  0.6387 -4.2244
 4503SOL     OW24967   1.605   2.332   9.836 -0.4186  0.4277 -0.0660
 4503SOL    HW124968   1.604   2.239   9.856  2.0359  0.1534 -1.2348
 4503SOL    HW224969   1.512   2.345   9.816 -1.1400 -0.8606  2.4714
 4504SOL     OW24970   1.976   0.689   8.090  0.0769  0.1147  0.1906
 4504SOL    HW124971   1.923   0.618   8.053  2.1615 -2.0403  1.3660
 4504SOL    HW224972   1.907   0.742   8.129  1.5357  0.3363  2.4200
 4505SOL     OW24973   3.880   0.178   5.525  0.3871 -0.2487  0.1184
 4505SOL    HW124974   3.804   0.122   5.538  0.4173 -0.1966  0.5338
 4505SOL    HW224975   3.947   0.110   5.519 -1.2155 -1.7863 -0.3863
 4506SOL     OW24976   1.132   3.010   3.227  0.4273 -0.1617 -0.5374
 4506SOL    HW124977   1.195   3.068   3.269  1.4484 -1.0991 -0.7806
 4506SOL    HW224978   1.051   3.034   3.271  0.5529  1.0073 -0.9587
 4507SOL     OW24979   4.681   0.914   2.842 -0.0294 -0.1133  0.5413
 4507SOL    HW124980   4.665   0.827   2.878 -2.9255 -0.9794 -2.8218
 4507SOL    HW224981   0.036   0.934   2.895 -0.3764  0.0145  0.9970
 4508SOL     OW24982   4.090   1.489  14.504  0.0870 -0.0165  0.2113
 4508SOL    HW124983   4.130   1.576  14.505  1.5706 -0.6191 -3.7616
 4508SOL    HW224984   4.032   1.482  14.579  0.9488 -2.4700  0.6401
 4509SOL     OW24985   1.980   4.088   7.078 -0.7437 -0.0359 -0.1125
 4509SOL    HW124986   1.969   4.176   7.042 -1.6173 -0.9095 -1.9747
 4509SOL    HW224987   1.998   4.096   7.171 -0.3754 -1.1940 -0.0896
 4510SOL     OW24988   3.860   2.962   2.620  0.3448  0.0743  0.4064
 4510SOL    HW124989   3.890   3.052   2.617 -0.3122  0.1918 -2.0761
 4510SOL    HW224990   3.943   2.918   2.636 -0.1744  0.1477  3.4568
 4511SOL     OW24991   3.965   0.339   5.993 -0.3582 -0.4244  0.2019
 4511SOL    HW124992   3.951   0.336   6.088 -1.1529 -2.9352  0.0088
 4511SOL    HW224993   3.888   0.389   5.966 -0.3998 -0.0967  0.9165
 4512SOL     OW24994   0.022   2.434   4.044 -0.7490 -0.0573 -0.4846
 4512SOL    HW124995   0.022   2.340   4.028 -1.4431 -0.2661  0.7699
 4512SOL    HW224996   0.032   2.454   3.951  1.3083 -1.4691 -0.5598
 4513SOL     OW24997   3.556   1.972   4.588 -0.0704 -0.0255 -0.0405
 4513SOL    HW124998   3.469   1.992   4.622  0.2525 -2.7759  2.3506
 4513SOL    HW224999   3.550   2.031   4.513  1.1337  0.2287  0.0637
 4514SOL     OW25000   2.996   1.249  14.562 -0.1722  0.2968  0.6783
 4514SOL    HW125001   3.074   1.286  14.523  1.1413 -2.0036  1.1324
 4514SOL    HW225002   2.934   1.323  14.555 -3.0756 -2.3899 -2.0444
 4515SOL     OW25003   1.335   3.136   1.646 -0.1608  0.0582 -0.3777
 4515SOL    HW125004   1.276   3.155   1.573 -0.3944 -2.2256 -0.7868
 4515SOL    HW225005   1.280   3.108   1.719 -1.5494  1.3651 -0.9182
 4516SOL     OW25006   1.010   0.238   7.046 -0.1779  0.5280 -0.2122
 4516SOL    HW125007   1.052   0.323   7.059  0.3681 -0.0844  1.9097
 4516SOL    HW225008   0.971   0.243   6.958 -0.5642 -1.0666 -0.1225
 4517SOL     OW25009   2.478   2.517   4.046 -0.0441  0.2141  0.2511
 4517SOL    HW125010   2.501   2.425   4.058  0.0788  0.2213  0.0655
 4517SOL    HW225011   2.390   2.494   4.018  0.4424 -3.0316  1.3623
 4518SOL     OW25012   2.569   2.465   3.358  0.2951  0.9433 -0.4692
 4518SOL    HW125013   2.545   2.420   3.438 -0.2613  0.0111 -1.1544
 4518SOL    HW225014   2.588   2.395   3.295 -1.6420  0.7988 -0.8831
 4519SOL     OW25015   3.116   1.082   4.127  0.4821  0.4313  0.4924
 4519SOL    HW125016   3.166   1.138   4.068 -1.9668 -0.0239 -2.0148
 4519SOL    HW225017   3.176   1.020   4.168  0.1558  2.1751  3.6198
 4520SOL     OW25018   4.697   0.880   5.199  0.1588 -0.6130 -0.3073
 4520SOL    HW125019   4.621   0.936   5.184  0.7635  1.0677  2.9277
 4520SOL    HW225020   0.037   0.951   5.214  1.0759 -1.0235 -2.1812
 4521SOL     OW25021   3.113   2.664   5.394  0.8353 -0.2796  0.4673
 4521SOL    HW125022   3.063   2.740   5.367 -0.0957 -0.9455  0.3160
 4521SOL    HW225023   3.206   2.684   5.392  0.9074 -0.6567  0.0722
 4522SOL     OW25024   2.382   3.115   5.453 -0.4651  0.0953 -0.3326
 4522SOL    HW125025   2.348   3.154   5.372 -1.7946  1.9274  1.1076
 4522SOL    HW225026   2.304   3.103   5.508 -0.1041  0.1440  0.1866
 4523SOL     OW25027   0.497   4.370   4.956 -0.3282  0.1775  0.1794
 4523SOL    HW125028   0.530   4.456   4.979  2.2876 -1.4298  2.3716
 4523SOL    HW225029   0.438   4.385   4.881 -0.1458 -2.6731 -0.5503
 4524SOL     OW25030   4.174   4.065  17.590  0.0374 -0.1390 -0.3227
 4524SOL    HW125031   4.236   4.073  17.662  1.0280 -1.1811 -1.0457
 4524SOL    HW225032   4.147   3.973  17.593  1.2633 -0.4418  0.8277
 4525SOL     OW25033   3.817   0.487   1.427 -0.3727  0.4239 -0.1918
 4525SOL    HW125034   3.780   0.430   1.495 -1.0439  1.5558  0.3957
 4525SOL    HW225035   3.828   0.572   1.469 -0.6023  0.4417 -0.1657
 4526SOL     OW25036   2.127   4.119   6.080 -0.2412 -0.0753 -0.7913
 4526SOL    HW125037   2.032   4.124   6.067 -0.3736  0.7822  0.4989
 4526SOL    HW225038   2.141   4.089   6.170  0.4886 -1.8219 -1.4981
 4527SOL     OW25039   3.376   4.252   8.664 -0.3675  0.1875  0.2975
 4527SOL    HW125040   3.339   4.330   8.623 -3.5734 -1.2804  0.3406
 4527SOL    HW225041   3.327   4.188   8.613 -1.1148  1.2905 -0.3651
 4528SOL     OW25042   3.135   4.088   5.189  0.3170 -0.9044 -0.4118
 4528SOL    HW125043   3.066   4.145   5.224 -0.2229 -1.9689  0.2754
 4528SOL    HW225044   3.082   4.020   5.146  1.6133 -0.9933 -1.8619
 4529SOL     OW25045   2.721   3.600   8.994  0.4306 -0.0709  0.0707
 4529SOL    HW125046   2.773   3.629   9.069 -0.3942 -3.8286  2.0781
 4529SOL    HW225047   2.774   3.638   8.925 -2.2672  1.3009 -1.2672
 4530SOL     OW25048   0.447   4.331  11.020 -0.3703  0.2573 -0.0771
 4530SOL    HW125049   0.431   4.425  11.031  0.1754  0.2035  1.2142
 4530SOL    HW225050   0.484   4.301  11.104  2.9119 -0.4517 -1.7747
 4531SOL     OW25051   0.978   3.248   3.961  0.0685  0.3576 -0.2519
 4531SOL    HW125052   0.940   3.275   3.878 -1.1521  0.5801  0.3854
 4531SOL    HW225053   0.940   3.161   3.964  1.1020 -0.1106 -0.7718
 4532SOL     OW25054   1.592   0.560   4.985 -0.0388  0.5019  0.0857
 4532SOL    HW125055   1.654   0.535   4.917 -0.2159 -0.3689  0.2395
 4532SOL    HW225056   1.517   0.500   4.990  0.5654 -0.0164  3.2278
 4533SOL     OW25057   3.727   3.162   4.119  0.2386  0.2008 -0.1371
 4533SOL    HW125058   3.759   3.205   4.040 -0.9171  1.0371 -0.1501
 4533SOL    HW225059   3.795   3.183   4.184  1.6967 -0.5157 -1.4255
 4534SOL     OW25060   2.584   4.027  16.084  0.1716  0.0675  0.2225
 4534SOL    HW125061   2.514   3.980  16.129  0.7413  1.4382  2.5005
 4534SOL    HW225062   2.579   4.115  16.122  0.6182 -0.3363  1.2184
 4535SOL     OW25063   1.075   0.495   7.887  0.3945  0.7328  0.3043
 4535SOL    HW125064   0.991   0.484   7.932  0.8150 -3.4880  0.0573
 4535SOL    HW225065   1.114   0.571   7.930 -0.0477  0.7909  0.6017
 4536SOL     OW25066   0.338   4.441   0.119 -0.0460 -0.1230  0.2084
 4536SOL    HW125067   0.250   4.426   0.085 -0.6616  0.5834  1.4965
 4536SOL    HW225068   0.391   4.423   0.042 -3.5431 -0.0747 -2.2316
 4537SOL     OW25069   2.037   1.321   2.445  0.0170  0.0268  0.1126
 4537SOL    HW125070   2.098   1.295   2.376  1.1361  2.2285  0.2600
 4537SOL    HW225071   2.040   1.238   2.491  0.0768  0.6304  1.2022
 4538SOL     OW25072   0.983   0.414  14.057 -0.5398 -0.4134 -0.4923
 4538SOL    HW125073   0.950   0.468  14.129 -1.4154 -0.9519 -0.4888
 4538SOL    HW225074   0.984   0.328  14.099  3.3464  0.5033  1.2674
 4539SOL     OW25075   0.523   3.208   6.111 -0.1616 -0.0325  0.0928
 4539SOL    HW125076   0.447   3.228   6.057 -0.3987 -1.2251 -0.0110
 4539SOL    HW225077   0.480   3.168   6.187  1.2971 -0.5096  0.6766
 4540SOL     OW25078   3.189   1.959   9.134  0.4942 -0.1377 -0.4645
 4540SOL    HW125079   3.235   1.983   9.214 -1.0271  2.5489 -0.3990
 4540SOL    HW225080   3.126   1.896   9.170  0.0839  1.2494  1.2377
 4541SOL     OW25081   3.166   1.573   5.664  0.1409  0.7333  0.0996
 4541SOL    HW125082   3.101   1.507   5.686 -0.5963  2.0255  1.8728
 4541SOL    HW225083   3.250   1.529   5.675 -1.0447 -1.0949  1.8888
 4542SOL     OW25084   3.588   2.070   4.282 -0.0578  0.0825  0.6938
 4542SOL    HW125085   3.620   2.094   4.195  1.7371 -1.9612  0.7878
 4542SOL    HW225086   3.517   2.133   4.294 -1.6646 -1.8010  0.9975
 4543SOL     OW25087   2.512   3.678   6.061  0.3321  0.1099 -0.1749
 4543SOL    HW125088   2.580   3.612   6.078 -0.2603 -0.1850  1.0019
 4543SOL    HW225089   2.451   3.675   6.134 -1.0545 -0.5276 -1.3558
 4544SOL     OW25090   2.480   4.446   8.360 -0.0476  0.5055  0.0217
 4544SOL    HW125091   2.403   4.411   8.403  0.9600 -3.0211 -1.0503
 4544SOL    HW225092   2.485   4.389   8.284 -2.4894  1.1212 -0.5669
 4545SOL     OW25093   4.705   1.966  11.783 -0.3984 -0.2309  0.3137
 4545SOL    HW125094   0.036   2.041  11.759 -1.6902  0.9399  1.0977
 4545SOL    HW225095   4.636   1.998  11.842  0.8731 -0.0529  1.6959
 4546SOL     OW25096   0.832   0.590   5.285  1.1421  0.4975  0.6007
 4546SOL    HW125097   0.834   0.599   5.380 -0.5337 -1.6431  0.8404
 4546SOL    HW225098   0.924   0.591   5.257  1.0254  2.3968  0.2478
 4547SOL     OW25099   1.619   1.259   6.069  0.0494 -0.6760 -0.2225
 4547SOL    HW125100   1.607   1.353   6.081  1.7701 -0.6270  1.1651
 4547SOL    HW225101   1.682   1.246   6.141 -0.2429  1.0008  0.3523
 4548SOL     OW25102   1.178   2.320   2.145  0.3196 -0.2945 -0.2294
 4548SOL    HW125103   1.190   2.226   2.128 -0.4542 -0.2869 -0.8574
 4548SOL    HW225104   1.106   2.339   2.085 -0.1959 -1.7809 -0.1043
 4549SOL     OW25105   2.584   2.745   7.118 -0.3110 -0.4313  0.4959
 4549SOL    HW125106   2.576   2.657   7.156  1.7835 -0.3534  1.1161
 4549SOL    HW225107   2.548   2.803   7.185 -1.4224  0.5736 -0.9682
 4550SOL     OW25108   1.636   0.280   6.909 -0.2912  0.2061 -0.1093
 4550SOL    HW125109   1.640   0.252   7.000  3.1026 -1.3068 -0.7322
 4550SOL    HW225110   1.551   0.237   6.896 -0.3744  0.3834 -0.1568
 4551SOL     OW25111   1.699   1.009   7.499 -0.2959 -0.6316 -0.5424
 4551SOL    HW125112   1.731   0.938   7.555 -1.5577 -1.7291 -1.2292
 4551SOL    HW225113   1.677   1.077   7.562 -1.1628 -0.2862 -1.2186
 4552SOL     OW25114   2.353   2.177   9.062  0.0928  0.1080  0.2066
 4552SOL    HW125115   2.320   2.221   8.984 -0.3495  1.0738  0.9394
 4552SOL    HW225116   2.284   2.122   9.099 -0.8857  1.1482 -0.0815
 4553SOL     OW25117   1.281   2.512   8.321 -0.1771  0.5442  0.6580
 4553SOL    HW125118   1.305   2.532   8.230 -1.5789  0.9421  0.3907
 4553SOL    HW225119   1.242   2.591   8.358 -0.5219  0.4472  0.5002
 4554SOL     OW25120   1.191   4.218   0.438 -0.2674 -0.3211 -0.5141
 4554SOL    HW125121   1.164   4.254   0.523  2.1023 -1.7406  0.8469
 4554SOL    HW225122   1.125   4.148   0.432 -2.6033  1.7978  0.6484
 4555SOL     OW25123   4.350   0.983  12.775  0.1280 -0.4125 -0.2848
 4555SOL    HW125124   4.391   0.988  12.689  1.5935 -0.0037  0.4535
 4555SOL    HW225125   4.264   1.023  12.757 -0.0696 -1.5330 -1.8949
 4556SOL     OW25126   1.790   1.295  10.037  0.3712 -0.2226  0.3336
 4556SOL    HW125127   1.702   1.256  10.038  0.3618 -0.2165 -0.0041
 4556SOL    HW225128   1.780   1.367  10.099 -1.7940  0.1618 -0.4605
 4557SOL     OW25129   4.458   0.286   1.872  0.7511 -0.5652 -0.7444
 4557SOL    HW125130   4.533   0.332   1.836  0.9260 -0.0278  0.3165
 4557SOL    HW225131   4.474   0.304   1.964 -2.0337 -0.9492 -0.1916
 4558SOL     OW25132   2.967   2.099  15.496  0.2990 -0.7810  0.5470
 4558SOL    HW125133   2.888   2.152  15.490  0.1179 -1.5083 -3.3321
 4558SOL    HW225134   2.930   2.015  15.522  0.2701 -0.6171  1.0282
 4559SOL     OW25135   1.431   2.952  17.399  0.6889  0.5172  0.3713
 4559SOL    HW125136   1.505   2.950  17.337 -0.9774 -1.8308 -1.5450
 4559SOL    HW225137   1.415   2.858  17.410  3.4354  0.2399  2.2474
 4560SOL     OW25138   2.575   0.845  11.358  0.1495  0.9283  0.5635
 4560SOL    HW125139   2.539   0.776  11.413 -1.1208  2.6024  1.8230
 4560SOL    HW225140   2.498   0.901  11.367 -0.8821 -0.5310  0.8307
 4561SOL     OW25141   0.005   3.083   2.215 -0.0280  0.0013  0.8272
 4561SOL    HW125142   0.039   3.056   2.300 -0.7658 -0.6779  0.9040
 4561SOL    HW225143   0.090   3.108   2.177 -0.6139 -0.8331 -1.0246
 4562SOL     OW25144   0.751   3.725   2.412  0.0011  0.1696  1.0024
 4562SOL    HW125145   0.804   3.789   2.364  0.6999 -0.3246  1.1064
 4562SOL    HW225146   0.667   3.722   2.366  0.8377  0.2549 -0.5458
 4563SOL     OW25147   3.254   0.205  15.667  0.0664 -0.0773 -0.3514
 4563SOL    HW125148   3.231   0.187  15.576  0.6183  0.9482 -0.6983
 4563SOL    HW225149   3.336   0.155  15.676  0.6741  1.0239  0.1856
 4564SOL     OW25150   2.653   3.864  11.914 -0.1389  0.8631  0.2658
 4564SOL    HW125151   2.721   3.909  11.965  2.2003 -1.1514 -1.1363
 4564SOL    HW225152   2.634   3.936  11.853 -3.2715 -1.5044 -1.5171
 4565SOL     OW25153   2.309   3.730   3.163  0.2638  0.8614 -0.7770
 4565SOL    HW125154   2.286   3.706   3.252 -1.0548 -0.5401 -1.5049
 4565SOL    HW225155   2.399   3.698   3.159  0.0852  0.2737  0.1659
 4566SOL     OW25156   4.014   0.756   1.731 -0.3444 -0.8056  0.0643
 4566SOL    HW125157   3.922   0.781   1.733 -0.6309 -1.7094 -1.8609
 4566SOL    HW225158   4.014   0.715   1.645 -1.7495 -0.4110 -0.1347
 4567SOL     OW25159   2.828   2.264  11.390  0.2660  0.5973  0.3667
 4567SOL    HW125160   2.876   2.187  11.420  0.3405  1.3817  2.2522
 4567SOL    HW225161   2.781   2.289  11.470 -2.3973 -0.0744 -0.9708
 4568SOL     OW25162   4.717   4.649   8.323  0.3559 -0.0100  0.1700
 4568SOL    HW125163   0.033   4.603   8.249 -1.8518 -1.9271  0.2141
 4568SOL    HW225164   4.622   4.642   8.312  0.4906  0.8761 -1.4677
 4569SOL     OW25165   0.786   2.838  13.553  0.1169  0.3022  0.7657
 4569SOL    HW125166   0.841   2.785  13.610  1.8739  1.1249 -0.1907
 4569SOL    HW225167   0.833   2.849  13.470 -0.1094  0.0074  0.5985
 4570SOL     OW25168   1.295   4.460  15.322 -0.1827  0.1955  0.0381
 4570SOL    HW125169   1.323   4.428  15.236  0.6876  0.0662  0.3689
 4570SOL    HW225170   1.200   4.448  15.320 -0.3349  1.4560 -0.2763
 4571SOL     OW25171   4.503   2.138  11.128  0.0440 -0.7574 -0.1050
 4571SOL    HW125172   4.550   2.192  11.064 -0.8981  1.7293  1.2770
 4571SOL    HW225173   4.445   2.199  11.174 -1.4130 -1.0492 -1.5686
 4572SOL     OW25174   2.462   0.828   9.153  0.0720 -0.5053  0.7717
 4572SOL    HW125175   2.468   0.746   9.202  1.3907 -2.0324 -1.9050
 4572SOL    HW225176   2.555   0.849   9.143 -0.5812  2.4097  0.8884
 4573SOL     OW25177   4.536   4.454   4.671 -0.3244  0.1906 -0.0984
 4573SOL    HW125178   4.577   4.392   4.611  0.3830 -0.9726  1.5832
 4573SOL    HW225179   4.569   4.538   4.639  0.1740  0.6032  1.5355
 4574SOL     OW25180   0.570   3.710  16.747 -0.3125 -0.1401  0.1402
 4574SOL    HW125181   0.475   3.713  16.752 -0.3390  0.3192 -0.5875
 4574SOL    HW225182   0.605   3.796  16.723  0.4837 -0.6042 -0.3584
 4575SOL     OW25183   0.041   3.266  14.508 -0.3672  0.5057  0.4414
 4575SOL    HW125184   0.093   3.191  14.479  1.3694  1.7352  0.4172
 4575SOL    HW225185   0.106   3.328  14.539 -1.4960  2.5129 -1.1864
 4576SOL     OW25186   2.535   4.255   5.275 -0.1938 -0.1251 -0.0223
 4576SOL    HW125187   2.626   4.248   5.305  0.1497  0.2144 -0.9678
 4576SOL    HW225188   2.545   4.316   5.202 -1.2918  0.0971  0.0228
 4577SOL     OW25189   4.337   3.633   3.489  0.0355 -0.3646 -0.3098
 4577SOL    HW125190   4.363   3.541   3.487 -0.5283 -0.5215 -0.4629
 4577SOL    HW225191   4.249   3.616   3.455 -0.4592  1.7499 -0.0515
 4578SOL     OW25192   2.402   1.616   2.752  0.1193  0.0260  0.0426
 4578SOL    HW125193   2.357   1.695   2.724 -1.2609 -1.3690 -1.6625
 4578SOL    HW225194   2.385   1.556   2.679 -0.9607 -0.1915  0.4816
 4579SOL     OW25195   4.089   1.028   3.796  0.6095  0.4350  0.2107
 4579SOL    HW125196   4.008   0.978   3.807  0.9604 -0.0972  0.3491
 4579SOL    HW225197   4.143   0.961   3.753  1.2619  2.0594 -1.5505
 4580SOL     OW25198   4.582   0.304   7.984 -0.6489  0.2043  0.2221
 4580SOL    HW125199   4.636   0.322   8.060  1.2980 -2.5774 -0.4780
 4580SOL    HW225200   4.574   0.387   7.937 -2.3057  0.5640  1.1521
 4581SOL     OW25201   1.941   1.394   8.717 -0.0989 -0.1788 -0.0915
 4581SOL    HW125202   1.920   1.354   8.802  0.5114 -0.0411  0.1261
 4581SOL    HW225203   2.029   1.360   8.704 -0.3398  0.2924 -2.9197
 4582SOL     OW25204   1.434   3.573   1.697 -0.2879  0.2629 -0.7808
 4582SOL    HW125205   1.441   3.665   1.670  1.3267  0.3522 -0.0904
 4582SOL    HW225206   1.355   3.549   1.649  0.7671  2.0781 -3.4185
 4583SOL     OW25207   1.192   4.317   3.393  0.0428  0.2892  0.1743
 4583SOL    HW125208   1.180   4.316   3.298 -0.7751  1.4653  0.2731
 4583SOL    HW225209   1.125   4.377   3.426  1.0555  2.0842 -1.0009
 4584SOL     OW25210   4.161   0.180   1.855  0.9018 -0.0891  0.1067
 4584SOL    HW125211   4.240   0.169   1.909  0.7855  0.0421  0.3005
 4584SOL    HW225212   4.177   0.104   1.799  1.0084 -1.0179  1.3983
 4585SOL     OW25213   3.001   2.095  17.426 -0.2591  0.2806  0.3425
 4585SOL    HW125214   2.962   2.014  17.459  1.7743 -0.9098 -0.1424
 4585SOL    HW225215   3.081   2.050  17.399  0.1635  0.6259  1.0120
 4586SOL     OW25216   0.025   4.333   5.977  0.5634 -0.1877  0.2931
 4586SOL    HW125217   4.683   4.387   6.023  1.1086 -0.3309  1.2145
 4586SOL    HW225218   0.075   4.395   5.923 -3.0312  0.0608 -2.7818
 4587SOL     OW25219   1.811   0.338  11.716  0.4199  0.2224  0.1142
 4587SOL    HW125220   1.826   0.410  11.654 -2.2980 -0.4772 -1.3743
 4587SOL    HW225221   1.719   0.347  11.741  0.1260  0.1326 -0.9392
 4588SOL     OW25222   2.092   1.632  11.494 -1.1410  0.5904 -0.6648
 4588SOL    HW125223   1.998   1.649  11.503 -0.8569  1.7524  0.0858
 4588SOL    HW225224   2.102   1.622  11.399 -0.2295  0.3371 -0.5357
 4589SOL     OW25225   3.393   3.621   6.588 -0.0387 -1.0351 -0.0648
 4589SOL    HW125226   3.469   3.608   6.531  0.3558 -1.1140  0.4809
 4589SOL    HW225227   3.371   3.712   6.570 -2.0356 -1.5244 -0.0413
 4590SOL     OW25228   3.614   2.448   4.019  0.2604 -0.2243  0.0623
 4590SOL    HW125229   3.629   2.510   3.947  0.4829 -1.1417 -0.6733
 4590SOL    HW225230   3.540   2.484   4.069 -0.7965 -1.0574 -0.9331
 4591SOL     OW25231   1.456   3.973   8.215 -0.3275 -0.1221 -0.1670
 4591SOL    HW125232   1.551   3.961   8.209 -0.4186 -2.3501  2.8285
 4591SOL    HW225233   1.430   3.913   8.145  3.2324 -2.8403  0.8119
 4592SOL     OW25234   1.228   3.464  12.758 -0.4005 -0.2069  0.0374
 4592SOL    HW125235   1.201   3.546  12.800 -0.1072 -0.3027  0.4169
 4592SOL    HW225236   1.251   3.494  12.670 -0.7632 -0.2647 -0.0786
 4593SOL     OW25237   3.181   0.947   2.754  0.0923 -0.1035  0.0725
 4593SOL    HW125238   3.112   0.968   2.692  0.8096  0.6510 -0.4775
 4593SOL    HW225239   3.248   0.913   2.694 -0.4130  0.7929 -0.9812
 4594SOL     OW25240   1.620   0.254  13.392  0.4075  0.0916  0.3597
 4594SOL    HW125241   1.574   0.170  13.399  2.5290 -1.2176 -1.7876
 4594SOL    HW225242   1.671   0.260  13.473 -1.0478 -1.4290  1.4053
 4595SOL     OW25243   3.138   2.319   1.616 -0.1830 -0.2667 -0.1939
 4595SOL    HW125244   3.210   2.371   1.651 -2.0013  2.0268  0.1797
 4595SOL    HW225245   3.147   2.339   1.523 -0.2187  0.2818 -0.0785
 4596SOL     OW25246   2.460   2.453  15.480  0.1662  0.0352 -0.0196
 4596SOL    HW125247   2.480   2.529  15.535 -3.2392 -0.2681  1.6085
 4596SOL    HW225248   2.368   2.450  15.506  0.8263  2.9933  2.6761
 4597SOL     OW25249   2.765   2.818  16.700 -0.2252 -0.1047  0.1007
 4597SOL    HW125250   2.806   2.821  16.787  2.3815 -0.8747 -1.1061
 4597SOL    HW225251   2.820   2.749  16.663  1.7516  0.6604  1.5724
 4598SOL     OW25252   3.882   4.417   3.911  0.6737 -0.5733 -0.4402
 4598SOL    HW125253   3.914   4.377   3.992 -2.7884 -0.5109  0.9732
 4598SOL    HW225254   3.959   4.472   3.897  2.1662 -2.7551 -0.8562
 4599SOL     OW25255   3.311   2.965  11.654  0.8906  0.0765 -0.1186
 4599SOL    HW125256   3.298   2.966  11.749  1.8283 -2.9933  0.0288
 4599SOL    HW225257   3.406   2.967  11.643  0.7942  2.4280 -0.6451
 4600SOL     OW25258   3.159   4.625   8.407  0.2837 -0.3737 -0.2181
 4600SOL    HW125259   3.141   4.534   8.383 -0.1747  0.0616 -1.5603
 4600SOL    HW225260   3.105   4.626   8.486 -1.4083  1.1911 -1.3890
 4601SOL     OW25261   0.233   0.759   5.908 -0.0700 -0.1409 -0.6236
 4601SOL    HW125262   0.174   0.779   5.980 -0.5536 -0.3941 -0.9522
 4601SOL    HW225263   0.223   0.842   5.861 -0.9444  1.9370  3.2330
 4602SOL     OW25264   0.510   1.588   3.144 -0.4042 -0.4818  0.2567
 4602SOL    HW125265   0.531   1.613   3.234 -0.2111  0.1363  0.0366
 4602SOL    HW225266   0.584   1.620   3.092 -1.1711 -2.4024 -2.0138
 4603SOL     OW25267   1.382   2.852   8.165  0.4233  0.1753  0.1685
 4603SOL    HW125268   1.454   2.808   8.121  0.4099 -0.0481  0.3693
 4603SOL    HW225269   1.361   2.892   8.081  0.3400 -1.0345 -0.3774
 4604SOL     OW25270   2.628   2.019  14.589  0.1442 -0.1404 -0.7322
 4604SOL    HW125271   2.543   2.019  14.545 -0.4991  0.8425  0.5132
 4604SOL    HW225272   2.696   2.028  14.522  2.6487  0.5669  1.9301
 4605SOL     OW25273   3.663   2.791   5.181 -0.0672 -0.2597  0.0301
 4605SOL    HW125274   3.713   2.781   5.262 -0.4347 -0.5325  0.2217
 4605SOL    HW225275   3.683   2.882   5.157  4.2392 -1.2945 -0.3259
 4606SOL     OW25276   3.022   4.127  11.008 -0.3202 -0.3021  0.6680
 4606SOL    HW125277   3.066   4.045  10.989  1.0670  1.3369 -3.1252
 4606SOL    HW225278   2.970   4.101  11.084 -1.0632 -0.0481  0.2485
 4607SOL     OW25279   1.473   2.605   7.028 -0.0314 -0.4074  0.1492
 4607SOL    HW125280   1.378   2.602   7.012  0.0936  0.1254 -0.6804
 4607SOL    HW225281   1.484   2.682   7.084  0.6777 -0.3494 -0.0744
 4608SOL     OW25282   4.334   0.032   3.425 -0.1098  0.0827  0.7544
 4608SOL    HW125283   4.409   4.700   3.447 -0.4610 -0.8942 -0.4561
 4608SOL    HW225284   4.374   0.096   3.366 -0.4761  1.7787  2.3481
 4609SOL     OW25285   0.085   1.180   8.489 -0.4731  0.4189  0.0424
 4609SOL    HW125286   0.166   1.192   8.538 -1.6974 -0.1099  2.2073
 4609SOL    HW225287   0.034   1.254   8.523  0.0181  0.5943  0.3931
 4610SOL     OW25288   2.758   3.170  11.833 -0.0364 -0.1430 -0.4844
 4610SOL    HW125289   2.839   3.147  11.878  0.1456 -1.0796 -1.2871
 4610SOL    HW225290   2.695   3.124  11.889  1.5821 -1.0023  0.6004
 4611SOL     OW25291   4.646   0.844  12.692 -0.6050  0.3574 -0.7100
 4611SOL    HW125292   4.603   0.908  12.636  0.9193 -1.1337 -3.5821
 4611SOL    HW225293   4.635   0.875  12.782  0.3015  0.9811 -0.8177
 4612SOL     OW25294   0.354   0.755  15.338  0.0083  0.5603 -0.2151
 4612SOL    HW125295   0.404   0.830  15.307 -0.0841  0.5246 -0.4474
 4612SOL    HW225296   0.422   0.703  15.380 -0.0109  2.0756  1.6952
 4613SOL     OW25297   2.514   2.035   8.469 -0.4623  0.2334  0.5041
 4613SOL    HW125298   2.443   2.050   8.407  1.1896  0.3423 -1.3794
 4613SOL    HW225299   2.484   2.074   8.551  0.8923  1.5547  0.3625
 4614SOL     OW25300   0.654   4.060   9.049 -0.2348  0.8250 -0.2069
 4614SOL    HW125301   0.656   4.151   9.080 -0.0633 -0.2809  3.0577
 4614SOL    HW225302   0.706   4.010   9.112  0.7326 -0.3392 -1.9271
 4615SOL     OW25303   2.901   2.365  15.329  0.5935 -0.6122  0.0663
 4615SOL    HW125304   2.886   2.429  15.260 -0.4250  1.3192  2.0796
 4615SOL    HW225305   2.977   2.320  15.291 -0.0055  0.1063 -1.9442
 4616SOL     OW25306   4.682   2.122  17.381 -0.0006  0.1590  0.1666
 4616SOL    HW125307   4.644   2.137  17.295  0.7236  0.4431 -0.1028
 4616SOL    HW225308   0.051   2.146  17.365 -0.0271 -0.7090 -1.2432
 4617SOL     OW25309   4.531   4.130   2.227 -0.4277 -0.0620  0.3665
 4617SOL    HW125310   4.534   4.225   2.215 -1.7510 -0.0595 -0.0480
 4617SOL    HW225311   4.604   4.112   2.285  0.0096  2.1118  0.4740
 4618SOL     OW25312   0.790   0.838  13.470  0.3583  0.2335 -0.6325
 4618SOL    HW125313   0.817   0.930  13.474  2.0245 -0.3100  1.0769
 4618SOL    HW225314   0.864   0.787  13.505 -0.4829 -0.3887  0.2499
 4619SOL     OW25315   1.905   1.826   2.905 -0.2942 -0.2535 -0.6675
 4619SOL    HW125316   1.858   1.890   2.959 -2.0711 -3.1052  1.1480
 4619SOL    HW225317   1.898   1.751   2.964  1.0512 -2.4152 -3.2843
 4620SOL     OW25318   1.778   1.014  11.493  0.2038  0.2883  0.3612
 4620SOL    HW125319   1.807   1.069  11.566  0.8679  0.0920  0.2493
 4620SOL    HW225320   1.706   1.046  11.439  1.2568 -0.4113 -1.4869
 4621SOL     OW25321   0.826   2.540   3.552 -0.4109 -0.6137  0.0647
 4621SOL    HW125322   0.904   2.553   3.498 -0.2710  0.2629  0.4769
 4621SOL    HW225323   0.764   2.580   3.490 -0.2353 -0.2808  0.1056
 4622SOL     OW25324   3.143   2.773   5.861 -0.5877  0.7953 -0.1456
 4622SOL    HW125325   3.204   2.846   5.851 -0.4835  0.7513  0.1671
 4622SOL    HW225326   3.172   2.722   5.785  1.0184  1.1201  0.2473
 4623SOL     OW25327   2.996   2.714  12.706 -0.6510  0.1195 -0.3050
 4623SOL    HW125328   3.052   2.711  12.784 -0.2686 -1.4963 -0.6432
 4623SOL    HW225329   2.937   2.789  12.714 -0.0111  0.8828 -2.7577
 4624SOL     OW25330   3.005   2.747   2.827  0.0716  0.6859  0.1969
 4624SOL    HW125331   3.068   2.695   2.877  1.1903  1.1833 -0.6947
 4624SOL    HW225332   3.076   2.803   2.797 -2.1372  2.3537 -1.9652
 4625SOL     OW25333   0.072   1.369  10.358  0.2564 -0.4372  0.6197
 4625SOL    HW125334   0.078   1.337  10.268 -0.5677 -0.5109  0.5923
 4625SOL    HW225335   0.013   1.441  10.339  1.2719  0.0568 -0.7066
 4626SOL     OW25336   3.102   2.604   2.478 -0.7906 -0.4879  0.3360
 4626SOL    HW125337   3.070   2.514   2.481 -0.9228 -0.5347 -1.9634
 4626SOL    HW225338   3.024   2.658   2.468  0.5616  1.2757 -0.6262
 4627SOL     OW25339   3.093   4.437   0.627  0.3983  0.2910  0.3479
 4627SOL    HW125340   3.097   4.343   0.611 -2.1819 -0.0720  1.8490
 4627SOL    HW225341   3.064   4.442   0.718 -1.3084  0.1517 -0.1728
 4628SOL     OW25342   0.845   2.528   7.430  0.1046 -0.3805 -0.3832
 4628SOL    HW125343   0.756   2.551   7.457  0.6335  1.0237  0.1538
 4628SOL    HW225344   0.838   2.538   7.335  1.6785 -1.0427 -0.5662
 4629SOL     OW25345   0.473   2.768   2.783  0.1544 -0.2072 -0.2562
 4629SOL    HW125346   0.561   2.778   2.748 -1.2281  0.6474 -3.5634
 4629SOL    HW225347   0.442   2.698   2.725 -0.3113  0.0535 -0.3302
 4630SOL     OW25348   2.609   2.008   3.931  0.0537 -0.2659 -0.1230
 4630SOL    HW125349   2.567   1.957   3.861  1.5897  1.1907 -2.1131
 4630SOL    HW225350   2.703   1.993   3.916 -0.0805  0.7164 -1.9493
 4631SOL     OW25351   1.670   2.947   5.854 -0.0751 -0.6099  0.0002
 4631SOL    HW125352   1.623   2.994   5.923  2.3438  0.2682  1.0728
 4631SOL    HW225353   1.698   2.870   5.904 -0.7906  0.2489  1.7186
 4632SOL     OW25354   4.412   2.017   7.594 -0.3905 -0.1660 -0.2231
 4632SOL    HW125355   4.490   2.071   7.578 -0.6780  0.9423  2.1320
 4632SOL    HW225356   4.359   2.077   7.646 -0.6362  0.2664 -0.9751
 4633SOL     OW25357   3.077   3.880   3.947  0.7954 -0.1711 -0.6473
 4633SOL    HW125358   3.119   3.805   3.990  2.3060  1.9370  1.5558
 4633SOL    HW225359   3.153   3.938   3.945  1.2530 -0.7611 -0.3022
 4634SOL     OW25360   2.981   1.272   7.516 -0.3237 -0.2511  0.0881
 4634SOL    HW125361   3.006   1.358   7.484  2.6159 -1.1861 -0.0770
 4634SOL    HW225362   2.991   1.293   7.609  1.0577  0.2826 -0.1914
 4635SOL     OW25363   0.281   2.515  10.507  0.0528  0.4796  0.7550
 4635SOL    HW125364   0.246   2.602  10.524  1.1500  0.6713  2.0408
 4635SOL    HW225365   0.375   2.529  10.498  0.4747 -2.3478  0.8032
 4636SOL     OW25366   0.097   1.137  13.009  0.4784 -0.0248 -0.4434
 4636SOL    HW125367   0.052   1.135  12.925 -2.2319 -1.1438  1.0583
 4636SOL    HW225368   0.082   1.225  13.044  1.5955 -0.5909  1.5015
 4637SOL     OW25369   0.198   1.537  16.610 -0.5673 -0.1164 -0.4269
 4637SOL    HW125370   0.191   1.615  16.555  1.9459  1.3034  1.2386
 4637SOL    HW225371   0.241   1.475  16.552 -1.8237 -1.5733  0.1878
 4638SOL     OW25372   1.606   3.321   7.436 -0.3423  0.2957 -0.1590
 4638SOL    HW125373   1.512   3.322   7.423 -0.3209 -0.9764 -0.4069
 4638SOL    HW225374   1.615   3.259   7.364  0.5108  0.3713 -0.1263
 4639SOL     OW25375   4.070   0.713   2.701  0.2956  0.0729 -0.4224
 4639SOL    HW125376   4.037   0.795   2.738  1.0080 -0.4782  1.4106
 4639SOL    HW225377   4.010   0.696   2.628  1.5211 -0.9886 -1.1636
 4640SOL     OW25378   4.361   3.938   2.552 -0.3314  0.3059  0.2251
 4640SOL    HW125379   4.275   3.897   2.540 -0.4064  0.7603 -0.8083
 4640SOL    HW225380   4.360   3.988   2.470  1.6251  0.4511  0.2939
 4641SOL     OW25381   4.582   3.250   5.585  0.8853  0.1432  0.1558
 4641SOL    HW125382   4.586   3.253   5.680 -2.0684 -0.5531  0.3067
 4641SOL    HW225383   4.604   3.341   5.566 -3.0981  1.2108  0.6985
 4642SOL     OW25384   2.052   1.805   4.287  0.3306 -0.0736  0.4910
 4642SOL    HW125385   1.958   1.815   4.279  0.3019 -0.9313 -0.1958
 4642SOL    HW225386   2.081   1.873   4.348  0.6969 -0.7530  1.0703
 4643SOL     OW25387   0.995   3.004  12.155  0.7966  0.7150  0.5166
 4643SOL    HW125388   1.007   2.909  12.160  1.2188  0.8438  1.9057
 4643SOL    HW225389   1.068   3.040  12.206  0.6313  0.7978  0.6925
 4644SOL     OW25390   3.894   0.019   4.812 -0.0410 -0.5677 -0.2002
 4644SOL    HW125391   3.931   4.699   4.735 -0.2483  1.1649 -1.2643
 4644SOL    HW225392   3.974   0.015   4.863 -0.2654 -0.1169  0.1902
 4645SOL     OW25393   3.689   0.281   6.403  0.2013  0.4440  0.4060
 4645SOL    HW125394   3.640   0.363   6.409 -0.5690  0.0381 -0.2401
 4645SOL    HW225395   3.676   0.238   6.488  3.2053 -1.7671 -0.2643
 4646SOL     OW25396   0.325   3.664   2.473  0.5840 -0.7571  1.1808
 4646SOL    HW125397   0.341   3.570   2.466 -0.3010 -0.9875  2.3172
 4646SOL    HW225398   0.230   3.667   2.462  0.6833 -0.1418  0.4846
 4647SOL     OW25399   3.615   3.195  14.553 -0.1225 -0.1472 -0.3228
 4647SOL    HW125400   3.641   3.279  14.515  0.6310  0.7171  2.0706
 4647SOL    HW225401   3.696   3.144  14.552 -0.3861 -0.5619 -0.6332
 4648SOL     OW25402   2.740   3.621   7.568  0.1309 -0.4900 -0.6577
 4648SOL    HW125403   2.647   3.643   7.568  0.1831 -0.2679 -2.5629
 4648SOL    HW225404   2.772   3.662   7.649  1.6194 -0.9090 -1.0333
 4649SOL     OW25405   0.006   1.607   8.050  0.2562  0.6054 -0.0391
 4649SOL    HW125406   4.645   1.654   8.050  0.5174  1.0629 -0.5768
 4649SOL    HW225407   0.060   1.671   8.095  1.2809 -0.9809  0.9835
 4650SOL     OW25408   0.716   3.897   5.432 -0.2485 -0.3825 -0.0614
 4650SOL    HW125409   0.690   3.988   5.420 -0.2824 -0.1095  2.1277
 4650SOL    HW225410   0.651   3.851   5.378 -0.7331  0.5192 -0.2414
 4651SOL     OW25411   1.481   1.126   4.736  0.6113  0.2868  0.6643
 4651SOL    HW125412   1.515   1.215   4.735 -0.2207  0.5903 -1.5960
 4651SOL    HW225413   1.552   1.078   4.780  0.0334  0.9264  2.2918
 4652SOL     OW25414   0.965   0.090   8.991 -0.7870 -0.0685  0.3809
 4652SOL    HW125415   0.875   0.096   8.958 -0.2694 -0.5622 -1.1138
 4652SOL    HW225416   0.954   0.009   9.041 -0.6989 -0.1060  0.3392
 4653SOL     OW25417   4.633   4.631   6.046 -0.3433 -0.2911  0.1228
 4653SOL    HW125418   4.609   4.630   6.139 -1.7684  1.0456 -0.2139
 4653SOL    HW225419   4.554   4.590   6.011 -0.7444 -0.9014  1.7457
 4654SOL     OW25420   0.082   0.937   7.037  0.0060  0.1644 -0.0602
 4654SOL    HW125421   4.714   0.942   7.007 -0.1246  2.6225  0.7206
 4654SOL    HW225422   0.084   0.890   7.121 -0.5649  1.1536  0.5085
 4655SOL     OW25423   4.601   0.246  14.997 -0.0587  0.1506  0.6953
 4655SOL    HW125424   4.510   0.227  15.019  0.2731 -1.6699  0.4851
 4655SOL    HW225425   4.589   0.329  14.950  1.3170  0.3531  0.6955
 4656SOL     OW25426   1.960   0.874  14.743 -0.1225  0.5137 -0.0519
 4656SOL    HW125427   1.883   0.855  14.689 -0.5574 -0.1453  0.7897
 4656SOL    HW225428   1.975   0.967  14.724 -0.4026  0.5949  0.1204
 4657SOL     OW25429   1.577   0.127  11.403 -0.1252  0.3081 -0.1550
 4657SOL    HW125430   1.655   0.115  11.458  1.0909 -0.8959 -2.1444
 4657SOL    HW225431   1.574   0.041  11.360 -1.2144 -0.3195  1.1689
 4658SOL     OW25432   3.260   3.730   7.516 -0.0693  0.3852  0.3160
 4658SOL    HW125433   3.208   3.662   7.560  0.6327 -0.5775 -0.3364
 4658SOL    HW225434   3.259   3.703   7.424  0.6966 -0.9481  0.6998
 4659SOL     OW25435   3.186   2.900   2.686  0.8101 -0.0504  0.0797
 4659SOL    HW125436   3.166   2.989   2.715 -1.4255 -0.8324  0.8695
 4659SOL    HW225437   3.204   2.908   2.592  0.7494  2.7890  0.3117
 4660SOL     OW25438   1.272   2.827   4.046 -0.0703  0.5462  0.3300
 4660SOL    HW125439   1.363   2.853   4.062  1.1068 -1.7770 -2.6579
 4660SOL    HW225440   1.236   2.913   4.069  2.1961  1.0099  2.1693
 4661SOL     OW25441   0.721   1.506   8.011  0.5332  0.3625 -0.6888
 4661SOL    HW125442   0.787   1.504   7.941  0.2748  3.5588 -1.0320
 4661SOL    HW225443   0.689   1.596   8.005 -1.5208 -0.3720 -0.9539
 4662SOL     OW25444   4.656   4.029   7.284  0.1359 -0.0828 -0.6937
 4662SOL    HW125445   4.601   3.966   7.331  0.1909 -1.6569 -2.7291
 4662SOL    HW225446   4.674   3.973   7.208  0.6835 -0.5678 -0.2105
 4663SOL     OW25447   2.328   0.615   0.051 -0.0765  0.7509  0.0391
 4663SOL    HW125448   2.424   0.617   0.053 -0.0425 -1.0341  0.0231
 4663SOL    HW225449   2.323   0.546  17.677  1.3253  2.0610 -1.4405
 4664SOL     OW25450   1.209   3.946   8.004  1.0235 -0.1526  0.4394
 4664SOL    HW125451   1.175   3.867   8.045 -2.1859 -0.3234 -2.5311
 4664SOL    HW225452   1.153   4.018   8.035  0.5171 -0.1468 -0.4790
 4665SOL     OW25453   2.177   4.065  14.240  0.0869 -0.0345 -0.3100
 4665SOL    HW125454   2.096   4.016  14.222 -0.6407  1.2513 -0.5766
 4665SOL    HW225455   2.168   4.140  14.181  1.6412  0.0083 -0.4774
 4666SOL     OW25456   1.359   4.088   6.028  0.4508  0.8906  0.0758
 4666SOL    HW125457   1.268   4.061   6.020  0.8558 -0.0006 -1.5828
 4666SOL    HW225458   1.349   4.118   6.118 -0.3778 -1.7994  0.8896
 4667SOL     OW25459   1.960   3.154   5.135  0.0817 -0.3497 -0.7892
 4667SOL    HW125460   1.952   3.106   5.052 -1.3332 -0.6017 -0.5086
 4667SOL    HW225461   1.910   3.234   5.120 -0.1740  0.1058  2.4553
 4668SOL     OW25462   2.419   3.362   8.677 -0.3846 -0.5795 -0.3148
 4668SOL    HW125463   2.435   3.382   8.769  0.5155  0.6671 -0.7454
 4668SOL    HW225464   2.494   3.401   8.633 -0.5684 -0.3334 -0.4106
 4669SOL     OW25465   1.022   1.364   6.874 -0.3413 -0.0348  0.2446
 4669SOL    HW125466   1.076   1.300   6.827  0.6277  0.6011  0.4810
 4669SOL    HW225467   1.043   1.441   6.821 -0.8900  0.1357  0.2757
 4670SOL     OW25468   2.264   3.935   2.585 -0.0574 -0.0264  0.2104
 4670SOL    HW125469   2.226   4.022   2.573  2.7865  0.7764 -2.6208
 4670SOL    HW225470   2.309   3.951   2.668 -1.7823  0.6173  1.0410
 4671SOL     OW25471   1.577   3.012   3.523  0.3691  0.3129  0.2927
 4671SOL    HW125472   1.598   2.995   3.432  0.8698  0.2932  0.4127
 4671SOL    HW225473   1.617   2.940   3.572 -1.1914  1.0812  2.7020
 4672SOL     OW25474   4.103   0.319   6.484  0.2010  0.2369 -0.0758
 4672SOL    HW125475   4.123   0.254   6.551  0.5827 -0.0892 -0.5073
 4672SOL    HW225476   4.067   0.389   6.538 -0.0293  1.0086 -1.2181
 4673SOL     OW25477   3.175   0.535  12.318  0.1296  0.1894  0.0336
 4673SOL    HW125478   3.109   0.565  12.255  0.3438 -1.2030 -0.8675
 4673SOL    HW225479   3.164   0.441  12.300 -0.6334  0.6386 -1.8583
 4674SOL     OW25480   1.824   1.400  10.501  0.0634  0.3771  0.0654
 4674SOL    HW125481   1.918   1.392  10.482 -0.3182 -1.7204 -0.8959
 4674SOL    HW225482   1.816   1.475  10.561 -1.3202  0.9103 -0.7903
 4675SOL     OW25483   3.508   0.132   8.471 -0.8349  0.4513  0.0011
 4675SOL    HW125484   3.446   0.193   8.429 -1.0425  1.1083  1.2702
 4675SOL    HW225485   3.453   0.079   8.528 -1.9344  0.9132 -0.6127
 4676SOL     OW25486   1.649   2.877   1.286  0.2420  0.8661  0.1934
 4676SOL    HW125487   1.686   2.965   1.290  0.7818  0.6256  0.4559
 4676SOL    HW225488   1.693   2.841   1.363  0.7270  2.5568  0.7134
 4677SOL     OW25489   2.458   3.015  16.899 -0.1812  0.6223  0.0452
 4677SOL    HW125490   2.463   2.919  16.895  1.5099  0.6678  1.1386
 4677SOL    HW225491   2.481   3.038  16.809 -0.1124 -1.3127 -0.4269
 4678SOL     OW25492   3.005   2.501  14.708 -0.3523 -0.5464 -0.0999
 4678SOL    HW125493   3.034   2.511  14.799  0.1589  3.3333 -0.6683
 4678SOL    HW225494   2.978   2.589  14.680  1.0490  0.0234  0.3246
 4679SOL     OW25495   1.177   2.597   6.824 -0.2579 -0.5133  0.0148
 4679SOL    HW125496   1.257   2.624   6.779 -0.3217  0.2088  0.3253
 4679SOL    HW225497   1.150   2.537   6.755 -0.7931 -1.0995  0.7352
 4680SOL     OW25498   0.589   0.009   2.375  0.6918  0.2339  0.8614
 4680SOL    HW125499   0.569   4.637   2.374 -0.2873  0.4572 -1.9002
 4680SOL    HW225500   0.500   0.046   2.380 -0.0817 -1.5821  0.5958
 4681SOL     OW25501   0.206   0.355  15.844 -0.0845  0.8444 -0.0145
 4681SOL    HW125502   0.266   0.369  15.917 -0.0936  0.0354  0.1548
 4681SOL    HW225503   0.155   0.283  15.882  2.3030 -0.4715  0.6854
 4682SOL     OW25504   2.197   0.405  12.109 -0.0091  0.4727  0.4038
 4682SOL    HW125505   2.202   0.329  12.050 -1.2810  0.5748  0.1690
 4682SOL    HW225506   2.151   0.360  12.180  0.1897 -1.3554 -0.6125
 4683SOL     OW25507   2.811   0.995  13.205  0.7379  0.7418 -0.8825
 4683SOL    HW125508   2.744   0.929  13.187 -0.8433  2.4888 -1.4351
 4683SOL    HW225509   2.779   1.055  13.137 -1.4061  3.6038  2.6556
 4684SOL     OW25510   4.491   3.262  12.735 -0.4846 -0.8676  0.1894
 4684SOL    HW125511   4.522   3.199  12.800  1.9986  0.8133  0.6187
 4684SOL    HW225512   4.536   3.345  12.748 -1.0903 -0.7112  1.3090
 4685SOL     OW25513   1.366   2.285   2.714  0.5430 -0.1388  0.3491
 4685SOL    HW125514   1.428   2.330   2.657 -0.2865 -0.1880 -0.6092
 4685SOL    HW225515   1.381   2.339   2.791  2.5203  1.3635 -1.1127
 4686SOL     OW25516   3.834   3.616   4.672 -0.4413 -0.3196  0.2852
 4686SOL    HW125517   3.815   3.630   4.580  0.7169  1.7589  0.3627
 4686SOL    HW225518   3.773   3.670   4.722  3.4162  1.5971  2.9465
 4687SOL     OW25519   2.225   0.310  10.605 -0.2381 -0.1290  0.1581
 4687SOL    HW125520   2.203   0.319  10.697  0.0346  0.0587  0.2042
 4687SOL    HW225521   2.256   0.220  10.593  0.6365  0.2271 -0.2178
 4688SOL     OW25522   1.775   2.429   6.236 -0.2816  0.0630 -0.1104
 4688SOL    HW125523   1.847   2.475   6.192  1.3779 -2.2947  0.1292
 4688SOL    HW225524   1.768   2.474   6.320  0.0244 -2.8832  1.5002
 4689SOL     OW25525   2.891   1.711   4.164 -0.3344 -0.1858  0.0390
 4689SOL    HW125526   2.807   1.757   4.161  1.5221  3.0813 -2.3709
 4689SOL    HW225527   2.936   1.788   4.200 -0.8268  0.5330 -0.8724
 4690SOL     OW25528   4.449   3.014   2.307 -0.1185  0.1424 -0.0611
 4690SOL    HW125529   4.530   3.066   2.312  0.1686 -0.4262  1.0370
 4690SOL    HW225530   4.397   3.063   2.371 -1.2520 -0.9922 -0.1307
 4691SOL     OW25531   1.976   1.543   1.370 -0.0215 -0.2109  0.3294
 4691SOL    HW125532   1.978   1.485   1.294  0.4425  1.0479 -0.6004
 4691SOL    HW225533   1.989   1.472   1.434  1.0762 -2.4288 -2.3519
 4692SOL     OW25534   0.133   3.006   3.216  0.2891 -0.1539 -0.2490
 4692SOL    HW125535   0.061   3.051   3.173  1.4749  1.4297 -0.5719
 4692SOL    HW225536   0.120   2.915   3.189 -1.4507  0.6676 -2.0834
 4693SOL     OW25537   1.448   0.472   7.188  0.1216  0.3375 -0.3421
 4693SOL    HW125538   1.480   0.517   7.267  4.3412 -0.8790 -1.3680
 4693SOL    HW225539   1.504   0.394   7.194 -1.3978 -0.8186 -1.2265
 4694SOL     OW25540   0.801   2.511   2.345  0.4983 -0.1162  0.5573
 4694SOL    HW125541   0.838   2.574   2.284  3.0355 -1.8169  0.3762
 4694SOL    HW225542   0.783   2.565   2.423  0.6042  0.2795  0.3062
 4695SOL     OW25543   1.655   4.480   4.696 -0.3418 -0.1762  0.0352
 4695SOL    HW125544   1.635   4.402   4.646  1.5529 -0.2167 -0.6709
 4695SOL    HW225545   1.747   4.471   4.723  0.0503  0.9871 -0.9294
 4696SOL     OW25546   1.774   2.046   0.601 -0.5155  0.1860  0.3430
 4696SOL    HW125547   1.772   1.954   0.627 -0.8884  0.0462 -0.1891
 4696SOL    HW225548   1.815   2.045   0.515  3.4538 -0.7663  2.2290
 4697SOL     OW25549   4.437   1.430   5.660 -0.4808  0.1683  0.1539
 4697SOL    HW125550   4.399   1.437   5.572 -1.4424 -0.6012  0.5139
 4697SOL    HW225551   4.513   1.372   5.650  0.0951  1.2633 -1.9007
 4698SOL     OW25552   1.681   3.760   5.338  0.0532  0.5423  0.0786
 4698SOL    HW125553   1.749   3.823   5.313 -1.2323  1.7563 -0.3234
 4698SOL    HW225554   1.684   3.750   5.433 -2.8780  0.4010  0.1476
 4699SOL     OW25555   3.184   4.298   4.033 -0.5352 -0.2508  0.2320
 4699SOL    HW125556   3.175   4.373   4.092 -0.9028 -0.5116  0.5131
 4699SOL    HW225557   3.131   4.237   4.085 -1.7629 -0.0169 -0.7604
 4700SOL     OW25558   3.067   3.922   3.072 -0.0955  0.1259  0.5310
 4700SOL    HW125559   2.995   3.879   3.025 -1.8120  2.5872  0.8967
 4700SOL    HW225560   3.105   3.845   3.115  0.6148 -0.0237 -0.3593
 4701SOL     OW25561   1.935   1.929   1.794 -0.0666  0.2325 -0.6004
 4701SOL    HW125562   1.890   1.873   1.730  0.1788 -0.4311 -0.1908
 4701SOL    HW225563   1.873   1.932   1.867 -1.7332  0.0165 -1.9961
 4702SOL     OW25564   1.365   0.961  11.970  0.4982  0.0632  0.0763
 4702SOL    HW125565   1.314   1.032  11.930 -1.2773 -1.1275  0.2069
 4702SOL    HW225566   1.390   0.920  11.887 -1.6050 -1.7545  0.3262
 4703SOL     OW25567   2.145   4.692   4.481  0.2178  0.3870  0.0014
 4703SOL    HW125568   2.200   4.621   4.514  0.1801  0.1136 -0.5347
 4703SOL    HW225569   2.063   4.646   4.469 -0.6109  2.3544 -1.9761
 4704SOL     OW25570   1.888   0.605   8.744  0.1334  0.3745 -0.0409
 4704SOL    HW125571   1.975   0.570   8.724  0.0458 -1.3207  2.5225
 4704SOL    HW225572   1.844   0.601   8.659 -0.7845  2.7931  0.3278
 4705SOL     OW25573   1.375   4.556   9.013  0.2225  0.2231  0.4555
 4705SOL    HW125574   1.426   4.513   9.081  2.4889  3.0864  0.6144
 4705SOL    HW225575   1.378   4.482   8.952 -1.9355 -0.3983  1.1151
 4706SOL     OW25576   2.055   1.789   5.049 -0.0125 -0.1076 -0.0432
 4706SOL    HW125577   1.980   1.769   4.993  0.0305  0.4563 -0.3011
 4706SOL    HW225578   2.030   1.766   5.138  0.2764  0.5788  0.2163
 4707SOL     OW25579   4.011   4.210  10.382 -0.1942 -0.0413  0.2417
 4707SOL    HW125580   4.042   4.244  10.299 -2.0876 -1.1864 -0.9318
 4707SOL    HW225581   3.920   4.242  10.383 -0.6858 -1.4564  0.3348
 4708SOL     OW25582   4.627   0.480   5.956  0.1125  0.8031  0.5592
 4708SOL    HW125583   4.672   0.508   6.036  1.7686 -2.8910  0.8807
 4708SOL    HW225584   4.582   0.562   5.936 -0.0657  1.1310  2.3407
 4709SOL     OW25585   0.076   3.754   8.637  0.2552  0.5009 -0.1316
 4709SOL    HW125586   0.156   3.789   8.597  1.9515  1.7496  4.3979
 4709SOL    HW225587   0.086   3.780   8.728 -0.6281 -1.2582  0.4631
 4710SOL     OW25588   4.033   2.555   2.664 -0.0146  0.5590 -0.3587
 4710SOL    HW125589   4.041   2.519   2.752 -1.5875  1.3343  0.1003
 4710SOL    HW225590   4.058   2.647   2.672  1.4575  0.4037 -2.9878
 4711SOL     OW25591   0.093   2.537   3.815  0.3261  0.4517  0.0130
 4711SOL    HW125592   0.124   2.517   3.727  0.5598  0.3228  0.1249
 4711SOL    HW225593   0.003   2.564   3.799 -0.2343 -1.9723 -1.0526
 4712SOL     OW25594   3.713   0.360   8.843 -0.2604  0.3823 -0.4286
 4712SOL    HW125595   3.645   0.413   8.803 -0.8606 -0.3241 -0.3287
 4712SOL    HW225596   3.670   0.307   8.910  1.6491 -0.3459  0.2205
 4713SOL     OW25597   3.901   3.147  16.687  0.4960  0.1250 -0.4237
 4713SOL    HW125598   3.936   3.169  16.601  1.4052  1.0211  0.1811
 4713SOL    HW225599   3.875   3.237  16.706  0.0325 -0.0261 -0.3442
 4714SOL     OW25600   1.906   0.692   6.439 -0.4375  0.6596  0.1864
 4714SOL    HW125601   1.916   0.706   6.534  1.3989  0.5038  0.0104
 4714SOL    HW225602   1.918   0.598   6.430  0.9703  0.8629 -0.0335
 4715SOL     OW25603   4.261   4.446   5.388  0.1595  0.3569 -0.2408
 4715SOL    HW125604   4.356   4.435   5.378  0.0893 -0.3217 -0.1696
 4715SOL    HW225605   4.232   4.481   5.305  0.5889  1.1736 -0.0514
 4716SOL     OW25606   4.019   0.620  15.795  0.1143 -0.6894 -0.0644
 4716SOL    HW125607   4.047   0.624  15.704  2.2137  1.2823  0.6734
 4716SOL    HW225608   4.048   0.705  15.827  0.4402 -1.2015  1.0209
 4717SOL     OW25609   2.260   0.584  14.389 -0.1602  0.1525 -0.1215
 4717SOL    HW125610   2.240   0.677  14.374 -1.1075  0.5524  3.6678
 4717SOL    HW225611   2.356   0.581  14.394 -0.0617  3.7244  0.3404
 4718SOL     OW25612   1.338   1.315   5.017 -0.3242  0.2259  0.5422
 4718SOL    HW125613   1.409   1.260   5.049 -2.0292 -1.1981  1.8376
 4718SOL    HW225614   1.315   1.274   4.934  0.5119  1.5113 -0.3262
 4719SOL     OW25615   1.008   1.861   5.709 -0.5107  0.2001  0.1978
 4719SOL    HW125616   0.924   1.870   5.754  0.6012  3.2709  1.6905
 4719SOL    HW225617   1.069   1.920   5.755 -1.6300  1.2472  0.3495
 4720SOL     OW25618   0.916   4.219   2.995  0.5154  0.5094 -0.1194
 4720SOL    HW125619   0.904   4.272   2.916 -1.3457  1.1615  0.6010
 4720SOL    HW225620   0.828   4.219   3.034  0.5860 -0.5559  0.0376
 4721SOL     OW25621   1.435   4.214   5.562 -0.3748  0.2357 -0.3912
 4721SOL    HW125622   1.469   4.180   5.479 -2.5903  1.5001 -1.8371
 4721SOL    HW225623   1.348   4.236   5.527  0.0021  1.7333 -0.3962
 4722SOL     OW25624   4.049   0.579   2.054  0.5833 -0.5338 -0.2411
 4722SOL    HW125625   4.011   0.508   2.106  0.8533 -0.5881 -0.1187
 4722SOL    HW225626   4.020   0.545   1.969 -1.3973  2.8234 -0.9282
 4723SOL     OW25627   2.838   1.681   5.248  0.0157 -0.2262  0.2006
 4723SOL    HW125628   2.775   1.710   5.314  2.7656  2.5563  1.6008
 4723SOL    HW225629   2.903   1.751   5.243  1.2478 -1.2745  1.4134
 4724SOL     OW25630   3.620   2.377  14.054  0.0250 -0.1995 -0.6212
 4724SOL    HW125631   3.631   2.282  14.064 -1.1977 -0.3357 -0.5312
 4724SOL    HW225632   3.614   2.408  14.145 -0.6478  1.5476 -1.2653
 4725SOL     OW25633   3.378   2.045   2.672  0.0332  0.0919  0.1800
 4725SOL    HW125634   3.422   1.971   2.713 -0.3153 -1.1849 -1.7478
 4725SOL    HW225635   3.439   2.071   2.602 -1.1110 -0.5459 -1.0468
 4726SOL     OW25636   3.465   2.725   7.874 -0.5138  0.4443 -0.0702
 4726SOL    HW125637   3.375   2.756   7.886 -0.2159  0.5775  1.8220
 4726SOL    HW225638   3.479   2.690   7.962  0.4407  1.1113  0.0335
 4727SOL     OW25639   3.389   1.528   3.885  0.8882 -0.0794  0.3799
 4727SOL    HW125640   3.376   1.619   3.912 -1.9677 -0.5352  0.5497
 4727SOL    HW225641   3.483   1.511   3.891  0.9584 -0.3903 -1.5957
 4728SOL     OW25642   1.693   2.287   5.024  0.3365  0.7600 -0.1075
 4728SOL    HW125643   1.621   2.335   5.064 -1.4872 -1.6397 -0.5323
 4728SOL    HW225644   1.758   2.357   5.038  0.4357  0.7966 -0.7827
 4729SOL     OW25645   3.471   0.388   6.993  0.3038  0.5510 -0.1401
 4729SOL    HW125646   3.556   0.372   6.953  0.9108  0.6518  1.1328
 4729SOL    HW225647   3.405   0.380   6.923  1.6026 -0.3771 -1.2562
 4730SOL     OW25648   4.262   1.926   6.601 -0.0888  0.1564  0.1034
 4730SOL    HW125649   4.256   1.932   6.506  0.3995 -0.1698  0.0547
 4730SOL    HW225650   4.353   1.952   6.614 -0.1005 -1.6317  3.8460
 4731SOL     OW25651   2.228   1.392   2.869 -0.1616 -0.1085  0.2105
 4731SOL    HW125652   2.257   1.468   2.818  0.3954 -0.4556  0.0096
 4731SOL    HW225653   2.304   1.393   2.927  1.5779 -0.9406 -2.0403
 4732SOL     OW25654   4.457   1.010   5.683 -0.4364  0.0456  0.6017
 4732SOL    HW125655   4.404   1.078   5.641 -0.2926  1.0178  1.9933
 4732SOL    HW225656   4.406   0.980   5.758 -0.3130  0.5794  0.8996
 4733SOL     OW25657   0.299   4.225   5.710  0.3013 -0.4412 -0.6454
 4733SOL    HW125658   0.208   4.251   5.726  1.2952  3.1836 -0.9925
 4733SOL    HW225659   0.296   4.217   5.614 -1.7173 -0.7290 -0.5699
 4734SOL     OW25660   2.853   1.234  14.929  0.2575 -0.6564 -0.0881
 4734SOL    HW125661   2.800   1.155  14.916  0.0303 -0.8068  1.7523
 4734SOL    HW225662   2.939   1.203  14.903  0.3393 -0.5665  0.0740
 4735SOL     OW25663   4.453   1.477   7.900 -0.7641 -0.0712  0.1351
 4735SOL    HW125664   4.497   1.554   7.935  0.3196 -1.0287  0.8571
 4735SOL    HW225665   4.473   1.409   7.965  1.2440 -0.4997 -0.9417
 4736SOL     OW25666   3.995   4.574   4.598  0.4241 -0.3044 -0.8733
 4736SOL    HW125667   3.937   4.533   4.533 -0.9494  0.1047  0.0870
 4736SOL    HW225668   4.047   4.497   4.619  0.3430 -0.2330 -0.4237
 4737SOL     OW25669   0.739   0.269   4.218  0.4112 -0.2056  0.0001
 4737SOL    HW125670   0.772   0.335   4.279  1.1806  0.3874 -1.0434
 4737SOL    HW225671   0.759   0.316   4.137 -1.5532 -0.0519 -0.3874
 4738SOL     OW25672   2.406   0.768  12.752 -0.7124  0.7019 -0.1262
 4738SOL    HW125673   2.392   0.818  12.672 -1.2420  0.9021  0.0898
 4738SOL    HW225674   2.499   0.748  12.738 -0.6584  0.5620  0.4111
 4739SOL     OW25675   4.178   2.074   2.823  0.4556  0.4745  0.3698
 4739SOL    HW125676   4.102   2.131   2.831 -0.8917 -1.1530 -1.0597
 4739SOL    HW225677   4.248   2.139   2.823 -1.0266  2.0734  0.5106
 4740SOL     OW25678   3.447   2.840   3.842 -0.1999  0.6381  0.2345
 4740SOL    HW125679   3.383   2.791   3.893 -0.4202 -1.7104 -2.2817
 4740SOL    HW225680   3.397   2.871   3.767 -0.4299  2.1884  1.0344
 4741SOL     OW25681   4.594   3.180   6.904  0.3031 -0.2407 -0.1085
 4741SOL    HW125682   4.550   3.258   6.870  0.2196 -0.6648 -0.9812
 4741SOL    HW225683   4.538   3.163   6.979 -1.9598  1.7941 -1.3506
 4742SOL     OW25684   2.701   0.001   0.555 -0.8403 -0.0486  0.2244
 4742SOL    HW125685   2.776   0.059   0.537 -0.6385 -1.7476 -4.5711
 4742SOL    HW225686   2.742   4.638   0.544  0.3622  0.7676 -1.7715
 4743SOL     OW25687   3.269   3.849   8.889  0.1877  0.2772 -0.1679
 4743SOL    HW125688   3.343   3.792   8.906 -0.4842 -0.6866 -0.4527
 4743SOL    HW225689   3.227   3.828   8.973  2.7784  0.2183  1.1097
 4744SOL     OW25690   1.163   2.414  10.286  0.1653  0.0856  0.5500
 4744SOL    HW125691   1.134   2.354  10.354 -1.3007  1.1014  0.8462
 4744SOL    HW225692   1.182   2.496  10.332 -0.2226  0.4799  0.0174
 4745SOL     OW25693   3.751   0.493   5.898  0.2313  0.1965 -0.4515
 4745SOL    HW125694   3.716   0.436   5.829 -2.7954  2.5674 -0.9056
 4745SOL    HW225695   3.693   0.453   5.962  1.3793 -3.1430 -1.5389
 4746SOL     OW25696   4.589   0.751   7.730 -0.2699 -0.2921 -0.6505
 4746SOL    HW125697   4.537   0.823   7.763  1.8500  0.4732  1.0305
 4746SOL    HW225698   4.647   0.736   7.805  0.2928 -0.9870 -1.2197
 4747SOL     OW25699   2.077   3.079   8.147 -0.4791  0.2933 -0.1227
 4747SOL    HW125700   2.040   3.059   8.061 -2.5597  0.9492  0.6321
 4747SOL    HW225701   2.091   3.174   8.140  2.7197 -0.2600 -1.4217
 4748SOL     OW25702   0.024   3.528   9.204  0.0017 -0.3985  0.2467
 4748SOL    HW125703   4.711   3.485   9.126 -0.5326 -0.7954  0.7125
 4748SOL    HW225704   0.104   3.476   9.197  0.6185  0.7659 -1.6236
 4749SOL     OW25705   0.308   1.247   4.435 -0.2147 -0.1099  0.6570
 4749SOL    HW125706   0.263   1.314   4.385  2.3681  0.8394 -0.4151
 4749SOL    HW225707   0.261   1.170   4.403 -1.6076  1.1641 -0.3329
 4750SOL     OW25708   0.131   2.843   5.813 -0.0755  0.0233 -0.4437
 4750SOL    HW125709   0.105   2.931   5.786  1.7781  0.2190 -1.5753
 4750SOL    HW225710   0.063   2.834   5.880  0.8908  2.1145  0.8283
 4751SOL     OW25711   2.102   1.277  17.446 -0.1149 -0.3312 -0.0637
 4751SOL    HW125712   2.067   1.351  17.398 -0.4470 -1.6536 -1.8630
 4751SOL    HW225713   2.056   1.208  17.398 -1.6491  2.4409 -2.5219
 4752SOL     OW25714   1.111   2.500   9.661  0.9230  0.2526 -0.9040
 4752SOL    HW125715   1.103   2.588   9.698 -0.7214 -0.2480 -0.0421
 4752SOL    HW225716   1.175   2.463   9.722 -1.3186  0.3074  1.5294
 4753SOL     OW25717   0.305   0.895   5.484 -0.1284 -0.5555 -0.0808
 4753SOL    HW125718   0.366   0.958   5.522 -1.8500 -0.4715  2.5511
 4753SOL    HW225719   0.264   0.953   5.419  1.1032  2.2382  1.6241
 4754SOL     OW25720   1.139   3.158  17.157 -0.1337  0.1671 -0.0332
 4754SOL    HW125721   1.179   3.230  17.206 -1.7629  1.3772 -0.4627
 4754SOL    HW225722   1.133   3.196  17.070 -0.4757  1.5058  0.5703
 4755SOL     OW25723   3.521   2.941   1.953  1.1452  0.0451  0.0083
 4755SOL    HW125724   3.433   2.977   1.948  1.2025 -0.0061 -1.2027
 4755SOL    HW225725   3.515   2.894   2.037 -2.5858  1.6268  0.5885
 4756SOL     OW25726   1.788   2.163   8.098 -0.4743 -0.3904 -0.6350
 4756SOL    HW125727   1.798   2.108   8.176  0.0518 -2.0520 -1.8731
 4756SOL    HW225728   1.774   2.252   8.130  1.9974 -0.3572  0.3130
 4757SOL     OW25729   0.467   1.097   6.203 -0.2035 -0.2182 -0.1408
 4757SOL    HW125730   0.390   1.154   6.210 -0.3696 -0.5838  0.9599
 4757SOL    HW225731   0.439   1.037   6.133  2.1400 -0.3937 -0.9032
 4758SOL     OW25732   3.612   0.041   7.370  0.1353 -0.5488 -0.9256
 4758SOL    HW125733   3.704   0.021   7.354 -0.4274 -1.7033 -2.7016
 4758SOL    HW225734   3.593   4.681   7.414  0.3792 -0.7521 -1.2009
 4759SOL     OW25735   3.399   2.762   4.267 -0.3456 -0.1062  0.8206
 4759SOL    HW125736   3.453   2.818   4.212  0.6843 -3.2525 -1.3535
 4759SOL    HW225737   3.350   2.723   4.195 -0.2084  1.5045 -0.1511
 4760SOL     OW25738   0.556   2.419  11.672  0.1422  0.5227  0.6904
 4760SOL    HW125739   0.531   2.380  11.588 -0.2554  0.9897  0.5958
 4760SOL    HW225740   0.612   2.352  11.712 -1.0652 -1.0190 -0.1840
 4761SOL     OW25741   1.565   4.209   3.590 -0.7183 -0.4802 -0.4072
 4761SOL    HW125742   1.647   4.255   3.608 -0.0225 -1.7081 -0.4210
 4761SOL    HW225743   1.594   4.118   3.599  0.7755  0.1021  0.5014
 4762SOL     OW25744   1.160   3.298   4.337 -0.0128 -0.5947 -0.0543
 4762SOL    HW125745   1.079   3.310   4.288  0.4353 -0.9998 -0.8917
 4762SOL    HW225746   1.184   3.390   4.350  2.0693 -0.7264 -3.1031
 4763SOL     OW25747   0.407   2.012   2.476 -0.1016 -0.4155 -0.1697
 4763SOL    HW125748   0.355   1.932   2.477  0.0707 -0.5117  2.1586
 4763SOL    HW225749   0.341   2.080   2.466 -1.4171 -1.6178  0.4288
 4764SOL     OW25750   0.277   0.150   2.949 -0.1573 -0.1701  0.2507
 4764SOL    HW125751   0.213   0.083   2.923 -0.1814 -0.2119  0.4174
 4764SOL    HW225752   0.356   0.100   2.928  0.0353 -0.0720  0.7362
 4765SOL     OW25753   4.207   2.848   3.910  0.3747  0.0662  0.0104
 4765SOL    HW125754   4.145   2.868   3.981 -0.6241  0.9118 -1.1027
 4765SOL    HW225755   4.289   2.853   3.959 -0.7283  0.2184  1.8534
 4766SOL     OW25756   1.533   4.248   2.526  0.3040  0.3418  0.3187
 4766SOL    HW125757   1.506   4.314   2.591 -0.3312  2.4046 -2.0312
 4766SOL    HW225758   1.463   4.186   2.547  0.8839 -0.5520 -0.4180
 4767SOL     OW25759   4.160   3.789   2.444  0.0157 -0.1455 -0.4461
 4767SOL    HW125760   4.107   3.865   2.419 -0.4981  0.0424  1.2480
 4767SOL    HW225761   4.175   3.753   2.356  0.3623 -0.3389 -0.3025
 4768SOL     OW25762   4.174   4.198   0.477 -0.4553  0.0557 -0.2796
 4768SOL    HW125763   4.107   4.134   0.455  1.8746 -1.7141 -2.2409
 4768SOL    HW225764   4.252   4.144   0.463  0.8058  2.5882 -2.8592
 4769SOL     OW25765   3.496   3.799   6.173 -0.0776 -0.2592 -0.3024
 4769SOL    HW125766   3.461   3.839   6.252  0.3152  0.1456 -0.3324
 4769SOL    HW225767   3.589   3.792   6.195 -0.2647 -1.4490  0.0762
 4770SOL     OW25768   0.935   1.436   9.407 -0.2882 -0.3453  0.8151
 4770SOL    HW125769   0.872   1.489   9.357 -0.8280 -0.0574  1.7898
 4770SOL    HW225770   0.872   1.412   9.475 -0.4184 -3.3885 -0.3812
 4771SOL     OW25771   4.000   2.817  16.261  0.0594 -0.3610 -0.0373
 4771SOL    HW125772   3.980   2.870  16.184  0.7468 -0.5402 -0.3420
 4771SOL    HW225773   4.032   2.892  16.311 -0.8937 -0.5059  0.7785
 4772SOL     OW25774   0.325   3.331  10.293  0.2135  0.1608 -0.2606
 4772SOL    HW125775   0.273   3.261  10.331  1.0318  0.1981  0.8979
 4772SOL    HW225776   0.340   3.307  10.201 -0.9519 -1.6787  0.0356
 4773SOL     OW25777   3.853   1.660  14.021  0.0269 -0.0746  0.9715
 4773SOL    HW125778   3.893   1.645  14.107  0.2798 -2.6398  0.4130
 4773SOL    HW225779   3.915   1.718  13.977  0.5561 -0.4104  1.2834
 4774SOL     OW25780   0.786   2.213   7.692  0.1247  0.6508  0.3214
 4774SOL    HW125781   0.822   2.295   7.726 -1.9481  2.3466 -1.5514
 4774SOL    HW225782   0.717   2.235   7.629  0.4465  0.0319 -0.2518
 4775SOL     OW25783   3.385   4.446   5.009 -0.6921 -0.0481  0.0270
 4775SOL    HW125784   3.315   4.500   4.973 -0.4210  0.5417  0.3803
 4775SOL    HW225785   3.431   4.403   4.937  0.5604 -0.8021  1.2640
 4776SOL     OW25786   0.546   2.937   5.527  0.3308 -0.5085  0.0252
 4776SOL    HW125787   0.620   2.996   5.538  0.3039 -0.0921 -2.0215
 4776SOL    HW225788   0.571   2.898   5.444  0.0518  3.2701 -1.8277
 4777SOL     OW25789   1.867   0.822   8.883 -0.2587  0.3207  0.4607
 4777SOL    HW125790   1.901   0.897   8.834  0.0966 -0.7273 -0.8874
 4777SOL    HW225791   1.850   0.758   8.814  0.7814  2.1449 -1.4946
 4778SOL     OW25792   4.092   4.131   8.619  0.3693 -0.5011 -0.3452
 4778SOL    HW125793   4.122   4.121   8.709 -2.7678  0.7433  0.8273
 4778SOL    HW225794   3.999   4.111   8.628 -0.1601  2.0825 -0.1457
 4779SOL     OW25795   1.905   2.561   8.099  0.1027  0.9889 -0.2521
 4779SOL    HW125796   1.934   2.562   8.008 -1.3869  0.0174 -0.7287
 4779SOL    HW225797   1.987   2.528   8.136  0.3542 -1.2077 -2.8350
 4780SOL     OW25798   1.193   1.106   2.886 -0.7505  0.4663  0.2361
 4780SOL    HW125799   1.155   1.138   2.967  0.2851  0.6126  0.6727
 4780SOL    HW225800   1.122   1.125   2.825  0.5429  2.1972 -0.7566
 4781SOL     OW25801   2.072   2.784   3.725  0.1103 -0.8668  0.1384
 4781SOL    HW125802   1.983   2.793   3.757  0.6090  0.0523  1.2786
 4781SOL    HW225803   2.080   2.708   3.667 -0.1000 -2.1920  1.8581
 4782SOL     OW25804   3.630   4.678   4.430  0.2308  0.2865  0.4810
 4782SOL    HW125805   3.639   4.686   4.335  1.9396  1.1977  0.7312
 4782SOL    HW225806   3.631   0.046   4.459  1.0992  0.4274  0.0185
 4783SOL     OW25807   4.412   4.053   0.563 -0.1844 -0.0541 -0.0146
 4783SOL    HW125808   4.476   3.986   0.541  0.0624  0.5917 -1.2541
 4783SOL    HW225809   4.401   4.032   0.656  0.9518 -2.4862 -0.4260
 4784SOL     OW25810   2.263   4.707   3.529  0.4006  0.0734  0.0365
 4784SOL    HW125811   2.343   4.705   3.582  1.6988  0.3767 -1.9163
 4784SOL    HW225812   2.193   4.659   3.572  0.9021  0.2918  1.1074
 4785SOL     OW25813   2.162   3.653   7.609 -0.5020 -0.2339  0.0579
 4785SOL    HW125814   2.139   3.568   7.647 -0.4058 -0.0950  0.4294
 4785SOL    HW225815   2.126   3.645   7.521 -1.7633  1.1930  0.4477
 4786SOL     OW25816   3.316   2.053   1.058  0.1055 -0.1503 -0.3686
 4786SOL    HW125817   3.322   2.044   0.963 -1.4262 -3.6984 -0.1161
 4786SOL    HW225818   3.222   2.050   1.073  0.0369 -0.4267 -0.8557
 4787SOL     OW25819   1.279   0.220   7.251 -0.2898  0.1772  0.2100
 4787SOL    HW125820   1.216   0.234   7.321 -0.1469 -1.2706  0.6390
 4787SOL    HW225821   1.319   0.306   7.238 -0.7710  0.4247  0.3874
 4788SOL     OW25822   2.911   2.923   1.376 -0.5900 -0.1828  0.6767
 4788SOL    HW125823   2.928   2.830   1.391  0.1060 -0.2952 -0.8091
 4788SOL    HW225824   2.988   2.947   1.326 -2.0139  2.6542 -0.1101
 4789SOL     OW25825   3.672   4.683  12.745  0.0288  0.2469 -0.5152
 4789SOL    HW125826   3.685   4.706  12.837 -2.0419 -0.7661  0.0101
 4789SOL    HW225827   3.628   0.038  12.709  1.2357  0.6546 -1.1454
 4790SOL     OW25828   4.694   0.024  15.257 -0.0507 -0.5178  0.3344
 4790SOL    HW125829   4.637   0.076  15.201 -2.3850 -0.7507  2.5062
 4790SOL    HW225830   0.061   0.038  15.226 -0.5302  2.0357  0.1746
 4791SOL     OW25831   4.501   2.558   4.194  0.0030 -0.4100  0.1504
 4791SOL    HW125832   4.566   2.498   4.157  0.1721 -0.0177 -0.1849
 4791SOL    HW225833   4.480   2.498   4.266 -3.0428  1.1936  0.6109
 4792SOL     OW25834   0.362   2.108  11.674 -0.3329 -0.3221 -0.1421
 4792SOL    HW125835   0.395   2.021  11.653 -1.1285 -0.2762 -1.5782
 4792SOL    HW225836   0.437   2.137  11.727  1.0125  0.1252 -2.2921
 4793SOL     OW25837   3.080   0.168  11.101  0.4706 -0.1110  0.2767
 4793SOL    HW125838   3.071   0.248  11.153 -0.8901 -0.4860  0.6190
 4793SOL    HW225839   3.099   0.199  11.012  0.3268  0.5592  0.4786
 4794SOL     OW25840   0.843   0.053   4.506  0.4817  0.1823  0.1329
 4794SOL    HW125841   0.756   0.091   4.505 -0.3441 -1.6830  0.6545
 4794SOL    HW225842   0.889   0.132   4.536  1.5183 -0.0011 -0.9498
 4795SOL     OW25843   1.180   1.863   2.380  0.3322 -0.4835 -0.5157
 4795SOL    HW125844   1.234   1.876   2.303 -1.0668 -0.4517 -1.4931
 4795SOL    HW225845   1.093   1.879   2.343 -0.0457 -0.5493  0.3436
 4796SOL     OW25846   0.577   0.754   9.251 -0.2626 -0.9693  0.2282
 4796SOL    HW125847   0.551   0.842   9.224 -1.5986 -1.2031  0.7539
 4796SOL    HW225848   0.508   0.743   9.317 -1.3805 -0.9447 -0.9253
 4797SOL     OW25849   3.489   1.163   7.072 -0.0424 -0.3261  0.0561
 4797SOL    HW125850   3.518   1.152   6.982 -0.2044  1.0471 -0.1674
 4797SOL    HW225851   3.443   1.080   7.085  1.0375 -0.8146  0.8236
 4798SOL     OW25852   0.589   1.763   4.342  0.5486  0.3549 -0.5194
 4798SOL    HW125853   0.525   1.693   4.345 -0.1245  1.0497  1.4780
 4798SOL    HW225854   0.666   1.723   4.383  1.2493  0.9395 -1.2478
 4799SOL     OW25855   2.373   3.350  11.626 -0.5203  0.1630  0.2124
 4799SOL    HW125856   2.302   3.346  11.690 -0.2397  1.3867  0.5981
 4799SOL    HW225857   2.419   3.269  11.647  0.2349  0.6912  0.5837
 4800SOL     OW25858   3.370   4.415   6.212 -0.2250 -0.5155 -0.3919
 4800SOL    HW125859   3.374   4.428   6.307 -1.3684 -1.2868 -0.2405
 4800SOL    HW225860   3.439   4.350   6.200  2.2544  2.3460 -1.6143
 4801SOL     OW25861   4.704   3.146   4.957  0.2161 -0.1780  0.2760
 4801SOL    HW125862   0.065   3.102   4.973  0.6112 -0.5360 -2.6179
 4801SOL    HW225863   4.663   3.084   4.898 -1.3110 -0.2066  1.3908
 4802SOL     OW25864   1.929   2.094   6.927 -0.0479  0.3719 -0.3031
 4802SOL    HW125865   1.868   2.136   6.866 -0.3521 -0.5506 -0.6260
 4802SOL    HW225866   2.013   2.127   6.896  0.2960 -3.2783 -3.2501
 4803SOL     OW25867   4.087   0.093   6.017 -0.3177 -0.3537  0.0570
 4803SOL    HW125868   4.011   0.036   6.029 -0.4166 -0.6132 -1.8241
 4803SOL    HW225869   4.054   0.182   6.007  1.5806  0.1566 -1.6513
 4804SOL     OW25870   3.641   1.139   6.839  0.4421 -0.8901 -0.5195
 4804SOL    HW125871   3.734   1.115   6.843  0.4365 -0.7435  0.4738
 4804SOL    HW225872   3.617   1.053   6.803 -0.7195 -0.4640 -0.7429
 4805SOL     OW25873   2.884   4.521   2.743 -0.1190 -0.0521 -0.1046
 4805SOL    HW125874   2.792   4.514   2.717 -0.2434  0.9910  0.0456
 4805SOL    HW225875   2.899   4.461   2.816  0.3523 -0.3178 -0.4175
 4806SOL     OW25876   1.133   1.113   1.681  0.5223  0.6632  0.7375
 4806SOL    HW125877   1.134   1.100   1.776 -1.8879  1.9240  0.9331
 4806SOL    HW225878   1.215   1.143   1.641  0.2570  1.8494  1.0651
 4807SOL     OW25879   3.311   2.027  16.389  0.7168  0.4546 -0.4347
 4807SOL    HW125880   3.311   2.097  16.454  2.1940  0.5384 -0.5157
 4807SOL    HW225881   3.337   1.953  16.444 -2.1860  0.0583  0.3750
 4808SOL     OW25882   0.922   0.519   0.845 -0.5230 -0.2234  0.7367
 4808SOL    HW125883   0.931   0.609   0.814 -2.4051  0.1342  1.2442
 4808SOL    HW225884   0.884   0.540   0.930 -0.6954 -1.2015  0.8946
 4809SOL     OW25885   1.875   0.051   1.717 -0.8927 -0.2536  0.0377
 4809SOL    HW125886   1.858   4.679   1.722  2.2228 -0.7619  0.7881
 4809SOL    HW225887   1.796   0.080   1.672  0.4918  0.2479 -2.0561
 4810SOL     OW25888   1.420   4.052   4.285 -0.8973 -0.3689  0.1761
 4810SOL    HW125889   1.492   4.114   4.281  0.6842 -2.1599  0.6107
 4810SOL    HW225890   1.342   4.105   4.269  0.2952  0.6169 -2.4048
 4811SOL     OW25891   2.927   3.259   6.239 -0.3386 -0.2847 -0.4723
 4811SOL    HW125892   2.875   3.184   6.268  0.7314 -0.1099  1.9487
 4811SOL    HW225893   2.949   3.287   6.328 -2.5626 -0.8593  0.2706
 4812SOL     OW25894   3.366   1.591   2.397 -0.7193 -0.1049  0.7627
 4812SOL    HW125895   3.319   1.584   2.314 -1.9156  0.6786  1.3687
 4812SOL    HW225896   3.321   1.668   2.434 -1.2547 -1.0013  1.9906
 4813SOL     OW25897   4.567   2.682   3.740 -0.6996  0.0793 -0.2403
 4813SOL    HW125898   4.491   2.631   3.711  0.3174 -1.0672 -0.8844
 4813SOL    HW225899   4.568   2.765   3.693  4.1936  0.0824 -0.1643
 4814SOL     OW25900   1.739   4.260   5.611  0.0299  0.4741  0.5458
 4814SOL    HW125901   1.682   4.264   5.534  1.5559  1.1669 -0.5444
 4814SOL    HW225902   1.671   4.268   5.678  1.7921  1.6383  2.2069
 4815SOL     OW25903   0.833   3.683   3.501  0.4625 -0.0418  0.2147
 4815SOL    HW125904   0.897   3.739   3.458 -0.8967  1.6153  0.3394
 4815SOL    HW225905   0.877   3.660   3.583 -2.4315 -2.5123  1.0970
 4816SOL     OW25906   2.457   0.016   8.030  0.1773 -0.2508  0.3788
 4816SOL    HW125907   2.402   4.663   8.052  0.4905 -0.5730  0.0505
 4816SOL    HW225908   2.533   0.005   8.087  0.0947  1.3736  0.8200
 4817SOL     OW25909   4.163   1.816  10.844  0.2572  0.1391 -0.6459
 4817SOL    HW125910   4.083   1.856  10.810 -1.5328 -3.0497 -0.1225
 4817SOL    HW225911   4.217   1.817  10.765  2.3947  1.5644  0.8311
 4818SOL     OW25912   3.428   4.427   4.377  0.3253  0.5178 -0.4381
 4818SOL    HW125913   3.468   4.354   4.330  0.3794  0.1236  0.2311
 4818SOL    HW225914   3.350   4.388   4.416  0.6135  1.1787  0.7902
 4819SOL     OW25915   0.076   2.986   1.538 -0.7868  0.0010 -0.2161
 4819SOL    HW125916   0.140   2.971   1.468  0.0757  3.6797 -0.2271
 4819SOL    HW225917   0.135   3.012   1.609  2.7652 -1.2593 -2.7005
 4820SOL     OW25918   1.834   1.713  10.634 -0.5252  0.4102  0.5568
 4820SOL    HW125919   1.784   1.794  10.633  1.9425  1.9432  0.5308
 4820SOL    HW225920   1.783   1.662  10.697  2.9148 -3.0893  0.5250
 4821SOL     OW25921   1.902   3.969  11.906  0.0767 -0.3606  0.4691
 4821SOL    HW125922   1.948   3.886  11.896  1.6679  0.8263 -2.1142
 4821SOL    HW225923   1.830   3.958  11.843 -1.0320  0.9142  1.5076
 4822SOL     OW25924   1.675   4.227   8.361  0.1359  0.2959  0.3565
 4822SOL    HW125925   1.756   4.234   8.413  1.8534 -2.5622 -1.9032
 4822SOL    HW225926   1.621   4.181   8.426  0.5387  0.6183  0.9187
 4823SOL     OW25927   0.368   0.088   8.691  0.0504 -0.4516  0.1041
 4823SOL    HW125928   0.444   0.127   8.647 -1.3463  1.0507 -0.9625
 4823SOL    HW225929   0.388   0.090   8.784 -0.5858  0.8471  0.2150
 4824SOL     OW25930   2.363   2.123   5.001 -0.4156  0.0844 -0.2698
 4824SOL    HW125931   2.357   2.038   5.044 -0.4425 -0.3353 -1.1132
 4824SOL    HW225932   2.454   2.146   4.983 -0.1921 -0.6318 -0.0294
 4825SOL     OW25933   4.602   3.827   7.725  0.1587  0.3919  0.1336
 4825SOL    HW125934   4.656   3.804   7.650 -2.1750  1.5176 -1.8691
 4825SOL    HW225935   4.523   3.774   7.716  0.3137  0.1774  0.0356
 4826SOL     OW25936   1.807   2.014   4.620  0.6112  0.3000  0.0446
 4826SOL    HW125937   1.746   1.981   4.686  1.5212 -0.5922  0.4370
 4826SOL    HW225938   1.749   2.013   4.544 -1.0968  2.3450  1.3125
 4827SOL     OW25939   2.809   0.351   6.018 -0.5045  0.2146 -0.2744
 4827SOL    HW125940   2.786   0.329   5.928  0.9373  0.0091 -0.5928
 4827SOL    HW225941   2.778   0.441   6.018 -1.6941 -0.1881 -1.0540
 4828SOL     OW25942   4.585   3.992  10.926 -0.7108  0.0827 -0.6178
 4828SOL    HW125943   4.599   3.974  11.020  1.6261 -2.1718 -1.3753
 4828SOL    HW225944   4.668   4.024  10.890  0.3949  0.0434  1.8614
 4829SOL     OW25945   0.657   4.671  16.172 -0.1603  0.3908  0.2892
 4829SOL    HW125946   0.679   4.578  16.167 -1.5586  0.2237 -2.5628
 4829SOL    HW225947   0.722   4.695  16.239 -0.9433  0.2609  1.0924
 4830SOL     OW25948   3.174   0.760   2.280  0.4034  0.6338  0.0835
 4830SOL    HW125949   3.239   0.694   2.260  0.9908  1.3030 -0.2115
 4830SOL    HW225950   3.098   0.706   2.300 -0.1557  0.2541 -3.1225
 4831SOL     OW25951   3.813   1.873   3.634 -0.2735  0.0336  0.2788
 4831SOL    HW125952   3.793   1.795   3.584  2.6977  0.6328 -1.8509
 4831SOL    HW225953   3.837   1.837   3.719  0.3408  1.4064  0.7017
 4832SOL     OW25954   1.620   0.010   1.985 -0.1817  0.2001  0.4062
 4832SOL    HW125955   1.553   4.664   1.979  0.0727 -0.1093  1.1009
 4832SOL    HW225956   1.593   0.064   1.911  3.4554  1.3909 -0.0492
 4833SOL     OW25957   2.175   1.122   4.636  0.3513  0.0199 -0.1938
 4833SOL    HW125958   2.231   1.174   4.693  3.2647  1.0725 -4.0347
 4833SOL    HW225959   2.089   1.136   4.676  0.6342  0.9972  0.0773
 4834SOL     OW25960   2.368   2.064   4.407  0.1892 -0.1831 -0.2912
 4834SOL    HW125961   2.371   2.136   4.344 -1.3062 -0.5049 -0.7220
 4834SOL    HW225962   2.274   2.049   4.418 -0.1607  1.5218 -0.9469
 4835SOL     OW25963   2.265   1.524   1.894 -0.2564 -0.4117  0.2902
 4835SOL    HW125964   2.177   1.494   1.874  0.1082 -0.7506 -0.7683
 4835SOL    HW225965   2.255   1.618   1.876  1.1607 -0.2990  0.0819
 4836SOL     OW25966   3.070   3.219  16.944  0.3591  0.3697  0.7942
 4836SOL    HW125967   3.121   3.285  16.991 -1.3756  2.2588  0.0411
 4836SOL    HW225968   3.010   3.278  16.898  1.8305  0.9674 -0.3375
 4837SOL     OW25969   2.648   3.488   6.605 -0.2991  0.3818  0.1680
 4837SOL    HW125970   2.667   3.396   6.587  1.4193  0.5728  1.0179
 4837SOL    HW225971   2.738   3.511   6.629 -0.9656  0.2497  2.8315
 4838SOL     OW25972   2.533   2.143  10.516 -0.2378  0.2159 -0.7149
 4838SOL    HW125973   2.536   2.128  10.421 -0.0328 -0.2126 -0.6391
 4838SOL    HW225974   2.627   2.152  10.527 -0.3034 -0.8584  0.7104
 4839SOL     OW25975   4.012   4.523   2.603 -0.1125 -0.2379 -0.0227
 4839SOL    HW125976   4.024   4.618   2.614 -0.7138 -0.1611 -0.0109
 4839SOL    HW225977   4.013   4.515   2.507  1.4483 -1.1244  0.0779
 4840SOL     OW25978   0.157   3.821   8.893  0.2077 -0.4123 -0.0748
 4840SOL    HW125979   0.196   3.752   8.947  2.1321  0.1566 -0.7817
 4840SOL    HW225980   0.141   3.898   8.947 -2.0826 -1.2023  0.4217
 4841SOL     OW25981   0.159   2.690   0.553  0.1655 -0.2716  0.1143
 4841SOL    HW125982   0.139   2.654   0.639  0.9810 -0.6876  0.1296
 4841SOL    HW225983   0.086   2.656   0.501 -0.2743 -1.6920  1.6750
 4842SOL     OW25984   0.974   2.701  11.434 -0.2035 -0.3329  0.2432
 4842SOL    HW125985   0.883   2.730  11.446  0.1744 -0.0313  2.4112
 4842SOL    HW225986   0.998   2.677  11.524 -0.0578  1.9818  0.8213
 4843SOL     OW25987   3.594   4.207   6.355 -0.1458  0.3030  0.7228
 4843SOL    HW125988   3.581   4.246   6.442 -0.4801  0.0543  0.7834
 4843SOL    HW225989   3.674   4.156   6.368 -0.3253  0.1103  1.0695
 4844SOL     OW25990   4.089   3.512   4.709  0.2296  0.2940 -0.1206
 4844SOL    HW125991   4.002   3.549   4.698  1.5548  3.1980 -0.6807
 4844SOL    HW225992   4.116   3.493   4.619  0.0348 -0.7642  0.0362
 4845SOL     OW25993   4.355   0.236   6.377 -0.0838 -0.4173 -0.2796
 4845SOL    HW125994   4.280   0.268   6.428 -0.3038  0.1748 -0.9816
 4845SOL    HW225995   4.311   0.167   6.327  0.8219 -1.4888  0.3926
 4846SOL     OW25996   2.710   2.307   3.155 -0.4198  0.0005 -0.1920
 4846SOL    HW125997   2.752   2.371   3.096  1.2168 -1.0171 -0.1201
 4846SOL    HW225998   2.691   2.240   3.089 -0.8807 -0.4479  0.4054
 4847SOL     OW25999   3.409   1.743  10.033  0.9903  0.8315  0.2018
 4847SOL    HW126000   3.464   1.728  10.110  2.3833 -2.0209 -1.3422
 4847SOL    HW226001   3.450   1.692   9.963 -0.5022  0.8246 -0.6773
 4848SOL     OW26002   2.238   3.466   6.880 -0.5002  0.1245 -0.7559
 4848SOL    HW126003   2.206   3.398   6.939  0.1821 -0.9848 -1.6725
 4848SOL    HW226004   2.260   3.534   6.945 -0.1542  0.1246 -0.8771
 4849SOL     OW26005   2.201   3.693   3.532  0.0755 -0.1204  0.3464
 4849SOL    HW126006   2.138   3.625   3.510  1.0055 -0.6326 -0.7086
 4849SOL    HW226007   2.154   3.775   3.550 -0.8884 -0.6820  0.3677
 4850SOL     OW26008   1.400   2.962   2.042 -0.0574  0.2019  0.8504
 4850SOL    HW126009   1.459   2.951   2.117  0.7989 -1.0202  0.0025
 4850SOL    HW226010   1.452   2.925   1.971 -3.3174 -2.2628 -0.2536
 4851SOL     OW26011   1.070   0.793  11.024 -0.0005  0.7128 -0.1906
 4851SOL    HW126012   1.097   0.716  11.074 -0.2945  0.6175 -0.1789
 4851SOL    HW226013   1.034   0.750  10.946 -0.8929  2.9213 -0.9882
 4852SOL     OW26014   1.054   1.282   9.179  0.0220 -0.5229  0.1599
 4852SOL    HW126015   1.099   1.264   9.262 -1.2426 -1.3440  0.6585
 4852SOL    HW226016   1.119   1.350   9.158 -0.5394 -0.6153 -1.8134
 4853SOL     OW26017   0.588   0.109   5.416 -0.1275 -0.6694 -0.3631
 4853SOL    HW126018   0.628   0.098   5.502 -0.3448  1.4389 -0.0050
 4853SOL    HW226019   0.497   0.137   5.431  0.1250 -0.7350  1.2725
 4854SOL     OW26020   1.191   1.631   7.235 -0.1072 -0.3730 -0.2987
 4854SOL    HW126021   1.196   1.644   7.330 -2.7327  0.8616 -0.3330
 4854SOL    HW226022   1.099   1.614   7.219 -0.4250  0.0535  1.0175
 4855SOL     OW26023   0.535   0.189   8.161 -0.2687 -0.1037  0.0651
 4855SOL    HW126024   0.540   0.190   8.066 -2.4097 -1.3642 -0.0604
 4855SOL    HW226025   0.548   0.283   8.168  2.4054 -0.3550 -1.3962
 4856SOL     OW26026   1.951   2.206   7.884  0.4185  0.0088 -0.4920
 4856SOL    HW126027   1.912   2.200   7.971  1.0077  1.0022 -0.1576
 4856SOL    HW226028   1.989   2.293   7.892  1.0636 -0.3449  0.3102
 4857SOL     OW26029   0.081   0.841   3.225 -0.2296 -0.1589 -0.5696
 4857SOL    HW126030   0.118   0.809   3.143 -1.6950 -2.1411 -0.4473
 4857SOL    HW226031   4.710   0.850   3.208 -0.2732  1.9521  0.7010
 4858SOL     OW26032   3.819   3.897   5.988 -0.5100  0.0251 -0.1383
 4858SOL    HW126033   3.859   3.970   6.035  2.1826 -3.2149  2.5553
 4858SOL    HW226034   3.762   3.858   6.055  1.3596 -1.4738  0.5614
 4859SOL     OW26035   1.615   0.242   7.189  0.1820  0.0523  0.3136
 4859SOL    HW126036   1.580   0.164   7.233  0.7384  0.6208  1.7826
 4859SOL    HW226037   1.704   0.221   7.218 -0.0498 -0.0629  0.9395
 4860SOL     OW26038   3.797   0.971   4.464  0.1640  0.1443 -0.1998
 4860SOL    HW126039   3.781   0.967   4.559  1.1302  2.2953  0.0489
 4860SOL    HW226040   3.713   0.992   4.424 -0.0623 -0.4374 -0.0282
 4861SOL     OW26041   2.197   4.079  17.246  1.0753  0.2626  0.8022
 4861SOL    HW126042   2.192   3.987  17.222 -2.1939  0.7542 -0.4043
 4861SOL    HW226043   2.287   4.089  17.276  0.5061 -0.4836  2.7363
 4862SOL     OW26044   1.291   1.533   4.826 -0.5361  0.0136  0.0390
 4862SOL    HW126045   1.326   1.494   4.907 -0.9517 -2.0378 -0.7617
 4862SOL    HW226046   1.202   1.500   4.835 -1.2952  2.0242 -0.1319
 4863SOL     OW26047   4.138   1.642   7.744  0.4290 -0.0842 -0.2414
 4863SOL    HW126048   4.208   1.664   7.683  1.5073 -1.0044  0.6587
 4863SOL    HW226049   4.125   1.729   7.781  0.7611 -0.9512  1.9396
 4864SOL     OW26050   3.352   4.126  16.861 -0.8854 -0.3112  0.1111
 4864SOL    HW126051   3.411   4.054  16.878  0.1492  0.5174  0.0168
 4864SOL    HW226052   3.274   4.074  16.841 -0.9322 -0.3762  0.4625
 4865SOL     OW26053   3.645   2.970   1.197  0.4017  0.0738  0.2086
 4865SOL    HW126054   3.676   2.987   1.286  1.3598  0.0196 -0.1145
 4865SOL    HW226055   3.720   3.013   1.155 -1.4694  2.0282 -1.1119
 4866SOL     OW26056   2.569   2.939  17.501  0.5623  0.4107  0.2722
 4866SOL    HW126057   2.510   3.014  17.500  1.3409  1.0552  2.7155
 4866SOL    HW226058   2.581   2.926  17.407  0.3794 -3.4430  0.7534
 4867SOL     OW26059   2.680   3.085   3.817 -0.5886 -0.4824  0.6049
 4867SOL    HW126060   2.642   2.998   3.812 -1.9253  0.2235 -1.2365
 4867SOL    HW226061   2.771   3.055   3.824  0.9501  4.1435  0.3601
 4868SOL     OW26062   4.214   1.547   3.491 -0.4782 -0.0635  0.1506
 4868SOL    HW126063   4.171   1.610   3.433 -0.9015 -0.5130 -0.0283
 4868SOL    HW226064   4.165   1.467   3.472 -0.9984 -0.2025  2.0018
 4869SOL     OW26065   3.116   0.491   7.217 -0.4227 -0.0008 -0.6459
 4869SOL    HW126066   3.186   0.520   7.275 -1.0197 -1.3941  0.7981
 4869SOL    HW226067   3.152   0.403   7.200 -0.1922 -0.2202  0.9183
 4870SOL     OW26068   2.120   1.014  10.579 -0.1293 -0.6790 -0.8555
 4870SOL    HW126069   2.157   0.929  10.557 -0.7010 -0.9437 -0.7951
 4870SOL    HW226070   2.034   1.011  10.536 -0.6948  0.1346  0.1846
 4871SOL     OW26071   4.067   0.445   1.799  0.4694 -0.6781 -0.5096
 4871SOL    HW126072   3.977   0.429   1.771  0.9234 -0.4203 -2.0797
 4871SOL    HW226073   4.089   0.355   1.822  0.1707 -0.4394  0.7321
 4872SOL     OW26074   1.452   4.548  14.194 -0.3753 -0.8853  0.3929
 4872SOL    HW126075   1.381   4.521  14.135 -0.7591  0.2460  0.3382
 4872SOL    HW226076   1.482   4.463  14.226 -0.6955 -1.0214  0.3264
 4873SOL     OW26077   3.728   0.514   7.081  0.1111  0.0952 -0.4154
 4873SOL    HW126078   3.724   0.601   7.041 -0.6993 -0.4704 -1.5554
 4873SOL    HW226079   3.766   0.535   7.167 -0.2970  2.3758 -0.7769
 4874SOL     OW26080   0.905   2.048  11.751  0.2309 -0.3174 -0.0137
 4874SOL    HW126081   0.877   2.023  11.839 -0.2964 -0.9444 -0.3550
 4874SOL    HW226082   0.994   2.014  11.761  0.2926 -0.0761  0.2668
 4875SOL     OW26083   3.586   0.268   9.079  0.2571  0.3606  0.1947
 4875SOL    HW126084   3.651   0.291   9.145  0.5030  2.4538 -0.7780
 4875SOL    HW226085   3.606   0.176   9.058 -0.1587  0.4107 -0.4366
 4876SOL     OW26086   2.136   4.537   7.578 -0.3802 -0.0180 -0.2297
 4876SOL    HW126087   2.130   4.630   7.600  0.4139  0.2928 -1.3162
 4876SOL    HW226088   2.097   4.506   7.660 -0.9143  0.2842 -0.3679
 4877SOL     OW26089   3.519   2.472   4.838  0.2561 -0.0317  0.0629
 4877SOL    HW126090   3.587   2.528   4.876  0.6990  0.2041 -1.0827
 4877SOL    HW226091   3.550   2.487   4.749  1.8617  1.3705  0.8729
 4878SOL     OW26092   3.591   2.462   0.454  0.0378  0.3354 -0.0983
 4878SOL    HW126093   3.592   2.367   0.466 -0.5907  0.3615  0.1455
 4878SOL    HW226094   3.514   2.473   0.398 -0.8587 -1.5534  0.7470
 4879SOL     OW26095   2.711   1.283  12.755  0.0571  0.5007  0.7134
 4879SOL    HW126096   2.764   1.302  12.678 -0.5258  2.2061  0.7304
 4879SOL    HW226097   2.638   1.344  12.741 -2.3330 -2.9508 -1.6350
 4880SOL     OW26098   2.863   3.169   5.539 -0.1410  0.1692  0.1746
 4880SOL    HW126099   2.768   3.172   5.550 -0.3333  2.3233 -2.0754
 4880SOL    HW226100   2.888   3.081   5.566 -0.4189  0.0721  0.1122
 4881SOL     OW26101   3.540   2.827   7.045  0.1092 -0.8216 -0.3342
 4881SOL    HW126102   3.581   2.871   6.971 -0.3861 -2.4381 -1.5737
 4881SOL    HW226103   3.492   2.752   7.010 -3.7413  0.8623  1.2330
 4882SOL     OW26104   4.529   1.067   5.113  0.1913 -0.0435 -0.4679
 4882SOL    HW126105   4.525   1.162   5.119  1.0040  0.0969 -2.1001
 4882SOL    HW226106   4.488   1.050   5.028 -0.5568  0.2210 -0.1558
 4883SOL     OW26107   1.764   3.872   7.708  0.0519  0.0721  0.5275
 4883SOL    HW126108   1.816   3.881   7.629  0.0705 -2.9153  0.1965
 4883SOL    HW226109   1.816   3.802   7.748  1.3843  0.3615 -0.7279
 4884SOL     OW26110   2.217   0.701  11.324  0.5055 -0.3047 -0.1793
 4884SOL    HW126111   2.123   0.700  11.338  0.7115 -1.2093  1.1590
 4884SOL    HW226112   2.236   0.792  11.344  0.5651 -0.0806 -1.2438
 4885SOL     OW26113   4.501   0.711   6.892  0.3075 -0.4830 -0.1962
 4885SOL    HW126114   4.525   0.677   6.806 -0.2305  1.0854 -0.9705
 4885SOL    HW226115   4.467   0.797   6.865  1.6538  0.4546  1.0590
 4886SOL     OW26116   1.498   2.885  13.800 -0.8169  0.2928  0.0883
 4886SOL    HW126117   1.523   2.821  13.733  1.5392  1.4613 -0.1354
 4886SOL    HW226118   1.473   2.830  13.874  0.6190  1.2405  1.2696
 4887SOL     OW26119   0.597   1.588   9.083  0.3036  0.2800  0.9187
 4887SOL    HW126120   0.624   1.679   9.069  1.3915 -0.2168 -0.2173
 4887SOL    HW226121   0.657   1.570   9.156 -1.5436 -2.2697  1.7747
 4888SOL     OW26122   1.017   4.481  15.231  0.5311  0.0878 -0.1736
 4888SOL    HW126123   0.981   4.392  15.227  2.5802 -0.7845  1.2226
 4888SOL    HW226124   0.988   4.521  15.149  0.5294 -1.4309 -0.9135
 4889SOL     OW26125   0.199   0.377   7.147 -0.5480  0.3582  0.1007
 4889SOL    HW126126   0.275   0.339   7.191 -0.5683  2.0071  1.5739
 4889SOL    HW226127   0.208   0.468   7.175 -2.6047  0.3437  0.8237
 4890SOL     OW26128   2.614   1.478  15.002  0.1380  0.2262 -0.1501
 4890SOL    HW126129   2.699   1.437  14.989  0.1440  0.0891  0.3380
 4890SOL    HW226130   2.640   1.552  15.057  1.3804  0.8889 -1.6199
 4891SOL     OW26131   3.717   4.486   9.217  0.3549  0.5571  0.3252
 4891SOL    HW126132   3.725   4.500   9.122 -0.0596 -1.4780 -0.0026
 4891SOL    HW226133   3.747   4.570   9.251  1.2071  0.3644  0.0435
 4892SOL     OW26134   0.320   1.723   1.022 -0.3136  0.2180  0.0532
 4892SOL    HW126135   0.264   1.797   1.000  0.6039  1.2253  1.0715
 4892SOL    HW226136   0.362   1.763   1.099 -0.5725  0.1001  0.2546
 4893SOL     OW26137   2.616   2.998   0.707 -0.4828 -0.5147  0.4123
 4893SOL    HW126138   2.687   3.013   0.770 -0.2651 -0.0007  0.0449
 4893SOL    HW226139   2.634   2.904   0.707 -0.2684 -0.4772  0.9070
 4894SOL     OW26140   2.670   3.146   3.092  0.2835  0.3435  0.2692
 4894SOL    HW126141   2.654   3.066   3.142  2.8848  0.7444  1.7033
 4894SOL    HW226142   2.765   3.145   3.093  0.2628  0.2513  2.4602
 4895SOL     OW26143   3.804   1.270   4.326  0.4068  0.2782  0.1849
 4895SOL    HW126144   3.848   1.305   4.249  1.9722  1.5018  1.6397
 4895SOL    HW226145   3.734   1.231   4.275  0.0894  2.6547 -1.1810
 4896SOL     OW26146   0.585   4.021   2.285 -0.5909 -0.5268  0.0176
 4896SOL    HW126147   0.567   4.014   2.378 -0.2965  1.4026  0.2161
 4896SOL    HW226148   0.569   3.928   2.266  0.9480 -0.8894  0.5383
 4897SOL     OW26149   3.002   2.598   3.559  0.2321  0.0066  0.2173
 4897SOL    HW126150   2.915   2.626   3.530  0.3355 -0.7262 -0.7791
 4897SOL    HW226151   3.005   2.519   3.505 -0.8064  1.4163 -1.8946
 4898SOL     OW26152   1.445   4.073  11.187  0.3992  0.0752  0.4975
 4898SOL    HW126153   1.390   4.085  11.264 -1.7665  2.1914 -1.3719
 4898SOL    HW226154   1.511   4.141  11.205 -0.4086  1.0492 -0.2471
 4899SOL     OW26155   3.473   0.157  14.281 -0.0924 -0.0937  0.1963
 4899SOL    HW126156   3.466   0.068  14.246 -2.3485 -1.2898  3.6736
 4899SOL    HW226157   3.521   0.198  14.209 -0.2055  1.6636  1.1292
 4900SOL     OW26158   0.490   3.552   7.310 -0.2403 -0.1575 -0.6721
 4900SOL    HW126159   0.562   3.564   7.247  0.8527 -2.6943  0.0856
 4900SOL    HW226160   0.515   3.617   7.375 -0.0297 -1.4074  0.4866
 4901SOL     OW26161   4.297   2.209   7.307 -0.0623 -0.6935 -0.4054
 4901SOL    HW126162   4.331   2.150   7.374  0.3774 -0.7891 -0.7145
 4901SOL    HW226163   4.381   2.244   7.276 -0.4674 -0.0474 -0.7709
 4902SOL     OW26164   0.563   1.658   6.451 -0.3522  0.6832  0.3158
 4902SOL    HW126165   0.481   1.695   6.483 -1.2676  0.8601 -2.2892
 4902SOL    HW226166   0.624   1.700   6.512  0.3892  1.9343 -1.2796
 4903SOL     OW26167   1.476   4.690  13.093  0.1574 -0.8863  0.2341
 4903SOL    HW126168   1.476   0.060  13.119  1.9893  0.5435 -4.7527
 4903SOL    HW226169   1.565   4.677  13.061  0.6833  1.2072  0.8000
 4904SOL     OW26170   0.848   2.009   4.804 -1.0144  0.0716  0.9317
 4904SOL    HW126171   0.851   2.103   4.819 -0.9684  0.4982 -1.7355
 4904SOL    HW226172   0.874   1.966   4.885 -1.6159 -1.0375  0.5347
 4905SOL     OW26173   3.514   4.709  13.357 -0.0156  0.5619  0.1161
 4905SOL    HW126174   3.441   0.039  13.390 -0.6796 -0.0663 -0.3237
 4905SOL    HW226175   3.530   0.035  13.276 -1.7674  1.7114  0.4734
 4906SOL     OW26176   4.516   2.247  16.225  0.6558  0.1436 -0.0886
 4906SOL    HW126177   4.546   2.238  16.315 -0.4727 -1.3611  0.1276
 4906SOL    HW226178   4.588   2.258  16.163  1.8952  0.3414  1.3912
 4907SOL     OW26179   4.310   2.604   3.501  0.5455  0.5150  0.1894
 4907SOL    HW126180   4.329   2.587   3.593 -1.3929 -2.3644  0.0487
 4907SOL    HW226181   4.215   2.612   3.499  0.6847  2.4102  1.0182
 4908SOL     OW26182   1.363   3.564   6.371  0.3384 -0.6155 -0.0194
 4908SOL    HW126183   1.393   3.545   6.460  1.0676 -1.6580 -0.4947
 4908SOL    HW226184   1.378   3.659   6.374 -3.0902  0.0808 -5.1364
 4909SOL     OW26185   2.536   2.844   1.049 -0.1809 -0.1544  0.5297
 4909SOL    HW126186   2.480   2.797   1.110 -0.9247 -0.4866 -0.4039
 4909SOL    HW226187   2.503   2.815   0.964  1.5732  1.0322 -0.5426
 4910SOL     OW26188   2.915   2.071   2.094 -0.4696 -0.5019 -0.0881
 4910SOL    HW126189   2.966   2.115   2.026  1.0742 -3.0288 -0.5562
 4910SOL    HW226190   2.903   1.988   2.048 -1.0561  0.7900 -2.2868
 4911SOL     OW26191   4.280   0.872   5.883 -0.3587  0.1136 -0.1412
 4911SOL    HW126192   4.213   0.853   5.817  0.1786  0.4200 -0.7681
 4911SOL    HW226193   4.229   0.912   5.953  1.3406  0.3108  0.9854
 4912SOL     OW26194   3.704   2.359   5.313  0.4323  0.3724  0.4396
 4912SOL    HW126195   3.756   2.322   5.242  0.4739  1.0351  0.1263
 4912SOL    HW226196   3.760   2.325   5.383  1.1223  1.4033  0.3934
 4913SOL     OW26197   2.920   2.477   5.002  0.4297  0.1973  0.2293
 4913SOL    HW126198   2.859   2.530   5.053 -0.7173 -2.0596  1.2454
 4913SOL    HW226199   2.884   2.391   5.026  0.3212  0.1809  0.0094
 4914SOL     OW26200   1.540   0.018   3.851  0.0431  0.4464  0.7845
 4914SOL    HW126201   1.567   0.104   3.883  1.7903  0.6037 -1.1096
 4914SOL    HW226202   1.453   4.721   3.888 -0.8270  2.3271 -0.2664
 4915SOL     OW26203   2.192   0.073   6.656 -0.1692  0.0132  0.7202
 4915SOL    HW126204   2.196   0.169   6.654 -2.2249  0.0677 -0.4240
 4915SOL    HW226205   2.252   0.053   6.583  1.0888 -1.1325  2.0676
 4916SOL     OW26206   2.721   1.245  14.451 -0.2310  0.0096 -0.0555
 4916SOL    HW126207   2.787   1.217  14.387 -1.7376  0.3977 -1.7696
 4916SOL    HW226208   2.764   1.317  14.498  1.3950  0.6812 -2.5831
 4917SOL     OW26209   1.035   0.664   6.994 -0.2392 -0.3543  0.1657
 4917SOL    HW126210   0.951   0.626   7.018  0.2635 -1.0441  0.8285
 4917SOL    HW226211   1.085   0.582   6.994 -1.2738 -0.9824 -1.8419
 4918SOL     OW26212   0.455   1.998   0.830 -0.2890 -0.0797  0.4005
 4918SOL    HW126213   0.414   2.071   0.784  0.8845  0.3629  0.0638
 4918SOL    HW226214   0.529   2.039   0.874  0.3950  0.4262 -1.2625
 4919SOL     OW26215   0.140   2.231   1.284 -0.0659 -0.0572  0.2148
 4919SOL    HW126216   0.215   2.244   1.343  0.3265  1.4953 -0.6203
 4919SOL    HW226217   0.105   2.320   1.287 -0.6501 -0.3137  0.8898
 4920SOL     OW26218   2.917   2.188   5.008  0.1231 -0.6053 -0.5026
 4920SOL    HW126219   2.897   2.170   4.916  1.4577  1.3269 -1.1617
 4920SOL    HW226220   2.851   2.130   5.047 -0.4227  0.9863  0.9357
 4921SOL     OW26221   2.343   1.260  17.575 -0.2284 -0.3436  0.2592
 4921SOL    HW126222   2.260   1.270  17.528 -0.2958 -0.6013  0.3219
 4921SOL    HW226223   2.402   1.299  17.510  0.1719  0.6851  1.2549
 4922SOL     OW26224   2.946   4.020   5.700 -0.0019 -0.1571  0.0406
 4922SOL    HW126225   3.012   4.070   5.652 -0.9013  0.7546 -0.2593
 4922SOL    HW226226   2.956   3.928   5.676  4.8672  0.6135 -1.0298
 4923SOL     OW26227   3.435   1.224   2.056 -0.7264  0.3337 -0.1946
 4923SOL    HW126228   3.367   1.261   2.112  0.3821  3.5228 -0.9502
 4923SOL    HW226229   3.510   1.278   2.082 -0.0023 -1.2791  1.0183
 4924SOL     OW26230   4.181   0.248  17.314 -0.4228  0.4843  0.5739
 4924SOL    HW126231   4.223   0.188  17.253  0.3753  0.6780  0.9221
 4924SOL    HW226232   4.192   0.194  17.393  1.4955  1.2003  0.7969
 4925SOL     OW26233   4.426   0.313   2.575  0.1246  0.5085 -0.5756
 4925SOL    HW126234   4.335   0.340   2.587 -0.4394 -0.6019 -2.5042
 4925SOL    HW226235   4.421   0.226   2.615  0.4696  0.9725  0.4953
 4926SOL     OW26236   0.446   3.084   7.356  0.5140 -0.8375 -0.2193
 4926SOL    HW126237   0.484   3.130   7.430 -0.0132  2.2393 -1.8934
 4926SOL    HW226238   0.450   3.162   7.300 -1.3037  0.5262  1.5609
 4927SOL     OW26239   1.027   2.591   3.377  0.1568  0.1964 -0.4931
 4927SOL    HW126240   1.070   2.506   3.384  0.7672  0.7083  1.7788
 4927SOL    HW226241   1.082   2.650   3.429 -0.1174  0.5175 -0.5642
 4928SOL     OW26242   3.179   1.493   3.148 -0.4366 -0.2406  0.8936
 4928SOL    HW126243   3.133   1.573   3.172  2.2431  1.4240  0.5542
 4928SOL    HW226244   3.144   1.489   3.059  0.6717 -2.7045  0.5619
 4929SOL     OW26245   1.575   2.398   3.666 -0.7959 -0.3551 -0.0060
 4929SOL    HW126246   1.650   2.379   3.723 -0.5044  3.6697  0.9030
 4929SOL    HW226247   1.582   2.327   3.602  1.9014 -0.3054  0.2258
 4930SOL     OW26248   4.160   2.891  12.225 -0.0713 -0.1932  0.3506
 4930SOL    HW126249   4.070   2.866  12.204 -0.3431  0.6072  0.5559
 4930SOL    HW226250   4.196   2.812  12.264 -0.8310 -0.9674 -0.5210
 4931SOL     OW26251   0.469   1.212   8.164 -0.0814  0.2527 -0.0523
 4931SOL    HW126252   0.411   1.283   8.138 -1.3514 -1.1648 -1.0567
 4931SOL    HW226253   0.469   1.232   8.258  0.0953 -0.7564  0.1641
 4932SOL     OW26254   4.680   0.965  11.103  0.2964  0.1005  0.3748
 4932SOL    HW126255   0.012   0.933  11.032 -0.1949 -2.1736  1.0359
 4932SOL    HW226256   4.640   1.043  11.064  1.1038  0.3397  0.0315
 4933SOL     OW26257   0.309   2.683   7.745 -0.4372  0.2286  0.2857
 4933SOL    HW126258   0.287   2.653   7.657 -1.4820 -0.8469  0.9196
 4933SOL    HW226259   0.226   2.682   7.793 -0.4840  0.7274  0.2162
 4934SOL     OW26260   2.262   1.918   6.418 -0.1949 -0.5991 -0.0103
 4934SOL    HW126261   2.181   1.883   6.383 -1.2257  1.6056  0.1557
 4934SOL    HW226262   2.283   1.846   6.478 -0.6823 -0.9417 -0.2590
 4935SOL     OW26263   4.580   1.991   4.806  0.0553 -0.0162 -0.5501
 4935SOL    HW126264   4.544   2.066   4.758  2.5218  1.5193  0.0161
 4935SOL    HW226265   4.600   2.030   4.891 -0.4359 -2.3046  0.6148
 4936SOL     OW26266   1.927   3.091  11.299 -0.0725  0.4516  0.3538
 4936SOL    HW126267   1.838   3.066  11.273 -0.7412  1.1768  1.8962
 4936SOL    HW226268   1.943   3.023  11.365 -1.6450  0.7988  1.1124
 4937SOL     OW26269   4.516   3.480  12.187 -0.2290  0.0110  0.4220
 4937SOL    HW126270   4.501   3.401  12.239 -2.2080 -0.2375 -0.5015
 4937SOL    HW226271   4.471   3.551  12.232  3.5363  0.3187  3.6200
 4938SOL     OW26272   4.154   1.790   3.327 -0.4541 -0.0910  0.2676
 4938SOL    HW126273   4.074   1.800   3.276 -0.4211 -1.1654  0.0000
 4938SOL    HW226274   4.131   1.827   3.412  3.3538  1.2356  0.7126
 4939SOL     OW26275   1.642   1.547  13.788  0.0812  0.3222 -0.4883
 4939SOL    HW126276   1.548   1.564  13.779  0.4901  0.2261 -5.2252
 4939SOL    HW226277   1.649   1.479  13.721  0.3265  0.7376 -0.8876
 4940SOL     OW26278   1.922   2.832  11.457  0.3875  0.3666 -0.1488
 4940SOL    HW126279   2.007   2.799  11.488  0.8439  1.2231 -0.4783
 4940SOL    HW226280   1.871   2.824  11.538  1.7197  0.9955  0.7528
 4941SOL     OW26281   1.675   0.267   5.220  0.1903  0.1502  0.1511
 4941SOL    HW126282   1.742   0.257   5.152  0.4120  0.1172  0.3737
 4941SOL    HW226283   1.649   0.180   5.249 -0.4071  0.5742  0.8585
 4942SOL     OW26284   0.501   4.483   3.001 -0.2106  0.4117 -0.4253
 4942SOL    HW126285   0.552   4.560   2.974 -1.6614  0.9754 -1.5902
 4942SOL    HW226286   0.458   4.445   2.925  4.0947 -1.0412 -2.1252
 4943SOL     OW26287   4.489   3.823   7.399  0.2324  0.6121 -0.1725
 4943SOL    HW126288   4.451   3.771   7.328 -0.7772 -0.0526  0.8613
 4943SOL    HW226289   4.412   3.867   7.437  0.2068 -0.8795  1.5094
 4944SOL     OW26290   4.328   4.678   2.021  0.0161 -0.2243 -0.1080
 4944SOL    HW126291   4.285   4.663   2.106 -1.2591  0.2741 -0.6642
 4944SOL    HW226292   4.413   4.717   2.042  0.7815 -1.4068 -1.0597
 4945SOL     OW26293   2.983   0.948   3.897  0.1046 -0.3918  0.1730
 4945SOL    HW126294   3.066   0.938   3.850  0.9344  1.6820  1.1988
 4945SOL    HW226295   3.027   0.978   3.976  1.3557  0.1775 -0.7300
 4946SOL     OW26296   4.342   1.041   6.423 -0.2342 -0.0018  0.1015
 4946SOL    HW126297   4.365   1.026   6.331 -0.6345 -2.6815  0.4373
 4946SOL    HW226298   4.413   1.098   6.450 -0.3592 -0.6238  1.7290
 4947SOL     OW26299   1.176   4.171   0.155 -0.0446 -0.0896  0.2848
 4947SOL    HW126300   1.226   4.093   0.181 -2.2361 -1.7362 -0.4318
 4947SOL    HW226301   1.210   4.229   0.223  0.1059  0.9463 -0.6749
 4948SOL     OW26302   1.362   3.836   3.613  0.0540  0.2760 -0.4854
 4948SOL    HW126303   1.401   3.780   3.546  0.7714 -1.6148  1.5167
 4948SOL    HW226304   1.343   3.909   3.554  0.0556  0.7448  0.0960
 4949SOL     OW26305   0.357   1.400  10.417  0.2710 -0.2127  0.3740
 4949SOL    HW126306   0.278   1.433  10.373 -1.0511 -0.9035  2.2072
 4949SOL    HW226307   0.412   1.385  10.340 -1.6648  2.6013 -1.5352
 4950SOL     OW26308   3.275   3.040   1.994  0.0077 -0.3894  0.3471
 4950SOL    HW126309   3.259   3.095   1.917  1.2960 -0.0651  0.3107
 4950SOL    HW226310   3.273   3.099   2.069 -0.2541  0.2716 -0.1722
 4951SOL     OW26311   2.094   1.924   3.178  0.4920  0.2064  0.2798
 4951SOL    HW126312   2.096   2.006   3.129 -2.0188 -0.3664 -0.8018
 4951SOL    HW226313   2.082   1.858   3.109  0.7867 -0.0633  0.4857
 4952SOL     OW26314   4.487   2.769   1.134 -0.8275 -0.7939 -0.4481
 4952SOL    HW126315   4.461   2.825   1.207 -0.9637 -2.0794  0.4854
 4952SOL    HW226316   4.446   2.683   1.144  2.4432 -2.7201 -3.5084
 4953SOL     OW26317   3.493   0.701   7.703 -0.3677 -0.2119 -0.2738
 4953SOL    HW126318   3.439   0.624   7.685  2.2736 -1.5655 -2.3014
 4953SOL    HW226319   3.506   0.732   7.613  1.0473 -1.0664 -0.3575
 4954SOL     OW26320   3.483   1.454   8.241 -0.1130  0.2418  0.0276
 4954SOL    HW126321   3.499   1.483   8.151 -0.1211 -3.1204 -1.0372
 4954SOL    HW226322   3.447   1.540   8.264  2.1810  1.1009  0.4246
 4955SOL     OW26323   4.407   2.924   2.603 -0.5436  0.4709 -0.1119
 4955SOL    HW126324   4.497   2.910   2.634 -0.5364  0.6049 -0.0718
 4955SOL    HW226325   4.410   2.889   2.514 -0.6846 -0.0988  0.1093
 4956SOL     OW26326   2.265   3.954   7.094 -0.1542  0.9817 -0.4104
 4956SOL    HW126327   2.323   4.016   7.138 -1.1443  1.5907  0.0284
 4956SOL    HW226328   2.197   4.015   7.066 -0.6182  0.3791 -0.5712
 4957SOL     OW26329   3.445   0.304   6.153 -0.0198  0.0391 -0.3167
 4957SOL    HW126330   3.454   0.231   6.091 -1.7659 -1.1030  0.7853
 4957SOL    HW226331   3.532   0.345   6.152 -1.3358  2.8331 -0.0226
 4958SOL     OW26332   1.026   3.283  10.786  0.0383 -0.0304 -0.0586
 4958SOL    HW126333   1.054   3.334  10.862  1.0145 -0.8078  0.1048
 4958SOL    HW226334   0.961   3.347  10.756 -0.0843 -0.7993 -1.4161
 4959SOL     OW26335   2.132   1.921   2.789  0.0634 -0.1515 -0.8069
 4959SOL    HW126336   2.047   1.892   2.822 -0.6267  1.2936 -1.3041
 4959SOL    HW226337   2.110   2.008   2.754  1.0905  0.6154  0.4338
 4960SOL     OW26338   1.224   2.819  12.874 -0.2342 -0.0032  0.1440
 4960SOL    HW126339   1.293   2.775  12.923 -0.1100  1.2769  1.1088
 4960SOL    HW226340   1.261   2.836  12.787  2.0389  0.0893  1.1395
 4961SOL     OW26341   2.777   4.431   8.749  0.0159  0.4232  0.2505
 4961SOL    HW126342   2.721   4.489   8.801 -1.5463  0.2327 -1.2401
 4961SOL    HW226343   2.785   4.349   8.797  0.8073 -0.0442 -0.6783
 4962SOL     OW26344   1.386   1.788   4.750 -0.0590 -0.4786  0.4867
 4962SOL    HW126345   1.311   1.845   4.763  0.9354  0.7601  0.8017
 4962SOL    HW226346   1.349   1.701   4.765 -1.8273  0.2348  0.2439
 4963SOL     OW26347   2.431   3.314   1.883 -0.1969 -0.4503 -0.5663
 4963SOL    HW126348   2.354   3.372   1.893  1.3981  1.7462 -0.9484
 4963SOL    HW226349   2.503   3.368   1.850 -3.8639  2.6993 -3.4008
 4964SOL     OW26350   2.218   1.950   8.765 -0.2644 -0.2773 -0.1583
 4964SOL    HW126351   2.175   1.926   8.683  0.5562  1.1801 -1.0288
 4964SOL    HW226352   2.146   1.948   8.828  0.0568 -1.2145  0.1742
 4965SOL     OW26353   0.212   0.965   9.234  0.1195 -0.4854 -0.2950
 4965SOL    HW126354   0.248   0.882   9.266  2.2829  0.0850 -1.2595
 4965SOL    HW226355   0.242   1.033   9.294 -1.0102 -1.0956  0.9717
 4966SOL     OW26356   1.182   2.899  16.050 -0.4741 -0.3768 -0.5462
 4966SOL    HW126357   1.228   2.820  16.080  0.8780  0.3417 -0.7154
 4966SOL    HW226358   1.156   2.928  16.138  2.8427 -0.8700  0.6378
 4967SOL     OW26359   0.312   3.029   9.851 -0.3197 -0.1722 -0.2078
 4967SOL    HW126360   0.284   3.041   9.761 -1.1542  2.0722  0.3340
 4967SOL    HW226361   0.234   2.996   9.898  0.7030 -0.7299  1.1058
 4968SOL     OW26362   1.748   4.652   3.219  0.1669 -0.4569  0.2330
 4968SOL    HW126363   1.747   4.677   3.127  0.0195  1.2061  0.6841
 4968SOL    HW226364   1.699   4.570   3.211  0.0317 -0.2425 -1.1728
 4969SOL     OW26365   0.329   0.178   5.451  0.3181  0.6724  0.9065
 4969SOL    HW126366   0.293   0.253   5.497  0.9327  1.9099 -0.6142
 4969SOL    HW226367   0.274   0.115   5.497  0.0642 -0.4079 -0.8975
 4970SOL     OW26368   0.253   2.381   6.817  0.3551 -0.1400  0.1530
 4970SOL    HW126369   0.263   2.459   6.763  1.8865 -1.5446 -1.5783
 4970SOL    HW226370   0.305   2.412   6.892  0.4956 -1.2357  0.5065
 4971SOL     OW26371   2.029   1.201   5.247  0.1465  0.4775 -0.0961
 4971SOL    HW126372   1.994   1.290   5.246 -1.4543 -0.1673 -0.6312
 4971SOL    HW226373   1.963   1.160   5.302 -2.8096  3.5001 -1.4710
 4972SOL     OW26374   1.794   0.097   7.768 -0.0137  0.0681 -0.3014
 4972SOL    HW126375   1.757   0.010   7.781  0.9531 -0.0238  1.7428
 4972SOL    HW226376   1.879   0.065   7.738  0.0586  1.4241 -1.5889
 4973SOL     OW26377   4.541   4.004  15.497 -0.0133 -0.1694 -0.1101
 4973SOL    HW126378   4.447   4.005  15.514 -0.3149  2.9485 -1.9646
 4973SOL    HW226379   4.557   4.082  15.550  1.7681 -2.1279  2.2588
 4974SOL     OW26380   3.220   4.056  11.947 -0.8125 -0.5075  0.0644
 4974SOL    HW126381   3.156   4.010  11.894  0.4041 -1.2492 -0.7728
 4974SOL    HW226382   3.212   4.003  12.026 -4.5677 -1.1497 -0.7641
 4975SOL     OW26383   0.292   2.397  15.644  0.7267 -0.0751 -0.1426
 4975SOL    HW126384   0.314   2.376  15.553  0.7864 -3.3897  0.6357
 4975SOL    HW226385   0.354   2.345  15.694  2.0543  1.2329 -0.4014
 4976SOL     OW26386   4.616   3.622   6.538  0.1086 -0.0744  0.0099
 4976SOL    HW126387   4.640   3.677   6.463  1.4389  0.3713  0.7722
 4976SOL    HW226388   4.701   3.598   6.572  0.2072  2.1531  1.3115
 4977SOL     OW26389   2.890   2.731   5.930 -1.0999 -0.0320 -0.3027
 4977SOL    HW126390   2.981   2.753   5.911 -0.0558 -4.7163 -0.8559
 4977SOL    HW226391   2.855   2.819   5.915 -0.3909  0.1859 -0.6388
 4978SOL     OW26392   3.342   4.009   4.665 -0.1438 -0.3257 -0.4879
 4978SOL    HW126393   3.363   3.976   4.577 -0.7575  1.2145 -1.2073
 4978SOL    HW226394   3.427   4.014   4.708  0.0692 -0.4109 -0.8930
 4979SOL     OW26395   3.513   2.687   6.226 -0.5291 -0.3757 -0.4180
 4979SOL    HW126396   3.511   2.783   6.226  2.5046 -0.3233 -0.3807
 4979SOL    HW226397   3.427   2.674   6.186 -0.2594  0.2152 -1.1760
 4980SOL     OW26398   4.601   1.195  13.218 -0.4495 -0.1112  0.6628
 4980SOL    HW126399   4.607   1.211  13.312 -1.1890  2.3456  0.2930
 4980SOL    HW226400   4.554   1.276  13.196  2.0988  1.2944  0.3745
 4981SOL     OW26401   3.841   3.405   5.385  0.3888  0.3673 -0.3093
 4981SOL    HW126402   3.786   3.459   5.329  0.1411  1.0515  0.5976
 4981SOL    HW226403   3.922   3.455   5.389  0.0327  1.0537 -2.0308
 4982SOL     OW26404   0.024   0.914   8.599  0.0789  0.0879 -0.0039
 4982SOL    HW126405   0.116   0.890   8.612  0.1362  0.3750  0.1192
 4982SOL    HW226406   0.036   1.003   8.566 -3.7937  1.2338  1.6816
 4983SOL     OW26407   3.355   2.001   3.365  0.5705 -0.4418  0.2515
 4983SOL    HW126408   3.434   1.947   3.369  0.3026 -0.9581 -1.3572
 4983SOL    HW226409   3.286   1.947   3.402 -0.9702  2.1752  1.1806
 4984SOL     OW26410   0.099   2.041   3.485 -0.7708  0.2178  0.5577
 4984SOL    HW126411   0.051   2.116   3.519 -1.5017  0.4044 -0.8863
 4984SOL    HW226412   0.057   1.978   3.543  1.9922 -1.2229  0.9753
 4985SOL     OW26413   2.010   3.608   3.204  0.3831  0.0137 -0.2758
 4985SOL    HW126414   1.930   3.582   3.159  0.7574  0.2786 -1.1002
 4985SOL    HW226415   2.045   3.522   3.228  1.4642  1.0933  1.9396
 4986SOL     OW26416   2.843   1.119   6.759 -0.0879 -0.1357 -0.3726
 4986SOL    HW126417   2.895   1.199   6.745  1.4824 -0.8869  1.0988
 4986SOL    HW226418   2.785   1.123   6.683  0.5005 -1.1423 -0.8774
 4987SOL     OW26419   2.485   4.682  15.598  0.0203 -0.4996  0.0822
 4987SOL    HW126420   2.397   4.645  15.611  0.3828 -1.6174 -0.6052
 4987SOL    HW226421   2.535   4.614  15.553  1.3816  0.4469  0.1699
 4988SOL     OW26422   4.270   0.327   4.409 -0.0909  0.5289  0.3868
 4988SOL    HW126423   4.234   0.245   4.442 -1.9247  1.6144  1.1085
 4988SOL    HW226424   4.261   0.387   4.483 -0.9372 -1.5678  1.9868
 4989SOL     OW26425   0.162   2.166   4.148  0.1760 -0.4651 -0.1737
 4989SOL    HW126426   0.130   2.211   4.226  2.5914 -0.6827  0.9402
 4989SOL    HW226427   0.252   2.197   4.135  0.3517 -1.1909 -0.7203
 4990SOL     OW26428   4.531   0.253   8.536  0.0122 -0.3266  0.5520
 4990SOL    HW126429   4.451   0.223   8.492  0.5574  1.0755 -1.4170
 4990SOL    HW226430   4.495   0.290   8.616  1.7101  1.4783  0.4838
 4991SOL     OW26431   1.623   3.049   0.636 -0.0010 -0.1013  0.1057
 4991SOL    HW126432   1.569   3.120   0.602  0.9613 -0.1619 -1.5510
 4991SOL    HW226433   1.694   3.089   0.686 -1.5618  2.9818 -0.1738
 4992SOL     OW26434   1.923   3.307  16.370 -0.3439 -0.4557  0.2426
 4992SOL    HW126435   1.995   3.340  16.423  0.4880 -0.9127 -0.6054
 4992SOL    HW226436   1.861   3.263  16.428 -0.7832  0.0673  0.1725
 4993SOL     OW26437   3.386   1.985  14.621  0.6837 -0.7028 -0.4789
 4993SOL    HW126438   3.311   2.042  14.635  1.0483  0.3342 -2.8695
 4993SOL    HW226439   3.463   2.036  14.596  0.8211 -1.1576 -0.9827
 4994SOL     OW26440   0.183   4.020   5.510 -0.7988 -0.1344  0.0001
 4994SOL    HW126441   0.267   3.983   5.537  0.1223  0.5622 -1.8753
 4994SOL    HW226442   0.213   4.086   5.448 -0.2320  3.2547  3.9383
 4995SOL     OW26443   4.233   4.191   4.007 -0.2493 -0.2760 -0.6350
 4995SOL    HW126444   4.317   4.212   4.046 -1.2691  0.2135  1.2792
 4995SOL    HW226445   4.255   4.137   3.930 -1.3178 -0.4497 -0.8259
 4996SOL     OW26446   4.572   3.479  16.062  0.0744  0.3979  0.9699
 4996SOL    HW126447   4.625   3.494  15.984 -2.2815  0.7006 -0.5762
 4996SOL    HW226448   4.575   3.565  16.104 -0.1532  0.6843  0.3894
 4997SOL     OW26449   0.849   1.562  15.818 -0.0295 -0.3806 -0.2522
 4997SOL    HW126450   0.753   1.558  15.819  0.0687 -2.4073  0.8270
 4997SOL    HW226451   0.860   1.593  15.728 -1.0015 -0.2108 -0.3059
 4998SOL     OW26452   4.342   1.736   4.496  0.5868 -0.2520  0.7945
 4998SOL    HW126453   4.284   1.805   4.528 -0.4926 -1.5674  1.7085
 4998SOL    HW226454   4.287   1.682   4.440 -1.7642  2.8012  0.1651
 4999SOL     OW26455   0.007   0.976   9.051  0.1909  0.4249 -0.1713
 4999SOL    HW126456   4.649   0.948   9.094  0.7060  0.1148  0.6073
 4999SOL    HW226457   0.069   0.957   9.122 -1.7530  0.2786  1.4653
 5000SOL     OW26458   4.193   0.695   5.439  0.0924 -0.8807 -0.6167
 5000SOL    HW126459   4.173   0.611   5.398 -2.5625 -0.3224 -0.4574
 5000SOL    HW226460   4.281   0.675   5.471 -0.0148  0.0436  0.2546
 5001SOL     OW26461   4.405   4.404   8.809  0.3080 -0.2687  0.4878
 5001SOL    HW126462   4.338   4.452   8.856 -0.8767 -1.0537 -0.3858
 5001SOL    HW226463   4.360   4.324   8.784 -1.0895  0.7860 -0.3566
 5002SOL     OW26464   1.228   2.932   0.981  1.0859 -0.1195  0.3327
 5002SOL    HW126465   1.264   2.979   0.906  0.3982 -0.4849 -0.2327
 5002SOL    HW226466   1.309   2.896   1.018  1.0598 -0.1242  0.3852
 5003SOL     OW26467   2.186   2.466   3.678  0.0941  0.0374 -0.4697
 5003SOL    HW126468   2.102   2.494   3.642  0.0569  0.2841 -0.1931
 5003SOL    HW226469   2.179   2.371   3.685 -1.0460  0.1342 -0.3494
 5004SOL     OW26470   2.467   4.028  17.381  0.6898 -0.0223 -0.4627
 5004SOL    HW126471   2.463   3.974  17.302 -2.6336 -0.5768  0.0716
 5004SOL    HW226472   2.557   4.056  17.371  0.6216 -0.3735 -2.2138
 5005SOL     OW26473   4.504   1.071   3.737 -0.3218 -0.3802  0.4334
 5005SOL    HW126474   4.496   1.010   3.811 -1.0702 -2.0365 -1.0188
 5005SOL    HW226475   4.529   1.154   3.778 -1.1973 -0.0046  0.2162
 5006SOL     OW26476   2.031   0.248  13.441  0.1704 -0.1075  0.4557
 5006SOL    HW126477   2.067   0.336  13.446 -0.7199  0.1497  2.2973
 5006SOL    HW226478   2.037   0.222  13.533  0.2161 -1.6057  0.0189
 5007SOL     OW26479   0.391   0.947  13.250  0.3284 -0.6614  0.4249
 5007SOL    HW126480   0.361   0.938  13.160  1.8651  0.3851 -0.1899
 5007SOL    HW226481   0.484   0.954  13.230  0.6588 -2.1116  1.3962
 5008SOL     OW26482   3.869   3.602   8.159 -0.2129 -0.0366  0.4063
 5008SOL    HW126483   3.915   3.649   8.229  1.9599 -1.7129  0.1168
 5008SOL    HW226484   3.868   3.515   8.199  1.7682 -0.1508  0.2273
 5009SOL     OW26485   2.837   2.975   2.724  0.3329  0.0570  0.1492
 5009SOL    HW126486   2.855   3.069   2.725 -0.9539  0.3069  0.2754
 5009SOL    HW226487   2.918   2.939   2.760  0.6879  0.7233  0.0198
 5010SOL     OW26488   1.019   2.923  16.759  0.8122  0.1581  0.0759
 5010SOL    HW126489   1.011   2.983  16.685  0.4848  0.6813  0.5344
 5010SOL    HW226490   1.000   2.984  16.831  0.0799 -1.3601  1.1709
 5011SOL     OW26491   4.563   4.314   3.294 -0.4948  0.6142 -0.0266
 5011SOL    HW126492   4.637   4.255   3.309 -0.1196  0.8525 -0.9236
 5011SOL    HW226493   4.493   4.275   3.347  0.1532 -0.9890 -0.3466
 5012SOL     OW26494   1.183   1.810   3.472 -0.0172  0.0673  0.0983
 5012SOL    HW126495   1.262   1.788   3.522  1.9057  0.3652 -2.7993
 5012SOL    HW226496   1.124   1.763   3.530  1.1494 -1.3548  0.1303
 5013SOL     OW26497   2.289   3.744   8.256 -0.4413 -0.6622  0.0794
 5013SOL    HW126498   2.276   3.718   8.348  0.5195  0.1261  0.4315
 5013SOL    HW226499   2.242   3.828   8.258  1.3877  0.4040 -2.4750
 5014SOL     OW26500   1.928   2.026   5.480 -0.2003 -0.4867  0.8112
 5014SOL    HW126501   1.928   2.034   5.576 -1.7509 -0.7204  0.8331
 5014SOL    HW226502   1.850   2.081   5.471 -0.1737 -0.6992 -0.6828
 5015SOL     OW26503   3.418   2.063  10.075  1.0426 -0.0519  0.1488
 5015SOL    HW126504   3.350   2.077  10.141 -0.6803 -1.2997 -1.3504
 5015SOL    HW226505   3.384   1.991  10.021  1.4577 -0.2886  0.1941
 5016SOL     OW26506   2.001   4.417   2.466  0.1277  0.2610 -0.4797
 5016SOL    HW126507   2.077   4.428   2.409 -0.7072 -0.7653 -1.8085
 5016SOL    HW226508   1.931   4.412   2.401 -2.5204  1.0942  2.2945
 5017SOL     OW26509   2.379   1.036   3.457 -0.6545  0.1732  0.7670
 5017SOL    HW126510   2.394   1.064   3.547  0.8878 -0.3608  0.6628
 5017SOL    HW226511   2.304   0.976   3.455 -1.3559  1.1768 -3.3086
 5018SOL     OW26512   3.996   3.910   4.053  0.8846  0.0906  0.3149
 5018SOL    HW126513   3.972   3.818   4.057  0.3400  0.1077 -2.8356
 5018SOL    HW226514   4.012   3.915   3.959 -1.1368  0.8673  0.0134
 5019SOL     OW26515   2.367   3.079   3.645 -0.7328 -0.0423  0.0975
 5019SOL    HW126516   2.355   2.991   3.680 -1.1846  0.7643  2.0001
 5019SOL    HW226517   2.313   3.129   3.706 -2.8451 -1.4915 -0.6199
 5020SOL     OW26518   2.921   2.893   0.104 -0.2416  0.1456 -0.3215
 5020SOL    HW126519   2.999   2.940   0.134  0.1898 -1.0847  0.4777
 5020SOL    HW226520   2.876   2.948   0.040 -1.3672  0.3128  0.6147
 5021SOL     OW26521   1.326   0.098   6.072  0.1214 -0.1631  0.2798
 5021SOL    HW126522   1.378   0.176   6.086 -0.4390  0.5895 -1.8208
 5021SOL    HW226523   1.382   0.060   6.004  0.9852  0.8141  0.4546
 5022SOL     OW26524   3.217   4.087   8.523  0.1621 -0.3367 -0.2132
 5022SOL    HW126525   3.129   4.077   8.559  0.7918 -1.2577  1.0921
 5022SOL    HW226526   3.201   4.045   8.438 -0.8662 -1.7978  0.6968
 5023SOL     OW26527   4.069   0.062  16.217 -0.1507  0.3628  0.0321
 5023SOL    HW126528   4.031   0.145  16.191 -1.1886 -1.0018 -2.7918
 5023SOL    HW226529   4.024   0.001  16.159 -1.5126  2.1249 -0.7441
 5024SOL     OW26530   2.869   0.333   4.793  0.3898 -0.5601 -0.1783
 5024SOL    HW126531   2.845   0.369   4.707 -0.8607  0.5540  0.6365
 5024SOL    HW226532   2.824   0.249   4.795 -1.3639  0.3505 -0.6602
 5025SOL     OW26533   0.379   4.331  11.873 -0.3375  0.0881  0.3091
 5025SOL    HW126534   0.420   4.341  11.959 -1.0449 -0.8146  0.7541
 5025SOL    HW226535   0.326   4.410  11.862 -1.0564 -0.3467  0.6241
 5026SOL     OW26536   1.710   3.650   6.240 -0.3753  0.0548  0.1237
 5026SOL    HW126537   1.716   3.743   6.218  1.9707 -0.3907 -1.1367
 5026SOL    HW226538   1.802   3.635   6.263 -0.5287  0.9919  1.3468
 5027SOL     OW26539   1.587   2.957  14.904 -0.4631 -0.1512  0.0707
 5027SOL    HW126540   1.492   2.952  14.899 -0.3350 -1.8505 -0.9526
 5027SOL    HW226541   1.612   2.981  14.993 -1.4654  1.6261 -0.1217
 5028SOL     OW26542   4.481   4.702   9.427 -0.2979  0.4893  0.1104
 5028SOL    HW126543   4.518   0.040   9.492  1.4008 -2.4771  1.9160
 5028SOL    HW226544   4.483   4.625   9.484 -0.1391  0.8434  0.5832
 5029SOL     OW26545   1.456   2.147   2.454 -0.4988  0.1914  0.2312
 5029SOL    HW126546   1.523   2.213   2.474 -1.1042  1.4359 -1.8816
 5029SOL    HW226547   1.462   2.081   2.523  0.3552 -0.6296 -0.6315
 5030SOL     OW26548   1.747   4.253  12.071 -0.2025  0.5618 -0.3391
 5030SOL    HW126549   1.834   4.279  12.041 -0.8544  2.5534 -0.5679
 5030SOL    HW226550   1.766   4.258  12.164 -0.6529  0.8417 -0.2611
 5031SOL     OW26551   4.644   0.425   4.225 -0.3887  0.2834  0.5208
 5031SOL    HW126552   4.714   0.470   4.179  0.0673  0.4311  1.3529
 5031SOL    HW226553   4.576   0.411   4.159  0.6505 -0.7583 -0.3281
 5032SOL     OW26554   0.129   0.029   3.788  0.5662 -0.0880  0.1223
 5032SOL    HW126555   0.218   0.030   3.822  2.0855  2.0069 -4.0033
 5032SOL    HW226556   0.110   0.120   3.812 -1.1526 -0.3121 -0.3433
 5033SOL     OW26557   2.502   1.783   3.817 -0.3419  0.1143  0.0567
 5033SOL    HW126558   2.442   1.779   3.743 -0.1880 -1.1392  0.0078
 5033SOL    HW226559   2.561   1.710   3.801 -1.0438 -0.5464  0.5204
 5034SOL     OW26560   2.641   4.098   7.071  0.3336  0.2271 -0.0618
 5034SOL    HW126561   2.588   4.157   7.018 -0.0079 -0.6844 -0.7307
 5034SOL    HW226562   2.702   4.164   7.106 -0.0840  0.1695  0.7747
 5035SOL     OW26563   0.719   1.998  13.902 -0.1570  0.4758  0.0058
 5035SOL    HW126564   0.650   2.031  13.959  1.2369  1.5478  1.0896
 5035SOL    HW226565   0.747   2.081  13.861 -0.3697  0.6642  0.2431
 5036SOL     OW26566   2.934   0.468   2.731 -0.0224 -0.1883  0.3177
 5036SOL    HW126567   3.015   0.440   2.689  0.4413  0.1331  1.0016
 5036SOL    HW226568   2.870   0.449   2.662  1.4634  1.1255 -1.3905
 5037SOL     OW26569   3.847   4.716   6.745 -0.5951 -0.1588 -0.8295
 5037SOL    HW126570   3.885   4.677   6.666 -2.2546 -1.1791 -1.1267
 5037SOL    HW226571   3.921   4.710   6.805 -1.7978  2.9409  0.9494
 5038SOL     OW26572   0.882   2.540   5.012  0.0902 -0.0483  0.0008
 5038SOL    HW126573   0.855   2.450   5.030  0.8576 -0.6568 -1.8427
 5038SOL    HW226574   0.895   2.551   4.918 -1.1385  0.4271 -0.1161
 5039SOL     OW26575   2.572   1.658   7.214 -0.5812 -0.0609  0.3621
 5039SOL    HW126576   2.481   1.648   7.243 -1.2837  2.2832 -0.9595
 5039SOL    HW226577   2.616   1.593   7.268  2.2145  1.2729 -0.3359
 5040SOL     OW26578   0.170   2.491  14.564 -0.0874  0.5072 -0.5160
 5040SOL    HW126579   0.104   2.458  14.502 -0.0818  1.1315 -0.8458
 5040SOL    HW226580   0.193   2.414  14.617 -1.1820 -0.0935 -0.8974
 5041SOL     OW26581   3.656   4.569   5.455 -0.4039 -0.2773  0.0149
 5041SOL    HW126582   3.719   4.555   5.526  0.8762 -0.0762 -1.0838
 5041SOL    HW226583   3.635   4.657   5.485 -0.3272 -0.1463 -0.3178
 5042SOL     OW26584   0.388   4.460   1.321  0.4633 -0.0609  0.0413
 5042SOL    HW126585   0.294   4.444   1.332  0.5561  0.0500  0.9737
 5042SOL    HW226586   0.409   4.388   1.262  1.3130 -1.4671  2.0691
 5043SOL     OW26587   1.256   2.103   4.288 -0.0924 -0.1873  0.0258
 5043SOL    HW126588   1.164   2.127   4.273 -0.1724  0.0604  0.9173
 5043SOL    HW226589   1.305   2.146   4.217 -0.0429  0.3799  0.3990
 5044SOL     OW26590   0.103   1.878   5.426 -0.1509 -0.2375 -0.1258
 5044SOL    HW126591   0.044   1.834   5.364  1.2628 -1.6684 -0.4580
 5044SOL    HW226592   0.190   1.843   5.404  0.4549  0.7985  0.6068
 5045SOL     OW26593   1.935   3.360  11.353  0.3991  0.0465  0.6952
 5045SOL    HW126594   1.938   3.264  11.345  3.5587  0.4350 -2.4917
 5045SOL    HW226595   1.964   3.379  11.442 -0.2042  0.7633  0.7315
 5046SOL     OW26596   2.577   2.644  15.678  0.1090  1.0245  0.9181
 5046SOL    HW126597   2.632   2.576  15.715  0.2279  0.5152 -0.2074
 5046SOL    HW226598   2.638   2.687  15.618 -0.6853  2.3566  1.0614
 5047SOL     OW26599   3.260   3.772  11.634 -0.4123  0.1757  0.4085
 5047SOL    HW126600   3.266   3.823  11.553  0.6817 -1.2568 -0.4176
 5047SOL    HW226601   3.263   3.683  11.598  0.2735  1.1021 -1.7974
 5048SOL     OW26602   1.769   0.988   8.610 -0.5982 -0.0656  0.0472
 5048SOL    HW126603   1.749   1.038   8.689 -1.5067  0.6131 -0.6127
 5048SOL    HW226604   1.690   1.001   8.558 -1.4189 -0.8376  1.1043
 5049SOL     OW26605   3.182   2.692   3.048  0.2405 -0.4686  0.4797
 5049SOL    HW126606   3.152   2.685   3.138  1.8530 -1.8053  0.9030
 5049SOL    HW226607   3.260   2.747   3.048 -0.8381  1.0979 -1.9158
 5050SOL     OW26608   2.971   1.943   7.221 -0.1582 -0.7699 -0.1911
 5050SOL    HW126609   2.980   1.918   7.313  0.7352 -0.9973 -0.3420
 5050SOL    HW226610   3.043   2.005   7.221 -1.1584  0.3887 -0.5939
 5051SOL     OW26611   3.270   1.765   4.506  0.4092 -0.4170 -0.0065
 5051SOL    HW126612   3.262   1.860   4.511 -3.0858 -0.6046 -1.3418
 5051SOL    HW226613   3.272   1.738   4.597 -0.5965 -2.0031 -0.4405
 5052SOL     OW26614   0.068   3.962   2.737  0.5298  0.1753 -0.0257
 5052SOL    HW126615   0.016   3.933   2.812  0.8400  1.0724  0.5450
 5052SOL    HW226616   0.005   4.017   2.690  2.9254  0.7635 -2.4849
 5053SOL     OW26617   3.787   3.698   2.490 -0.4375  0.2847  0.4561
 5053SOL    HW126618   3.758   3.636   2.557  0.2370 -2.7132 -2.0212
 5053SOL    HW226619   3.784   3.782   2.535  0.6841  1.4093 -1.5768
 5054SOL     OW26620   4.454   2.804   4.608  0.1253 -0.0069  0.1990
 5054SOL    HW126621   4.441   2.808   4.703 -1.7334  1.1181 -0.1072
 5054SOL    HW226622   4.527   2.744   4.599 -1.3678 -2.0235  1.3593
 5055SOL     OW26623   0.230   3.385  10.760 -0.0097  0.1110 -0.0109
 5055SOL    HW126624   0.230   3.319  10.691  0.5188 -0.0512  0.1426
 5055SOL    HW226625   0.245   3.465  10.709  2.4492 -0.9119 -0.8775
 5056SOL     OW26626   2.414   0.134  16.943 -0.3500  0.2263 -0.2621
 5056SOL    HW126627   2.385   0.210  16.894  2.2066  0.6981 -1.0530
 5056SOL    HW226628   2.505   0.126  16.914 -0.6959  0.2147 -1.3317
 5057SOL     OW26629   0.668   3.179  15.427 -0.1295 -0.6401 -0.3374
 5057SOL    HW126630   0.752   3.134  15.425  1.6677  2.5071  2.8175
 5057SOL    HW226631   0.622   3.109  15.473 -1.5509  0.4305 -0.1416
 5058SOL     OW26632   0.426   2.939   4.158 -0.1856 -0.1397 -0.9967
 5058SOL    HW126633   0.339   2.932   4.119 -1.2335  4.1822  0.5284
 5058SOL    HW226634   0.445   3.032   4.172  1.1383 -0.7091  0.9565
 5059SOL     OW26635   1.176   0.320   7.701 -0.1141 -0.1718  0.4936
 5059SOL    HW126636   1.164   0.377   7.777 -0.0976 -0.0835  0.4298
 5059SOL    HW226637   1.227   0.252   7.744  1.4927  1.5955  1.3834
 5060SOL     OW26638   0.007   2.840   3.455 -0.0057  0.0613  0.9406
 5060SOL    HW126639   0.030   2.927   3.422 -0.9590  0.2329  0.7302
 5060SOL    HW226640   4.641   2.842   3.490 -0.2234  1.4449  0.2875
 5061SOL     OW26641   3.790   3.374   1.195 -0.3168  0.3881  0.0883
 5061SOL    HW126642   3.698   3.358   1.173 -0.1725  0.0304 -0.2544
 5061SOL    HW226643   3.776   3.345   1.285  2.9121  0.0634  0.4907
 5062SOL     OW26644   3.592   0.447   9.448 -0.0917  0.4791  0.2087
 5062SOL    HW126645   3.504   0.414   9.462  0.4875 -1.9591 -1.8119
 5062SOL    HW226646   3.614   0.419   9.359 -2.6444 -1.4561  0.1999
 5063SOL     OW26647   3.484   1.610   5.243 -0.3399 -0.4184  0.6196
 5063SOL    HW126648   3.421   1.678   5.267  1.6732  1.8819 -0.5624
 5063SOL    HW226649   3.448   1.525   5.217 -1.4637  0.0164  0.7495
 5064SOL     OW26650   3.660   2.685   5.798 -0.1450  0.0358 -0.0677
 5064SOL    HW126651   3.700   2.611   5.844 -2.3514  0.5229  2.5897
 5064SOL    HW226652   3.738   2.738   5.779  0.0467 -0.0887  0.3616
 5065SOL     OW26653   1.235   1.839   4.350 -0.4119  0.1200  0.2922
 5065SOL    HW126654   1.206   1.867   4.437  0.8349  2.2548  0.0218
 5065SOL    HW226655   1.255   1.930   4.327  1.8417 -0.4637 -0.1173
 5066SOL     OW26656   3.943   4.158   4.886 -0.3922 -0.0365  0.2240
 5066SOL    HW126657   4.022   4.130   4.933 -0.7386  0.8787  1.3646
 5066SOL    HW226658   3.877   4.115   4.940  2.3110 -1.1856  2.6195
 5067SOL     OW26659   3.371   4.348   7.899  0.1651 -0.2101  0.0910
 5067SOL    HW126660   3.365   4.443   7.899 -0.6225 -0.2684  2.2876
 5067SOL    HW226661   3.464   4.334   7.916  0.7265 -0.1606 -2.9303
 5068SOL     OW26662   0.117   3.963   3.580  0.0252 -0.0870 -0.1987
 5068SOL    HW126663   0.207   3.982   3.554  0.4764  0.2605  1.6252
 5068SOL    HW226664   0.116   3.867   3.584 -0.6706 -0.0820 -0.4018
 5069SOL     OW26665   4.418   1.215   6.069 -0.2834  0.6714  0.6782
 5069SOL    HW126666   4.488   1.279   6.079 -0.7523  0.7725  3.3035
 5069SOL    HW226667   4.375   1.259   5.997 -0.3260 -2.0889 -0.9861
 5070SOL     OW26668   4.362   2.463   3.734 -0.2003  0.4747  0.2848
 5070SOL    HW126669   4.391   2.377   3.704 -2.5232 -0.0893 -0.3706
 5070SOL    HW226670   4.295   2.437   3.798 -0.5237  2.0686  0.5896
 5071SOL     OW26671   1.326   4.190   4.617  0.3489  0.4078 -0.5508
 5071SOL    HW126672   1.241   4.151   4.597 -1.0437  1.9908  2.1901
 5071SOL    HW226673   1.382   4.114   4.599 -0.9434 -0.7983  0.5389
 5072SOL     OW26674   0.480   2.424   9.806  0.5112  0.3680  0.6877
 5072SOL    HW126675   0.503   2.407   9.897  1.0319  0.3923  0.5599
 5072SOL    HW226676   0.517   2.512   9.803 -0.1288  0.6527  1.2412
 5073SOL     OW26677   1.311   3.053   3.532  0.1647 -0.6497 -0.3667
 5073SOL    HW126678   1.403   3.027   3.523  0.5436  0.4540  0.3079
 5073SOL    HW226679   1.261   2.977   3.562  1.2679 -1.0227  0.5080
 5074SOL     OW26680   2.506   4.283   8.142  0.2095 -0.1487  0.5982
 5074SOL    HW126681   2.471   4.285   8.053  0.1679 -1.1509  0.5884
 5074SOL    HW226682   2.601   4.276   8.134  0.0579 -1.3952 -0.0370
 5075SOL     OW26683   1.920   1.433   1.146  0.3053 -0.1413 -0.4902
 5075SOL    HW126684   1.920   1.508   1.087  0.0443  1.0775  1.0557
 5075SOL    HW226685   1.913   1.362   1.082 -0.4271  0.0253 -0.5902
 5076SOL     OW26686   3.191   2.354   1.359  0.4675  0.2691 -0.1336
 5076SOL    HW126687   3.151   2.349   1.272  0.4356  2.6116 -0.2529
 5076SOL    HW226688   3.226   2.266   1.372 -0.6063  0.0593  1.3447
 5077SOL     OW26689   3.274   0.277   7.160 -0.3021  0.1212  0.3046
 5077SOL    HW126690   3.341   0.310   7.100  1.9067 -1.2466  2.0350
 5077SOL    HW226691   3.278   0.182   7.151 -1.3506  0.1562 -0.5247
 5078SOL     OW26692   4.636   1.462  12.666  0.7064  0.4185 -0.0077
 5078SOL    HW126693   4.698   1.474  12.594  0.3348  0.1676 -0.3619
 5078SOL    HW226694   4.554   1.499  12.635  0.1894  0.0307  0.9056
 5079SOL     OW26695   3.801   4.080   9.565 -0.0011 -0.0205  1.0059
 5079SOL    HW126696   3.765   4.084   9.654 -0.0693 -0.0402  0.9793
 5079SOL    HW226697   3.837   4.169   9.571 -0.9644  0.5864 -2.5015
 5080SOL     OW26698   0.017   3.469   8.179 -0.6892 -0.5710 -0.0861
 5080SOL    HW126699   4.683   3.408   8.132 -1.8934  1.0181 -0.7341
 5080SOL    HW226700   4.695   3.553   8.167  1.5229  0.7217  0.8821
 5081SOL     OW26701   3.571   4.248   1.319 -0.4509 -0.6534  0.5084
 5081SOL    HW126702   3.534   4.273   1.234 -0.5067 -0.0201  0.7234
 5081SOL    HW226703   3.565   4.335   1.358  1.1725  0.5778 -1.9282
 5082SOL     OW26704   2.783   3.878   6.452 -0.1411 -0.1438 -0.4385
 5082SOL    HW126705   2.805   3.880   6.545 -1.6227 -1.5540 -0.0414
 5082SOL    HW226706   2.842   3.945   6.417 -0.4921  0.6218  0.4578
 5083SOL     OW26707   3.376   1.315   4.424 -0.1626  0.5900 -0.1014
 5083SOL    HW126708   3.429   1.351   4.353  4.2790  0.7536  3.2698
 5083SOL    HW226709   3.295   1.362   4.405 -0.2456  0.1558 -0.8369
 5084SOL     OW26710   3.926   1.812   3.899  0.3378 -0.6304 -0.4081
 5084SOL    HW126711   3.869   1.826   3.974 -0.4220 -1.9782 -0.7457
 5084SOL    HW226712   4.008   1.815   3.948  0.4901  0.2445 -0.7142
 5085SOL     OW26713   3.543   4.155   0.663  0.4072 -0.1963  0.0955
 5085SOL    HW126714   3.522   4.245   0.688 -0.5862 -0.5845  0.6733
 5085SOL    HW226715   3.489   4.143   0.584  1.4079  1.9503 -0.9060
 5086SOL     OW26716   1.452   1.907   8.871  0.0792 -0.3096  0.2740
 5086SOL    HW126717   1.465   2.001   8.887  0.5811 -0.6540  1.9015
 5086SOL    HW226718   1.519   1.865   8.925  0.6121 -0.3182 -0.3961
 5087SOL     OW26719   0.533   2.834   5.273  0.0615 -0.3439 -1.1889
 5087SOL    HW126720   0.613   2.785   5.259 -0.1577 -0.8470 -0.6877
 5087SOL    HW226721   0.468   2.778   5.230  0.1923 -2.4528  1.3532
 5088SOL     OW26722   3.854   2.384   1.242 -0.0117 -0.3186 -0.0008
 5088SOL    HW126723   3.942   2.408   1.213  0.2993  0.6258  1.7214
 5088SOL    HW226724   3.828   2.459   1.295  1.2192  0.6899 -0.8383
 5089SOL     OW26725   1.227   4.384   6.726  0.7672  0.0274  0.4697
 5089SOL    HW126726   1.134   4.405   6.739  0.2913 -1.1323 -1.0530
 5089SOL    HW226727   1.278   4.452   6.769  0.8095 -0.5625  1.3638
 5090SOL     OW26728   3.304   1.825   5.691 -0.2780 -0.0776  0.2569
 5090SOL    HW126729   3.270   1.745   5.651  2.1938 -1.2831  0.5641
 5090SOL    HW226730   3.394   1.842   5.662 -1.6161 -0.0080 -3.8760
 5091SOL     OW26731   0.304   3.719   6.979  0.5171 -0.2983 -0.2947
 5091SOL    HW126732   0.352   3.783   6.927  0.5942 -0.3443 -0.2802
 5091SOL    HW226733   0.288   3.658   6.906  1.1017  0.3482 -0.9542
 5092SOL     OW26734   3.065   4.307   6.993 -0.5037  0.2802 -0.6875
 5092SOL    HW126735   3.086   4.213   6.991  1.2083  0.6961 -1.7951
 5092SOL    HW226736   3.053   4.336   6.903 -0.9555 -0.2835 -0.8107
 5093SOL     OW26737   2.470   3.489   4.851  0.0835 -0.5979  0.2622
 5093SOL    HW126738   2.527   3.414   4.869  1.4905  0.2596 -0.6139
 5093SOL    HW226739   2.414   3.432   4.797  0.3504 -0.0985 -0.5404
 5094SOL     OW26740   0.930   0.082  16.300  0.2239 -0.0855  0.4607
 5094SOL    HW126741   0.976   0.056  16.221  0.0458  0.2585  0.2446
 5094SOL    HW226742   0.909   0.174  16.286 -0.9608 -0.0589  2.3347
 5095SOL     OW26743   0.243   1.401  17.297 -0.1334  0.3705 -0.1938
 5095SOL    HW126744   0.217   1.493  17.282  1.8571  1.0073  0.3033
 5095SOL    HW226745   0.259   1.406  17.391  2.2511  0.3516 -0.5954
 5096SOL     OW26746   1.658   0.474   2.497 -0.5126 -0.6118  0.2963
 5096SOL    HW126747   1.611   0.557   2.491  0.7468 -0.0095 -1.1558
 5096SOL    HW226748   1.637   0.441   2.409 -1.6061 -2.0998  1.1157
 5097SOL     OW26749   0.270   0.293   8.448  0.4644  0.4086 -0.2159
 5097SOL    HW126750   0.204   0.239   8.406  1.2764 -1.5113  0.9821
 5097SOL    HW226751   0.346   0.235   8.454 -0.5990 -0.7216  2.0196
 5098SOL     OW26752   1.257   0.659  14.218 -0.0569 -0.1127  0.5446
 5098SOL    HW126753   1.326   0.611  14.265  0.6953  0.2138 -0.2289
 5098SOL    HW226754   1.288   0.749  14.228 -0.4019  0.0951 -0.3270
 5099SOL     OW26755   3.516   4.252   5.585 -0.2641 -0.0760 -0.3161
 5099SOL    HW126756   3.554   4.248   5.673 -1.0467 -0.7300 -0.0085
 5099SOL    HW226757   3.477   4.164   5.578  0.4329 -0.5105  1.3137
 5100SOL     OW26758   1.157   2.325   0.614 -0.2115  0.4272  0.2693
 5100SOL    HW126759   1.141   2.418   0.632  0.4690  0.5807  0.1082
 5100SOL    HW226760   1.248   2.336   0.586 -0.2390 -0.3375 -0.1258
 5101SOL     OW26761   4.319   0.208  16.871  0.3572  0.6624  0.0715
 5101SOL    HW126762   4.347   0.120  16.844  1.6751  0.1523  3.0805
 5101SOL    HW226763   4.394   0.251  16.912  1.1097  0.2263 -0.8645
 5102SOL     OW26764   0.293   1.264   8.675  0.2734  0.3497  0.3959
 5102SOL    HW126765   0.227   1.263   8.745  1.4525  0.6831  1.5149
 5102SOL    HW226766   0.358   1.201   8.706  0.9140  0.2346 -1.1938
 5103SOL     OW26767   0.977   3.436   1.476  0.3521 -0.7422 -0.3385
 5103SOL    HW126768   1.017   3.496   1.539  0.5849 -2.6459  1.3190
 5103SOL    HW226769   1.026   3.355   1.489  0.0872 -0.6906  0.9585
 5104SOL     OW26770   4.371   2.029  16.144  0.0556  0.8725  0.0874
 5104SOL    HW126771   4.407   2.116  16.164  2.0940 -0.1074  0.6948
 5104SOL    HW226772   4.351   1.999  16.233 -2.1293  0.7360 -0.4560
 5105SOL     OW26773   2.125   2.169   6.634 -0.7459 -0.7685 -0.2285
 5105SOL    HW126774   2.181   2.198   6.562 -0.5207 -1.4507 -0.3355
 5105SOL    HW226775   2.101   2.256   6.663  1.0166 -1.2246  2.6186
 5106SOL     OW26776   4.579   2.271  15.277  0.4882 -0.7184 -0.1432
 5106SOL    HW126777   4.560   2.214  15.351  0.3781 -1.8247 -1.0212
 5106SOL    HW226778   4.662   2.235  15.245  2.1372  0.8566  2.3304
 5107SOL     OW26779   1.217   3.163   3.774 -0.0761 -0.3643  0.0066
 5107SOL    HW126780   1.219   3.090   3.836  1.2898 -0.6861 -0.3980
 5107SOL    HW226781   1.261   3.119   3.701  0.2921  0.1826 -0.0995
 5108SOL     OW26782   4.401   2.322   5.099  0.0295 -0.3576  0.0632
 5108SOL    HW126783   4.365   2.345   5.185  0.5963 -1.5009  0.6121
 5108SOL    HW226784   4.424   2.406   5.059  2.3026 -0.4810  1.1168
 5109SOL     OW26785   2.954   1.801   5.726  0.0655  0.5439  0.4350
 5109SOL    HW126786   2.948   1.758   5.811 -0.1902 -1.5701 -0.6650
 5109SOL    HW226787   3.028   1.757   5.684 -1.0101 -0.4507 -0.4183
 5110SOL     OW26788   1.229   2.910   7.440  0.6537 -0.1644  0.1317
 5110SOL    HW126789   1.276   2.966   7.377 -1.5215  1.4217 -0.0817
 5110SOL    HW226790   1.139   2.929   7.414 -0.1586 -3.2092  0.7581
 5111SOL     OW26791   3.922   2.433   0.251 -0.2968  0.8550  0.0153
 5111SOL    HW126792   3.864   2.370   0.294 -0.0947  0.5862 -0.1136
 5111SOL    HW226793   3.855   2.490   0.213 -0.5702  0.8257  0.4497
 5112SOL     OW26794   1.577   3.385   3.019  0.1507  0.0678 -0.2522
 5112SOL    HW126795   1.558   3.332   3.097 -1.5439 -0.6371 -1.1522
 5112SOL    HW226796   1.491   3.426   3.005  0.3190  0.3593 -0.4241
 5113SOL     OW26797   2.320   3.431  17.398  0.2462  0.3881  0.3764
 5113SOL    HW126798   2.327   3.465  17.487 -0.3081 -0.0085  0.5728
 5113SOL    HW226799   2.284   3.344  17.416  0.6547  0.0140 -0.6083
 5114SOL     OW26800   1.764   2.707   9.123  0.5156  0.2790 -0.4324
 5114SOL    HW126801   1.704   2.739   9.190  0.2696  1.8153 -1.3831
 5114SOL    HW226802   1.712   2.714   9.043  1.2190 -1.0165 -1.0117
 5115SOL     OW26803   0.671   2.343   9.259 -0.0188 -0.4253  0.0973
 5115SOL    HW126804   0.745   2.301   9.303 -0.2468 -0.0789  0.8168
 5115SOL    HW226805   0.717   2.385   9.187 -0.7893  1.6812  0.8436
 5116SOL     OW26806   0.015   4.379  13.691  0.0470  0.6888  0.6647
 5116SOL    HW126807   0.043   4.463  13.655 -2.0619  1.0075 -0.2518
 5116SOL    HW226808   0.087   4.342  13.742 -0.0350  0.7643  0.8378
 5117SOL     OW26809   2.616   3.130   8.848 -0.2695  1.4782  0.4712
 5117SOL    HW126810   2.541   3.184   8.870 -1.4624 -0.6433  1.6508
 5117SOL    HW226811   2.687   3.187   8.876 -0.9082  1.5828  1.8889
 5118SOL     OW26812   0.079   2.199  10.482 -0.2017  0.4155  0.2695
 5118SOL    HW126813   0.042   2.126  10.531  0.6130 -0.3680 -0.2951
 5118SOL    HW226814   0.053   2.186  10.391  0.0855 -0.3428  0.2968
 5119SOL     OW26815   2.044   4.439  14.824  0.1978 -0.3694 -0.2951
 5119SOL    HW126816   2.006   4.515  14.870  1.3498 -1.0849  1.8445
 5119SOL    HW226817   2.138   4.456  14.819 -0.0260  1.8286  2.7164
 5120SOL     OW26818   0.331   4.232   5.403  0.1371 -0.3161  0.6136
 5120SOL    HW126819   0.424   4.210   5.405 -0.2877 -1.9424  2.1367
 5120SOL    HW226820   0.326   4.252   5.309  0.1217  0.8822  0.8676
 5121SOL     OW26821   0.982   2.255   5.667  0.4788  0.2130  0.0825
 5121SOL    HW126822   0.905   2.204   5.693  2.4069 -0.9566  3.4094
 5121SOL    HW226823   0.954   2.269   5.576  1.2004 -0.6494 -0.2686
 5122SOL     OW26824   4.595   0.126   8.806  0.0718  0.1651  0.2322
 5122SOL    HW126825   4.655   0.201   8.813 -0.4225  0.8664 -2.9055
 5122SOL    HW226826   4.656   0.052   8.811 -1.0720 -0.6721  1.7531
 5123SOL     OW26827   4.392   0.140   5.750 -0.2776 -0.2643 -0.2313
 5123SOL    HW126828   4.456   0.164   5.816 -0.7729 -0.2832  0.2528
 5123SOL    HW226829   4.373   0.226   5.712 -0.5590  1.5467  4.0541
 5124SOL     OW26830   4.577   2.737   6.175 -0.1632 -0.5090 -0.2839
 5124SOL    HW126831   4.503   2.687   6.141 -1.1330  0.3655  0.5423
 5124SOL    HW226832   4.540   2.774   6.256  0.4744 -3.2765  1.2582
 5125SOL     OW26833   3.228   1.152  15.695 -0.0263 -0.3429 -0.2537
 5125SOL    HW126834   3.167   1.225  15.689 -0.7352 -1.1739 -3.4099
 5125SOL    HW226835   3.240   1.139  15.789  2.5546  0.2439 -0.4829
 5126SOL     OW26836   1.736   3.337   3.427  0.2028 -0.6800 -0.6275
 5126SOL    HW126837   1.685   3.289   3.361  0.1177  1.3687 -2.0571
 5126SOL    HW226838   1.825   3.315   3.399  1.0239  1.8144  0.0638
 5127SOL     OW26839   3.341   0.657  14.324  0.2560 -0.0696 -0.0061
 5127SOL    HW126840   3.302   0.686  14.407 -0.2508  2.9111 -1.2830
 5127SOL    HW226841   3.274   0.598  14.291 -1.0647  0.8593  1.0012
 5128SOL     OW26842   1.115   1.061   3.341 -0.3583  0.8883 -0.1867
 5128SOL    HW126843   1.120   1.148   3.381 -0.8397  0.6235  0.4450
 5128SOL    HW226844   1.196   1.015   3.365 -1.9334 -2.8931 -2.2705
 5129SOL     OW26845   2.979   4.699   7.345 -0.0440  0.2811 -0.1310
 5129SOL    HW126846   3.073   4.685   7.352  0.5251  2.9089 -2.4508
 5129SOL    HW226847   2.963   4.673   7.254  0.6324  0.8645 -0.4096
 5130SOL     OW26848   4.471   3.862   6.573 -0.1033  0.4203 -0.3900
 5130SOL    HW126849   4.499   3.953   6.569  2.0441 -0.2125  0.6787
 5130SOL    HW226850   4.550   3.811   6.553 -0.9861 -1.2650  0.3453
 5131SOL     OW26851   2.882   0.922   8.201  0.3460  0.1039 -0.1705
 5131SOL    HW126852   2.969   0.884   8.214  0.2436  0.2114  0.8522
 5131SOL    HW226853   2.854   0.945   8.289 -1.1420  0.1486 -0.6566
 5132SOL     OW26854   1.818   0.107  11.576 -0.2306  0.3521  0.0319
 5132SOL    HW126855   1.892   0.047  11.590  1.5603  2.0108 -2.4957
 5132SOL    HW226856   1.849   0.178  11.632  0.9699  0.7716 -1.1665
 5133SOL     OW26857   0.107   3.726  10.709  0.4184  0.0512  0.2414
 5133SOL    HW126858   0.179   3.747  10.649 -1.9725  2.3483 -1.8230
 5133SOL    HW226859   0.052   3.803  10.694  1.4943  0.2714 -2.5988
 5134SOL     OW26860   0.196   4.615   1.931 -0.2090  0.1685 -0.6722
 5134SOL    HW126861   0.284   4.603   1.966  0.6046  0.9036 -2.4895
 5134SOL    HW226862   0.209   4.612   1.836 -0.5808 -1.2283 -0.6786
 5135SOL     OW26863   1.440   1.904   7.628  0.3839 -0.2858 -0.0493
 5135SOL    HW126864   1.409   1.927   7.715 -0.4492  1.5667 -0.8240
 5135SOL    HW226865   1.535   1.907   7.636  0.3979 -0.6175 -0.1224
 5136SOL     OW26866   2.620   0.527  15.327  0.0391  0.4071  0.6356
 5136SOL    HW126867   2.595   0.443  15.367 -0.0846  1.1676  2.1681
 5136SOL    HW226868   2.543   0.582  15.334 -0.5245 -0.3568  0.4191
 5137SOL     OW26869   0.491   3.222   7.893  0.2351  0.1570 -0.4286
 5137SOL    HW126870   0.461   3.208   7.983 -0.1476 -0.6878 -0.6877
 5137SOL    HW226871   0.430   3.164   7.848  0.1823 -2.4430  2.9698
 5138SOL     OW26872   2.346   2.429  11.651  0.2908  0.3016 -0.2953
 5138SOL    HW126873   2.263   2.475  11.645  0.0936 -0.0622 -0.4005
 5138SOL    HW226874   2.406   2.502  11.639  0.1404  0.7674  1.9018
 5139SOL     OW26875   3.291   2.845   6.856  0.1146  0.1351  0.2099
 5139SOL    HW126876   3.209   2.832   6.808 -0.2391  1.1183  0.5461
 5139SOL    HW226877   3.251   2.836   6.942 -1.3640 -0.6743 -0.5557
 5140SOL     OW26878   0.073   1.895   7.872  0.9525 -0.1812 -0.2569
 5140SOL    HW126879   0.112   1.911   7.958  1.4821 -4.8303  0.3512
 5140SOL    HW226880   4.702   1.897   7.890  0.5557 -1.5394 -2.1736
 5141SOL     OW26881   1.686   0.877   9.078 -0.3009 -1.0081 -0.2543
 5141SOL    HW126882   1.712   0.802   9.132 -2.6987 -2.7690 -1.5107
 5141SOL    HW226883   1.737   0.863   8.999  0.2130 -3.2852  0.4863
 5142SOL     OW26884   0.503   1.641   7.153  0.1229 -0.1462 -0.4562
 5142SOL    HW126885   0.578   1.581   7.143 -0.1096  0.1914 -4.2790
 5142SOL    HW226886   0.442   1.578   7.193 -0.2985 -0.3971 -1.4913
 5143SOL     OW26887   3.022   0.293  12.039 -0.2357 -0.2292  0.4076
 5143SOL    HW126888   2.945   0.350  12.036  1.6854  2.3957  1.0219
 5143SOL    HW226889   3.065   0.309  12.123 -1.9087  4.8036  0.3504
 5144SOL     OW26890   2.359   0.179   5.982 -0.9802 -0.4540  0.0133
 5144SOL    HW126891   2.382   0.086   5.983  0.7441 -0.0058  2.2533
 5144SOL    HW226892   2.396   0.211   6.064 -0.7935 -3.3860  1.0504
 5145SOL     OW26893   4.073   1.049   1.607 -0.1396  0.0797 -0.3049
 5145SOL    HW126894   4.078   0.954   1.605  1.8581  0.1592  0.9542
 5145SOL    HW226895   4.004   1.064   1.672 -0.4940 -0.0940 -0.6360
 5146SOL     OW26896   0.665   4.025   6.841  0.1280  0.0378  0.3840
 5146SOL    HW126897   0.654   3.968   6.918  2.1828 -1.4025 -0.3769
 5146SOL    HW226898   0.725   4.088   6.881  0.6837 -1.1153  1.3635
 5147SOL     OW26899   4.016   3.707   7.167 -0.2070  0.4941 -0.0851
 5147SOL    HW126900   4.064   3.688   7.248 -2.3829 -0.6460  0.9323
 5147SOL    HW226901   4.003   3.802   7.170  2.1055  0.8479 -1.4676
 5148SOL     OW26902   2.023   3.483   2.686 -0.0427  0.0678 -0.3934
 5148SOL    HW126903   2.064   3.479   2.772 -1.1693 -0.0168  0.1444
 5148SOL    HW226904   1.939   3.523   2.709  0.5618  0.4963  1.0658
 5149SOL     OW26905   2.966   0.304   6.814  0.1564 -0.0915 -0.4121
 5149SOL    HW126906   2.970   0.220   6.861 -0.8499  0.6836  1.0396
 5149SOL    HW226907   2.958   0.363   6.889  2.2439 -1.1113  0.6271
 5150SOL     OW26908   0.678   3.599  15.538  0.0191 -0.2460  0.0107
 5150SOL    HW126909   0.727   3.536  15.590  1.6078  0.5781 -0.4972
 5150SOL    HW226910   0.684   3.679  15.590  0.4280 -0.1005 -0.2628
 5151SOL     OW26911   4.703   2.513   2.536 -0.2895  0.2786 -0.1135
 5151SOL    HW126912   0.067   2.488   2.569 -1.5866 -0.1331  2.9468
 5151SOL    HW226913   4.636   2.463   2.583 -1.2178  1.4181 -0.2259
 5152SOL     OW26914   3.225   3.421   6.290  0.0101 -0.5014  0.0994
 5152SOL    HW126915   3.148   3.372   6.318 -0.2263 -0.5876 -0.6915
 5152SOL    HW226916   3.184   3.505   6.271  0.2773 -0.0206  1.6985
 5153SOL     OW26917   4.218   4.233   3.236 -0.1192 -0.2214  0.6154
 5153SOL    HW126918   4.175   4.251   3.152  0.3707  0.0917  0.4305
 5153SOL    HW226919   4.243   4.321   3.264 -3.2364  1.7165 -2.6777
 5154SOL     OW26920   3.550   0.461   3.178  0.5377  0.5148  0.2328
 5154SOL    HW126921   3.569   0.460   3.084  1.7812 -1.9213  0.5283
 5154SOL    HW226922   3.487   0.534   3.178  1.0901  0.9856 -2.9679
 5155SOL     OW26923   0.287   4.305  16.781  0.5118 -0.1805 -0.1877
 5155SOL    HW126924   0.364   4.354  16.751  0.1457 -1.2344 -2.8255
 5155SOL    HW226925   0.234   4.371  16.827 -0.4621 -0.4571 -0.8971
 5156SOL     OW26926   1.178   3.309  16.941  0.1644 -0.2169 -0.0346
 5156SOL    HW126927   1.269   3.294  16.913  0.4470  1.2463  0.1063
 5156SOL    HW226928   1.189   3.398  16.975 -1.3582  0.9944 -2.7375
 5157SOL     OW26929   1.886   2.515  13.475  0.5685 -0.1022  0.1898
 5157SOL    HW126930   1.898   2.423  13.499 -0.5379 -0.0968  0.7679
 5157SOL    HW226931   1.798   2.513  13.514  0.2066  3.8690 -0.4893
 5158SOL     OW26932   4.069   2.051  15.637 -0.4334 -0.1441 -0.8937
 5158SOL    HW126933   4.040   2.088  15.554 -1.1047 -0.7658 -0.9319
 5158SOL    HW226934   4.009   1.978  15.647  1.4630 -1.6018 -0.2453
 5159SOL     OW26935   1.684   2.906  17.281 -0.5978  0.0158 -0.0742
 5159SOL    HW126936   1.677   2.831  17.222 -0.3417 -0.9882  1.1685
 5159SOL    HW226937   1.741   2.863  17.345  1.9234  0.0368 -2.3218
 5160SOL     OW26938   2.664   3.665   2.030 -0.0451  0.1193 -0.1274
 5160SOL    HW126939   2.605   3.597   1.998  0.3090  0.3433 -1.2845
 5160SOL    HW226940   2.641   3.663   2.123 -0.7770  0.4828 -0.2988
 5161SOL     OW26941   0.580   1.248  12.301  0.1724  0.2560 -0.0477
 5161SOL    HW126942   0.573   1.341  12.323 -2.0265 -0.3926  2.1100
 5161SOL    HW226943   0.667   1.255  12.263 -0.2180 -1.3492 -1.2377
 5162SOL     OW26944   2.185   2.029   0.245  0.0616  0.6285 -0.2453
 5162SOL    HW126945   2.269   1.999   0.210 -0.7373  1.1773 -2.5831
 5162SOL    HW226946   2.214   2.074   0.325  0.8118 -0.0027 -0.1661
 5163SOL     OW26947   4.328   2.284  13.227  0.3883  1.0157 -0.8000
 5163SOL    HW126948   4.386   2.353  13.259 -1.8057  1.8796  1.2948
 5163SOL    HW226949   4.346   2.273  13.134 -0.3891  3.7171 -1.2888
 5164SOL     OW26950   3.675   2.114   7.557  0.2814 -0.2297  0.0253
 5164SOL    HW126951   3.607   2.168   7.596 -1.3649 -2.7136  0.5653
 5164SOL    HW226952   3.629   2.031   7.556 -0.2945  0.1341 -3.4101
 5165SOL     OW26953   3.650   2.566   3.560 -0.1039  0.3508 -0.6002
 5165SOL    HW126954   3.685   2.580   3.472  2.1734 -0.5635  0.1650
 5165SOL    HW226955   3.717   2.512   3.601 -1.9074  0.1051  2.0678
 5166SOL     OW26956   0.581   1.384   2.069 -0.0168  0.3429  0.5120
 5166SOL    HW126957   0.516   1.323   2.033 -0.2247 -0.2444  1.9198
 5166SOL    HW226958   0.539   1.460   2.027 -0.9944 -1.7532 -2.3326
 5167SOL     OW26959   3.369   2.753   5.427 -0.3867 -0.1748  0.1080
 5167SOL    HW126960   3.437   2.709   5.478 -1.3924 -0.5770  1.0833
 5167SOL    HW226961   3.416   2.835   5.409  3.2439 -2.2566  0.0170
 5168SOL     OW26962   2.041   1.340   5.522 -0.3807 -0.4151  0.0903
 5168SOL    HW126963   2.017   1.290   5.599 -0.2920  0.3589  0.6229
 5168SOL    HW226964   2.010   1.430   5.538 -1.0033 -0.4657 -0.8135
 5169SOL     OW26965   0.421   0.798   4.618 -0.4622 -0.1192  0.0723
 5169SOL    HW126966   0.474   0.811   4.539  0.9490 -1.6054  0.7788
 5169SOL    HW226967   0.491   0.817   4.680 -1.5145  1.0529  0.8872
 5170SOL     OW26968   1.077   3.438   7.341 -0.1638 -0.3514 -0.1652
 5170SOL    HW126969   1.027   3.357   7.331 -0.5865 -0.1161  0.0335
 5170SOL    HW226970   1.055   3.480   7.258  0.6194 -0.9106 -0.6542
 5171SOL     OW26971   2.339   3.783   7.347 -0.6914 -0.2181 -0.2686
 5171SOL    HW126972   2.390   3.763   7.425 -1.6157  1.9600  0.8967
 5171SOL    HW226973   2.403   3.770   7.277  0.1051 -0.9772  0.6000
 5172SOL     OW26974   2.442   0.509   2.574 -0.3936 -0.2918  0.7689
 5172SOL    HW126975   2.378   0.572   2.607  2.4472  2.0171  1.9102
 5172SOL    HW226976   2.478   0.483   2.658  0.5877 -1.8894 -0.1400
 5173SOL     OW26977   0.822   0.934   2.580 -0.1387 -0.6266  0.1380
 5173SOL    HW126978   0.873   1.015   2.578  0.9061 -1.2557  1.3231
 5173SOL    HW226979   0.740   0.957   2.535 -0.0678  0.2909  0.4689
 5174SOL     OW26980   2.292   3.972   9.720 -0.1675 -0.0790  0.1736
 5174SOL    HW126981   2.322   3.926   9.642 -1.6284 -0.2162 -0.3065
 5174SOL    HW226982   2.199   3.979   9.699 -0.2230  2.2296  1.1621
 5175SOL     OW26983   3.929   3.451   9.526 -0.7110  0.0798  0.2926
 5175SOL    HW126984   4.024   3.456   9.539 -0.7046  0.3452  0.1395
 5175SOL    HW226985   3.920   3.385   9.457 -1.1549 -0.0777  0.5045
 5176SOL     OW26986   2.500   2.408   8.691 -0.2815  0.4324 -0.1730
 5176SOL    HW126987   2.456   2.373   8.769 -0.1526 -0.9527 -0.7255
 5176SOL    HW226988   2.441   2.381   8.621 -0.2279 -1.1141  0.3845
 5177SOL     OW26989   0.435   4.137   8.058 -0.0905  0.4416 -0.1241
 5177SOL    HW126990   0.349   4.177   8.063 -0.0803  0.3418  0.9125
 5177SOL    HW226991   0.411   4.045   8.043 -0.7630  0.7265 -0.7903
 5178SOL     OW26992   0.439   4.177   7.493  0.1098 -0.1869  0.1567
 5178SOL    HW126993   0.422   4.172   7.588  0.2014  1.0485  0.2385
 5178SOL    HW226994   0.396   4.104   7.449  0.0726  2.0917 -3.5207
 5179SOL     OW26995   1.053   0.138   2.055  0.0341 -0.5764  0.3496
 5179SOL    HW126996   1.028   0.215   2.004 -1.7537 -1.4924 -0.1720
 5179SOL    HW226997   1.069   0.180   2.139 -2.2004 -0.2432  0.6034
 5180SOL     OW26998   2.897   3.791   4.764  0.0388 -0.6003 -0.1488
 5180SOL    HW126999   2.989   3.792   4.738 -0.2880 -0.3939 -1.3143
 5180SOL    HW227000   2.889   3.717   4.825 -1.8952 -0.4601 -0.2408
 5181SOL     OW27001   2.817   0.930   1.569 -0.7477 -0.4734 -0.3423
 5181SOL    HW127002   2.724   0.924   1.549 -0.9754  1.6013  0.0682
 5181SOL    HW227003   2.845   1.013   1.530 -0.7447  0.2790  1.2867
 5182SOL     OW27004   0.283   2.231   2.415 -0.2328 -0.2876 -0.1173
 5182SOL    HW127005   0.305   2.321   2.394  1.7353 -0.1464  2.5408
 5182SOL    HW227006   0.205   2.213   2.363 -0.9203 -1.7637  1.3951
 5183SOL     OW27007   1.847   0.113   4.581  0.0797  0.1513 -0.6899
 5183SOL    HW127008   1.777   0.172   4.609 -0.1463 -0.5049  0.1249
 5183SOL    HW227009   1.904   0.090   4.655 -0.6096 -2.2878 -0.9290
 5184SOL     OW27010   0.934   2.573   8.321 -0.2344  0.4041 -0.4820
 5184SOL    HW127011   0.982   2.653   8.298  1.4377  0.3114  2.7583
 5184SOL    HW227012   0.841   2.592   8.313  0.1366  2.5349  0.4164
 5185SOL     OW27013   3.110   2.878   6.249  0.4287 -0.7887  0.1012
 5185SOL    HW127014   3.198   2.890   6.213 -0.0750  0.5007 -0.7024
 5185SOL    HW227015   3.112   2.916   6.336 -1.0322  2.6236 -1.3756
 5186SOL     OW27016   2.326   3.192  14.270  0.1321 -0.0249 -0.2504
 5186SOL    HW127017   2.247   3.192  14.216 -0.7738  1.0084  1.1033
 5186SOL    HW227018   2.334   3.097  14.285 -3.0045 -0.4132 -1.0830
 5187SOL     OW27019   4.532   1.628  16.912  0.3853  0.2753 -0.5447
 5187SOL    HW127020   4.496   1.677  16.838  0.6503  0.4374 -0.5649
 5187SOL    HW227021   4.625   1.635  16.892  0.1962  1.3831 -1.0491
 5188SOL     OW27022   4.642   0.605  10.780  0.0122  0.2711 -0.5511
 5188SOL    HW127023   4.601   0.674  10.727 -1.7404 -0.9302 -0.7623
 5188SOL    HW227024   4.567   0.569  10.827  1.9943 -2.3545  0.5724
 5189SOL     OW27025   1.688   3.914   1.344 -0.2660  0.4343 -0.2861
 5189SOL    HW127026   1.620   3.940   1.283 -1.5791 -0.0883  0.9463
 5189SOL    HW227027   1.755   3.885   1.282  0.2235 -1.4691  1.1064
 5190SOL     OW27028   0.518   2.407   5.379 -0.4964  0.1157  0.0863
 5190SOL    HW127029   0.574   2.330   5.382 -1.2737 -0.4626 -0.5359
 5190SOL    HW227030   0.538   2.445   5.464  0.4179  1.6734 -0.8198
 5191SOL     OW27031   3.928   1.501   3.694 -0.0387 -0.9321  0.6885
 5191SOL    HW127032   4.007   1.544   3.727  1.2701 -2.9655  0.1949
 5191SOL    HW227033   3.962   1.458   3.616  0.9694  2.2669 -0.6543
 5192SOL     OW27034   4.216   3.059  15.941  0.3571 -0.0328 -0.3123
 5192SOL    HW127035   4.218   3.154  15.953 -0.0599  0.1160 -1.4731
 5192SOL    HW227036   4.245   3.039  15.852  1.3637 -1.1135  0.2448
 5193SOL     OW27037   2.933   0.069   3.848 -0.5401  0.2322 -0.2485
 5193SOL    HW127038   2.953   0.158   3.819  1.3395 -0.9277 -2.4795
 5193SOL    HW227039   2.946   0.069   3.943  0.5345 -0.7202 -0.3937
 5194SOL     OW27040   0.953   4.399  10.072 -0.2608  0.1684 -0.7768
 5194SOL    HW127041   0.980   4.483  10.110 -1.8398  0.7376 -0.9292
 5194SOL    HW227042   0.948   4.349  10.153 -1.1948  0.0352 -0.9214
 5195SOL     OW27043   4.493   1.801   0.804 -0.1324 -0.0641  0.1869
 5195SOL    HW127044   4.450   1.883   0.826  0.4764  0.2206  0.3168
 5195SOL    HW227045   4.543   1.816   0.724  1.8812 -2.8061  0.9199
 5196SOL     OW27046   4.563   2.929   0.926  0.0594  0.4424  0.5409
 5196SOL    HW127047   4.517   2.912   1.008 -0.3025  1.4544  0.5516
 5196SOL    HW227048   4.589   2.841   0.898 -1.3518  0.6943 -1.5503
 5197SOL     OW27049   3.026   1.568   1.148 -0.7204  0.3553  0.3370
 5197SOL    HW127050   3.075   1.630   1.094 -0.7446  1.2425  1.3489
 5197SOL    HW227051   2.971   1.627   1.198 -1.2978 -0.6955  0.9298
 5198SOL     OW27052   3.784   4.109  12.527  0.8034 -0.0882 -0.4437
 5198SOL    HW127053   3.748   4.127  12.614  0.6278  1.5227 -0.8522
 5198SOL    HW227054   3.705   4.125  12.476  0.3885  3.6853  1.3785
 5199SOL     OW27055   2.267   2.908   9.008  0.1039 -0.0622 -0.0593
 5199SOL    HW127056   2.264   3.001   9.031 -0.7459  0.1938 -1.1900
 5199SOL    HW227057   2.187   2.880   9.051  0.1420 -0.7652 -0.4451
 5200SOL     OW27058   2.224   2.867  13.524 -0.4673 -0.2971  0.3341
 5200SOL    HW127059   2.274   2.789  13.500 -2.1519 -0.8983 -1.2150
 5200SOL    HW227060   2.152   2.832  13.577 -0.6109 -0.5953 -0.0560
 5201SOL     OW27061   2.772   3.447   2.841  0.0869 -0.1635 -0.7339
 5201SOL    HW127062   2.783   3.530   2.887  0.5548 -0.2898 -0.6205
 5201SOL    HW227063   2.692   3.425   2.889  1.5857  0.3736  2.0527
 5202SOL     OW27064   1.768   4.595   2.262 -0.4646  0.0893 -0.1644
 5202SOL    HW127065   1.675   4.612   2.271 -1.0207 -2.2311 -1.5023
 5202SOL    HW227066   1.776   4.500   2.268  0.9895  0.2926  1.1318
 5203SOL     OW27067   2.954   4.325  13.615  0.4705  0.5990  0.6056
 5203SOL    HW127068   2.884   4.261  13.604  0.4385  0.8733 -0.8039
 5203SOL    HW227069   3.018   4.288  13.555 -1.3796 -2.9645  0.8086
 5204SOL     OW27070   3.857   0.051   8.152  0.3726 -0.3643 -0.6186
 5204SOL    HW127071   3.806   0.099   8.087  0.1139  0.5351  0.2479
 5204SOL    HW227072   3.822   0.074   8.239  1.6558 -0.3224 -0.1083
 5205SOL     OW27073   3.832   0.225  16.426  0.3891  0.4786  0.3442
 5205SOL    HW127074   3.846   0.265  16.339 -1.4400 -1.4033 -0.8223
 5205SOL    HW227075   3.920   0.190  16.434 -0.5607 -2.0268 -0.2432
 5206SOL     OW27076   0.130   4.654  11.152  0.2096 -0.0309 -0.0564
 5206SOL    HW127077   0.201   4.706  11.190 -0.9127  0.5873  1.1655
 5206SOL    HW227078   0.086   0.002  11.105 -1.1435 -0.0909  1.1087
 5207SOL     OW27079   1.754   0.286  13.640  0.6760 -0.1709 -0.3339
 5207SOL    HW127080   1.705   0.260  13.718  1.7927 -2.3239 -0.3445
 5207SOL    HW227081   1.822   0.218  13.645  1.5844  0.7282 -0.5899
 5208SOL     OW27082   2.379   2.658   1.150 -0.5521  0.7773  0.2880
 5208SOL    HW127083   2.431   2.577   1.146 -1.4992  0.2056 -0.5733
 5208SOL    HW227084   2.293   2.622   1.131  0.2590 -1.1511  0.1950
 5209SOL     OW27085   1.524   3.802   1.572  0.2746 -0.1719 -0.8838
 5209SOL    HW127086   1.513   3.874   1.510  0.5482 -0.3171 -1.0974
 5209SOL    HW227087   1.616   3.781   1.557 -0.1131 -0.9888 -2.1361
 5210SOL     OW27088   1.677   0.600  11.345  0.0195 -0.7975  0.1235
 5210SOL    HW127089   1.735   0.629  11.275 -2.4015  0.7177 -1.2810
 5210SOL    HW227090   1.604   0.573  11.289 -0.3510  0.4136  0.0202
 5211SOL     OW27091   1.522   1.067   6.942  0.1826  0.4133 -0.2153
 5211SOL    HW127092   1.551   1.134   7.004 -0.5645  0.6562 -0.1272
 5211SOL    HW227093   1.448   1.031   6.990 -0.6618  2.7012  0.2124
 5212SOL     OW27094   0.598   2.116  15.479 -0.8682  0.0707 -0.3979
 5212SOL    HW127095   0.680   2.133  15.525  0.0639 -1.3317 -1.5542
 5212SOL    HW227096   0.634   2.064  15.407 -1.4564 -1.6310  0.5346
 5213SOL     OW27097   3.178   4.681   6.350 -0.5895 -0.0684 -0.2734
 5213SOL    HW127098   3.185   0.047   6.387 -0.7666 -0.2162  0.1129
 5213SOL    HW227099   3.135   4.702   6.267  1.6469 -0.8885 -1.6353
 5214SOL     OW27100   2.917   3.252   2.738 -0.2254 -0.4192  0.0218
 5214SOL    HW127101   2.872   3.329   2.774 -0.3463 -0.2203 -0.5472
 5214SOL    HW227102   2.981   3.295   2.681  0.8363 -0.8774  0.8908
 5215SOL     OW27103   3.716   0.006  13.016 -0.0128  0.6105 -0.0502
 5215SOL    HW127104   3.674   0.061  13.082 -1.4040 -0.1892 -0.2673
 5215SOL    HW227105   3.796   4.698  13.059  1.3044  3.0337 -0.7865
 5216SOL     OW27106   4.476   0.445  12.261  0.7597 -1.0802  0.2282
 5216SOL    HW127107   4.527   0.381  12.212 -0.5964 -0.4289 -2.0267
 5216SOL    HW227108   4.514   0.443  12.349  1.6078  1.9197 -0.0906
 5217SOL     OW27109   3.651   2.489   4.558 -0.4806  0.0392  0.1157
 5217SOL    HW127110   3.581   2.504   4.494 -0.2891  0.4317 -0.0005
 5217SOL    HW227111   3.727   2.512   4.505  1.0862 -0.7704  1.9984
 5218SOL     OW27112   0.259   2.916   6.713  0.5325  0.9599 -0.6450
 5218SOL    HW127113   0.183   2.906   6.655  0.2342  0.3480 -0.1543
 5218SOL    HW227114   0.201   2.942   6.784  1.2812  0.1268  0.2814
 5219SOL     OW27115   2.352   3.963   2.839  0.0991 -0.0657  0.1535
 5219SOL    HW127116   2.271   4.003   2.872  1.1700  1.6768  0.6639
 5219SOL    HW227117   2.406   3.975   2.917  1.3422 -3.4065 -0.2150
 5220SOL     OW27118   2.738   3.897  13.236  0.1539 -0.1986  0.2855
 5220SOL    HW127119   2.734   3.812  13.280 -0.1153 -0.9031 -1.0805
 5220SOL    HW227120   2.725   3.873  13.144 -0.0246  1.7068 -0.1948
 5221SOL     OW27121   3.973   0.462   4.829 -0.0263  0.1147  0.4015
 5221SOL    HW127122   3.909   0.407   4.784 -0.9173  1.3410  0.1735
 5221SOL    HW227123   3.928   0.544   4.812  0.5939  0.0958 -1.3667
 5222SOL     OW27124   1.153   0.419  12.267  0.2650  0.8468  0.4239
 5222SOL    HW127125   1.146   0.380  12.354 -0.4458 -0.5696 -0.2663
 5222SOL    HW227126   1.149   0.514  12.281  1.7887  0.6769  2.0410
 5223SOL     OW27127   1.458   3.720   8.009 -0.4886  0.0155  0.1619
 5223SOL    HW127128   1.478   3.773   7.931 -4.4912  1.4202  0.0857
 5223SOL    HW227129   1.523   3.650   8.002  0.9410  1.6269 -2.8780
 5224SOL     OW27130   0.284   1.231   7.787 -1.1521  0.2647  0.2382
 5224SOL    HW127131   0.280   1.149   7.837 -1.7246 -0.2731 -0.6963
 5224SOL    HW227132   0.263   1.293   7.858 -3.2717  0.8026 -0.8649
 5225SOL     OW27133   3.019   1.386   7.773 -0.3973  0.0837 -0.0483
 5225SOL    HW127134   3.085   1.343   7.828  2.1954  1.7252 -1.8377
 5225SOL    HW227135   3.045   1.478   7.782  1.0513 -0.6013  3.1051
 5226SOL     OW27136   3.870   4.483   5.081 -0.2259 -0.5497  0.5166
 5226SOL    HW127137   3.784   4.517   5.108  0.8880  1.5554  1.4441
 5226SOL    HW227138   3.847   4.452   4.994 -0.9714 -0.3263  0.6298
 5227SOL     OW27139   0.494   0.166   4.166  0.2698  0.2143  0.3509
 5227SOL    HW127140   0.584   0.190   4.191  0.9388 -0.8369 -1.0103
 5227SOL    HW227141   0.441   0.200   4.238 -1.8839 -2.4972  0.0385
 5228SOL     OW27142   3.415   4.127   7.743  0.1399 -0.4473 -0.2998
 5228SOL    HW127143   3.392   4.207   7.790  2.6586 -0.9356  1.8211
 5228SOL    HW227144   3.491   4.093   7.791 -0.2513 -1.0473 -0.1127
 5229SOL     OW27145   4.106   3.164   5.927  0.3907  0.1576  0.3789
 5229SOL    HW127146   4.072   3.088   5.973  0.2736  0.7707  1.3079
 5229SOL    HW227147   4.184   3.176   5.982  0.1553 -0.2824  0.8138
 5230SOL     OW27148   4.467   3.077   3.371 -0.8999 -0.7864 -0.3143
 5230SOL    HW127149   4.562   3.069   3.358 -0.2728 -1.7398  4.5636
 5230SOL    HW227150   4.446   3.170   3.367  3.0662 -0.0059 -2.2898
 5231SOL     OW27151   4.674   1.980  12.349 -0.2961 -0.4855 -0.0893
 5231SOL    HW127152   0.029   2.037  12.350 -0.6003 -0.0267 -2.0317
 5231SOL    HW227153   4.708   1.910  12.405 -3.2789 -1.1716  0.8586
 5232SOL     OW27154   0.885   2.257   7.232  0.2848 -0.9696 -0.1844
 5232SOL    HW127155   0.874   2.284   7.141 -3.1922  1.4441  0.9610
 5232SOL    HW227156   0.805   2.285   7.278  0.5902 -0.7718  0.2261
 5233SOL     OW27157   2.624   4.545   9.115  0.2398 -0.4814 -0.2538
 5233SOL    HW127158   2.716   4.544   9.141 -0.1290  1.4057  1.1908
 5233SOL    HW227159   2.630   4.564   9.022 -1.2273 -2.3677 -0.7354
 5234SOL     OW27160   2.022   4.205  12.059  0.1159  1.4004  0.3078
 5234SOL    HW127161   2.008   4.122  12.105 -0.0059  0.6968 -1.0140
 5234SOL    HW227162   2.049   4.165  11.977 -1.0256  2.3115 -0.5056
 5235SOL     OW27163   2.984   1.319  13.192 -0.3221 -0.3004  0.1319
 5235SOL    HW127164   2.996   1.246  13.253  0.8700  1.3030  1.7879
 5235SOL    HW227165   3.033   1.281  13.119  1.4021  0.5058  0.8779
 5236SOL     OW27166   0.135   0.884  15.220 -0.1170 -0.0248 -0.0388
 5236SOL    HW127167   0.062   0.821  15.223 -0.2230 -0.0477 -2.4596
 5236SOL    HW227168   0.193   0.827  15.271 -0.7368  1.2983  2.1371
 5237SOL     OW27169   2.083   0.108  14.758  0.2829  0.0520  0.4692
 5237SOL    HW127170   2.103   0.062  14.677 -0.3692 -1.3252  1.0888
 5237SOL    HW227171   2.166   0.146  14.785  0.9690 -0.7716 -0.5268
 5238SOL     OW27172   4.517   1.702   8.324  0.1064 -0.4074 -0.0509
 5238SOL    HW127173   4.442   1.644   8.315 -0.9177  0.9807 -0.6042
 5238SOL    HW227174   4.468   1.784   8.334 -2.2352 -1.8757  0.5456
 5239SOL     OW27175   1.544   1.551   6.084 -0.3534  0.1537 -0.4555
 5239SOL    HW127176   1.471   1.506   6.126  0.6832 -1.4554 -0.3647
 5239SOL    HW227177   1.506   1.557   5.996 -1.4787 -0.0084  0.0204
 5240SOL     OW27178   2.900   3.217  16.523 -0.6607 -0.2211  0.2645
 5240SOL    HW127179   2.880   3.301  16.482  1.0244  0.9810  1.8883
 5240SOL    HW227180   2.834   3.151  16.504  0.5387 -0.8724 -1.6961
 5241SOL     OW27181   0.666   0.282   2.343 -0.0717  0.2432  0.0578
 5241SOL    HW127182   0.594   0.220   2.352  0.7288 -0.6905 -0.0120
 5241SOL    HW227183   0.656   0.340   2.419 -0.1401  1.1255 -0.6233
 5242SOL     OW27184   0.118   3.323  14.142 -0.1841  0.4568 -0.4340
 5242SOL    HW127185   0.081   3.259  14.203  3.9724 -0.9110  0.6576
 5242SOL    HW227186   0.132   3.394  14.204 -1.0565  0.3927 -0.1624
 5243SOL     OW27187   1.897   4.678   5.007  0.7839  0.3590  0.3536
 5243SOL    HW127188   1.936   4.663   4.921  1.0377  1.3291  0.2983
 5243SOL    HW227189   1.894   0.051   4.998 -0.1652  0.4790  1.9563
 5244SOL     OW27190   4.275   1.298   1.134  0.2030  0.1005 -0.0923
 5244SOL    HW127191   4.197   1.308   1.078  0.4023 -0.1835 -0.4191
 5244SOL    HW227192   4.240   1.237   1.199 -2.5967  0.5574 -1.1305
 5245SOL     OW27193   4.549   2.460  15.579  0.2043  0.4500  0.8677
 5245SOL    HW127194   4.552   2.511  15.660 -0.2719 -1.9696  2.4097
 5245SOL    HW227195   4.639   2.429  15.584  0.2869  0.3488 -1.0786
 5246SOL     OW27196   0.974   0.916   7.237  0.3912  0.5773 -0.3910
 5246SOL    HW127197   0.997   0.883   7.150 -3.9284  1.0817 -1.7045
 5246SOL    HW227198   1.037   0.863   7.286  0.8121  1.4893  0.0572
 5247SOL     OW27199   2.518   1.593   6.718 -0.3225  0.5554 -0.0965
 5247SOL    HW127200   2.520   1.504   6.755 -0.4059  0.2341 -0.8641
 5247SOL    HW227201   2.606   1.604   6.682  0.5946 -1.2631  1.5592
 5248SOL     OW27202   3.502   2.027   2.410  0.7898 -0.3397 -0.5959
 5248SOL    HW127203   3.565   1.966   2.372  2.3556  1.2410 -0.5205
 5248SOL    HW227204   3.517   2.111   2.367  1.5351 -0.3244 -0.3191
 5249SOL     OW27205   1.133   4.569   9.468 -0.0669 -0.3020  0.4664
 5249SOL    HW127206   1.082   4.650   9.469  1.9826  1.0053 -1.8300
 5249SOL    HW227207   1.163   4.543   9.556  1.3159  1.1505  0.4346
 5250SOL     OW27208   1.917   1.195   1.358  0.4453 -0.1574 -0.2098
 5250SOL    HW127209   1.932   1.192   1.263  2.2291 -1.7368  0.1327
 5250SOL    HW227210   1.970   1.116   1.367  0.7026 -0.0526 -0.7925
 5251SOL     OW27211   2.390   1.723   3.574  0.4461 -0.4186  0.4385
 5251SOL    HW127212   2.300   1.693   3.588  0.2567  0.7168  1.6539
 5251SOL    HW227213   2.411   1.678   3.492 -0.1320  2.7806 -1.5052
 5252SOL     OW27214   1.309   2.142   4.955 -0.6094 -0.5161 -0.3768
 5252SOL    HW127215   1.319   2.118   5.047  1.7233  0.6055 -0.3249
 5252SOL    HW227216   1.242   2.210   4.951  0.8430  1.0450  1.6215
 5253SOL     OW27217   2.233   3.492  11.465  0.1424 -0.2275 -0.3629
 5253SOL    HW127218   2.290   3.445  11.526 -0.9665  0.0209  0.8613
 5253SOL    HW227219   2.152   3.458  11.502  0.3636 -2.2291 -1.7771
 5254SOL     OW27220   2.250   3.318  12.002 -0.1225  0.0631  0.4029
 5254SOL    HW127221   2.340   3.332  11.974 -0.4157  0.6966 -0.2451
 5254SOL    HW227222   2.203   3.343  11.923  2.4708 -1.2865 -1.5434
 5255SOL     OW27223   1.284   4.448   8.533 -0.1885  0.5496 -0.1033
 5255SOL    HW127224   1.298   4.374   8.473 -1.3053 -1.1121  1.6932
 5255SOL    HW227225   1.225   4.401   8.591 -2.1360  2.7524 -0.3025
 5256SOL     OW27226   4.382   1.144  17.470 -0.4674 -0.0846  0.7657
 5256SOL    HW127227   4.326   1.221  17.459 -3.7096 -2.8742 -2.3019
 5256SOL    HW227228   4.467   1.186  17.476 -0.1170 -0.6293 -0.2950
 5257SOL     OW27229   4.104   1.728   6.330 -0.9966  0.0629  0.0311
 5257SOL    HW127230   4.137   1.818   6.331 -0.5656 -0.0907 -0.1020
 5257SOL    HW227231   4.156   1.689   6.401 -1.6530  0.5303  0.7700
 5258SOL     OW27232   0.539   1.131  12.632  0.8075 -0.9601 -0.3052
 5258SOL    HW127233   0.603   1.196  12.603  0.1386 -0.0907  0.1783
 5258SOL    HW227234   0.476   1.188  12.675  0.4388  0.5044 -2.8300
 5259SOL     OW27235   3.339   1.715   0.686 -0.2492 -0.0139 -0.5702
 5259SOL    HW127236   3.434   1.725   0.680 -0.1821 -0.5987 -0.4513
 5259SOL    HW227237   3.328   1.621   0.670  0.4394 -0.4541  1.4937
 5260SOL     OW27238   0.368   2.975   7.803 -0.1068 -0.3510 -0.0974
 5260SOL    HW127239   0.355   2.967   7.708 -0.7490 -1.7966  0.1182
 5260SOL    HW227240   0.360   2.887   7.840  1.1283 -1.0347 -1.4735
 5261SOL     OW27241   3.400   2.684  16.662 -0.0612  0.5330 -0.3835
 5261SOL    HW127242   3.438   2.651  16.744 -1.9467  0.5200  0.4803
 5261SOL    HW227243   3.347   2.611  16.631  0.6029 -1.0078  2.0762
 5262SOL     OW27244   0.694   3.577  11.954 -0.1775  0.1403 -0.4476
 5262SOL    HW127245   0.608   3.583  11.997 -0.1629 -1.5562 -0.1872
 5262SOL    HW227246   0.671   3.540  11.869 -1.5150  0.2999 -0.1586
 5263SOL     OW27247   4.646   1.478  14.234 -0.3830  0.7386 -0.0607
 5263SOL    HW127248   0.004   1.469  14.285  0.2895  0.4619 -1.1529
 5263SOL    HW227249   4.659   1.551  14.174 -0.9418 -0.0398 -1.1257
 5264SOL     OW27250   4.382   0.327   5.151  0.6961  0.0403 -0.8149
 5264SOL    HW127251   4.360   0.321   5.244  0.7749  1.6214 -0.6880
 5264SOL    HW227252   4.419   0.416   5.147  0.1658  0.4316  2.7272
 5265SOL     OW27253   0.234   1.523  10.671  0.7712  0.3839  0.0164
 5265SOL    HW127254   0.301   1.524  10.602  0.7495 -2.9432 -0.0402
 5265SOL    HW227255   0.172   1.570  10.617  1.7313  1.6585  0.0175
 5266SOL     OW27256   4.551   3.811  13.065  0.0416 -0.8573 -0.1413
 5266SOL    HW127257   4.477   3.864  13.035  0.6781 -0.4531 -0.9917
 5266SOL    HW227258   4.617   3.879  13.078 -0.5542 -0.4947  1.0463
 5267SOL     OW27259   3.650   2.611   8.405  0.4045 -0.2758 -0.0093
 5267SOL    HW127260   3.641   2.587   8.313 -0.4764  1.6251 -0.4269
 5267SOL    HW227261   3.690   2.698   8.399 -0.6782  0.2935  0.8864
 5268SOL     OW27262   2.666   0.186  15.186  0.5027 -0.4508 -0.0966
 5268SOL    HW127263   2.660   0.253  15.117  2.1332  0.4358  0.6232
 5268SOL    HW227264   2.628   0.110  15.143  1.2147  0.1665 -1.8121
 5269SOL     OW27265   0.892   3.905   4.272 -0.5914 -0.2429  0.1834
 5269SOL    HW127266   0.972   3.863   4.240  0.9782  1.8268  1.4096
 5269SOL    HW227267   0.833   3.894   4.198 -0.9558 -2.6044  0.8224
 5270SOL     OW27268   2.708   3.002  15.464 -0.1757  0.3063  0.0623
 5270SOL    HW127269   2.644   3.036  15.527 -0.3933  1.0848 -0.5840
 5270SOL    HW227270   2.661   3.012  15.381 -2.5077  1.3285  1.4984
 5271SOL     OW27271   2.983   4.120   4.100  0.1522 -0.2191 -0.1525
 5271SOL    HW127272   3.032   4.105   4.019  2.0947 -1.2522  1.2086
 5271SOL    HW227273   2.925   4.191   4.071  1.5481  0.9485 -0.0580
 5272SOL     OW27274   1.474   0.683   2.272  0.2425 -0.4470  0.2110
 5272SOL    HW127275   1.411   0.706   2.203 -0.9572 -0.2022  1.3789
 5272SOL    HW227276   1.409   0.667   2.341  0.2062  0.0398  0.2879
 5273SOL     OW27277   1.751   2.778  10.812  0.5287  0.0057  0.1132
 5273SOL    HW127278   1.708   2.755  10.729 -0.0432 -0.7661  0.6158
 5273SOL    HW227279   1.826   2.720  10.800  0.8030  0.0522  1.6260
 5274SOL     OW27280   3.860   2.340   6.549 -0.5980  0.2641 -0.1863
 5274SOL    HW127281   3.865   2.317   6.642 -1.8752  0.9700  0.0538
 5274SOL    HW227282   3.907   2.423   6.545 -2.4398  1.2300 -1.7425
 5275SOL     OW27283   2.378   4.412   7.154 -0.1071 -0.0492  0.3609
 5275SOL    HW127284   2.293   4.446   7.184 -1.0406 -1.2890 -0.9126
 5275SOL    HW227285   2.412   4.499   7.133  1.2048 -0.8632 -0.8091
 5276SOL     OW27286   4.223   0.437   1.468 -0.2094  0.1762 -0.1295
 5276SOL    HW127287   4.161   0.384   1.518  1.3339 -0.1032  1.5143
 5276SOL    HW227288   4.308   0.393   1.477  0.9435  1.9700 -2.3156
 5277SOL     OW27289   2.595   3.993   5.595  1.2004 -0.1691  0.1790
 5277SOL    HW127290   2.535   3.932   5.552  1.4135  0.8772 -1.5931
 5277SOL    HW227291   2.615   3.945   5.676  0.1017 -1.6822 -0.4562
 5278SOL     OW27292   4.238   2.241  15.780 -0.0651  0.8724  0.5860
 5278SOL    HW127293   4.225   2.334  15.798  2.5099  0.7639  2.9905
 5278SOL    HW227294   4.167   2.218  15.720 -0.5493  0.9991  1.1081
 5279SOL     OW27295   1.076   2.332   4.648  0.0885  0.5648 -0.9157
 5279SOL    HW127296   0.996   2.286   4.623  0.5650  0.4648 -2.2596
 5279SOL    HW227297   1.097   2.378   4.566 -1.3561 -3.0330 -3.2989
 5280SOL     OW27298   1.415   3.859   2.338 -0.3852  0.0773 -0.8376
 5280SOL    HW127299   1.370   3.865   2.421  1.6218  1.3150  0.1760
 5280SOL    HW227300   1.447   3.949   2.347 -0.7383  0.2979 -1.7219
 5281SOL     OW27301   2.082   3.747   5.477 -0.1216  0.5716 -0.2745
 5281SOL    HW127302   2.020   3.712   5.413 -0.9139 -0.7855  1.2514
 5281SOL    HW227303   2.148   3.678   5.472  0.3211  0.9514  0.3283
 5282SOL     OW27304   2.164   0.175   3.346  0.0821 -0.3330  0.6135
 5282SOL    HW127305   2.142   0.096   3.394  3.5946 -1.3595  0.5485
 5282SOL    HW227306   2.248   0.200   3.386 -1.2785  2.4864  1.6731
 5283SOL     OW27307   1.767   2.518  11.136  0.3195  0.2630 -0.1797
 5283SOL    HW127308   1.768   2.455  11.064  1.2155  0.8693 -0.6884
 5283SOL    HW227309   1.742   2.468  11.214 -3.5954  0.7839 -1.0634
 5284SOL     OW27310   4.013   3.579  15.950 -0.2207 -0.3758 -0.6150
 5284SOL    HW127311   4.105   3.555  15.961 -0.2332  0.1291  0.6327
 5284SOL    HW227312   3.971   3.507  15.997 -0.2001  0.8682  1.3398
 5285SOL     OW27313   1.114   0.709   1.009  0.1883  0.4833  0.4912
 5285SOL    HW127314   1.173   0.732   1.081 -1.2734 -0.1653  1.9152
 5285SOL    HW227315   1.039   0.670   1.054 -0.3088  0.2621 -0.5390
 5286SOL     OW27316   2.846   0.843   3.427  0.4777 -0.0873  0.0471
 5286SOL    HW127317   2.804   0.765   3.463 -2.0564  1.0312 -0.5123
 5286SOL    HW227318   2.852   0.814   3.336  0.0294  0.0928 -0.0344
 5287SOL     OW27319   2.635   1.112  10.672  0.0346 -0.3358  0.5677
 5287SOL    HW127320   2.639   1.206  10.655 -1.6951 -0.9044 -3.0097
 5287SOL    HW227321   2.728   1.093  10.682 -0.1897 -0.6392  2.0698
 5288SOL     OW27322   3.822   4.296  13.396 -0.8236  0.4340  0.2355
 5288SOL    HW127323   3.783   4.338  13.473  1.8338 -1.0317  2.3899
 5288SOL    HW227324   3.807   4.204  13.419 -1.2694  0.0953 -1.4069
 5289SOL     OW27325   1.324   2.331   9.783 -0.7515 -0.1880  0.2592
 5289SOL    HW127326   1.281   2.368   9.860 -0.5558 -1.6840  1.0848
 5289SOL    HW227327   1.279   2.247   9.778 -1.5504  0.1845  1.2068
 5290SOL     OW27328   1.263   2.941   2.713 -0.4060 -0.3579  0.2793
 5290SOL    HW127329   1.209   2.979   2.782  1.3245  1.6716  0.5053
 5290SOL    HW227330   1.264   2.853   2.753 -1.7875  0.4059  2.0097
 5291SOL     OW27331   4.590   3.101   4.235  0.4264 -0.1841  0.5662
 5291SOL    HW127332   4.658   3.042   4.201  0.7388  1.1336 -1.0770
 5291SOL    HW227333   4.533   3.116   4.160  0.7301  4.1445  1.1868
 5292SOL     OW27334   0.818   0.051  17.661 -0.0302  0.3347 -0.0260
 5292SOL    HW127335   0.900   0.088   0.000  1.4047 -1.0195 -2.1487
 5292SOL    HW227336   0.748   0.108  17.692 -1.1722 -0.4983 -1.0753
 5293SOL     OW27337   0.318   3.885   2.693 -0.7757  0.1090  0.6882
 5293SOL    HW127338   0.227   3.912   2.679 -0.2829  0.0124 -2.6098
 5293SOL    HW227339   0.319   3.798   2.653  1.3073 -0.1515  1.3063
 5294SOL     OW27340   3.605   3.741   5.661 -0.1634  0.1708 -0.8042
 5294SOL    HW127341   3.615   3.774   5.572 -2.0186  1.4944 -0.5304
 5294SOL    HW227342   3.669   3.786   5.716  0.4923 -0.0242 -1.4128
 5295SOL     OW27343   1.503   2.128   0.625 -0.1727 -0.1083  0.0323
 5295SOL    HW127344   1.478   2.035   0.627  2.2432 -0.7723 -0.7754
 5295SOL    HW227345   1.593   2.117   0.596 -0.8787  0.4837 -2.3507
 5296SOL     OW27346   2.421   2.821   0.397 -0.7296 -0.4436 -0.8178
 5296SOL    HW127347   2.442   2.735   0.434 -1.3302 -0.1712  0.1551
 5296SOL    HW227348   2.502   2.832   0.347 -0.2785 -0.7275 -0.1644
 5297SOL     OW27349   1.633   1.965  15.940  0.1525  0.5577 -0.0492
 5297SOL    HW127350   1.553   1.913  15.931  0.2793  0.1453  1.2559
 5297SOL    HW227351   1.700   1.907  15.906 -0.8952 -0.7977  0.2102
 5298SOL     OW27352   2.576   3.332   3.757  0.1994 -0.2579 -0.3528
 5298SOL    HW127353   2.517   3.275   3.709  1.8762 -2.4290  0.1544
 5298SOL    HW227354   2.613   3.259   3.808  1.8066  1.6679  1.2531
 5299SOL     OW27355   2.164   1.290   9.626  0.0163 -0.8012 -0.2642
 5299SOL    HW127356   2.109   1.290   9.705 -0.8104 -0.0380 -0.8462
 5299SOL    HW227357   2.251   1.297   9.664 -0.8137  0.5275  1.4051
 5300SOL     OW27358   2.547   3.016   8.613 -0.1919  0.0438 -0.2913
 5300SOL    HW127359   2.458   2.986   8.632 -0.8442  2.8668  1.1740
 5300SOL    HW227360   2.575   3.060   8.694  4.5093  0.4008 -2.1424
 5301SOL     OW27361   2.882   2.282   6.437  0.1371  0.3916 -0.5366
 5301SOL    HW127362   2.950   2.215   6.426  0.1357  0.0894  1.2156
 5301SOL    HW227363   2.834   2.237   6.506 -0.5986  1.0234 -0.6413
 5302SOL     OW27364   2.297   1.623   7.274  1.0099 -0.4479 -0.3209
 5302SOL    HW127365   2.244   1.584   7.204  1.0700 -0.3105 -0.4443
 5302SOL    HW227366   2.316   1.541   7.318 -1.2554  0.3921  2.2434
 5303SOL     OW27367   0.574   1.606   3.952  0.2191  0.5075  0.3986
 5303SOL    HW127368   0.541   1.695   3.938  0.4508  0.3729 -0.9882
 5303SOL    HW227369   0.655   1.620   4.000  1.2178  1.9174 -1.7049
 5304SOL     OW27370   3.332   0.620  16.539  0.0893  0.5871  0.0964
 5304SOL    HW127371   3.404   0.562  16.518  1.3072  1.4213  1.9886
 5304SOL    HW227372   3.354   0.700  16.491  0.3640  0.4879  0.0604
 5305SOL     OW27373   2.289   1.033   2.685 -0.4654  0.7595 -0.1940
 5305SOL    HW127374   2.342   1.002   2.611 -1.0765 -2.3097  0.6665
 5305SOL    HW227375   2.348   1.107   2.703 -0.9602  1.8022 -2.8654
 5306SOL     OW27376   3.840   4.188  16.803 -0.0121  0.0722  0.1173
 5306SOL    HW127377   3.754   4.193  16.846 -1.1003  2.5310 -2.3554
 5306SOL    HW227378   3.873   4.114  16.855 -3.0103  0.2348  2.2854
 5307SOL     OW27379   4.157   4.385   7.159  0.2380 -0.3295 -0.3893
 5307SOL    HW127380   4.193   4.299   7.138 -1.5706 -0.3751 -3.2599
 5307SOL    HW227381   4.071   4.374   7.118 -0.8154  1.2765  1.3859
 5308SOL     OW27382   1.601   1.539  14.386  0.6462 -0.1223 -0.1109
 5308SOL    HW127383   1.658   1.612  14.362  0.6466 -1.2733 -3.6066
 5308SOL    HW227384   1.592   1.554  14.480 -2.0181  0.7625 -0.5113
 5309SOL     OW27385   3.390   0.953  10.254 -0.4211 -0.5429 -0.3829
 5309SOL    HW127386   3.383   0.866  10.216 -1.2506  0.1716 -1.8843
 5309SOL    HW227387   3.486   0.961  10.255 -0.3926 -0.8891 -0.4378
 5310SOL     OW27388   3.924   3.605  10.788 -0.0303  0.1312 -0.3851
 5310SOL    HW127389   3.988   3.537  10.766 -1.2759 -1.2227  0.2032
 5310SOL    HW227390   3.865   3.610  10.712  0.6490 -1.7031 -1.0243
 5311SOL     OW27391   1.179   2.513   6.245 -0.0035  0.1252  0.4195
 5311SOL    HW127392   1.088   2.484   6.241 -0.3826  1.5126 -1.3275
 5311SOL    HW227393   1.227   2.431   6.254 -1.4874 -0.7065  0.6627
 5312SOL     OW27394   0.199   2.479  15.955 -0.3512  0.1348  0.7889
 5312SOL    HW127395   0.254   2.407  15.989  0.4147  0.9519  1.2750
 5312SOL    HW227396   0.254   2.517  15.887  2.2225 -0.4918  2.5146
 5313SOL     OW27397   4.470   3.455   8.259  0.0414  0.1473 -0.0694
 5313SOL    HW127398   4.412   3.382   8.283 -1.8021  1.8050  0.5535
 5313SOL    HW227399   4.428   3.500   8.186 -0.5663 -2.0192 -1.0727
 5314SOL     OW27400   2.691   0.334  16.245 -0.5562 -0.0786  0.3217
 5314SOL    HW127401   2.709   0.342  16.151 -1.1657 -0.0993  0.2077
 5314SOL    HW227402   2.691   0.427  16.269 -0.0087  0.3370 -1.2925
 5315SOL     OW27403   0.308   0.510  11.908 -0.6100  0.2462 -0.4109
 5315SOL    HW127404   0.214   0.500  11.891 -0.3308 -0.4423 -1.5031
 5315SOL    HW227405   0.352   0.485  11.828 -0.7231 -1.4876  0.0705
 5316SOL     OW27406   4.262   1.333   2.798 -0.3644  0.0766  0.3342
 5316SOL    HW127407   4.237   1.382   2.720 -1.7354 -1.4256 -0.1560
 5316SOL    HW227408   4.265   1.242   2.768 -1.1536  1.1814 -3.1202
 5317SOL     OW27409   2.481   3.524   5.468  0.1941  0.4838  0.1856
 5317SOL    HW127410   2.430   3.586   5.416 -0.1702  0.9348  1.0920
 5317SOL    HW227411   2.404   3.486   5.512 -1.2204  2.0844 -0.9059
 5318SOL     OW27412   0.294   0.538   5.194  0.1132  0.4025  0.2884
 5318SOL    HW127413   0.210   0.575   5.167  0.9134  1.3969 -0.8435
 5318SOL    HW227414   0.270   0.458   5.241  2.4859 -0.8561 -0.6120
 5319SOL     OW27415   3.396   3.701   2.336  0.2805  0.1709  0.0231
 5319SOL    HW127416   3.391   3.748   2.419  1.8553  1.1047 -0.4030
 5319SOL    HW227417   3.489   3.712   2.317  0.1596 -0.4940 -0.9453
 5320SOL     OW27418   1.961   1.343   3.141 -0.7489 -0.1964  0.0987
 5320SOL    HW127419   1.881   1.392   3.120 -0.7503 -0.1382  0.2438
 5320SOL    HW227420   1.947   1.260   3.095  1.9327  2.1564 -5.0603
 5321SOL     OW27421   1.290   0.469   0.818  0.6796  0.4536  0.3018
 5321SOL    HW127422   1.266   0.522   0.894  1.7572 -1.4330  1.9501
 5321SOL    HW227423   1.301   0.539   0.753  1.7721  0.0588  0.0643
 5322SOL     OW27424   1.264   3.441  14.749  0.4734 -0.4886 -0.4353
 5322SOL    HW127425   1.219   3.515  14.706  1.0911  0.4120  0.4577
 5322SOL    HW227426   1.350   3.441  14.706 -0.3350 -0.9773 -2.0425
 5323SOL     OW27427   4.435   1.078  15.487  0.7291 -0.2379  0.5823
 5323SOL    HW127428   4.482   1.057  15.407 -1.7085  2.2854 -1.4793
 5323SOL    HW227429   4.495   1.136  15.533  0.3268  0.9928 -0.4673
 5324SOL     OW27430   3.562   4.605   9.662  0.2093 -0.6384 -0.4350
 5324SOL    HW127431   3.563   4.694   9.627 -1.1870 -0.2368  0.5587
 5324SOL    HW227432   3.607   4.561   9.590 -1.3661  1.0470 -2.4577
 5325SOL     OW27433   3.934   0.068   4.338  0.0366  0.0468 -0.2119
 5325SOL    HW127434   3.961   4.698   4.339  2.6010  0.8224  2.1311
 5325SOL    HW227435   3.943   0.083   4.244  0.5043 -0.3201 -0.2265
 5326SOL     OW27436   2.873   3.751   9.249  0.2329  0.3274  0.8356
 5326SOL    HW127437   2.778   3.739   9.247  0.4509 -0.8278 -1.5605
 5326SOL    HW227438   2.875   3.818   9.319 -3.6870  0.1022  1.1866
 5327SOL     OW27439   2.252   3.847   2.219  0.3712 -0.0002 -0.2380
 5327SOL    HW127440   2.170   3.816   2.181  0.6443 -0.3317 -0.5533
 5327SOL    HW227441   2.257   3.795   2.299 -1.5103  2.3001  1.4041
 5328SOL     OW27442   3.404   3.539  14.242 -0.5606  0.1412  0.0692
 5328SOL    HW127443   3.429   3.627  14.271  0.4401 -0.4980  1.1172
 5328SOL    HW227444   3.429   3.535  14.150  2.8318 -0.2931  1.0318
 5329SOL     OW27445   4.541   3.113   1.195  0.6154  0.1445  0.1950
 5329SOL    HW127446   4.455   3.072   1.203  1.5343 -1.1625  3.4499
 5329SOL    HW227447   4.578   3.099   1.107  0.9320 -0.1453  0.3718
 5330SOL     OW27448   4.358   1.981  13.223 -0.4707 -0.2103  0.4939
 5330SOL    HW127449   4.314   2.063  13.246  2.6081  1.8131 -0.7405
 5330SOL    HW227450   4.402   2.005  13.141 -1.1692 -2.9567 -0.6848
 5331SOL     OW27451   1.581   4.327  14.310 -0.1334 -0.0458  0.3643
 5331SOL    HW127452   1.637   4.362  14.379 -0.1635  1.2767 -0.2807
 5331SOL    HW227453   1.645   4.279  14.257 -0.5062 -1.5753  1.3045
 5332SOL     OW27454   1.240   3.862   5.589  0.3237  0.3900 -0.2162
 5332SOL    HW127455   1.320   3.846   5.539  0.4275  0.3084 -0.0250
 5332SOL    HW227456   1.178   3.891   5.522 -1.0154 -1.6776  0.1313
 5333SOL     OW27457   2.228   4.596  15.283  0.3243  0.1696 -0.2318
 5333SOL    HW127458   2.307   4.579  15.232  2.0699  1.4983  2.0428
 5333SOL    HW227459   2.235   4.682  15.326 -0.2246  0.4646 -0.7359
 5334SOL     OW27460   4.023   0.483   7.879 -0.3980  0.3975 -0.1182
 5334SOL    HW127461   4.057   0.404   7.919 -0.0666  1.2986  1.3704
 5334SOL    HW227462   4.097   0.517   7.829 -0.2129 -1.2352 -0.9333
 5335SOL     OW27463   4.688   2.839   8.387 -0.0527  0.4805  0.5383
 5335SOL    HW127464   4.673   2.747   8.367  2.6623  0.5405 -1.7635
 5335SOL    HW227465   0.034   2.815   8.450 -0.1489  0.8786  0.7933
 5336SOL     OW27466   0.114   0.738   0.392  0.7055  0.3254 -0.1040
 5336SOL    HW127467   0.150   0.649   0.395 -0.0766  0.0460  0.8701
 5336SOL    HW227468   0.069   0.747   0.476 -0.1829 -0.1825 -0.5205
 5337SOL     OW27469   1.697   1.097   4.396 -0.3570 -0.7914 -0.3388
 5337SOL    HW127470   1.781   1.131   4.364 -0.0260 -3.9967 -2.9494
 5337SOL    HW227471   1.687   1.020   4.340 -0.0567  0.6653 -2.3720
 5338SOL     OW27472   4.187   1.274   3.059 -0.2833  0.1642  0.2660
 5338SOL    HW127473   4.212   1.182   3.057 -0.1376  0.2027  0.2948
 5338SOL    HW227474   4.210   1.309   2.972 -0.3634  0.6022  0.4215
 5339SOL     OW27475   3.189   2.191  14.603 -0.1492 -0.0353  0.5352
 5339SOL    HW127476   3.245   2.266  14.624  1.3493 -1.5868  2.0925
 5339SOL    HW227477   3.104   2.233  14.594  0.5928  1.4827  0.6983
 5340SOL     OW27478   1.486   1.846   5.926 -0.1745 -0.2835 -0.0639
 5340SOL    HW127479   1.416   1.803   5.976  0.0576  0.6119  1.0468
 5340SOL    HW227480   1.491   1.923   5.984  1.2727  1.0569 -1.9861
 5341SOL     OW27481   3.230   2.690   8.623 -0.4378  0.1657  0.3367
 5341SOL    HW127482   3.137   2.713   8.622 -0.2080  1.1000  0.5636
 5341SOL    HW227483   3.215   2.617   8.683 -0.8003 -1.6166 -1.9116
 5342SOL     OW27484   1.247   3.867   4.952 -0.7302 -0.0674 -0.3180
 5342SOL    HW127485   1.278   3.942   4.901 -0.3286 -2.1200 -3.0128
 5342SOL    HW227486   1.305   3.883   5.027  0.5800 -1.0748 -1.1353
 5343SOL     OW27487   0.040   0.546  11.818 -0.4237  0.2088 -0.1586
 5343SOL    HW127488   0.072   0.510  11.735 -0.7656  1.6771 -0.9299
 5343SOL    HW227489   0.014   0.636  11.800 -0.8532  0.2304  0.5604
 5344SOL     OW27490   2.369   3.111   7.465  0.0922 -0.7221  0.2177
 5344SOL    HW127491   2.345   3.120   7.557 -0.8118 -0.2563 -0.0689
 5344SOL    HW227492   2.328   3.189   7.429 -0.3853 -0.5979  1.0196
 5345SOL     OW27493   4.604   1.182   4.796 -0.0239  0.1065 -0.6493
 5345SOL    HW127494   4.689   1.199   4.836  0.3153 -0.0469 -1.2890
 5345SOL    HW227495   4.625   1.210   4.707 -1.2671  1.4554 -0.5218
 5346SOL     OW27496   2.709   2.537  11.892  0.4694  0.4786  0.8117
 5346SOL    HW127497   2.708   2.536  11.796 -2.2920 -0.0666  0.8566
 5346SOL    HW227498   2.658   2.460  11.915  1.1036 -0.2290 -0.1477
 5347SOL     OW27499   4.219   4.676   5.821  0.0688 -0.0879 -0.1759
 5347SOL    HW127500   4.283   0.009   5.776  1.5619 -2.1957 -0.5940
 5347SOL    HW227501   4.169   0.017   5.873 -0.3650 -1.9600  1.6595
 5348SOL     OW27502   4.304   2.943   9.532  0.1145  0.2395  0.6039
 5348SOL    HW127503   4.334   3.032   9.516  0.6661 -0.2133 -0.8736
 5348SOL    HW227504   4.316   2.919   9.440  1.2513  0.2661  0.7464
 5349SOL     OW27505   0.222   3.915  15.411  0.2942 -0.2397  0.3718
 5349SOL    HW127506   0.312   3.897  15.388  0.6481  0.8251  0.8974
 5349SOL    HW227507   0.227   3.963  15.494 -0.3396 -0.6092  0.6255
 5350SOL     OW27508   1.461   2.721  12.912  0.4575 -0.3814  0.1115
 5350SOL    HW127509   1.516   2.704  12.989  0.8833  0.1593 -0.0708
 5350SOL    HW227510   1.523   2.688  12.847  0.6093 -1.3991  0.7691
 5351SOL     OW27511   1.207   4.227   8.354 -0.1623  0.3649 -0.1503
 5351SOL    HW127512   1.268   4.228   8.280 -0.3941 -1.1963 -0.3709
 5351SOL    HW227513   1.241   4.152   8.403  0.4726  1.4819  1.1118
 5352SOL     OW27514   1.318   2.810   0.626  0.2998 -0.1891  0.0472
 5352SOL    HW127515   1.331   2.881   0.689  1.7463  0.7245 -1.2805
 5352SOL    HW227516   1.325   2.857   0.543 -0.1456  0.8698  0.6062
 5353SOL     OW27517   3.055   2.193   4.364 -0.0274 -0.5308 -0.6645
 5353SOL    HW127518   3.064   2.278   4.320  1.2198 -1.4585 -2.1756
 5353SOL    HW227519   3.011   2.225   4.443  0.7198  0.2904 -0.5803
 5354SOL     OW27520   4.178   2.356   6.406  0.8157 -0.5417 -0.7956
 5354SOL    HW127521   4.093   2.331   6.370 -0.3776  0.2070  1.5396
 5354SOL    HW227522   4.144   2.412   6.476  1.1938 -0.4376 -0.6970
 5355SOL     OW27523   4.630   2.564   8.352  0.3692 -0.3877 -0.1381
 5355SOL    HW127524   4.610   2.538   8.442 -0.6687  0.7897 -0.0348
 5355SOL    HW227525   4.559   2.517   8.308  0.8594 -0.4718 -0.8483
 5356SOL     OW27526   0.007   1.834   5.953 -0.8727 -0.0626 -0.1255
 5356SOL    HW127527   0.024   1.795   5.867  0.5918  0.9731 -0.3056
 5356SOL    HW227528   4.639   1.865   5.954 -1.6902 -2.4163 -1.2054
 5357SOL     OW27529   3.994   1.054   2.423 -0.0164 -0.8875  0.3381
 5357SOL    HW127530   3.934   1.129   2.431 -0.1621 -1.0541  0.7639
 5357SOL    HW227531   3.991   1.044   2.328  0.3989  0.5456  0.1712
 5358SOL     OW27532   1.364   3.066   7.242  0.2086 -0.2914  0.2076
 5358SOL    HW127533   1.452   3.029   7.237 -0.2304 -1.0284 -2.1531
 5358SOL    HW227534   1.374   3.161   7.241 -2.0996 -0.0247  0.7676
 5359SOL     OW27535   0.430   0.739  10.990  0.1691 -0.3553 -0.1989
 5359SOL    HW127536   0.395   0.706  10.907 -1.7947 -3.3282  1.8155
 5359SOL    HW227537   0.517   0.762  10.958 -0.0243 -0.0118 -0.4674
 5360SOL     OW27538   2.859   1.438  12.512 -0.3830  0.5514 -0.3422
 5360SOL    HW127539   2.916   1.478  12.578  1.9889 -2.6851 -0.4367
 5360SOL    HW227540   2.926   1.387  12.467  0.4678  0.0085  1.5261
 5361SOL     OW27541   1.414   0.373   4.991  0.1541 -0.3034 -0.3969
 5361SOL    HW127542   1.424   0.288   4.948 -0.1761 -0.9792  0.8573
 5361SOL    HW227543   1.335   0.348   5.039 -0.3418  2.5029  0.2174
 5362SOL     OW27544   1.060   3.312   8.443 -0.0177  0.2816  0.4561
 5362SOL    HW127545   1.032   3.228   8.480  1.1449 -0.0680  0.5313
 5362SOL    HW227546   0.983   3.369   8.442 -1.1771 -1.3098 -1.1064
 5363SOL     OW27547   4.626   0.531   4.885 -0.2347 -0.1035 -0.5593
 5363SOL    HW127548   4.703   0.507   4.833  0.4118  0.0006  0.3410
 5363SOL    HW227549   4.593   0.442   4.899 -2.8389  0.5221 -2.7809
 5364SOL     OW27550   1.069   2.669   4.105  0.4756 -0.1813  0.1488
 5364SOL    HW127551   1.015   2.741   4.136 -1.6746 -2.4826  1.7812
 5364SOL    HW227552   1.150   2.718   4.103 -0.2255  0.9620 -0.1916
 5365SOL     OW27553   0.265   1.123  17.518 -0.5188 -0.0426 -0.0315
 5365SOL    HW127554   0.182   1.105  17.561 -0.9778  2.2090  0.0320
 5365SOL    HW227555   0.323   1.059  17.560 -0.6246 -0.9398 -1.2525
 5366SOL     OW27556   0.778   3.239  15.716  0.3706 -0.3759  0.8693
 5366SOL    HW127557   0.829   3.314  15.746  1.0798 -0.1892 -0.8151
 5366SOL    HW227558   0.849   3.174  15.709  0.5846 -0.0929  0.4161
 5367SOL     OW27559   1.894   2.209   4.294 -0.0066 -0.1337 -0.3226
 5367SOL    HW127560   1.823   2.222   4.356  0.9427 -1.9180  1.1515
 5367SOL    HW227561   1.916   2.301   4.282 -0.3103  0.0046  0.1974
 5368SOL     OW27562   4.041   2.940   6.804 -0.6201 -0.7319  0.3448
 5368SOL    HW127563   4.095   2.903   6.873 -0.5161 -0.1900  0.5504
 5368SOL    HW227564   3.955   2.920   6.841 -1.9522 -0.7712 -2.7243
 5369SOL     OW27565   2.932   1.546  16.445 -0.7520  0.3654  0.5110
 5369SOL    HW127566   2.922   1.545  16.540 -0.0336  0.2545  0.5827
 5369SOL    HW227567   2.891   1.626  16.412 -0.3289  0.4600  0.2163
 5370SOL     OW27568   3.604   2.176   6.749 -0.1962  0.4322 -0.1197
 5370SOL    HW127569   3.689   2.194   6.708 -0.0349 -0.9004 -0.3699
 5370SOL    HW227570   3.556   2.258   6.736  1.3255  1.1846 -1.1045
 5371SOL     OW27571   1.767   0.802   5.579  0.0513 -0.3514 -0.3452
 5371SOL    HW127572   1.746   0.869   5.644  1.3396 -0.9035  0.6486
 5371SOL    HW227573   1.677   0.779   5.560  0.7414 -3.7043  0.3757
 5372SOL     OW27574   1.796   4.498   8.668 -0.4204  0.3267 -0.5687
 5372SOL    HW127575   1.771   4.553   8.594  1.5438  1.1646 -0.5928
 5372SOL    HW227576   1.842   4.436   8.611  1.5498  3.3894 -2.3049
 5373SOL     OW27577   1.266   3.550  11.210 -0.0533 -0.4050  0.4024
 5373SOL    HW127578   1.237   3.577  11.123  0.2584  0.6539  0.6195
 5373SOL    HW227579   1.226   3.464  11.222  0.5883 -0.4649  2.1028
 5374SOL     OW27580   2.462   4.214   4.341  0.4493 -0.0303 -0.2441
 5374SOL    HW127581   2.384   4.238   4.291  0.0162 -2.1775 -0.6282
 5374SOL    HW227582   2.491   4.130   4.306  1.9527 -0.7763  2.7903
 5375SOL     OW27583   0.817   0.870   3.884 -0.0597  0.0127  0.0402
 5375SOL    HW127584   0.771   0.791   3.854 -1.0244  0.4237  0.4584
 5375SOL    HW227585   0.908   0.842   3.875 -0.3706 -0.5956 -1.3232
 5376SOL     OW27586   0.888   1.020   6.604  0.3618 -0.4452  0.1555
 5376SOL    HW127587   0.964   1.074   6.582 -0.0690 -0.1201 -0.5291
 5376SOL    HW227588   0.865   1.033   6.696 -0.8623  0.9502 -0.3424
 5377SOL     OW27589   3.726   2.987   4.375 -0.4663 -0.2024  0.2009
 5377SOL    HW127590   3.657   2.989   4.308 -1.4190  0.1015  1.2008
 5377SOL    HW227591   3.752   3.077   4.391  1.4386 -0.5741 -0.7861
 5378SOL     OW27592   1.729   3.832   2.103 -1.0277  0.3500  0.1955
 5378SOL    HW127593   1.686   3.765   2.156 -0.5925 -1.7190 -2.0585
 5378SOL    HW227594   1.671   3.834   2.027  0.4096  0.9457 -0.8958
 5379SOL     OW27595   1.706   2.102  11.637  0.0484  0.5218 -0.0005
 5379SOL    HW127596   1.700   2.143  11.551  0.9919  0.0645 -0.2898
 5379SOL    HW227597   1.679   2.011  11.624 -1.2214  0.7243  1.2613
 5380SOL     OW27598   3.316   3.482   4.430  0.3086  0.0891 -0.5350
 5380SOL    HW127599   3.318   3.393   4.465  0.7409  0.3172  0.0284
 5380SOL    HW227600   3.354   3.517   4.511  0.3377 -0.5025 -0.2939
 5381SOL     OW27601   2.660   3.218  15.769 -0.6106 -0.3625 -0.3081
 5381SOL    HW127602   2.599   3.291  15.758  0.0058  0.4480  1.4777
 5381SOL    HW227603   2.715   3.250  15.841 -1.2997  1.6364 -0.6730
 5382SOL     OW27604   1.585   3.601   3.370  0.0504 -0.1401 -0.2065
 5382SOL    HW127605   1.658   3.658   3.348  0.4209 -1.1198 -1.5189
 5382SOL    HW227606   1.608   3.514   3.336  0.0950  0.2039 -1.0635
 5383SOL     OW27607   0.067   0.015   1.054 -0.1305 -0.3734 -0.6704
 5383SOL    HW127608   4.716   0.066   1.086  0.3239  0.5369 -1.0719
 5383SOL    HW227609   0.141   0.061   1.094 -1.2279 -1.8484  2.9918
 5384SOL     OW27610   1.765   3.358  13.099 -0.1812 -0.1114  0.2954
 5384SOL    HW127611   1.755   3.311  13.182 -0.9722  0.7363  0.6775
 5384SOL    HW227612   1.822   3.293  13.056  1.2183  2.0340 -1.0846
 5385SOL     OW27613   1.554   0.088   3.540 -0.3952  0.2942  0.0724
 5385SOL    HW127614   1.489   0.078   3.610 -0.1626  0.1786  0.2715
 5385SOL    HW227615   1.625   0.131   3.587 -0.5796  0.9049 -0.1931
 5386SOL     OW27616   2.051   2.223  11.701  0.0223 -0.2852 -0.2195
 5386SOL    HW127617   2.072   2.303  11.749 -0.0412 -1.2880  1.4836
 5386SOL    HW227618   2.080   2.238  11.612 -0.4966  0.9367 -0.1834
 5387SOL     OW27619   4.142   1.587   4.350  0.2459 -0.1911  0.6129
 5387SOL    HW127620   4.153   1.493   4.333 -3.9776 -0.5855  0.1586
 5387SOL    HW227621   4.049   1.585   4.374  0.3678 -0.4497  1.0668
 5388SOL     OW27622   0.468   2.826   8.581  0.2810 -0.7266  0.5212
 5388SOL    HW127623   0.458   2.911   8.539  0.2957 -1.2257 -0.5002
 5388SOL    HW227624   0.419   2.770   8.520  1.5695  0.5945 -1.7181
 5389SOL     OW27625   0.208   1.625   7.587 -0.3958 -0.3315  0.1763
 5389SOL    HW127626   0.206   1.540   7.543  1.3950 -0.7612  0.8949
 5389SOL    HW227627   0.155   1.597   7.661 -0.2547 -0.6073  0.1752
 5390SOL     OW27628   0.266   3.755   5.790 -0.5677  0.4139 -0.3160
 5390SOL    HW127629   0.350   3.710   5.799 -0.2381  0.2980 -3.9182
 5390SOL    HW227630   0.261   3.773   5.696  1.1292  1.3325 -0.2165
 5391SOL     OW27631   0.642   1.590   6.202 -0.3858 -0.1888  0.6208
 5391SOL    HW127632   0.618   1.611   6.292 -0.2450  1.7757  0.1986
 5391SOL    HW227633   0.626   1.495   6.200  0.8419 -0.4261  1.7559
 5392SOL     OW27634   4.240   3.558   8.737  0.7909 -0.5834  0.4028
 5392SOL    HW127635   4.308   3.561   8.670  0.4241  1.1139  0.0969
 5392SOL    HW227636   4.261   3.642   8.778  0.6980  0.1122 -0.9780
 5393SOL     OW27637   3.204   2.226   6.985  0.8125  0.1005  0.0254
 5393SOL    HW127638   3.296   2.203   6.993  0.9251  0.5827  0.1582
 5393SOL    HW227639   3.203   2.314   6.949  0.7343 -0.1410 -0.5496
 5394SOL     OW27640   3.708   2.249   5.056  0.5670  0.2409 -0.2803
 5394SOL    HW127641   3.712   2.338   5.020  1.5685 -0.1307 -1.0511
 5394SOL    HW227642   3.616   2.225   5.048  0.6758 -0.7705  1.4794
 5395SOL     OW27643   3.699   3.225   3.678 -0.4229 -0.1884  0.6215
 5395SOL    HW127644   3.742   3.231   3.763 -0.0366  1.6483  0.3031
 5395SOL    HW227645   3.618   3.178   3.694  0.7050 -1.9124  1.2478
 5396SOL     OW27646   4.193   0.046   9.550  0.7546  0.4514 -0.6350
 5396SOL    HW127647   4.280   0.086   9.544  0.8399  0.4751  0.6981
 5396SOL    HW227648   4.174   0.046   9.644  1.9279 -1.3358 -0.3716
 5397SOL     OW27649   3.833   2.253  16.696 -0.1442 -0.1621 -0.7767
 5397SOL    HW127650   3.906   2.301  16.735 -0.7057  1.0738 -1.2677
 5397SOL    HW227651   3.877   2.192  16.637 -1.4914 -2.3388  0.4813
 5398SOL     OW27652   4.150   1.820   2.740 -0.1227  0.0112 -0.0809
 5398SOL    HW127653   4.169   1.812   2.646  1.5637 -0.4386  0.2996
 5398SOL    HW227654   4.191   1.906   2.747  0.6449 -0.4624  1.3302
 5399SOL     OW27655   1.376   1.456   3.893  0.1659 -0.1057  0.6564
 5399SOL    HW127656   1.398   1.380   3.947  1.4819 -0.4816 -0.4055
 5399SOL    HW227657   1.326   1.505   3.958 -0.6411 -0.3873  0.2461
 5400SOL     OW27658   3.829   1.802  10.636 -0.0158  0.0895 -0.3842
 5400SOL    HW127659   3.858   1.865  10.570 -0.1236  0.4043 -0.1282
 5400SOL    HW227660   3.767   1.757  10.580 -0.5189 -0.0110  0.2551
 5401SOL     OW27661   1.557   1.189  17.431  0.3206 -0.1028  0.1281
 5401SOL    HW127662   1.497   1.248  17.385  1.1242  1.3525  0.9099
 5401SOL    HW227663   1.618   1.259  17.457  0.9479 -0.0835 -1.3796
 5402SOL     OW27664   1.569   1.599   0.118  0.5043  0.2578 -0.0395
 5402SOL    HW127665   1.624   1.537   0.070 -1.4463 -2.6430  1.4894
 5402SOL    HW227666   1.500   1.600   0.052 -0.3790  1.1120  0.9124
 5403SOL     OW27667   1.722   4.548   6.352  0.1506  0.3585 -0.3295
 5403SOL    HW127668   1.668   4.625   6.334  1.7644  1.9902  1.7684
 5403SOL    HW227669   1.791   4.558   6.286  0.4146 -1.0799 -0.2723
 5404SOL     OW27670   1.284   3.623   8.221 -0.8205 -0.6492 -0.1417
 5404SOL    HW127671   1.367   3.631   8.173  0.3416  1.8901  2.3069
 5404SOL    HW227672   1.298   3.674   8.300  1.3489 -2.1387  0.4287
 5405SOL     OW27673   0.411   1.762   2.224  0.3095  0.2205 -0.4685
 5405SOL    HW127674   0.479   1.829   2.213 -0.3986  0.9681 -0.2173
 5405SOL    HW227675   0.454   1.686   2.185 -0.7730 -2.2739  3.1751
 5406SOL     OW27676   4.461   3.460  11.187 -0.2455  0.0313  0.1797
 5406SOL    HW127677   4.422   3.544  11.212 -0.4507  0.3603 -1.2640
 5406SOL    HW227678   4.386   3.425  11.140  0.8235  1.2046 -2.3688
 5407SOL     OW27679   3.542   4.008   2.813 -0.1686  0.8686 -0.8614
 5407SOL    HW127680   3.452   4.024   2.841 -0.3845  0.9828 -1.6143
 5407SOL    HW227681   3.541   4.031   2.720  2.2136  1.2662 -0.7944
 5408SOL     OW27682   0.685   2.032   4.333  0.2108 -0.8221 -0.4023
 5408SOL    HW127683   0.610   2.089   4.347  0.9534  0.7511 -2.8509
 5408SOL    HW227684   0.640   1.949   4.316  1.0714 -1.4880  0.5817
 5409SOL     OW27685   2.487   3.714   7.591 -0.0871  0.0351 -0.1922
 5409SOL    HW127686   2.532   3.798   7.589  0.7828 -0.3763  2.6941
 5409SOL    HW227687   2.494   3.687   7.682 -0.2115 -1.3052 -0.5717
 5410SOL     OW27688   2.865   1.984   2.553 -0.2544  0.6886 -0.3253
 5410SOL    HW127689   2.958   2.001   2.539 -0.3848 -0.2684 -2.3124
 5410SOL    HW227690   2.859   1.902   2.504  2.4849  0.8867 -0.9996
 5411SOL     OW27691   0.970   3.657  13.120 -0.2356 -0.0914  0.0090
 5411SOL    HW127692   1.043   3.666  13.058  0.3455 -1.2732  0.5323
 5411SOL    HW227693   0.918   3.582  13.090 -1.5683  0.6000  0.5952
 5412SOL     OW27694   0.055   4.459  11.320  0.1036 -0.3546 -0.7045
 5412SOL    HW127695   0.048   4.527  11.253  0.8091 -0.4392 -0.8626
 5412SOL    HW227696   0.018   4.494  11.401  0.4076  0.0158 -0.7269
 5413SOL     OW27697   4.064   0.303   3.280  0.0954  0.0867 -0.2977
 5413SOL    HW127698   3.989   0.286   3.223 -0.1015 -0.9262  0.2657
 5413SOL    HW227699   4.131   0.322   3.214 -1.2815  0.8098 -1.4933
 5414SOL     OW27700   3.734   2.129   3.483 -0.0603  0.1295 -0.9051
 5414SOL    HW127701   3.724   2.217   3.446  1.8514  0.9412  0.5389
 5414SOL    HW227702   3.734   2.077   3.402  0.9396  0.5633 -1.1773
 5415SOL     OW27703   1.081   4.601  17.543 -0.4102 -0.2812  0.9024
 5415SOL    HW127704   1.020   4.567  17.477  0.2947 -0.7789  0.5047
 5415SOL    HW227705   1.044   4.686  17.567  0.2589  0.4397 -0.6310
 5416SOL     OW27706   4.564   1.834  16.188  0.4359 -0.2504 -0.1260
 5416SOL    HW127707   4.479   1.871  16.165  0.8297  1.0851  0.5486
 5416SOL    HW227708   4.567   1.838  16.283 -2.0562 -1.4975 -0.0050
 5417SOL     OW27709   0.394   1.152   5.236 -0.3960 -0.1391  0.6471
 5417SOL    HW127710   0.488   1.135   5.242 -0.4075  0.5068  2.7900
 5417SOL    HW227711   0.404   1.246   5.251 -0.5220  0.0150 -0.2661
 5418SOL     OW27712   0.167   4.057   6.289 -0.0265  0.3303  0.0708
 5418SOL    HW127713   0.109   4.045   6.214 -1.8784  2.1715  1.2210
 5418SOL    HW227714   0.245   4.084   6.239  0.6027 -1.6441 -0.0218
 5419SOL     OW27715   4.468   2.141   6.206 -0.6232  0.0428 -0.0574
 5419SOL    HW127716   4.554   2.184   6.210 -0.5876 -0.2002  1.7542
 5419SOL    HW227717   4.412   2.218   6.197 -1.3479 -0.2361  2.1606
 5420SOL     OW27718   3.763   3.519   8.720 -0.1048  0.2581  1.1865
 5420SOL    HW127719   3.716   3.589   8.674 -2.2917 -1.3807  0.9381
 5420SOL    HW227720   3.840   3.523   8.664 -1.3195  0.0771 -0.5215
 5421SOL     OW27721   3.592   4.056   4.807  0.1822  0.8399  0.3378
 5421SOL    HW127722   3.567   4.148   4.816  2.0140  1.2854  0.8221
 5421SOL    HW227723   3.651   4.049   4.882  2.2059 -1.3397 -1.4589
 5422SOL     OW27724   3.229   4.460   2.549 -0.6075  0.5162 -1.0604
 5422SOL    HW127725   3.211   4.515   2.625  0.9768  0.6412 -0.7781
 5422SOL    HW227726   3.216   4.530   2.485 -0.4956  1.3298 -0.1835
 5423SOL     OW27727   2.336   2.341  10.350 -0.8428  0.3666 -0.2506
 5423SOL    HW127728   2.393   2.265  10.339 -0.3193  0.7426 -0.1739
 5423SOL    HW227729   2.322   2.340  10.255 -2.8616  2.6234  0.0202
 5424SOL     OW27730   1.683   1.956   7.777 -0.3862  0.1368  0.0188
 5424SOL    HW127731   1.717   1.867   7.789 -2.4488 -0.9838 -2.3390
 5424SOL    HW227732   1.761   2.005   7.802  0.4136 -0.7357 -0.7678
 5425SOL     OW27733   2.961   4.019  13.345  0.7111 -0.0394 -0.2614
 5425SOL    HW127734   2.889   3.970  13.305  1.5784 -1.5484  0.0057
 5425SOL    HW227735   3.025   3.948  13.345  1.1035  0.3108  0.4648
 5426SOL     OW27736   3.059   0.966  15.285 -0.6839  0.0451 -0.0309
 5426SOL    HW127737   3.038   0.893  15.228  0.5746  0.2367 -0.7277
 5426SOL    HW227738   3.117   1.008  15.222 -0.3902  0.0180  0.2192
 5427SOL     OW27739   4.706   2.390  14.366 -0.8947 -0.3190  0.0014
 5427SOL    HW127740   4.693   2.363  14.275  1.9787  1.6206 -0.9697
 5427SOL    HW227741   4.618   2.424  14.384 -0.5824 -0.5020  1.8125
 5428SOL     OW27742   0.080   1.324   6.522 -0.4242  0.1473 -0.4972
 5428SOL    HW127743   0.020   1.316   6.448 -1.4899  1.0912  0.2698
 5428SOL    HW227744   0.117   1.237   6.539  0.2890  0.5048 -0.2295
 5429SOL     OW27745   0.329   3.907   7.844  0.2886  0.5408 -0.4205
 5429SOL    HW127746   0.392   3.846   7.805 -0.3480  0.6454 -1.6218
 5429SOL    HW227747   0.354   3.989   7.802 -1.3585  0.0894 -2.3253
 5430SOL     OW27748   1.473   0.160   8.118 -0.4681  0.3552 -0.2065
 5430SOL    HW127749   1.497   0.246   8.153  1.1227 -0.5205  0.8989
 5430SOL    HW227750   1.494   0.104   8.193  0.5716 -0.9960 -1.5073
 5431SOL     OW27751   0.939   1.914   5.043  0.3531 -0.8685 -0.2299
 5431SOL    HW127752   0.866   1.923   5.104  4.4027  1.1444  4.3057
 5431SOL    HW227753   0.964   1.822   5.057  0.9531 -0.7653 -0.6295
 5432SOL     OW27754   3.112   2.846   7.130 -0.3282  0.5764 -0.8032
 5432SOL    HW127755   3.040   2.784   7.129 -2.2483  2.8036  0.1017
 5432SOL    HW227756   3.060   2.925   7.114  0.7196  1.7566  1.5159
 5433SOL     OW27757   4.260   0.671   2.984 -0.5260 -0.4689 -0.0704
 5433SOL    HW127758   4.167   0.684   2.970 -0.7280 -3.9690 -2.1236
 5433SOL    HW227759   4.306   0.743   2.941  0.3655 -0.8227  0.2729
 5434SOL     OW27760   3.341   4.697   3.333  0.4532  0.1554 -0.6623
 5434SOL    HW127761   3.408   0.038   3.357  1.4345 -1.0206 -0.2983
 5434SOL    HW227762   3.373   4.613   3.364  0.0943  0.0864 -0.4766
 5435SOL     OW27763   3.704   4.167  13.665 -0.0837 -0.5446 -0.3379
 5435SOL    HW127764   3.739   4.256  13.660  2.2129 -1.4299 -0.0019
 5435SOL    HW227765   3.609   4.178  13.662 -0.0991 -0.9260 -1.3707
 5436SOL     OW27766   1.919   0.817   2.032 -0.3813 -0.1221 -0.5482
 5436SOL    HW127767   1.925   0.772   2.117  0.1332 -0.4688 -0.7655
 5436SOL    HW227768   1.968   0.893   2.063  0.5505 -0.8652 -0.1589
 5437SOL     OW27769   1.501   2.769   5.638 -0.0779 -0.0663 -0.0373
 5437SOL    HW127770   1.414   2.779   5.677 -0.8301 -0.6695 -1.5572
 5437SOL    HW227771   1.532   2.860   5.636 -0.8699  0.1353 -2.4868
 5438SOL     OW27772   2.325   4.187   6.447 -0.4636  0.3847 -0.0788
 5438SOL    HW127773   2.402   4.131   6.431 -1.2851 -1.6746  3.2490
 5438SOL    HW227774   2.345   4.263   6.392  2.2867 -0.4140 -0.2109
 5439SOL     OW27775   1.965   4.067  10.509  0.1531  0.1267 -0.2469
 5439SOL    HW127776   1.947   4.128  10.580 -1.0301 -0.2329 -0.2335
 5439SOL    HW227777   2.003   4.120  10.439 -0.3547 -0.1324 -0.7211
 5440SOL     OW27778   0.165   3.384   2.631  0.1846 -0.2638  0.0761
 5440SOL    HW127779   0.216   3.303   2.625 -0.1489 -0.3928 -1.1167
 5440SOL    HW227780   0.155   3.402   2.537  1.6438 -1.5717 -0.3412
 5441SOL     OW27781   2.330   2.946  10.939  0.1265  0.6731  0.0708
 5441SOL    HW127782   2.416   2.973  10.973  1.1807 -1.2795 -1.0446
 5441SOL    HW227783   2.268   2.960  11.011 -0.0344 -0.7752  0.2147
 5442SOL     OW27784   4.526   3.626   6.781  0.2696 -0.9878  0.1643
 5442SOL    HW127785   4.529   3.610   6.687  1.0993  1.1557 -0.1615
 5442SOL    HW227786   4.606   3.592   6.821  0.9560 -0.1484 -0.5157
 5443SOL     OW27787   0.577   3.645   2.815  0.7565 -0.0142 -0.1445
 5443SOL    HW127788   0.491   3.606   2.832  0.5153  0.4508 -0.3007
 5443SOL    HW227789   0.561   3.730   2.857  0.5372  0.0077 -0.2692
 5444SOL     OW27790   3.467   0.827  13.648 -0.1650 -0.2721  0.1509
 5444SOL    HW127791   3.387   0.813  13.598 -1.1487 -0.3581  1.7422
 5444SOL    HW227792   3.438   0.912  13.682 -0.6097 -0.7944  1.0783
 5445SOL     OW27793   0.702   1.172   8.468  0.2419  0.1230  0.4161
 5445SOL    HW127794   0.703   1.191   8.561 -0.2258  0.0995  0.4246
 5445SOL    HW227795   0.628   1.230   8.452 -0.4474 -1.0633 -0.7461
 5446SOL     OW27796   1.154   3.298  16.284 -0.3772 -0.5353 -0.1611
 5446SOL    HW127797   1.100   3.221  16.304 -0.4924 -0.6227 -0.8094
 5446SOL    HW227798   1.224   3.258  16.232 -0.3411 -0.4947 -0.1434
 5447SOL     OW27799   3.429   0.580  13.199 -0.1387  0.0905 -0.3624
 5447SOL    HW127800   3.410   0.515  13.266 -0.4989  1.2498  0.6660
 5447SOL    HW227801   3.509   0.547  13.157 -0.7601  0.4746 -1.8671
 5448SOL     OW27802   0.412   4.417   1.989  0.0536 -0.3574 -0.2281
 5448SOL    HW127803   0.324   4.399   2.024  0.7747 -2.3451  0.5459
 5448SOL    HW227804   0.426   4.348   1.925 -1.4361 -1.1115  0.2540
 5449SOL     OW27805   3.007   0.114   2.468 -0.3218  0.3595  0.0080
 5449SOL    HW127806   2.926   0.075   2.501 -0.6849  1.9373  0.9712
 5449SOL    HW227807   2.971   0.186   2.416 -0.4412  1.1683  1.2124
 5450SOL     OW27808   1.326   2.264   8.961  0.0932  0.2560 -0.3185
 5450SOL    HW127809   1.255   2.216   9.003 -0.6729  0.7556 -1.0492
 5450SOL    HW227810   1.276   2.297   8.886 -0.5880  2.0752  0.9434
 5451SOL     OW27811   0.996   3.799  14.537 -0.2342  0.4318  0.1094
 5451SOL    HW127812   1.067   3.788  14.601 -0.1306 -1.7277 -0.3892
 5451SOL    HW227813   1.002   3.710  14.503 -3.1878  0.6064 -0.8539
 5452SOL     OW27814   0.278   0.496   0.394 -0.2006 -0.3649  0.0515
 5452SOL    HW127815   0.328   0.551   0.454  2.9215 -3.4065  0.2572
 5452SOL    HW227816   0.274   0.409   0.433 -0.1309 -0.2058  0.4099
 5453SOL     OW27817   1.428   3.777   4.270  0.5968  0.6078  0.0627
 5453SOL    HW127818   1.416   3.872   4.264  1.8338  0.7364 -0.5011
 5453SOL    HW227819   1.524   3.773   4.262  0.6789 -0.8754  1.8587
 5454SOL     OW27820   0.481   3.669   9.552  0.6352 -0.3142 -0.2244
 5454SOL    HW127821   0.505   3.732   9.621 -0.0608 -0.0318 -0.2434
 5454SOL    HW227822   0.420   3.715   9.494  3.1618  1.7357 -1.2424
 5455SOL     OW27823   4.483   2.399  13.916  0.2224 -0.0874  0.5623
 5455SOL    HW127824   4.527   2.391  13.831  2.1387  1.4632  1.4182
 5455SOL    HW227825   4.472   2.494  13.918  2.7050  0.1526  2.1908
 5456SOL     OW27826   3.294   2.071   0.772 -0.2874 -0.4133  0.3612
 5456SOL    HW127827   3.282   2.028   0.687  1.3014 -1.9396  0.9342
 5456SOL    HW227828   3.201   2.083   0.791 -0.6695 -1.8936 -0.5590
 5457SOL     OW27829   1.427   0.784   5.109  0.0972 -0.0426 -0.3119
 5457SOL    HW127830   1.395   0.848   5.045  0.7224  3.1508  2.5697
 5457SOL    HW227831   1.462   0.707   5.064 -1.2976 -1.3906  0.9117
 5458SOL     OW27832   1.527   2.000   5.715 -0.6277  0.0722 -0.1066
 5458SOL    HW127833   1.468   1.963   5.650 -1.8548  1.4092  0.2633
 5458SOL    HW227834   1.508   1.941   5.788 -3.2864 -0.4489 -1.2071
 5459SOL     OW27835   1.972   4.719   7.207 -0.1383 -0.3717  0.0545
 5459SOL    HW127836   1.977   0.090   7.225 -0.8488 -0.1312 -1.0091
 5459SOL    HW227837   1.926   0.003   7.123  2.3731 -1.0687 -1.3656
 5460SOL     OW27838   1.068   0.408   2.937  0.5070  0.1712 -0.4801
 5460SOL    HW127839   1.085   0.497   2.906  1.2272 -0.3174 -1.4637
 5460SOL    HW227840   1.125   0.353   2.884  0.9582  0.6031 -0.4366
 5461SOL     OW27841   1.949   3.379   6.039 -0.0938 -0.2010  0.7074
 5461SOL    HW127842   1.920   3.334   5.960 -1.1996 -0.3742  1.2246
 5461SOL    HW227843   1.997   3.308   6.080 -1.4104 -1.0852  0.6920
 5462SOL     OW27844   2.944   3.151  13.239  0.1154  0.6701 -0.0340
 5462SOL    HW127845   2.954   3.242  13.209 -1.9303  1.0323  0.3843
 5462SOL    HW227846   2.949   3.165  13.333  1.2441 -0.5046  0.0744
 5463SOL     OW27847   2.780   3.453   5.882 -0.7350 -0.1542 -0.4760
 5463SOL    HW127848   2.841   3.387   5.847 -1.3604 -0.2368 -1.4345
 5463SOL    HW227849   2.813   3.529   5.833 -2.4105  0.1812 -1.0793
 5464SOL     OW27850   0.948   1.205  16.832 -0.3038  0.0021  0.2071
 5464SOL    HW127851   0.919   1.209  16.923 -1.6163 -0.1803 -0.2142
 5464SOL    HW227852   1.042   1.200  16.852  0.1498 -1.3886 -2.2796
 5465SOL     OW27853   0.952   1.918   8.707  0.0871  0.1321 -0.4897
 5465SOL    HW127854   1.045   1.939   8.699  1.0975 -4.8212 -2.0970
 5465SOL    HW227855   0.954   1.837   8.656  1.9755  0.9302 -1.6837
 5466SOL     OW27856   1.404   2.626   9.709 -0.1623 -0.0130  0.1149
 5466SOL    HW127857   1.330   2.676   9.673 -0.1498 -0.2927 -0.2993
 5466SOL    HW227858   1.396   2.649   9.801  0.4625  0.0466  0.1520
 5467SOL     OW27859   1.454   0.148   4.837  0.3619  0.2780  0.1085
 5467SOL    HW127860   1.479   0.067   4.880  1.1244  1.6717  2.2916
 5467SOL    HW227861   1.406   0.101   4.769  1.0092  0.0485 -0.1947
 5468SOL     OW27862   4.132   2.418   2.054 -0.4112  0.1097 -0.3522
 5468SOL    HW127863   4.129   2.512   2.034 -0.8972  0.1331 -0.1626
 5468SOL    HW227864   4.164   2.404   2.143 -2.3025  1.1661  0.5063
 5469SOL     OW27865   2.933   0.823   2.582  0.0420  0.3155 -1.0523
 5469SOL    HW127866   2.895   0.910   2.591 -0.3535  0.0273  0.1034
 5469SOL    HW227867   2.873   0.772   2.637  1.0567 -0.7551 -0.9263
 5470SOL     OW27868   1.554   4.387  13.871  0.6358  0.3319 -0.4127
 5470SOL    HW127869   1.551   4.333  13.792 -0.6906 -0.7387  0.3798
 5470SOL    HW227870   1.503   4.348  13.941  1.1267  0.6209  0.1042
 5471SOL     OW27871   1.463   1.244   4.347 -0.3231 -0.3205  0.6973
 5471SOL    HW127872   1.493   1.325   4.388  0.6929 -1.0265  1.3493
 5471SOL    HW227873   1.536   1.185   4.368  0.1139 -0.5997 -1.5398
 5472SOL     OW27874   2.139   1.011   5.459 -0.1748  0.1252  0.2336
 5472SOL    HW127875   2.082   1.069   5.510  1.0694  1.1199  0.5030
 5472SOL    HW227876   2.180   1.074   5.401 -1.0613  1.0872  0.6601
 5473SOL     OW27877   4.631   1.406   0.279  0.4536 -0.1586  0.4754
 5473SOL    HW127878   4.616   1.327   0.330 -0.2678 -0.7871 -0.7193
 5473SOL    HW227879   4.597   1.480   0.330  1.1911  0.5214 -0.0163
 5474SOL     OW27880   0.156   0.926   1.518  0.1448  0.2492  0.0290
 5474SOL    HW127881   0.183   0.849   1.570 -0.0864  0.1750  0.0396
 5474SOL    HW227882   0.093   0.960   1.582 -0.3206  0.2847 -0.4524
 5475SOL     OW27883   3.197   2.249   4.922 -0.2792 -0.0988  0.0508
 5475SOL    HW127884   3.210   2.336   4.958  1.8626 -0.5068  0.2376
 5475SOL    HW227885   3.105   2.243   4.948 -0.4669 -0.1737 -0.6184
 5476SOL     OW27886   3.383   3.948   5.361  0.6170 -0.1218 -0.0534
 5476SOL    HW127887   3.305   4.003   5.367  1.5770  1.1085  1.1018
 5476SOL    HW227888   3.361   3.884   5.428  0.4184  1.4973  1.4142
 5477SOL     OW27889   4.601   2.006  12.067  0.0520 -0.0674  0.1373
 5477SOL    HW127890   4.651   2.015  12.148  0.2001  0.8558 -0.0562
 5477SOL    HW227891   4.600   2.093  12.028  2.9340 -0.6566 -1.2581
 5478SOL     OW27892   0.329   3.492  10.512 -1.2465  0.1143  0.0773
 5478SOL    HW127893   0.381   3.411  10.519  0.6661  1.4263  1.1062
 5478SOL    HW227894   0.303   3.488  10.420  0.4643 -2.1388 -0.3262
 5479SOL     OW27895   0.471   0.622   1.506  0.6807  0.1428 -0.1049
 5479SOL    HW127896   0.513   0.574   1.578  0.1896 -1.2064 -0.6998
 5479SOL    HW227897   0.553   0.654   1.469 -0.1848  2.4247 -0.0041
 5480SOL     OW27898   1.043   2.895   1.541 -0.0404  0.2575 -0.1105
 5480SOL    HW127899   0.965   2.860   1.586  0.9713 -1.2576  0.4617
 5480SOL    HW227900   1.009   2.892   1.451  1.0637 -1.6752 -0.4522
 5481SOL     OW27901   1.369   2.348   4.680 -0.4164 -0.1159 -0.4071
 5481SOL    HW127902   1.276   2.371   4.684 -0.3505  0.0535  0.1837
 5481SOL    HW227903   1.371   2.255   4.659  2.7122 -0.3546  0.8394
 5482SOL     OW27904   1.347   2.910   6.386 -0.0602  0.5093  0.3560
 5482SOL    HW127905   1.264   2.920   6.341  0.4236 -2.3007 -1.1167
 5482SOL    HW227906   1.411   2.885   6.320  0.3105 -0.4979  1.0914
 5483SOL     OW27907   2.387   3.715   4.674 -0.4494  0.6332 -0.1339
 5483SOL    HW127908   2.334   3.657   4.619  1.7578 -1.2972 -0.2311
 5483SOL    HW227909   2.413   3.664   4.751 -0.1027  1.4635  0.2960
 5484SOL     OW27910   0.288   2.495   1.874  0.0107 -0.1899 -0.0094
 5484SOL    HW127911   0.277   2.400   1.887  0.5719 -0.3605 -0.8126
 5484SOL    HW227912   0.378   2.500   1.906  0.3522 -1.4161 -0.7645
 5485SOL     OW27913   0.237   3.478   7.944 -0.1726  0.1512 -0.2642
 5485SOL    HW127914   0.216   3.564   7.980 -1.3601 -0.2771  0.0881
 5485SOL    HW227915   0.172   3.477   7.873 -0.9544 -0.8112  0.4588
 5486SOL     OW27916   3.466   4.128   6.834 -0.1205  0.4143 -0.1371
 5486SOL    HW127917   3.554   4.090   6.831  0.7978  2.2846  2.3643
 5486SOL    HW227918   3.443   4.126   6.927  0.6587 -1.1115  0.0247
 5487SOL     OW27919   4.717   1.608   1.370  0.1743 -0.0727  0.0022
 5487SOL    HW127920   4.653   1.558   1.421 -0.4924  1.0734  0.2663
 5487SOL    HW227921   0.076   1.568   1.401  0.0286  0.2117  0.7324
 5488SOL     OW27922   1.534   1.005  12.651 -0.1906 -0.2722  0.3997
 5488SOL    HW127923   1.572   1.085  12.688 -1.0702  0.5011 -0.3779
 5488SOL    HW227924   1.449   0.988  12.691  0.5601 -1.1951  1.5761
 5489SOL     OW27925   2.779   4.593  13.635 -0.4920  0.2790  0.4565
 5489SOL    HW127926   2.833   4.656  13.589 -0.2471 -0.3902 -0.1604
 5489SOL    HW227927   2.754   4.548  13.554  0.9055  2.9377 -1.4192
 5490SOL     OW27928   4.597   3.520  12.729 -0.0715 -0.0270 -0.0665
 5490SOL    HW127929   4.675   3.575  12.717  0.1853  0.1448  2.3873
 5490SOL    HW227930   4.542   3.575  12.784 -0.3577  0.5398 -0.9140
 5491SOL     OW27931   0.122   0.947   1.985 -0.5724 -0.5205 -0.7099
 5491SOL    HW127932   0.218   0.947   1.983 -0.5206  2.0838  2.4049
 5491SOL    HW227933   0.109   0.919   2.075  1.3445  0.0237 -0.2588
 5492SOL     OW27934   1.282   1.271  12.957  0.0220 -0.0839 -0.0949
 5492SOL    HW127935   1.301   1.191  12.908 -0.2442 -0.0082 -0.3219
 5492SOL    HW227936   1.260   1.228  13.040  0.5105  0.4175  0.2912
 5493SOL     OW27937   2.284   0.390   8.650 -0.4035 -0.0850  0.2772
 5493SOL    HW127938   2.368   0.394   8.605 -1.7658 -2.4000 -2.5480
 5493SOL    HW227939   2.300   0.323   8.717  0.3426 -0.8024 -0.6072
 5494SOL     OW27940   2.087   3.658   9.543  0.3435  0.1725  0.1411
 5494SOL    HW127941   2.114   3.634   9.631 -1.5157 -0.9913  0.3962
 5494SOL    HW227942   2.150   3.728   9.529  0.4150 -0.1870 -1.4107
 5495SOL     OW27943   3.569   3.732   9.743  0.0921  0.0343 -0.1710
 5495SOL    HW127944   3.654   3.774   9.733 -0.6872  1.3694 -1.1312
 5495SOL    HW227945   3.598   3.641   9.755  1.3147  0.2850 -1.3204
 5496SOL     OW27946   2.042   1.729   4.021 -0.2774  0.1776 -0.1998
 5496SOL    HW127947   1.960   1.737   4.070 -2.3629 -0.5581 -3.5635
 5496SOL    HW227948   2.090   1.677   4.086  1.2056 -1.0481 -2.2704
 5497SOL     OW27949   1.385   3.626  11.482 -0.1436  0.4856  0.5215
 5497SOL    HW127950   1.321   3.686  11.521 -0.4503  0.8245 -0.4853
 5497SOL    HW227951   1.339   3.579  11.412 -0.0989 -1.0665  1.5280
 5498SOL     OW27952   0.708   2.355   3.004  0.2927  0.9989 -0.0718
 5498SOL    HW127953   0.724   2.332   2.912  0.2104  2.9732 -0.5839
 5498SOL    HW227954   0.798   2.384   3.020  0.3709 -0.1283  1.4363
 5499SOL     OW27955   4.516   1.010   8.747  0.1486  0.0962  0.2730
 5499SOL    HW127956   4.519   1.091   8.799  2.4076  0.0828  0.1560
 5499SOL    HW227957   4.608   0.985   8.735  0.5076  1.7892 -0.5341
 5500SOL     OW27958   2.236   3.219   2.278  0.8071 -0.4973  0.0278
 5500SOL    HW127959   2.278   3.272   2.346  2.1419 -1.1351 -0.3055
 5500SOL    HW227960   2.179   3.286   2.242 -1.4986 -3.4377 -1.7787
 5501SOL     OW27961   0.695   1.997   7.135  0.0507 -0.1992  0.9934
 5501SOL    HW127962   0.783   2.000   7.096 -0.1861  2.2492  0.6354
 5501SOL    HW227963   0.699   1.936   7.208 -0.1883 -1.2072  0.1770
 5502SOL     OW27964   2.818   3.371  15.943  0.5123  0.3519 -0.1889
 5502SOL    HW127965   2.864   3.388  16.025  0.8512 -1.5997  0.0247
 5502SOL    HW227966   2.806   3.456  15.900 -0.6232 -0.8073 -2.1522
 5503SOL     OW27967   2.256   4.191  10.654 -0.0774 -0.2248 -0.0533
 5503SOL    HW127968   2.294   4.106  10.637  0.1855 -0.9801  4.3359
 5503SOL    HW227969   2.178   4.179  10.709  0.1738 -0.3639  0.2710
 5504SOL     OW27970   2.054   0.077   7.676 -0.0726  0.0912  0.3989
 5504SOL    HW127971   2.037   0.154   7.622 -1.2493  0.0867  0.7635
 5504SOL    HW227972   2.141   0.085   7.716  0.6805 -0.1814 -1.1948
 5505SOL     OW27973   0.859   0.845   5.203 -0.2374  0.0187  0.4534
 5505SOL    HW127974   0.954   0.854   5.189 -0.3302  2.2922  1.2289
 5505SOL    HW227975   0.854   0.755   5.234 -3.6575 -0.0569 -0.3032
 5506SOL     OW27976   4.623   4.357   2.507 -0.7939 -0.0194 -0.1362
 5506SOL    HW127977   4.661   4.308   2.580  0.8317  0.4128 -0.7081
 5506SOL    HW227978   4.703   4.375   2.459 -0.1832 -1.5638  0.2806
 5507SOL     OW27979   1.560   3.716   4.573  0.3033  0.0558 -0.0800
 5507SOL    HW127980   1.522   3.633   4.602  1.4648  0.4676  2.5738
 5507SOL    HW227981   1.593   3.696   4.485  1.8980 -0.2876  0.6012
 5508SOL     OW27982   4.412   2.929   5.738 -0.9397  0.6244 -0.0600
 5508SOL    HW127983   4.486   2.910   5.681  1.5406  1.2159  3.0017
 5508SOL    HW227984   4.455   2.940   5.823 -1.1083 -0.9451  0.2285
 5509SOL     OW27985   3.329   1.933  13.970  0.0748  0.0527  0.3876
 5509SOL    HW127986   3.249   1.954  13.922  0.8201 -0.0777 -0.9082
 5509SOL    HW227987   3.369   1.855  13.929  0.8606 -0.8142  2.7992
 5510SOL     OW27988   1.777   4.597   7.377 -0.2571 -0.2521  0.3308
 5510SOL    HW127989   1.815   4.616   7.463  0.0246 -3.4791  0.9266
 5510SOL    HW227990   1.850   4.633   7.327 -0.2101 -0.7378  0.0527
 5511SOL     OW27991   3.741   0.378  14.830 -0.6793 -0.2737  0.1491
 5511SOL    HW127992   3.678   0.382  14.758  0.9429 -0.6593 -1.2806
 5511SOL    HW227993   3.681   0.396  14.903 -0.7043 -0.2912  0.1329
 5512SOL     OW27994   1.460   1.074   7.348  0.0824 -0.6984  0.2839
 5512SOL    HW127995   1.511   1.130   7.289 -0.8068 -0.1730  0.0143
 5512SOL    HW227996   1.530   1.053   7.409  0.3119  1.9120  0.9237
 5513SOL     OW27997   0.612   1.736   2.455  0.2439  0.0729  0.1086
 5513SOL    HW127998   0.673   1.737   2.529  0.9399  0.0423 -0.4684
 5513SOL    HW227999   0.540   1.783   2.497  0.9929  2.4054 -1.1766
 5514SOL     OW28000   1.306   1.641  14.221 -0.2233 -0.0821  0.1784
 5514SOL    HW128001   1.381   1.637  14.162  0.2590  1.3342  0.6982
 5514SOL    HW228002   1.264   1.559  14.195  0.6816 -0.1921 -0.9172
 5515SOL     OW28003   0.403   2.303  15.411  0.1205 -0.0418 -0.2584
 5515SOL    HW128004   0.476   2.240  15.409  0.1271  0.0491 -3.3108
 5515SOL    HW228005   0.415   2.338  15.323  2.3567  1.2401  0.5368
 5516SOL     OW28006   0.734   4.302  10.820  0.4411 -0.2030  0.0838
 5516SOL    HW128007   0.674   4.364  10.863 -0.6508 -0.6344 -0.8241
 5516SOL    HW228008   0.680   4.265  10.750 -1.5391  0.3250  1.3216
 5517SOL     OW28009   3.388   3.836   2.589  0.3424  0.9099  0.5521
 5517SOL    HW128010   3.413   3.927   2.572  2.1779  0.1981 -0.5451
 5517SOL    HW228011   3.304   3.856   2.629 -0.0337 -2.0171  1.1928
 5518SOL     OW28012   3.987   3.559   3.780  0.0488 -0.2631 -0.5666
 5518SOL    HW128013   3.961   3.526   3.694  0.3601  0.5931 -0.9916
 5518SOL    HW228014   3.902   3.592   3.808  0.4082  0.0328  0.1964
 5519SOL     OW28015   3.772   3.009   7.912 -0.0941  0.8928 -0.2558
 5519SOL    HW128016   3.798   2.961   7.991 -0.0195  2.7417  0.8349
 5519SOL    HW228017   3.848   3.009   7.854 -1.0171 -0.2926 -1.4685
 5520SOL     OW28018   2.039   2.777  17.281  0.1878 -0.0101 -0.3948
 5520SOL    HW128019   1.964   2.783  17.341  0.4718 -2.5756  0.2131
 5520SOL    HW228020   2.005   2.713  17.219  2.7167 -1.0866 -0.6779
 5521SOL     OW28021   2.881   0.968   8.496 -0.6451  0.2773 -0.4840
 5521SOL    HW128022   2.976   0.972   8.491 -0.7077 -0.0716 -1.9662
 5521SOL    HW228023   2.875   1.045   8.553 -0.1167  1.7436 -2.4226
 5522SOL     OW28024   3.833   3.309   0.850 -0.1209 -0.1893  0.1062
 5522SOL    HW128025   3.893   3.292   0.923  0.0513  0.2292  0.0602
 5522SOL    HW228026   3.856   3.239   0.789 -1.8250 -1.5048  0.9742
 5523SOL     OW28027   1.262   3.505  12.486 -0.4103  0.6895  0.3481
 5523SOL    HW128028   1.291   3.578  12.433 -1.0579  1.2436  0.7627
 5523SOL    HW228029   1.195   3.465  12.431 -1.8323  1.3249  1.6191
 5524SOL     OW28030   0.444   0.327   2.646 -0.0779  0.0536 -0.0993
 5524SOL    HW128031   0.485   0.407   2.679 -1.7230  0.2787  1.4460
 5524SOL    HW228032   0.367   0.339   2.702  0.2074 -0.2403  0.3613
 5525SOL     OW28033   0.554   3.111  11.047  0.4781 -0.5433 -0.5527
 5525SOL    HW128034   0.466   3.122  11.010 -0.2277  0.2110  1.3374
 5525SOL    HW228035   0.602   3.096  10.966  1.2813  0.9146 -0.3508
 5526SOL     OW28036   1.031   1.632   8.143  0.7527  0.7219 -0.4139
 5526SOL    HW128037   1.073   1.555   8.182 -2.9624 -0.0117  2.0552
 5526SOL    HW228038   0.962   1.644   8.207  0.1669  0.7384 -1.0521
 5527SOL     OW28039   2.827   0.819  10.302 -0.3339 -0.4507  0.2336
 5527SOL    HW128040   2.910   0.851  10.268 -0.2423 -2.7582 -1.6750
 5527SOL    HW228041   2.776   0.900  10.306 -0.1991 -0.4703  2.8139
 5528SOL     OW28042   0.014   2.815   9.605  0.4670  0.5988  0.5084
 5528SOL    HW128043   0.008   2.884   9.672 -0.6951  0.8186  0.1888
 5528SOL    HW228044   0.023   2.732   9.652  1.0482  1.2810  1.5922
 5529SOL     OW28045   4.066   4.025   6.896 -0.0751  0.1768  0.4004
 5529SOL    HW128046   4.056   3.998   6.987  0.4798  0.8697  0.6693
 5529SOL    HW228047   4.124   3.957   6.863 -0.5020 -0.9510  2.0280
 5530SOL     OW28048   1.618   1.338  12.613 -0.7822  0.2533 -0.3935
 5530SOL    HW128049   1.587   1.429  12.605 -1.7175 -0.0707 -0.5371
 5530SOL    HW228050   1.596   1.322  12.705  1.8295  2.4099  0.6189
 5531SOL     OW28051   0.451   2.801   8.099 -0.0340  0.1711 -0.1928
 5531SOL    HW128052   0.499   2.852   8.034 -0.7554 -0.1400 -0.9616
 5531SOL    HW228053   0.413   2.730   8.048  0.0350 -0.2407  0.3234
 5532SOL     OW28054   2.991   2.230  16.459  0.1723 -0.4481  0.5570
 5532SOL    HW128055   2.906   2.271  16.477  0.1103  0.3044 -1.4214
 5532SOL    HW228056   3.024   2.279  16.384  1.2676 -1.3613  0.4413
 5533SOL     OW28057   2.357   1.280   8.073  0.1584 -0.0683  0.3060
 5533SOL    HW128058   2.435   1.334   8.057  0.6663 -0.2210  2.3287
 5533SOL    HW228059   2.339   1.245   7.985 -1.1610 -0.1244  0.6026
 5534SOL     OW28060   2.205   3.343   2.537  0.4210 -0.3763  0.1758
 5534SOL    HW128061   2.123   3.391   2.528 -0.1816 -1.0960  1.8521
 5534SOL    HW228062   2.260   3.390   2.600 -1.7658  1.2596  0.8340
 5535SOL     OW28063   3.519   0.912   8.189 -0.3763  0.0959  0.2480
 5535SOL    HW128064   3.493   0.830   8.231 -1.2717  0.9200  1.3007
 5535SOL    HW228065   3.550   0.882   8.104  1.5446  0.6236  0.7592
 5536SOL     OW28066   2.751   1.319   7.807 -0.2979  0.2436 -0.2954
 5536SOL    HW128067   2.754   1.242   7.864 -0.3556 -0.2842 -1.0115
 5536SOL    HW228068   2.843   1.326   7.785  0.0067  1.4590  1.3456
 5537SOL     OW28069   3.007   2.156   5.536  0.1453  0.3135 -0.1769
 5537SOL    HW128070   3.001   2.173   5.442  0.9394 -0.5677 -0.3810
 5537SOL    HW228071   2.929   2.105   5.556  1.7050 -1.6239  0.9053
 5538SOL     OW28072   4.563   0.066   2.120 -0.2628 -0.5406  0.1852
 5538SOL    HW128073   4.610   4.718   2.163 -1.5901 -1.1624  0.6252
 5538SOL    HW228074   4.552   0.121   2.198  3.2593  1.5614 -0.8208
 5539SOL     OW28075   1.508   2.467  17.629 -0.0525  0.0020  0.5042
 5539SOL    HW128076   1.465   2.434   0.015  0.2328  0.9025  1.0474
 5539SOL    HW228077   1.548   2.546  17.665 -0.4391  0.3012  0.2733
 5540SOL     OW28078   4.094   1.136   4.541  0.0879 -0.4869  0.4517
 5540SOL    HW128079   4.103   1.042   4.551 -0.1194 -0.2818  2.6632
 5540SOL    HW228080   4.105   1.156   4.449 -1.2207  1.6751  0.7463
 5541SOL     OW28081   0.497   3.195   4.177  0.1845 -0.0388  0.7506
 5541SOL    HW128082   0.588   3.225   4.173 -0.4032  1.2395 -2.6889
 5541SOL    HW228083   0.460   3.276   4.213  1.0542  0.6924 -0.0205
 5542SOL     OW28084   0.439   4.229  11.612  0.6288  0.3516 -0.1594
 5542SOL    HW128085   0.424   4.272  11.696  0.0322  0.5839 -0.3837
 5542SOL    HW228086   0.480   4.151  11.649 -1.5060 -1.1975 -1.0236
 5543SOL     OW28087   3.856   2.526   5.682 -0.1291  0.1765 -0.3730
 5543SOL    HW128088   3.920   2.506   5.751 -0.2019  0.2870 -0.2719
 5543SOL    HW228089   3.911   2.587   5.633  0.6736 -0.8824 -0.7925
 5544SOL     OW28090   0.612   3.442   3.868  0.5815  0.7108  0.1303
 5544SOL    HW128091   0.531   3.392   3.884  0.7802 -0.1136 -1.5297
 5544SOL    HW228092   0.596   3.507   3.937 -3.5022 -1.3011  1.0833
 5545SOL     OW28093   1.500   0.865  16.400  0.0027  0.3278  0.2483
 5545SOL    HW128094   1.564   0.803  16.435  0.4785  0.3149 -0.6563
 5545SOL    HW228095   1.500   0.928  16.473  1.2330  1.3393 -0.6166
 5546SOL     OW28096   1.960   3.772  16.330 -0.5576  0.3026 -0.0257
 5546SOL    HW128097   1.996   3.686  16.351  1.7527  0.8581 -1.7546
 5546SOL    HW228098   1.876   3.740  16.298 -0.5042 -0.9154  1.0482
 5547SOL     OW28099   0.086   3.487   4.916 -0.0760  0.3482 -0.3411
 5547SOL    HW128100   0.087   3.481   4.821  1.9616  1.4679 -0.4019
 5547SOL    HW228101   0.148   3.421   4.948 -2.0851 -0.3068  2.1724
 5548SOL     OW28102   4.134   2.207  17.293  0.1266 -0.1298  0.4118
 5548SOL    HW128103   4.195   2.265  17.247 -1.1439  0.5775 -0.3910
 5548SOL    HW228104   4.148   2.249  17.378 -1.6802  0.8948  0.2170
 5549SOL     OW28105   2.958   3.836   3.683 -0.2242  0.6792 -0.3557
 5549SOL    HW128106   2.966   3.909   3.745 -1.1445  1.2029 -0.8599
 5549SOL    HW228107   3.052   3.831   3.662  0.2051  0.1594  1.6740
 5550SOL     OW28108   2.338   4.450  10.698  0.3467  0.8878 -0.0074
 5550SOL    HW128109   2.307   4.361  10.682  0.1119  0.6713  1.6608
 5550SOL    HW228110   2.396   4.440  10.773  1.4820  3.1822 -0.5801
 5551SOL     OW28111   4.057   4.705   5.491  0.1427 -0.6645  0.9425
 5551SOL    HW128112   4.099   0.006   5.408 -0.3004  2.8676  1.7306
 5551SOL    HW228113   4.111   4.631   5.518  0.9312 -0.6076 -0.4374
 5552SOL     OW28114   0.620   4.035   1.244 -0.2767 -0.3189 -0.6160
 5552SOL    HW128115   0.606   3.977   1.169  2.2624 -0.8674 -0.6644
 5552SOL    HW228116   0.549   4.006   1.300  0.5310 -0.8202  0.1399
 5553SOL     OW28117   2.134   3.437   0.468 -0.0263  0.2316  0.5235
 5553SOL    HW128118   2.084   3.489   0.405 -2.6439 -0.6169  1.8934
 5553SOL    HW228119   2.066   3.390   0.517  0.2148 -1.3426 -0.6570
 5554SOL     OW28120   0.328   2.028   3.779 -0.0045 -0.5768 -0.1131
 5554SOL    HW128121   0.233   2.038   3.776 -0.2575 -2.3539  1.4869
 5554SOL    HW228122   0.342   1.976   3.700  1.1377 -1.4236  0.6444
 5555SOL     OW28123   2.564   0.290   8.622  0.6871  0.2432  0.0030
 5555SOL    HW128124   2.640   0.244   8.659 -0.7968 -0.9103  1.6357
 5555SOL    HW228125   2.574   0.274   8.528  0.3498  0.7818 -0.1213
 5556SOL     OW28126   1.851   0.772  11.895 -0.3695 -0.1140 -0.3924
 5556SOL    HW128127   1.939   0.764  11.858  0.2024 -1.0215  1.1774
 5556SOL    HW228128   1.848   0.866  11.913 -1.3522 -0.2172 -0.0219
 5557SOL     OW28129   1.860   0.026   0.670  0.1901  0.0994  0.1117
 5557SOL    HW128130   1.781   0.054   0.717  0.8987  1.0083  0.7672
 5557SOL    HW228131   1.931   0.038   0.733  2.1603 -1.0669 -1.9016
 5558SOL     OW28132   2.613   3.562  11.843  0.8086  0.4261 -0.0163
 5558SOL    HW128133   2.707   3.547  11.834  0.6087 -0.7644 -0.1183
 5558SOL    HW228134   2.577   3.477  11.869  1.2402  0.3349  0.2723
 5559SOL     OW28135   0.397   3.785   5.511  0.7482 -0.3683 -0.3991
 5559SOL    HW128136   0.476   3.833   5.536  0.7863 -0.3303 -0.5931
 5559SOL    HW228137   0.390   3.802   5.417 -0.5075  0.0000 -0.2460
 5560SOL     OW28138   2.647   1.775   5.887 -0.3953 -0.4168 -0.1282
 5560SOL    HW128139   2.570   1.792   5.942  1.7181 -0.1087  2.6890
 5560SOL    HW228140   2.633   1.849   5.827 -0.0729  0.3104  0.7051
 5561SOL     OW28141   4.570   0.528   3.417 -0.5837 -0.2282 -0.1270
 5561SOL    HW128142   4.659   0.558   3.398 -1.0068  2.4381  2.1576
 5561SOL    HW228143   4.521   0.584   3.358 -0.6217 -1.3419 -1.1460
 5562SOL     OW28144   1.115   1.386   8.232 -0.7864  0.1852 -0.1629
 5562SOL    HW128145   1.108   1.338   8.315 -1.7011 -2.1284 -1.5853
 5562SOL    HW228146   1.149   1.318   8.173 -1.5714 -0.7994  0.5124
 5563SOL     OW28147   3.618   0.133  16.574  0.4931 -0.1594  0.4662
 5563SOL    HW128148   3.702   0.130  16.528  0.5352  0.3721  0.5127
 5563SOL    HW228149   3.619   0.224  16.603  3.3812  0.0400 -0.2865
 5564SOL     OW28150   4.115   3.909   3.279 -0.0534 -0.0299  0.5437
 5564SOL    HW128151   4.074   3.992   3.300 -0.0254 -0.4746  2.3230
 5564SOL    HW228152   4.111   3.911   3.183  1.8700  3.0451  0.5187
 5565SOL     OW28153   1.121   1.856  13.222  0.0508 -0.0488 -0.6477
 5565SOL    HW128154   1.126   1.880  13.314  0.9905 -2.5389 -0.0649
 5565SOL    HW228155   1.172   1.928  13.185 -0.1001  0.4253  0.0538
 5566SOL     OW28156   1.504   0.995  13.874  0.2333 -0.0221  0.2614
 5566SOL    HW128157   1.508   0.901  13.854  1.5284  0.0322  0.2261
 5566SOL    HW228158   1.598   1.002  13.857  0.1734 -0.2416 -0.1592
 5567SOL     OW28159   3.412   2.250   6.212  0.4011  0.0389 -0.6454
 5567SOL    HW128160   3.325   2.287   6.195  0.0440 -0.4216  0.1582
 5567SOL    HW228161   3.467   2.305   6.156  1.2741 -0.5794 -0.4004
 5568SOL     OW28162   2.324   2.296  14.757 -0.1984 -0.0359 -0.3086
 5568SOL    HW128163   2.293   2.370  14.704  1.4550  0.7946 -0.1326
 5568SOL    HW228164   2.352   2.358  14.825  3.6055  0.9746 -2.7990
 5569SOL     OW28165   3.449   2.371  15.826 -0.0809 -0.4420  0.5487
 5569SOL    HW128166   3.529   2.358  15.776 -0.4347  1.0156 -0.3986
 5569SOL    HW228167   3.400   2.446  15.790  2.5654 -0.3275 -2.7881
 5570SOL     OW28168   2.745   2.940  17.227 -0.0145  0.0377 -0.5237
 5570SOL    HW128169   2.812   2.919  17.162  0.2584  0.1854 -0.2850
 5570SOL    HW228170   2.753   3.034  17.244 -0.8766 -0.2623  1.4480
 5571SOL     OW28171   2.842   4.053   2.756  0.2487  0.2369 -0.3573
 5571SOL    HW128172   2.881   4.067   2.842 -0.7130 -0.3469  0.1774
 5571SOL    HW228173   2.872   4.125   2.700 -3.6895  1.2652 -1.1460
 5572SOL     OW28174   1.595   3.668   2.864  0.4484 -0.2125  0.2092
 5572SOL    HW128175   1.590   3.609   2.789  0.6083  0.0537 -0.0099
 5572SOL    HW228176   1.679   3.712   2.855  0.8510 -0.8534  0.8054
 5573SOL     OW28177   1.455   1.931   2.277  0.4941 -0.2415  0.4613
 5573SOL    HW128178   1.467   2.008   2.333  0.7137 -2.0540  2.8572
 5573SOL    HW228179   1.514   1.947   2.202  0.3423 -1.4478  0.0934
 5574SOL     OW28180   2.656   2.023   2.706  0.0392  0.1194 -0.3787
 5574SOL    HW128181   2.730   1.978   2.665  0.5016  0.2184  0.3658
 5574SOL    HW228182   2.616   2.068   2.631 -0.0395 -0.4886 -0.7065
 5575SOL     OW28183   1.949   0.899  14.332 -0.0833 -0.6886  0.4008
 5575SOL    HW128184   1.908   0.907  14.418 -1.3713 -0.1521 -0.2509
 5575SOL    HW228185   2.032   0.944  14.347  0.2714 -1.0235 -0.5968
 5576SOL     OW28186   4.167   0.695   1.458 -0.1540 -0.4227  0.5264
 5576SOL    HW128187   4.193   0.603   1.448 -0.3928 -0.6489  1.9022
 5576SOL    HW228188   4.229   0.727   1.523 -1.7473 -0.4576  2.0856
 5577SOL     OW28189   1.066   2.956   4.930  0.2358  0.0190 -0.1027
 5577SOL    HW128190   0.988   3.000   4.896  0.9305  0.1735 -1.4747
 5577SOL    HW228191   1.124   3.026   4.960 -0.7836  0.8826 -0.1315
 5578SOL     OW28192   3.219   4.067   0.865 -0.8730  0.1211 -0.3557
 5578SOL    HW128193   3.185   4.068   0.955  0.9279  2.4593  0.2946
 5578SOL    HW228194   3.222   3.973   0.847 -0.7634  0.0204  0.1784
 5579SOL     OW28195   3.209   4.257   5.960  0.1862  0.0183  0.1081
 5579SOL    HW128196   3.283   4.264   6.021 -1.2583  1.5459  1.6800
 5579SOL    HW228197   3.231   4.315   5.887  0.4208  0.4953  0.5556
 5580SOL     OW28198   4.381   3.857   5.331 -0.4982  0.7126  0.0866
 5580SOL    HW128199   4.327   3.912   5.388  0.5797  0.0329  1.7400
 5580SOL    HW228200   4.309   3.807   5.292  0.2114  0.4257 -0.8533
 5581SOL     OW28201   3.746   3.972  10.407  0.2180 -0.0276 -0.4899
 5581SOL    HW128202   3.839   3.964  10.430  0.1982  0.9077 -0.0968
 5581SOL    HW228203   3.724   4.056  10.446 -0.0981 -0.1106 -0.4891
 5582SOL     OW28204   2.603   0.744   7.087  1.5351  0.5810 -0.1069
 5582SOL    HW128205   2.558   0.660   7.090  0.8254  0.8783 -2.8636
 5582SOL    HW228206   2.547   0.796   7.029  0.1612 -1.9425 -1.0141
 5583SOL     OW28207   1.897   0.784  10.619 -0.0736 -0.2830  0.2576
 5583SOL    HW128208   1.824   0.842  10.641 -0.0514 -1.0135  2.2642
 5583SOL    HW228209   1.934   0.828  10.543 -0.4494  0.2893  0.4045
 5584SOL     OW28210   1.460   4.686   5.832  0.0986  0.1497  0.2046
 5584SOL    HW128211   1.543   4.655   5.867  1.2098  0.8567 -1.8511
 5584SOL    HW228212   1.424   4.600   5.808 -1.5200  0.9717 -0.3318
 5585SOL     OW28213   3.154   3.236  16.625  0.1489  0.4349 -1.1593
 5585SOL    HW128214   3.066   3.239  16.587 -0.0824  0.9911 -0.5791
 5585SOL    HW228215   3.157   3.141  16.632 -1.3347  0.2759 -2.7887
 5586SOL     OW28216   4.655   3.424   9.430  0.0429  0.2431 -0.7312
 5586SOL    HW128217   4.722   3.358   9.414 -0.4707 -0.8200  1.4536
 5586SOL    HW228218   4.658   3.485   9.356 -0.4694  1.5387  0.3230
 5587SOL     OW28219   2.705   3.559  15.774  0.3512  0.2338  0.8060
 5587SOL    HW128220   2.711   3.644  15.731  1.0292 -0.9194 -1.4166
 5587SOL    HW228221   2.659   3.505  15.709 -2.5536  4.4075 -0.5947
 5588SOL     OW28222   3.593   3.066   6.669  0.9118 -0.0993  0.7681
 5588SOL    HW128223   3.530   3.079   6.739 -0.5845  2.1354 -0.9767
 5588SOL    HW228224   3.590   3.152   6.626  2.3366 -0.5826 -0.3019
 5589SOL     OW28225   4.186   1.679  12.696 -0.9819  0.3853  0.0619
 5589SOL    HW128226   4.239   1.677  12.776 -2.4445 -1.7420  0.9720
 5589SOL    HW228227   4.208   1.763  12.655 -0.3153 -0.2714 -0.9108
 5590SOL     OW28228   2.841   2.159   3.518 -0.3752  0.8439  0.4748
 5590SOL    HW128229   2.844   2.072   3.479 -1.1203  0.4985  1.1869
 5590SOL    HW228230   2.911   2.151   3.583 -0.9991 -0.9173  0.9155
 5591SOL     OW28231   4.338   2.584   8.600  0.1661 -0.2041  0.4182
 5591SOL    HW128232   4.306   2.495   8.583  3.5856 -1.1288 -1.1454
 5591SOL    HW228233   4.430   2.558   8.603  0.1901  0.1036  2.7880
 5592SOL     OW28234   2.120   0.900   4.275 -0.5399  0.2314 -0.1074
 5592SOL    HW128235   2.143   0.920   4.184 -1.2814  0.1887 -0.3087
 5592SOL    HW228236   2.160   0.815   4.291  3.6431  2.0337 -1.1009
 5593SOL     OW28237   2.475   4.260   6.874  0.2421 -0.2376 -0.0406
 5593SOL    HW128238   2.398   4.304   6.838  1.9586  3.2914  0.6698
 5593SOL    HW228239   2.455   4.168   6.853 -2.9758  0.3932  0.3115
 5594SOL     OW28240   1.841   2.574   4.964 -0.0359  0.1813  0.6527
 5594SOL    HW128241   1.766   2.552   4.908 -0.5756 -1.9866  2.2047
 5594SOL    HW228242   1.905   2.503   4.953 -0.6643 -0.1528 -0.8364
 5595SOL     OW28243   2.800   2.650   7.427 -0.2480  0.0379 -0.1979
 5595SOL    HW128244   2.871   2.586   7.420 -0.8370 -0.5738 -0.5570
 5595SOL    HW228245   2.840   2.699   7.499 -0.9236 -1.5657  1.2498
 5596SOL     OW28246   0.674   3.492   9.488 -0.5807  0.0266  0.6449
 5596SOL    HW128247   0.614   3.551   9.534 -1.4882 -0.0344 -0.4417
 5596SOL    HW228248   0.695   3.445   9.568  0.1644  1.3941  1.2446
 5597SOL     OW28249   3.938   2.049   6.552 -0.1969  0.5583 -0.0059
 5597SOL    HW128250   3.932   2.140   6.522  0.1967  0.5978  0.0315
 5597SOL    HW228251   3.966   2.055   6.643 -0.3488  3.0740 -0.1251
 5598SOL     OW28252   3.395   1.857   7.477 -0.0906 -0.5389  0.4942
 5598SOL    HW128253   3.405   1.843   7.572  1.3791 -1.2276  0.2386
 5598SOL    HW228254   3.361   1.775   7.442 -1.0793 -0.5262  1.4168
 5599SOL     OW28255   0.929   1.426   5.563 -0.2013  0.0701 -0.0525
 5599SOL    HW128256   0.880   1.501   5.596  2.1424  1.4557  0.3024
 5599SOL    HW228257   0.983   1.403   5.638 -0.0361 -1.8824 -0.7633
 5600SOL     OW28258   4.605   2.860   5.544 -0.3836  0.3776  0.9162
 5600SOL    HW128259   4.588   2.928   5.479  2.7981 -0.1740 -0.4482
 5600SOL    HW228260   4.685   2.897   5.582 -0.7445  0.6009  1.4625
 5601SOL     OW28261   3.124   4.412   6.327  0.3266  0.2565  0.1371
 5601SOL    HW128262   3.142   4.506   6.333 -0.3891  0.1197  4.2541
 5601SOL    HW228263   3.187   4.392   6.258  2.3622  0.2209  1.9829
 5602SOL     OW28264   0.805   0.283   7.930 -0.2772  0.7333 -0.4378
 5602SOL    HW128265   0.804   0.356   7.992  0.3494  1.6699 -1.5257
 5602SOL    HW228266   0.799   0.332   7.848 -0.2937  1.0236 -0.2617
 5603SOL     OW28267   1.639   2.213  16.051 -0.0806  0.4270 -0.0516
 5603SOL    HW128268   1.607   2.124  16.035  1.8605 -0.2997  0.2391
 5603SOL    HW228269   1.615   2.254  15.967  2.5884  0.6686 -0.6840
 5604SOL     OW28270   1.023   0.246  15.881 -0.0724 -0.2480 -0.4007
 5604SOL    HW128271   1.058   0.208  15.801 -1.3210  0.0478 -1.0942
 5604SOL    HW228272   1.005   0.169  15.933 -0.3953 -0.2552 -0.5238
 5605SOL     OW28273   2.969   3.221   5.977  0.6770 -0.0909  0.2416
 5605SOL    HW128274   3.064   3.215   5.978  0.6612 -0.3826  0.1834
 5605SOL    HW228275   2.949   3.222   6.070  0.0375 -1.2788  0.1161
 5606SOL     OW28276   0.228   3.574   7.376  0.0925  0.2776  0.0904
 5606SOL    HW128277   0.311   3.532   7.350 -0.0934  0.3068 -0.5492
 5606SOL    HW228278   0.250   3.618   7.458  0.1253  1.3287 -0.4873
 5607SOL     OW28279   2.575   0.206   4.172  0.8697  0.5415  0.3344
 5607SOL    HW128280   2.495   0.203   4.225  0.4733  2.6240 -0.1457
 5607SOL    HW228281   2.572   0.122   4.127  1.0705  0.7626 -0.0885
 5608SOL     OW28282   3.869   0.907  13.876 -1.0876  0.1494  0.5911
 5608SOL    HW128283   3.919   0.976  13.918 -0.3125 -0.2986  0.4023
 5608SOL    HW228284   3.805   0.963  13.831  0.7799  1.2768 -0.6380
 5609SOL     OW28285   4.341   1.952   5.415  0.1217 -0.4492 -0.3642
 5609SOL    HW128286   4.380   2.029   5.458  0.5172 -0.7942 -0.1031
 5609SOL    HW228287   4.347   1.986   5.326 -0.6028 -0.5890 -0.4643
 5610SOL     OW28288   2.877   1.653  11.314 -0.6247  0.3129 -0.4009
 5610SOL    HW128289   2.912   1.675  11.227  2.5426 -1.4545  0.4521
 5610SOL    HW228290   2.944   1.699  11.364 -0.3876  3.5599 -3.6538
 5611SOL     OW28291   0.324   1.649   3.505  0.1416 -0.5834 -0.0848
 5611SOL    HW128292   0.379   1.638   3.583  1.9090  0.7141 -1.1310
 5611SOL    HW228293   0.327   1.745   3.497  2.6841 -0.7626 -1.2875
 5612SOL     OW28294   3.911   0.072  15.921  0.6000  0.4241  0.2067
 5612SOL    HW128295   3.989   0.125  15.907 -0.0564  1.5548  0.8980
 5612SOL    HW228296   3.837   0.131  15.907  0.7041  0.6904  0.7897
 5613SOL     OW28297   0.407   1.867   5.404  0.6454 -0.2284  0.3090
 5613SOL    HW128298   0.401   1.938   5.340  1.0310 -1.0938 -0.6957
 5613SOL    HW228299   0.501   1.861   5.421  0.9118 -0.0922 -1.1464
 5614SOL     OW28300   1.865   0.448  11.970 -0.8247  0.2706 -0.1174
 5614SOL    HW128301   1.781   0.417  12.004 -0.0153 -0.0870  1.5543
 5614SOL    HW228302   1.867   0.426  11.877  1.2450 -3.0636  0.7167
 5615SOL     OW28303   0.045   1.316  10.083  0.2927  0.6230  0.0248
 5615SOL    HW128304   0.102   1.242  10.061 -0.2514  0.3513 -0.4775
 5615SOL    HW228305   0.066   1.372  10.008 -0.3628  2.7486  1.4455
 5616SOL     OW28306   2.294   4.494  14.801  0.0824 -0.8610  0.1413
 5616SOL    HW128307   2.342   4.573  14.778  0.1453 -0.6332  1.0409
 5616SOL    HW228308   2.361   4.430  14.778  0.1924 -0.0791 -1.6263
 5617SOL     OW28309   1.428   3.172  16.895 -0.2275 -0.3753  0.7359
 5617SOL    HW128310   1.493   3.149  16.829 -1.9469 -0.3806 -0.9726
 5617SOL    HW228311   1.477   3.151  16.974 -1.8561 -2.1125  1.2887
 5618SOL     OW28312   3.855   0.681   5.270 -0.0152 -0.3578 -0.1066
 5618SOL    HW128313   3.842   0.726   5.353  2.3828  0.3467 -0.1201
 5618SOL    HW228314   3.923   0.622   5.302  0.7863  0.3799 -0.4730
 5619SOL     OW28315   0.841   3.029   4.025 -0.2676 -0.2756  0.0226
 5619SOL    HW128316   0.777   2.977   3.976 -1.1564  2.6240 -1.8488
 5619SOL    HW228317   0.869   2.950   4.073 -0.8340 -1.2921 -1.3165
 5620SOL     OW28318   3.395   1.316   5.043  0.7508 -0.8145  0.1178
 5620SOL    HW128319   3.349   1.302   5.126 -1.0576  4.2538 -0.0466
 5620SOL    HW228320   3.379   1.229   5.007 -0.4060 -1.5860  2.4773
 5621SOL     OW28321   4.224   4.296  16.463 -0.5089 -0.7735 -0.3904
 5621SOL    HW128322   4.186   4.358  16.401 -0.0659 -0.2002 -0.0930
 5621SOL    HW228323   4.310   4.334  16.483 -0.3256 -1.0500 -0.6645
 5622SOL     OW28324   4.706   3.784   5.881 -0.4848  0.1669  0.1894
 5622SOL    HW128325   4.677   3.794   5.790 -1.0864  1.1103  0.4820
 5622SOL    HW228326   0.077   3.798   5.869 -0.7070  0.7991 -0.8321
 5623SOL     OW28327   0.640   1.050   1.383  0.1515  0.0081  0.6461
 5623SOL    HW128328   0.682   0.971   1.416  0.5541  0.0447  0.2207
 5623SOL    HW228329   0.552   1.045   1.420 -1.2964  3.8871 -2.2605
 5624SOL     OW28330   3.565   4.433   9.447  0.5262 -0.1656 -0.7132
 5624SOL    HW128331   3.486   4.479   9.418 -0.0140 -0.8453 -0.3500
 5624SOL    HW228332   3.621   4.421   9.371  1.8192 -1.7169  0.4689
 5625SOL     OW28333   3.241   0.481   4.118  0.0701 -0.3965 -0.3055
 5625SOL    HW128334   3.206   0.556   4.166  0.9630 -0.8920  1.1226
 5625SOL    HW228335   3.239   0.401   4.171 -0.8356 -0.3241 -0.2310
 5626SOL     OW28336   3.436   3.466   8.799 -0.4260 -0.8146 -0.4916
 5626SOL    HW128337   3.518   3.515   8.791 -0.9135  0.3121  1.6264
 5626SOL    HW228338   3.380   3.530   8.755 -0.6805 -0.2837  0.6256
 5627SOL     OW28339   2.282   0.676   1.954  0.7280 -0.1918 -0.4433
 5627SOL    HW128340   2.276   0.682   2.050  0.3289 -2.0789 -0.3594
 5627SOL    HW228341   2.307   0.584   1.946  2.5500  0.3903 -1.2726
 5628SOL     OW28342   3.288   2.573   2.089  0.2431  0.7329 -0.4929
 5628SOL    HW128343   3.235   2.650   2.110  1.2267  1.8167 -1.9375
 5628SOL    HW228344   3.374   2.604   2.118  0.5255  0.8725 -1.4415
 5629SOL     OW28345   3.073   4.022  14.706 -0.2155 -0.0134  0.2375
 5629SOL    HW128346   3.101   3.969  14.631  0.7454  0.6059  0.1635
 5629SOL    HW228347   3.004   4.076  14.666  0.3331  0.7684  0.3606
 5630SOL     OW28348   2.884   2.679   6.210 -0.4416 -0.6369  0.2234
 5630SOL    HW128349   2.875   2.697   6.117  0.3192 -0.6891  0.1351
 5630SOL    HW228350   2.965   2.726   6.231  0.0590 -0.8805 -1.1368
 5631SOL     OW28351   0.980   1.074   7.465 -0.4423 -0.1217  0.3864
 5631SOL    HW128352   1.053   1.115   7.510 -0.7887  0.7804  0.1530
 5631SOL    HW228353   1.027   1.040   7.389 -0.4813  0.0366  0.2902
 5632SOL     OW28354   3.468   0.160   8.812  0.1966  0.2011 -0.3804
 5632SOL    HW128355   3.479   0.236   8.756 -1.8201  1.3009  0.6938
 5632SOL    HW228356   3.377   0.171   8.842  0.3224  1.8697 -0.6467
 5633SOL     OW28357   2.071   0.460  15.736  0.1322  0.0559  0.2995
 5633SOL    HW128358   2.094   0.389  15.675  0.1223 -0.4199  0.8497
 5633SOL    HW228359   1.985   0.420  15.751  0.5453 -0.1011  2.1895
 5634SOL     OW28360   3.246   4.660  15.788  0.5801 -0.3231 -0.3402
 5634SOL    HW128361   3.305   4.631  15.719 -1.1190 -2.2304 -0.9996
 5634SOL    HW228362   3.220   0.024  15.755  1.0378  0.5989  1.7064
 5635SOL     OW28363   0.547   2.870   6.144  0.0498  0.2670 -0.0857
 5635SOL    HW128364   0.454   2.862   6.125  0.3493 -1.4628 -0.7926
 5635SOL    HW228365   0.566   2.960   6.118 -1.3135  0.1950 -1.3672
 5636SOL     OW28366   2.603   3.683   9.303 -0.1383  0.6572 -0.2239
 5636SOL    HW128367   2.604   3.611   9.366 -0.1222  0.0021 -0.9756
 5636SOL    HW228368   2.608   3.765   9.353 -2.4338  1.1656 -0.8315
 5637SOL     OW28369   3.236   2.729  13.254  0.0840 -0.3894  0.2609
 5637SOL    HW128370   3.268   2.657  13.309  0.8110  0.3362  0.7816
 5637SOL    HW228371   3.206   2.792  13.319 -2.7250 -0.8416 -0.5693
 5638SOL     OW28372   1.618   0.694   7.405 -0.2297 -0.2398  0.8599
 5638SOL    HW128373   1.671   0.694   7.485  2.4717  1.0826 -0.9251
 5638SOL    HW228374   1.660   0.628   7.350 -1.6615 -1.2124  0.9507
 5639SOL     OW28375   2.346   0.060   5.557 -0.4856  0.5635 -0.2112
 5639SOL    HW128376   2.406   0.098   5.621  0.0881  0.7490 -0.8650
 5639SOL    HW228377   2.268   0.040   5.609  1.5668 -4.0213  1.0359
 5640SOL     OW28378   0.289   0.934  12.703 -0.0277 -0.5202 -0.3385
 5640SOL    HW128379   0.322   1.017  12.668 -0.9066 -0.5072 -1.1471
 5640SOL    HW228380   0.227   0.905  12.636 -1.3332  0.6924  0.3325
 5641SOL     OW28381   1.480   4.133   1.860 -0.0786  0.0818 -0.0175
 5641SOL    HW128382   1.538   4.203   1.891 -1.2147  3.1087 -4.5448
 5641SOL    HW228383   1.438   4.093   1.935  0.7124  0.0942  0.4324
 5642SOL     OW28384   4.253   2.212  16.736  0.4882  0.5841 -0.1985
 5642SOL    HW128385   4.314   2.278  16.771  1.6033  0.7016 -2.3416
 5642SOL    HW228386   4.310   2.136  16.746  1.4723  1.2085 -1.0525
 5643SOL     OW28387   2.458   3.163   2.097 -0.0884  0.5389  0.5697
 5643SOL    HW128388   2.380   3.171   2.152  0.0466  0.3353  0.7901
 5643SOL    HW228389   2.442   3.226   2.027 -2.9050  0.4440  1.1249
 5644SOL     OW28390   1.445   1.344  13.892 -0.5210  0.4133 -0.1058
 5644SOL    HW128391   1.474   1.387  13.973 -0.4860  2.2340 -1.0697
 5644SOL    HW228392   1.520   1.334  13.833 -0.3895 -2.3304  0.5607
 5645SOL     OW28393   2.481   3.205   8.123 -0.0658  0.5207  0.2986
 5645SOL    HW128394   2.524   3.289   8.112  0.4937 -0.0066 -1.6147
 5645SOL    HW228395   2.425   3.214   8.201  0.2620  0.1734  0.5754
 5646SOL     OW28396   2.303   0.578   3.969  0.7542  0.2774 -0.5656
 5646SOL    HW128397   2.241   0.546   3.903  0.3522  1.4332 -0.7487
 5646SOL    HW228398   2.365   0.506   3.961 -0.4186 -0.7664 -0.1863
 5647SOL     OW28399   4.401   0.140  11.225  0.4790 -0.3021 -0.4988
 5647SOL    HW128400   4.431   0.223  11.262 -1.7982  1.1561 -1.9267
 5647SOL    HW228401   4.391   0.160  11.132  0.9134 -1.7764 -0.8603
 5648SOL     OW28402   2.068   0.739   8.509  0.1937 -0.4935  0.0586
 5648SOL    HW128403   2.120   0.750   8.589  3.9795  1.5185 -2.6546
 5648SOL    HW228404   2.137   0.721   8.445  0.0648  0.0644 -0.2415
 5649SOL     OW28405   4.704   2.630  10.168  0.0185  0.0548 -0.9637
 5649SOL    HW128406   4.680   2.646  10.077 -0.1535 -0.8384 -1.0772
 5649SOL    HW228407   4.687   2.536  10.180 -0.9122  0.4562  0.8664
 5650SOL     OW28408   0.448   3.882   4.089 -0.9639  0.6820  0.0146
 5650SOL    HW128409   0.421   3.920   4.005  0.4086 -1.2923 -1.3272
 5650SOL    HW228410   0.414   3.942   4.155  0.2625 -0.4689  1.7202
 5651SOL     OW28411   0.821   3.405   2.136 -0.4922  0.2429  0.1051
 5651SOL    HW128412   0.816   3.320   2.179 -0.1556  0.6400  0.9317
 5651SOL    HW228413   0.757   3.393   2.067 -0.1099 -0.7205 -0.0739
 5652SOL     OW28414   0.088   1.886   0.872  0.8569  0.2224  0.2331
 5652SOL    HW128415   0.101   1.956   0.936  3.4057  0.7064 -0.7878
 5652SOL    HW228416   0.118   1.932   0.793  0.4175 -2.8507 -1.6960
 5653SOL     OW28417   2.446   4.223   1.346  0.0680  0.2194 -1.2602
 5653SOL    HW128418   2.508   4.168   1.393 -2.2661 -1.9105 -0.6427
 5653SOL    HW228419   2.392   4.253   1.419 -0.0480 -1.3835 -0.6842
 5654SOL     OW28420   0.834   0.070   1.884 -0.0050  0.0043 -0.1285
 5654SOL    HW128421   0.926   0.072   1.911 -0.1516 -1.3644  0.4854
 5654SOL    HW228422   0.795   0.020   1.955 -0.3144 -0.3265 -0.5349
 5655SOL     OW28423   0.415   4.460  14.431  0.0021 -0.0868  0.6448
 5655SOL    HW128424   0.501   4.462  14.473 -0.7549  2.1130  2.1035
 5655SOL    HW228425   0.449   4.478  14.344 -0.8563  1.9302  0.7321
 5656SOL     OW28426   3.964   3.656   4.125 -0.1124 -0.4497  0.6410
 5656SOL    HW128427   3.912   3.642   4.205  0.0369 -0.7678  0.6835
 5656SOL    HW228428   4.006   3.570   4.121 -0.8968 -0.9071  2.2617
 5657SOL     OW28429   3.328   0.234  10.145 -0.3542  0.0431  0.2631
 5657SOL    HW128430   3.338   0.203  10.235 -1.8785 -1.3961 -0.0715
 5657SOL    HW228431   3.400   0.194  10.095 -0.4524 -0.1589  0.2858
 5658SOL     OW28432   1.842   2.520  10.465  0.6341 -0.1912 -1.1890
 5658SOL    HW128433   1.761   2.469  10.455  0.1777 -0.0245  1.6466
 5658SOL    HW228434   1.881   2.518  10.378 -0.3218  1.5121 -1.6464
 5659SOL     OW28435   0.210   0.512  16.456  0.2891  0.0826 -0.1402
 5659SOL    HW128436   0.137   0.455  16.481 -0.6039  1.0435 -0.5343
 5659SOL    HW228437   0.250   0.533  16.541  1.3881 -0.4239 -0.5435
 5660SOL     OW28438   4.478   3.093  12.053 -0.0474 -0.0678 -0.3275
 5660SOL    HW128439   4.557   3.090  12.000 -0.2968 -2.6825 -0.5596
 5660SOL    HW228440   4.499   3.089  12.146 -1.1456 -1.5767 -0.1337
 5661SOL     OW28441   1.345   3.782   6.052  0.8586  0.2552 -0.5738
 5661SOL    HW128442   1.343   3.814   6.142 -1.0112  2.2789 -1.3560
 5661SOL    HW228443   1.421   3.725   6.041  2.2351  2.0895 -0.5357
 5662SOL     OW28444   1.322   3.813  13.608  0.1807  0.1226 -0.1454
 5662SOL    HW128445   1.252   3.831  13.670 -0.1847  0.9630 -0.8061
 5662SOL    HW228446   1.299   3.726  13.576  0.2433  0.2186 -0.4533
 5663SOL     OW28447   2.027   2.945   1.011 -0.0843 -0.6397 -0.0031
 5663SOL    HW128448   2.106   2.998   0.998 -1.6825  1.7326 -0.0989
 5663SOL    HW228449   2.011   2.949   1.105  0.4107  0.7330  0.0241
 5664SOL     OW28450   2.977   0.212   3.125  0.5196  0.1803 -0.4666
 5664SOL    HW128451   2.900   0.175   3.168 -0.3991  0.7072 -1.6478
 5664SOL    HW228452   2.942   0.248   3.043  0.0960 -0.5197 -0.5949
 5665SOL     OW28453   0.297   0.385  11.356 -0.1181 -0.2818 -0.0511
 5665SOL    HW128454   0.289   0.385  11.261  0.8029  2.5977 -0.1153
 5665SOL    HW228455   0.378   0.435  11.365  0.6868 -1.7276  0.8012
 5666SOL     OW28456   2.099   1.544   7.100 -0.5171  0.1371 -0.3181
 5666SOL    HW128457   2.009   1.514   7.094 -1.6023  3.1939  0.6838
 5666SOL    HW228458   2.089   1.636   7.072  0.2420 -0.1296 -1.5050
 5667SOL     OW28459   2.416   1.031   0.049  0.1436  0.4734  0.3687
 5667SOL    HW128460   2.337   0.984   0.023 -0.4490  1.1547  0.9292
 5667SOL    HW228461   2.417   1.112  17.691 -0.6228  0.8590  0.9803
 5668SOL     OW28462   1.745   4.606   3.485  0.2646 -0.0006  0.1209
 5668SOL    HW128463   1.753   4.634   3.394  1.1210 -0.4148  0.0706
 5668SOL    HW228464   1.669   4.655   3.518 -0.6118 -0.4057 -1.2712
 5669SOL     OW28465   1.687   4.030  14.412 -0.2512  0.1529 -0.1044
 5669SOL    HW128466   1.712   4.055  14.323 -0.8091 -1.0826 -0.6081
 5669SOL    HW228467   1.613   4.088  14.430 -0.5795 -0.9196  2.0294
 5670SOL     OW28468   2.091   0.790   1.815  0.3045 -0.1381  0.2445
 5670SOL    HW128469   2.166   0.760   1.866  0.1849  1.0294  1.0893
 5670SOL    HW228470   2.032   0.814   1.886 -1.1840 -1.1941 -0.6353
 5671SOL     OW28471   2.754   1.462   2.312  0.5460  0.2931 -0.2873
 5671SOL    HW128472   2.689   1.470   2.242 -1.3269  1.4540  1.5965
 5671SOL    HW228473   2.834   1.469   2.259 -0.0833  2.1926 -0.9786
 5672SOL     OW28474   0.777   0.171   3.317  0.9424 -0.2175  0.8428
 5672SOL    HW128475   0.856   0.175   3.263  0.5385 -1.3436  0.1805
 5672SOL    HW228476   0.753   0.261   3.294 -0.2340 -0.4801  1.0773
 5673SOL     OW28477   4.168   0.498   0.921  0.6081  0.6120  0.6005
 5673SOL    HW128478   4.154   0.540   1.006  1.9496 -0.9265  1.5871
 5673SOL    HW228479   4.161   0.406   0.947 -0.6516  0.3056 -0.8342
 5674SOL     OW28480   3.189   0.468  16.891  0.2595  0.3576 -0.0617
 5674SOL    HW128481   3.153   0.421  16.966  2.1081  0.7963  1.0900
 5674SOL    HW228482   3.246   0.399  16.856 -0.8696 -0.3560 -0.4992
 5675SOL     OW28483   1.181   2.397   6.616 -0.0910  0.4392 -0.1396
 5675SOL    HW128484   1.201   2.346   6.538  0.3079  1.1421 -0.4981
 5675SOL    HW228485   1.126   2.332   6.660  1.5588 -0.3000  0.8259
 5676SOL     OW28486   0.590   1.769   5.752  0.0871 -0.0659 -0.5171
 5676SOL    HW128487   0.611   1.811   5.835 -0.4861  0.3001 -0.5592
 5676SOL    HW228488   0.514   1.819   5.722  0.3783  0.4026 -0.4877
 5677SOL     OW28489   3.793   0.402   9.225  0.6097 -0.0685  0.0219
 5677SOL    HW128490   3.888   0.407   9.234  0.4334  2.7692  0.4681
 5677SOL    HW228491   3.778   0.474   9.164 -0.7889 -0.7664 -0.4505
 5678SOL     OW28492   0.912   2.754   8.692  0.1760 -0.0806  0.5284
 5678SOL    HW128493   0.886   2.792   8.609  0.2405 -1.2513 -0.0278
 5678SOL    HW228494   0.955   2.674   8.664  0.0721  0.1075 -0.1573
 5679SOL     OW28495   4.283   3.947  12.372  0.0931 -0.0969  0.3724
 5679SOL    HW128496   4.189   3.958  12.356  0.2983 -0.4244 -1.1054
 5679SOL    HW228497   4.297   4.026  12.425  0.1804  0.3371 -0.2833
 5680SOL     OW28498   0.254   1.818   1.328 -0.1880 -0.5884  0.3818
 5680SOL    HW128499   0.277   1.742   1.380 -0.3248 -1.6453 -1.1113
 5680SOL    HW228500   0.330   1.876   1.338 -0.1598 -0.4540 -0.5524
 5681SOL     OW28501   2.446   2.360   8.182 -0.0933 -0.1624 -0.0776
 5681SOL    HW128502   2.520   2.324   8.134  1.4226  2.9843 -0.0726
 5681SOL    HW228503   2.429   2.293   8.249  0.4697 -0.1531  0.0705
 5682SOL     OW28504   1.522   0.105  16.024  0.3178 -0.6356  0.4219
 5682SOL    HW128505   1.438   0.061  16.016  1.0819 -2.1859  0.9025
 5682SOL    HW228506   1.490   0.188  16.058 -1.1461 -0.3648 -1.6225
 5683SOL     OW28507   4.712   2.772   2.975 -0.0424 -0.3352  0.1471
 5683SOL    HW128508   4.634   2.799   3.025 -0.1479  0.4750 -0.4583
 5683SOL    HW228509   0.029   2.711   3.038  1.1032  0.9534  0.6857
 5684SOL     OW28510   2.222   3.336   7.345  0.3753 -0.3961  0.3362
 5684SOL    HW128511   2.307   3.377   7.363  0.5958 -0.0185 -1.5244
 5684SOL    HW228512   2.173   3.417   7.335  0.2352 -0.4460  0.6286
 5685SOL     OW28513   2.546   2.014   7.608  0.2518 -0.8619  0.1120
 5685SOL    HW128514   2.607   1.941   7.621  0.0391 -0.9546  0.6042
 5685SOL    HW228515   2.495   2.020   7.689  0.1849 -0.4207  0.0355
 5686SOL     OW28516   2.705   3.036  16.497  0.3344  0.5657  0.3807
 5686SOL    HW128517   2.619   2.996  16.504  0.1967  1.1072  1.9594
 5686SOL    HW228518   2.760   2.962  16.523  0.1347 -0.6687 -2.7564
 5687SOL     OW28519   1.370   0.419   6.590 -0.0272  0.4250 -0.2820
 5687SOL    HW128520   1.414   0.463   6.517  0.2638  0.0382 -0.3394
 5687SOL    HW228521   1.307   0.484   6.621  0.0579  0.8930 -1.0961
 5688SOL     OW28522   4.689   0.388  16.471 -0.2921  0.0507  0.0069
 5688SOL    HW128523   4.652   0.338  16.543  2.0069 -0.2543  0.9491
 5688SOL    HW228524   4.629   0.369  16.398 -0.8851 -1.1899  0.8285
 5689SOL     OW28525   2.469   3.668   6.720  0.0997  0.1035 -0.3754
 5689SOL    HW128526   2.500   3.690   6.808  0.5134  0.4228 -0.5977
 5689SOL    HW228527   2.540   3.606   6.705 -1.0458 -0.7882 -2.0854
 5690SOL     OW28528   3.756   3.569  11.997  0.1909  0.1033  0.0143
 5690SOL    HW128529   3.701   3.621  11.939  0.0241  0.7765  0.7828
 5690SOL    HW228530   3.841   3.613  12.000  0.4358 -0.1958 -2.7536
 5691SOL     OW28531   4.197   1.337   4.277 -0.3533  0.1452  0.0329
 5691SOL    HW128532   4.288   1.326   4.306 -0.8154  0.4190  1.5990
 5691SOL    HW228533   4.166   1.254   4.240 -0.2261 -0.5786  1.5312
 5692SOL     OW28534   0.939   1.725   0.815 -0.2127 -0.4398 -0.1584
 5692SOL    HW128535   0.882   1.652   0.837  1.6329 -1.7040  0.4598
 5692SOL    HW228536   0.916   1.794   0.877  2.0665  0.2093 -0.0110
 5693SOL     OW28537   2.767   2.348  15.008 -0.3461  0.1295 -0.0761
 5693SOL    HW128538   2.789   2.435  15.042  1.0673  0.0367 -0.7427
 5693SOL    HW228539   2.834   2.297  15.053 -1.9454 -1.9482 -0.0682
 5694SOL     OW28540   1.553   0.274   4.000  0.1889  0.0427 -0.1273
 5694SOL    HW128541   1.529   0.353   3.952  2.6540 -0.9901 -3.0794
 5694SOL    HW228542   1.481   0.271   4.062  0.7273  1.2998  0.5588
 5695SOL     OW28543   0.057   4.054  10.061 -0.1648  0.4495 -0.5945
 5695SOL    HW128544   0.030   3.968  10.093 -2.8982  2.2207  1.8391
 5695SOL    HW228545   0.141   4.062  10.107 -0.6884 -2.2679  0.8594
 5696SOL     OW28546   4.367   2.507   0.235  0.2281 -0.2199  0.4637
 5696SOL    HW128547   4.428   2.551   0.295 -0.5965 -0.6311  1.6057
 5696SOL    HW228548   4.310   2.474   0.304 -3.0768  0.3728 -1.9698
 5697SOL     OW28549   1.809   0.293   5.936 -0.2765 -0.0755  0.6517
 5697SOL    HW128550   1.845   0.334   5.857  0.1875 -1.7099  0.0117
 5697SOL    HW228551   1.743   0.241   5.890 -0.2504 -1.8974  2.6651
 5698SOL     OW28552   1.520   4.002   4.537  0.3266  0.4262 -0.5074
 5698SOL    HW128553   1.534   3.908   4.539  1.9798  0.6786  0.3464
 5698SOL    HW228554   1.492   4.012   4.446  1.1656  0.9496 -0.7054
 5699SOL     OW28555   2.588   4.212   2.891  0.0336 -0.5672  0.0460
 5699SOL    HW128556   2.681   4.206   2.913  0.7616  1.6960 -2.5467
 5699SOL    HW228557   2.589   4.211   2.795 -5.1045  0.5303 -0.0257
 5700SOL     OW28558   1.625   4.254   1.641 -0.6549  0.7055  0.0792
 5700SOL    HW128559   1.575   4.216   1.714  2.3102 -0.9788  1.2388
 5700SOL    HW228560   1.551   4.283   1.588 -0.5453  1.6749  0.4502
 5701SOL     OW28561   0.022   2.056   2.588  0.0296 -0.5507 -0.1582
 5701SOL    HW128562   4.663   2.044   2.636 -0.2068  1.2067 -0.1252
 5701SOL    HW228563   4.714   2.082   2.501 -0.4697 -0.0771  0.1611
 5702SOL     OW28564   2.551   3.610   8.582 -0.0537  0.4295  0.3536
 5702SOL    HW128565   2.624   3.666   8.608  0.4324 -0.2807  0.5186
 5702SOL    HW228566   2.590   3.542   8.528  0.6611  1.9623 -1.0502
 5703SOL     OW28567   1.877   1.680   4.877  0.2985  0.0537  0.1462
 5703SOL    HW128568   1.831   1.616   4.931 -0.7205 -0.8073 -1.7361
 5703SOL    HW228569   1.801   1.699   4.821  0.7875 -0.1875 -0.6015
 5704SOL     OW28570   0.174   4.231   8.022 -0.4041 -0.3289 -0.2499
 5704SOL    HW128571   0.089   4.239   8.066  0.1151 -0.6504  0.7925
 5704SOL    HW228572   0.143   4.184   7.944  1.7950 -1.7833 -0.2313
 5705SOL     OW28573   4.625   1.377  12.261  0.3700 -0.1694  0.2479
 5705SOL    HW128574   4.545   1.364  12.311  0.0159 -1.8821 -0.7362
 5705SOL    HW228575   4.606   1.335  12.177  1.1264  0.8252 -0.4275
 5706SOL     OW28576   0.457   3.032   8.946 -0.1558 -0.0227  0.4807
 5706SOL    HW128577   0.443   2.943   8.913 -2.1603  0.1735  0.7956
 5706SOL    HW228578   0.528   3.053   8.885  0.1075  0.1992  0.8615
 5707SOL     OW28579   3.938   1.759   2.208 -0.3597 -0.5512  0.2325
 5707SOL    HW128580   3.926   1.817   2.133 -2.0268  0.3493  1.1950
 5707SOL    HW228581   4.024   1.784   2.241 -0.8484  2.1389 -0.5644
 5708SOL     OW28582   4.308   3.682  11.116  0.0543  0.0671 -0.3792
 5708SOL    HW128583   4.303   3.682  11.021  0.5438 -1.7482 -0.4197
 5708SOL    HW228584   4.216   3.699  11.137  0.5358  1.6355  0.4384
 5709SOL     OW28585   2.840   2.736   7.164 -0.1422 -0.2188  0.0844
 5709SOL    HW128586   2.747   2.759   7.154  0.0880  0.2434 -1.0494
 5709SOL    HW228587   2.842   2.704   7.254  1.3011  0.5243  0.3187
 5710SOL     OW28588   0.031   0.926  16.513  0.1063 -0.2987  0.1591
 5710SOL    HW128589   0.015   0.837  16.544  0.9487 -0.2267  0.8149
 5710SOL    HW228590   0.093   0.937  16.585  0.5502  0.0725 -0.2787
 5711SOL     OW28591   0.839   0.107   8.511 -0.0873  0.3662  0.2538
 5711SOL    HW128592   0.873   0.022   8.483 -0.2120  0.6898 -0.8898
 5711SOL    HW228593   0.925   0.150   8.509 -0.3771  0.9261 -0.5520
 5712SOL     OW28594   4.718   1.525  12.957  0.1064 -0.1576  0.3090
 5712SOL    HW128595   4.699   1.510  12.864 -0.9968 -0.0317  0.5100
 5712SOL    HW228596   0.090   1.512  12.958 -0.0062 -0.9217  0.7177
 5713SOL     OW28597   0.499   2.727   2.426 -0.1489 -0.4923 -0.3482
 5713SOL    HW128598   0.534   2.665   2.489  0.4106 -1.3485 -1.5039
 5713SOL    HW228599   0.568   2.747   2.363  0.5072 -0.2729  0.4373
 5714SOL     OW28600   1.663   3.822  11.429 -0.5124 -0.4363 -0.3906
 5714SOL    HW128601   1.601   3.883  11.390 -1.6410 -0.8156  0.7987
 5714SOL    HW228602   1.740   3.823  11.373  1.0929  0.4092  1.7942
 5715SOL     OW28603   2.854   2.171   4.558  0.2495  0.7990 -0.1631
 5715SOL    HW128604   2.833   2.236   4.625 -2.0011 -1.0109  0.8732
 5715SOL    HW228605   2.779   2.172   4.498 -0.8828 -0.3511  1.2371
 5716SOL     OW28606   0.025   3.119  17.604 -0.1784  0.0269  0.8628
 5716SOL    HW128607   4.707   3.151  17.685  2.3323  1.3280  1.6114
 5716SOL    HW228608   0.088   3.191  17.602  2.1478 -2.1025 -2.1218
 5717SOL     OW28609   2.044   2.268  10.877  0.7294 -0.2947 -0.0772
 5717SOL    HW128610   2.124   2.317  10.896 -0.3682  0.7519  1.8545
 5717SOL    HW228611   2.083   2.240  10.794  1.6185 -1.4187  0.7208
 5718SOL     OW28612   0.434   4.033   8.393  0.7367 -0.1152 -0.1715
 5718SOL    HW128613   0.507   4.086   8.360  0.9812 -0.1291  0.3602
 5718SOL    HW228614   0.463   3.945   8.371 -2.4027 -1.2871  0.3445
 5719SOL     OW28615   1.158   2.719  13.230  0.3187  0.7676  0.3982
 5719SOL    HW128616   1.194   2.631  13.227  0.9259  1.0652 -1.0638
 5719SOL    HW228617   1.236   2.773  13.214  1.8317 -1.6181 -0.2413
 5720SOL     OW28618   0.963   1.168   2.566 -0.0051  0.1203  1.1209
 5720SOL    HW128619   1.034   1.228   2.546  0.4440 -0.2964  1.4672
 5720SOL    HW228620   0.936   1.161   2.474  1.5765  0.8339  0.6180
 5721SOL     OW28621   0.125   0.053   6.492 -0.2461  0.1341 -0.2390
 5721SOL    HW128622   0.194   4.716   6.465 -0.7950 -0.6709  0.1130
 5721SOL    HW228623   0.109   0.086   6.404  2.4796 -0.0024 -0.7839
 5722SOL     OW28624   3.303   2.045   4.094  0.0417 -0.1528 -0.2513
 5722SOL    HW128625   3.208   2.057   4.099  0.1356  0.9612 -1.1539
 5722SOL    HW228626   3.309   1.982   4.166 -0.5999 -0.7603 -0.7424
 5723SOL     OW28627   2.812   1.964  13.876  0.0064 -0.2446 -0.1908
 5723SOL    HW128628   2.821   2.034  13.812  0.9060  1.0431  1.3508
 5723SOL    HW228629   2.733   1.927  13.838  0.6292 -3.5093  1.6793
 5724SOL     OW28630   0.283   0.144  12.602 -0.4795  0.1631  0.2360
 5724SOL    HW128631   0.280   0.236  12.626 -2.2019  1.0158 -3.2624
 5724SOL    HW228632   0.342   0.140  12.527 -0.5189  1.9870  0.1044
 5725SOL     OW28633   3.063   1.772   2.643  0.1048  0.4133 -0.2026
 5725SOL    HW128634   3.137   1.774   2.583  0.2298  0.7266 -0.0384
 5725SOL    HW228635   2.991   1.763   2.581 -0.7046 -2.5271  1.1561
 5726SOL     OW28636   3.772   3.975   2.537 -0.0660 -0.1462  0.1145
 5726SOL    HW128637   3.798   3.976   2.445  0.3717 -1.8508  0.2204
 5726SOL    HW228638   3.698   4.036   2.533 -0.9635 -1.1637  1.2097
 5727SOL     OW28639   0.613   2.591   2.618 -0.1132 -0.1259  0.5004
 5727SOL    HW128640   0.563   2.509   2.617 -2.4482  1.3023 -0.1385
 5727SOL    HW228641   0.678   2.569   2.685  0.2052  3.0182  1.2296
 5728SOL     OW28642   2.287   2.910   3.830  0.3507 -0.2449 -0.1583
 5728SOL    HW128643   2.240   2.937   3.909 -0.2944  1.0878 -1.0028
 5728SOL    HW228644   2.216   2.854   3.799 -0.5753 -0.4424  2.2846
 5729SOL     OW28645   2.363   2.021  11.634 -0.3317 -0.0588  0.0702
 5729SOL    HW128646   2.444   2.071  11.634  0.0316 -0.6417 -1.2470
 5729SOL    HW228647   2.306   2.076  11.579 -0.9432 -0.4309  0.3358
 5730SOL     OW28648   4.045   1.937   8.175  0.2749 -0.0500  0.0866
 5730SOL    HW128649   4.091   1.853   8.162 -0.9113 -0.0124 -4.3568
 5730SOL    HW228650   3.963   1.899   8.143  0.0840 -0.5758  1.1907
 5731SOL     OW28651   1.232   1.483   9.190 -0.5622 -0.0037  0.0076
 5731SOL    HW128652   1.302   1.444   9.138 -0.4025  0.7124 -0.3150
 5731SOL    HW228653   1.255   1.574   9.169  1.1089 -0.1529  1.2563
 5732SOL     OW28654   3.725   4.034  13.307 -0.4311 -0.1208 -0.4870
 5732SOL    HW128655   3.741   3.944  13.276  0.4404 -0.7687  1.8447
 5732SOL    HW228656   3.657   4.015  13.372  0.6863  0.2453  0.7723
 5733SOL     OW28657   4.624   0.660   2.915  0.0839  0.2835  0.0276
 5733SOL    HW128658   4.704   0.639   2.867 -0.2920 -0.2065 -0.3938
 5733SOL    HW228659   4.616   0.587   2.976 -1.4668 -1.9249 -2.7631
 5734SOL     OW28660   4.320   3.080   4.988 -0.2264 -0.5152 -0.3660
 5734SOL    HW128661   4.289   3.084   4.897 -0.3622  2.0131 -0.2272
 5734SOL    HW228662   4.362   3.166   4.997  1.7705 -1.6759  1.3062
 5735SOL     OW28663   1.977   4.123  12.323  0.0717 -0.6330 -0.2165
 5735SOL    HW128664   1.926   4.071  12.384  2.8162 -1.4350  1.3619
 5735SOL    HW228665   1.930   4.206  12.317 -1.0683 -1.2924 -0.4244
 5736SOL     OW28666   0.883   3.174   0.228  0.1453  0.0284  0.0315
 5736SOL    HW128667   0.871   3.210   0.315  0.0417  1.1032 -0.4367
 5736SOL    HW228668   0.978   3.174   0.218  0.1541  0.2800  0.1178
 5737SOL     OW28669   2.740   2.653   5.382  0.4843  0.2302 -0.3154
 5737SOL    HW128670   2.780   2.579   5.428 -0.6762  0.5473  1.1986
 5737SOL    HW228671   2.650   2.651   5.416  0.1571  1.4293 -1.1135
 5738SOL     OW28672   3.635   1.242   7.324  0.4115 -0.8219  0.0659
 5738SOL    HW128673   3.677   1.324   7.296 -0.2370 -0.5313 -0.0708
 5738SOL    HW228674   3.617   1.203   7.238  1.8527  1.5724 -1.3257
 5739SOL     OW28675   1.950   3.425   5.044  0.1865 -0.0940 -0.1263
 5739SOL    HW128676   1.999   3.420   4.962 -1.1173 -1.6108 -0.8094
 5739SOL    HW228677   1.877   3.479   5.016  0.1157  0.6195  1.4025
 5740SOL     OW28678   0.917   1.655   5.117 -0.1682 -0.1021  0.0720
 5740SOL    HW128679   0.828   1.661   5.152 -0.3346  0.9583 -0.5394
 5740SOL    HW228680   0.961   1.598   5.180  0.6229  0.2969 -0.1187
 5741SOL     OW28681   1.592   2.650   4.284 -0.1690  0.2486  0.5986
 5741SOL    HW128682   1.593   2.729   4.230 -0.6746  1.2737  2.0914
 5741SOL    HW228683   1.674   2.664   4.332  0.6982  1.3106 -1.2087
 5742SOL     OW28684   2.598   0.503   0.916  0.7750 -0.4675 -0.7848
 5742SOL    HW128685   2.559   0.452   0.987  3.6773 -1.4644  0.0930
 5742SOL    HW228686   2.595   0.441   0.844  2.3572 -1.6221  0.1296
 5743SOL     OW28687   0.900   3.020  15.966  0.0225 -0.3028  0.1974
 5743SOL    HW128688   0.863   3.108  15.955 -0.7836 -0.5325  1.0559
 5743SOL    HW228689   0.987   3.053  15.944  0.3648 -1.3106  0.0674
 5744SOL     OW28690   1.229   2.382  10.581  0.2981 -0.2282 -0.0181
 5744SOL    HW128691   1.208   2.467  10.542  0.5577  0.7445  1.9814
 5744SOL    HW228692   1.315   2.400  10.619 -0.6157  1.2121  1.3577
 5745SOL     OW28693   4.446   0.068   2.686 -0.0824 -0.2356  0.1389
 5745SOL    HW128694   4.397   0.018   2.751  1.0858 -0.7352  0.6413
 5745SOL    HW228695   4.461   4.715   2.630 -2.9470 -0.8058  0.1589
 5746SOL     OW28696   3.242   3.573  15.631 -0.2362 -0.1255 -0.2158
 5746SOL    HW128697   3.326   3.612  15.654 -0.2235 -0.8794  1.0630
 5746SOL    HW228698   3.181   3.646  15.630 -0.5323 -0.3937 -1.1946
 5747SOL     OW28699   0.498   3.856   1.057  0.0751 -0.2467 -0.5982
 5747SOL    HW128700   0.472   3.797   0.986 -1.8562 -1.4566  1.1251
 5747SOL    HW228701   0.471   3.942   1.025 -1.5031 -0.0191  1.3619
 5748SOL     OW28702   2.054   2.585   1.756  0.4694  0.2586  0.4350
 5748SOL    HW128703   2.079   2.660   1.702 -1.1364 -0.5124 -1.3511
 5748SOL    HW228704   1.979   2.625   1.799 -0.0890 -0.0626 -0.2473
 5749SOL     OW28705   0.594   1.699  11.576  0.0635  0.0933  0.1565
 5749SOL    HW128706   0.504   1.730  11.577 -0.6268 -1.9065 -0.5606
 5749SOL    HW228707   0.623   1.777  11.528  1.3846  0.2891  1.2283
 5750SOL     OW28708   1.453   4.538   1.915  0.0865  0.5245 -0.3622
 5750SOL    HW128709   1.421   4.505   1.832 -0.6479  1.7425 -0.5605
 5750SOL    HW228710   1.369   4.550   1.960  0.5177 -0.1191  0.6384
 5751SOL     OW28711   0.364   3.324   8.954  0.0199 -0.1365  0.0245
 5751SOL    HW128712   0.360   3.229   8.961  2.3885 -0.1214  1.4676
 5751SOL    HW228713   0.311   3.338   8.875  0.2088  2.3029  0.3324
 5752SOL     OW28714   1.499   1.793  13.099 -0.1950 -0.3803  0.0123
 5752SOL    HW128715   1.539   1.713  13.136  2.8616  1.1670  0.0509
 5752SOL    HW228716   1.565   1.860  13.118 -2.4558  1.5072  1.1158
 5753SOL     OW28717   0.660   2.621   8.683 -0.5146  0.3460  0.0593
 5753SOL    HW128718   0.723   2.691   8.700 -0.7960  0.1129  2.0501
 5753SOL    HW228719   0.580   2.667   8.657 -0.6495  0.8817  1.4215
 5754SOL     OW28720   3.942   0.546  14.764  0.1099  0.1427  0.3646
 5754SOL    HW128721   3.894   0.572  14.685 -1.9776 -0.8549  1.3132
 5754SOL    HW228722   3.882   0.482  14.802 -0.7063  0.2602 -0.7068
 5755SOL     OW28723   0.818   2.414  10.399 -0.3647  0.3126 -0.6816
 5755SOL    HW128724   0.796   2.481  10.464 -2.0681 -2.2605  1.3703
 5755SOL    HW228725   0.754   2.351  10.433  0.3344 -0.8227 -1.4546
 5756SOL     OW28726   1.369   1.618   2.596 -0.1028 -0.7740 -0.6820
 5756SOL    HW128727   1.438   1.632   2.661  1.3549  0.1523 -2.4240
 5756SOL    HW228728   1.425   1.582   2.528  0.4424  2.4121 -1.9538
 5757SOL     OW28729   3.679   4.335  13.160  0.2095 -0.0748 -0.2590
 5757SOL    HW128730   3.731   4.327  13.240  0.3269  0.5562 -0.2736
 5757SOL    HW228731   3.738   4.293  13.097 -0.1438  0.3771 -0.8919
 5758SOL     OW28732   2.218   0.954   5.805 -0.1333  0.6611  0.2823
 5758SOL    HW128733   2.218   1.050   5.810  0.6048  0.8239 -3.0915
 5758SOL    HW228734   2.201   0.930   5.896 -0.3470 -1.0502 -0.2161
 5759SOL     OW28735   4.630   3.386  10.428  0.2502 -0.5133  0.4869
 5759SOL    HW128736   4.692   3.315  10.442  1.1505 -0.1379 -1.5122
 5759SOL    HW228737   4.641   3.457  10.492  0.5604 -0.6495  0.5866
 5760SOL     OW28738   0.704   2.945   3.379  0.7809 -0.3311 -0.5612
 5760SOL    HW128739   0.742   3.020   3.425 -0.0457 -0.0952 -0.2573
 5760SOL    HW228740   0.695   2.993   3.297  1.7144  1.1584  0.2256
 5761SOL     OW28741   3.584   3.765   2.921 -0.5749 -0.4040  0.3406
 5761SOL    HW128742   3.674   3.781   2.951 -0.2693 -0.6863 -0.4212
 5761SOL    HW228743   3.567   3.848   2.878 -0.7531 -0.7429 -0.2474
 5762SOL     OW28744   2.876   3.001   8.874 -0.7353  0.2455  0.1872
 5762SOL    HW128745   2.874   3.000   8.970 -0.7299 -3.2233  0.1637
 5762SOL    HW228746   2.788   3.033   8.856 -1.2210 -1.2279 -0.0663
 5763SOL     OW28747   3.166   0.071   7.963  0.6539  0.1066  0.1188
 5763SOL    HW128748   3.139   4.718   7.911 -3.3891  0.3548  1.8754
 5763SOL    HW228749   3.212   0.028   8.036 -1.7343 -0.8799  1.0435
 5764SOL     OW28750   1.750   2.041  15.431  0.1221  0.0764 -0.0630
 5764SOL    HW128751   1.745   1.946  15.434 -0.9104  0.1792  1.0337
 5764SOL    HW228752   1.659   2.060  15.409 -0.3419  0.3765  2.1418
 5765SOL     OW28753   3.844   1.298   7.573  0.1269  0.6421 -0.0362
 5765SOL    HW128754   3.766   1.256   7.609 -0.2673  0.2964 -1.2801
 5765SOL    HW228755   3.816   1.305   7.482 -0.8003  1.9327  0.3695
 5766SOL     OW28756   1.980   2.789  17.624 -0.4284 -0.4794  0.1391
 5766SOL    HW128757   1.945   2.811   0.019  1.0148  2.7034 -0.0958
 5766SOL    HW228758   2.072   2.815  17.632 -1.7478  4.0997  0.6325
 5767SOL     OW28759   3.710   4.570   1.103 -0.1983  0.5241  0.3814
 5767SOL    HW128760   3.661   4.490   1.085 -0.0269  0.0820  1.9268
 5767SOL    HW228761   3.688   4.620   1.024 -2.8608  0.0162  0.7897
 5768SOL     OW28762   2.645   0.275  13.552 -0.3085  0.7211 -0.2166
 5768SOL    HW128763   2.636   0.368  13.570  2.6752  1.4675 -2.6499
 5768SOL    HW228764   2.602   0.249  13.471  0.7381  3.0759 -1.5136
 5769SOL     OW28765   3.452   0.666   0.619 -0.0232  0.2500 -0.4032
 5769SOL    HW128766   3.535   0.711   0.603 -1.1146  2.3355 -0.2876
 5769SOL    HW228767   3.407   0.742   0.658  2.0247  1.1501  0.1959
 5770SOL     OW28768   0.424   4.554   7.807 -0.3629  0.4815 -0.0462
 5770SOL    HW128769   0.368   4.552   7.885 -0.4270 -1.1736 -0.1371
 5770SOL    HW228770   0.491   4.610   7.847  0.1398 -1.9729  2.5530
 5771SOL     OW28771   2.774   3.427   5.226 -0.5712  0.1466 -0.3863
 5771SOL    HW128772   2.815   3.344   5.199 -1.9620 -0.9062  0.7746
 5771SOL    HW228773   2.837   3.459   5.290  1.5757 -1.1994 -1.8028
 5772SOL     OW28774   0.746   2.327   7.004 -0.3961  0.0496  0.0193
 5772SOL    HW128775   0.681   2.265   6.971 -1.4071  0.6213  0.9358
 5772SOL    HW228776   0.703   2.405   7.039  0.1137 -0.5341  1.9447
 5773SOL     OW28777   1.564   3.059   1.531 -0.2329 -0.6423 -0.3536
 5773SOL    HW128778   1.486   3.102   1.568  1.3182  1.2959  0.6639
 5773SOL    HW228779   1.535   2.969   1.516 -1.4163 -0.4939  0.9759
 5774SOL     OW28780   2.224   2.454   0.610 -0.0440 -0.0810 -0.5127
 5774SOL    HW128781   2.177   2.376   0.639 -2.9985  1.8966  0.1090
 5774SOL    HW228782   2.159   2.485   0.546  1.0777  1.6125 -0.8528
 5775SOL     OW28783   0.230   1.429   6.714  0.3045  0.1886  0.4273
 5775SOL    HW128784   0.204   1.355   6.769  1.2764 -0.1407  0.4521
 5775SOL    HW228785   0.167   1.417   6.643 -0.2106 -0.7341  1.0349
 5776SOL     OW28786   3.293   1.252   3.516  0.1184 -0.1701 -0.4000
 5776SOL    HW128787   3.248   1.329   3.483 -0.7856  0.0170  1.2807
 5776SOL    HW228788   3.366   1.250   3.453 -0.0251  1.8206 -0.6241
 5777SOL     OW28789   2.315   2.447  14.527 -0.1460 -0.6541 -0.5375
 5777SOL    HW128790   2.308   2.387  14.453 -3.3053 -2.1670  0.9933
 5777SOL    HW228791   2.286   2.529  14.488  0.4574 -0.6306 -0.9383
 5778SOL     OW28792   2.725   2.127  17.569 -0.1386 -0.5631  0.4767
 5778SOL    HW128793   2.666   2.193  17.606  0.8348 -0.7356  2.3337
 5778SOL    HW228794   2.803   2.165  17.609 -0.1785  0.2040 -0.1768
 5779SOL     OW28795   1.631   1.389   2.575 -0.1277  0.4017  0.5595
 5779SOL    HW128796   1.676   1.306   2.555  0.7011  0.8419  0.5811
 5779SOL    HW228797   1.641   1.393   2.670 -2.0419  0.7246  0.7336
 5780SOL     OW28798   1.915   2.825   4.870  0.1130 -0.2904 -0.5254
 5780SOL    HW128799   1.837   2.798   4.822  1.4050  0.0455 -2.8578
 5780SOL    HW228800   1.928   2.751   4.929  0.7369  0.7813  0.6843
 5781SOL     OW28801   2.530   2.442  10.576 -0.0259  0.6646 -0.2392
 5781SOL    HW128802   2.530   2.357  10.533  1.1786  0.1824  0.7191
 5781SOL    HW228803   2.482   2.494  10.511 -1.2750  1.1378  1.0728
 5782SOL     OW28804   2.353   0.891  16.855 -0.0726  0.5417  0.2671
 5782SOL    HW128805   2.273   0.848  16.885 -0.0077 -0.0554 -0.4036
 5782SOL    HW228806   2.382   0.953  16.922 -0.7287  0.4848  0.6034
 5783SOL     OW28807   2.618   3.554  17.604  0.4314  0.3280 -0.0361
 5783SOL    HW128808   2.605   3.630  17.662 -0.1768 -0.3252  0.6733
 5783SOL    HW228809   2.552   3.572  17.537  0.7234 -0.5165 -0.5525
 5784SOL     OW28810   2.187   1.121  12.385 -0.0548 -0.0149 -0.0500
 5784SOL    HW128811   2.227   1.034  12.391  1.2184  0.7369  2.5227
 5784SOL    HW228812   2.095   1.105  12.365 -0.1521 -1.6603  1.6413
 5785SOL     OW28813   2.233   4.178   3.206 -0.0788 -0.2150  0.1950
 5785SOL    HW128814   2.207   4.206   3.119  0.8045 -0.5028 -0.1588
 5785SOL    HW228815   2.263   4.088   3.191  2.4057  0.4195  1.2941
 5786SOL     OW28816   3.159   0.988   4.602 -0.0940 -0.1367 -0.2296
 5786SOL    HW128817   3.197   1.019   4.520  1.1617 -2.4244 -0.5099
 5786SOL    HW228818   3.067   0.985   4.576  0.3250  0.7191 -1.7980
 5787SOL     OW28819   1.295   2.605   1.270  0.1580  0.3002 -0.5135
 5787SOL    HW128820   1.302   2.681   1.213  0.7567 -0.8812 -2.0408
 5787SOL    HW228821   1.307   2.529   1.212 -2.1863 -0.0530 -0.5326
 5788SOL     OW28822   1.675   4.077   4.939  0.0895  0.7875 -0.7312
 5788SOL    HW128823   1.717   4.161   4.956  0.7533  0.3851 -0.3754
 5788SOL    HW228824   1.730   4.027   4.999  0.3603  2.5750  0.4960
 5789SOL     OW28825   3.019   3.855   6.021  0.1323  0.0031 -0.1733
 5789SOL    HW128826   3.025   3.942   6.061  0.0920  0.3458 -0.9189
 5789SOL    HW228827   2.974   3.803   6.087 -0.4993  1.3594  0.4743
 5790SOL     OW28828   3.140   1.018   5.652  0.1435 -0.7863 -0.1672
 5790SOL    HW128829   3.061   1.059   5.617 -0.6772 -0.4252  2.1020
 5790SOL    HW228830   3.107   0.964   5.724  1.9723 -1.2433  0.3097
 5791SOL     OW28831   0.892   4.445   5.723  0.1441  0.1468 -0.6874
 5791SOL    HW128832   0.932   4.518   5.677  0.6871  0.1264 -0.2416
 5791SOL    HW228833   0.854   4.493   5.797 -0.9327 -0.0884 -1.0890
 5792SOL     OW28834   2.994   4.291   6.684 -0.1371  0.0355  0.1274
 5792SOL    HW128835   3.019   4.365   6.628  2.2775 -0.6708  0.2773
 5792SOL    HW228836   2.916   4.317   6.735 -0.2904 -1.1342  0.4727
 5793SOL     OW28837   3.169   4.201   2.594 -0.4953  0.0327  0.2691
 5793SOL    HW128838   3.198   4.287   2.565 -0.2806 -0.2381 -0.3103
 5793SOL    HW228839   3.179   4.219   2.688  0.2864 -1.3865  0.4465
 5794SOL     OW28840   2.279   1.729  12.876  0.0157  0.8631 -0.1841
 5794SOL    HW128841   2.291   1.635  12.890 -0.9996  1.2853  3.4168
 5794SOL    HW228842   2.357   1.755  12.827  0.1472  0.5988 -0.1179
 5795SOL     OW28843   4.091   3.395  10.747 -0.3227 -0.0025  0.0821
 5795SOL    HW128844   4.053   3.317  10.705 -1.5647 -0.3442  1.8413
 5795SOL    HW228845   4.173   3.406  10.700  1.1675 -1.0519  2.4356
 5796SOL     OW28846   1.725   2.544   8.448  0.8270  0.2218 -0.0382
 5796SOL    HW128847   1.813   2.508   8.439  0.8946  0.8616 -1.8768
 5796SOL    HW228848   1.718   2.551   8.543 -2.6014  2.3798 -0.4618
 5797SOL     OW28849   0.550   1.470   4.743 -0.6783  0.2908  0.1455
 5797SOL    HW128850   0.469   1.420   4.742 -0.5142  0.0200  0.3448
 5797SOL    HW228851   0.587   1.457   4.830 -0.4849 -0.9020 -0.1093
 5798SOL     OW28852   1.904   0.374   6.173 -0.4758 -0.0746  0.0737
 5798SOL    HW128853   1.829   0.426   6.201  0.3591 -0.3120  2.7200
 5798SOL    HW228854   1.856   0.332   6.101 -0.3404  1.8801 -1.1389
 5799SOL     OW28855   4.148   3.088  17.381 -0.0678  0.1878  0.5561
 5799SOL    HW128856   4.138   3.010  17.436  0.3718 -0.8877 -0.8732
 5799SOL    HW228857   4.059   3.098  17.347 -0.6078  0.9985  2.2799
 5800SOL     OW28858   4.608   2.176   6.941 -0.4554 -0.0398  0.2115
 5800SOL    HW128859   4.700   2.166   6.967 -0.7241 -0.1499  1.1184
 5800SOL    HW228860   4.608   2.266   6.907  0.7620 -0.4201 -0.7855
 5801SOL     OW28861   3.218   0.299   8.787  0.6781  0.1811  0.2781
 5801SOL    HW128862   3.138   0.347   8.808 -0.3072 -0.0933 -2.7387
 5801SOL    HW228863   3.271   0.368   8.746  2.0923 -0.3200  1.3075
 5802SOL     OW28864   1.418   1.459   2.033  0.1264  0.4065  0.3271
 5802SOL    HW128865   1.392   1.545   2.066  1.8503  0.8747  0.4230
 5802SOL    HW228866   1.511   1.467   2.050 -0.1814  2.4304  1.0833
 5803SOL     OW28867   0.609   1.659  16.873  0.2768 -0.4107 -0.6363
 5803SOL    HW128868   0.618   1.620  16.787 -0.5958 -1.3738 -0.2861
 5803SOL    HW228869   0.542   1.724  16.850  0.4988  0.3781  0.9350
 5804SOL     OW28870   3.909   4.230   3.715 -0.0385  0.2334  0.1014
 5804SOL    HW128871   3.974   4.271   3.658 -1.3528 -0.2850 -1.7724
 5804SOL    HW228872   3.898   4.289   3.789 -2.2592 -0.6604  0.4867
 5805SOL     OW28873   2.453   4.320  15.017  0.1775  0.0769  0.1091
 5805SOL    HW128874   2.358   4.329  15.014  0.5626  3.3510 -1.9252
 5805SOL    HW228875   2.465   4.227  14.995  0.3727  0.0470  0.3442
 5806SOL     OW28876   0.195   4.074   5.016  0.1789 -0.1492  0.1592
 5806SOL    HW128877   0.133   4.142   4.989 -0.4567 -0.0199  1.9665
 5806SOL    HW228878   0.256   4.128   5.066 -0.2704  3.4496 -3.2133
 5807SOL     OW28879   2.372   0.434   4.454  0.0727 -0.0963 -0.1908
 5807SOL    HW128880   2.300   0.397   4.504 -0.4463  1.3433  0.1072
 5807SOL    HW228881   2.363   0.391   4.369  0.4753 -1.6713  0.5527
 5808SOL     OW28882   1.485   3.475   1.127 -0.3605 -0.1917 -0.2250
 5808SOL    HW128883   1.445   3.458   1.212 -0.6572  0.2833 -0.2653
 5808SOL    HW228884   1.473   3.570   1.122 -2.0136 -0.3983  0.0809
 5809SOL     OW28885   1.306   0.165   7.897  0.6194  0.4105 -0.5427
 5809SOL    HW128886   1.381   0.156   7.955  1.1286  0.6232 -1.1686
 5809SOL    HW228887   1.247   0.190   7.968  0.3268 -3.4981  0.5550
 5810SOL     OW28888   2.146   2.480   8.189 -0.2564  0.0657 -0.6674
 5810SOL    HW128889   2.183   2.548   8.245 -0.9014 -1.8410  2.0412
 5810SOL    HW228890   2.220   2.459   8.132  0.4222  2.0737 -0.5295
 5811SOL     OW28891   2.187   2.293   5.292  0.0957  0.0404  0.1231
 5811SOL    HW128892   2.204   2.314   5.384  0.2686  1.0330 -0.1260
 5811SOL    HW228893   2.148   2.208   5.309  0.3785 -0.0139  0.4990
 5812SOL     OW28894   3.394   3.870   7.980 -0.4767  0.3082  0.4197
 5812SOL    HW128895   3.469   3.908   8.025  1.7310  0.3751 -3.3431
 5812SOL    HW228896   3.417   3.884   7.889  0.8393  2.6976  1.1226
 5813SOL     OW28897   1.799   2.674   2.707 -0.0016 -0.6362 -0.0138
 5813SOL    HW128898   1.850   2.755   2.699  0.8964 -1.1662  0.2632
 5813SOL    HW228899   1.709   2.706   2.705  0.4471  0.7068  1.0400
 5814SOL     OW28900   0.857   0.614   1.097 -0.2332 -0.1792 -0.0959
 5814SOL    HW128901   0.891   0.647   1.180 -1.6005  0.5995  0.1434
 5814SOL    HW228902   0.793   0.548   1.124 -1.3414  0.7479 -0.5070
 5815SOL     OW28903   4.631   2.833   8.789 -0.4002  0.6634  0.3677
 5815SOL    HW128904   4.575   2.864   8.718  0.4325 -0.2475 -0.6910
 5815SOL    HW228905   4.699   2.797   8.733 -0.0628 -1.3334  2.0576
 5816SOL     OW28906   4.241   0.470   4.621 -0.3937 -0.0551 -0.0013
 5816SOL    HW128907   4.316   0.526   4.641  0.0309 -0.2091 -1.1965
 5816SOL    HW228908   4.233   0.409   4.694 -0.3915 -1.3845 -1.1168
 5817SOL     OW28909   0.577   2.974   8.304 -0.3248  0.0007 -0.0102
 5817SOL    HW128910   0.570   3.069   8.297 -0.6867 -0.0326 -0.0593
 5817SOL    HW228911   0.512   2.930   8.249 -1.5570 -0.0542  1.5021
 5818SOL     OW28912   4.074   4.624   8.100  0.3216  0.1861  0.0456
 5818SOL    HW128913   4.083   4.628   8.195 -1.6042 -1.4926  0.3056
 5818SOL    HW228914   3.993   4.674   8.091  0.3465  0.7263  2.7095
 5819SOL     OW28915   0.913   2.279   2.431  0.3270 -0.0224  0.3584
 5819SOL    HW128916   0.900   2.373   2.415 -1.7496 -0.4175 -0.2324
 5819SOL    HW228917   1.005   2.277   2.458  0.4490 -2.4180 -0.2982
 5820SOL     OW28918   0.333   0.095   6.725  0.4108  0.2041  0.2633
 5820SOL    HW128919   0.246   0.110   6.687  0.2280 -0.1415  0.5466
 5820SOL    HW228920   0.385   0.070   6.649 -1.2460 -0.2278 -0.7315
 5821SOL     OW28921   3.139   1.542   6.703 -0.1718 -0.8605  0.0510
 5821SOL    HW128922   3.095   1.625   6.686 -0.0231 -0.4945  1.4006
 5821SOL    HW228923   3.220   1.561   6.657  1.1530  1.2016  3.2181
 5822SOL     OW28924   3.225   1.930   3.767 -0.3715  0.1762 -0.4923
 5822SOL    HW128925   3.297   1.899   3.821  0.4915 -0.1194 -1.8039
 5822SOL    HW228926   3.187   1.843   3.751  0.1368  0.1627 -1.6498
 5823SOL     OW28927   1.220   1.379   3.432 -0.1602 -0.0299  0.4101
 5823SOL    HW128928   1.249   1.461   3.392  1.3572 -0.3136  0.9210
 5823SOL    HW228929   1.198   1.415   3.518  1.3345  2.4429 -0.2156
 5824SOL     OW28930   3.977   4.097   4.608 -0.4306  0.1097 -0.6343
 5824SOL    HW128931   3.972   4.112   4.703  3.0040  0.6530 -0.5445
 5824SOL    HW228932   4.047   4.154   4.578 -0.3147 -1.2925 -2.9907
 5825SOL     OW28933   2.521   2.015  12.046  0.6782  0.1542 -0.4260
 5825SOL    HW128934   2.590   2.002  12.111  2.2655  1.3002 -1.9210
 5825SOL    HW228935   2.571   1.999  11.967  2.5486  3.9029 -0.0006
 5826SOL     OW28936   4.312   3.220  17.215 -0.4316 -0.1064  0.2174
 5826SOL    HW128937   4.310   3.313  17.191 -2.7042 -1.0416 -3.3697
 5826SOL    HW228938   4.262   3.212  17.296 -1.8157  0.5195 -0.5687
 5827SOL     OW28939   3.748   3.274   6.184  0.5109 -0.0728  0.1783
 5827SOL    HW128940   3.657   3.291   6.208  0.6333  0.3871  0.3101
 5827SOL    HW228941   3.776   3.358   6.149  1.5318 -0.3190  0.3803
 5828SOL     OW28942   1.157   3.825   2.221  0.3418  0.4064 -0.5107
 5828SOL    HW128943   1.148   3.743   2.174  1.2687 -0.7446  1.2936
 5828SOL    HW228944   1.233   3.801   2.274 -1.0380 -1.4836  0.5917
 5829SOL     OW28945   2.106   0.676   1.524  0.0884 -0.3591  0.1269
 5829SOL    HW128946   2.080   0.703   1.612 -2.2337  0.3969 -0.7951
 5829SOL    HW228947   2.172   0.617   1.561 -0.8447 -0.1674  2.0834
 5830SOL     OW28948   4.460   2.873  11.595 -0.3450 -0.9365 -0.1602
 5830SOL    HW128949   4.533   2.899  11.651 -0.4760 -2.0923  0.5566
 5830SOL    HW228950   4.437   2.792  11.642 -0.1406 -1.0401 -0.2402
 5831SOL     OW28951   2.401   2.554  16.124  0.2657  0.1243  0.1221
 5831SOL    HW128952   2.393   2.483  16.187 -1.1657  0.1943  0.0207
 5831SOL    HW228953   2.484   2.537  16.079  0.3755 -1.2805  0.8561
 5832SOL     OW28954   0.853   1.291   8.999 -0.1551  0.4841  0.1135
 5832SOL    HW128955   0.917   1.290   9.070 -0.6967  2.3098  0.6115
 5832SOL    HW228956   0.771   1.307   9.045  0.3171  3.0805  0.0696
 5833SOL     OW28957   4.507   3.274   2.596 -0.4139  0.2172  0.3605
 5833SOL    HW128958   4.568   3.225   2.541  0.5936 -0.1917  1.8455
 5833SOL    HW228959   4.460   3.333   2.537  0.2850 -0.6658 -1.0778
 5834SOL     OW28960   1.700   0.478   4.742 -0.2254  0.9999  0.0997
 5834SOL    HW128961   1.684   0.396   4.695 -1.6821  0.5121  1.4116
 5834SOL    HW228962   1.795   0.470   4.732  0.0186  1.7925  1.6953
 5835SOL     OW28963   1.210   3.137   2.075 -0.7980  0.1852  0.3173
 5835SOL    HW128964   1.198   3.114   1.983 -0.5889  1.5761 -0.0675
 5835SOL    HW228965   1.295   3.093   2.085 -1.0272 -0.2221  0.4277
 5836SOL     OW28966   0.866   2.294   6.400  0.4250  0.4416  0.0478
 5836SOL    HW128967   0.874   2.207   6.439  0.9649  1.6852  2.7037
 5836SOL    HW228968   0.835   2.346   6.474  0.0733 -0.1906  0.3410
 5837SOL     OW28969   1.252   1.022   7.766 -0.2961  0.5137  0.2691
 5837SOL    HW128970   1.341   1.054   7.781  0.1359 -0.0275 -1.0662
 5837SOL    HW228971   1.242   1.053   7.676  0.5712  1.8792  0.6457
 5838SOL     OW28972   2.359   2.715   1.423 -1.2094  0.1462 -0.3626
 5838SOL    HW128973   2.341   2.693   1.332  2.2448  1.9067 -1.4648
 5838SOL    HW228974   2.375   2.809   1.422  0.2719 -0.1117 -0.2144
 5839SOL     OW28975   2.655   1.625   5.606  0.0986  0.5647 -0.6875
 5839SOL    HW128976   2.729   1.566   5.596  1.4729  1.7579  2.3790
 5839SOL    HW228977   2.653   1.645   5.700  0.9796 -0.6898 -0.4094
 5840SOL     OW28978   3.538   0.663   2.461  0.3602  0.2728  0.1378
 5840SOL    HW128979   3.542   0.723   2.386 -4.2631 -0.2487 -0.5197
 5840SOL    HW228980   3.632   0.651   2.475  0.3604 -0.7348 -0.7167
 5841SOL     OW28981   0.383   3.480   4.735 -0.4064 -0.1812  0.8350
 5841SOL    HW128982   0.451   3.547   4.727 -0.5588 -0.0189  0.8950
 5841SOL    HW228983   0.312   3.530   4.694 -0.8243  1.5789  3.6980
 5842SOL     OW28984   0.818   1.432  17.691  0.0105 -0.3599 -0.2473
 5842SOL    HW128985   0.837   1.365   0.064 -0.8371 -0.6761 -0.3199
 5842SOL    HW228986   0.722   1.440  17.689  0.1625  1.5928 -0.1476
 5843SOL     OW28987   2.094   2.025   6.018  0.1539  0.1421  0.0451
 5843SOL    HW128988   2.172   2.029   5.964 -1.3730 -0.4638 -2.2108
 5843SOL    HW228989   2.046   2.097   5.976 -2.0331 -1.4276 -0.1699
 5844SOL     OW28990   3.689   1.430  17.272 -0.1895 -0.0332  0.1501
 5844SOL    HW128991   3.614   1.482  17.301 -0.2395  0.7472 -1.3868
 5844SOL    HW228992   3.676   1.357  17.332 -1.0514  0.2601  0.3110
 5845SOL     OW28993   2.238   2.067   0.518  0.6994  0.7212 -0.3091
 5845SOL    HW128994   2.248   2.124   0.594 -0.1218  0.0574  0.3119
 5845SOL    HW228995   2.241   1.977   0.553  0.3723  1.6561  2.1462
 5846SOL     OW28996   0.037   0.607  12.806 -0.1237 -0.2027  0.1312
 5846SOL    HW128997   0.132   0.606  12.793  0.1131 -4.5711  2.0646
 5846SOL    HW228998   0.004   0.676  12.749 -2.1813 -0.8482  0.5631
 5847SOL     OW28999   0.266   1.678  16.198 -0.2564  0.1897 -0.3753
 5847SOL    HW129000   0.256   1.588  16.166  1.6229 -0.0868 -0.1740
 5847SOL    HW229001   0.332   1.705  16.135  0.4071  0.0334  0.2422
 5848SOL     OW29002   4.062   1.463   2.400 -0.1764  0.2760  0.0932
 5848SOL    HW129003   4.006   1.439   2.327 -0.4995  0.4873  0.2741
 5848SOL    HW229004   3.995   1.466   2.468  1.5626 -0.5711  1.8495
 5849SOL     OW29005   3.081   0.404   2.018  0.1571 -0.0410 -0.2661
 5849SOL    HW129006   3.029   0.467   2.068 -0.9418 -0.6747 -0.6146
 5849SOL    HW229007   3.151   0.465   1.996 -1.3024  1.5383 -0.5591
 5850SOL     OW29008   3.098   4.316  14.849  0.0013  0.4100 -0.1868
 5850SOL    HW129009   3.125   4.315  14.757 -0.4663  1.5137 -0.3299
 5850SOL    HW229010   3.116   4.404  14.882 -2.2262  0.4616  0.8478
 5851SOL     OW29011   4.167   0.882   4.622  0.0942 -0.5401 -0.4437
 5851SOL    HW129012   4.141   0.803   4.574  1.0555 -0.2797 -1.3809
 5851SOL    HW229013   4.150   0.862   4.714  1.6439 -0.9084 -0.2406
 5852SOL     OW29014   0.488   4.545  10.765  0.1764  0.0869 -0.8390
 5852SOL    HW129015   0.426   4.509  10.702  0.0699  1.7500 -1.6865
 5852SOL    HW229016   0.451   4.520  10.849 -0.6771  0.3787 -1.1205
 5853SOL     OW29017   4.614   1.604  15.255 -0.0208 -0.0380 -0.0087
 5853SOL    HW129018   4.535   1.658  15.263 -0.2431 -0.6615  2.2129
 5853SOL    HW229019   4.590   1.556  15.176 -0.3127 -0.3661  0.2759
 5854SOL     OW29020   2.581   1.937   6.138 -0.9754 -0.4248  0.5048
 5854SOL    HW129021   2.547   1.850   6.157 -1.4305 -0.4554 -0.4219
 5854SOL    HW229022   2.581   1.984   6.221 -0.5511  0.4872 -0.0054
 5855SOL     OW29023   0.696   1.895   6.545 -0.2093  0.1082  0.0333
 5855SOL    HW129024   0.658   1.973   6.506 -1.4161 -0.4351  0.1357
 5855SOL    HW229025   0.661   1.891   6.634  2.0753  0.8541  0.9755
 5856SOL     OW29026   1.615   1.204   3.209  0.3088  0.2191 -0.8669
 5856SOL    HW129027   1.566   1.263   3.153 -0.5079  1.2788  0.9807
 5856SOL    HW229028   1.609   1.255   3.290  2.9986 -0.7458 -0.0426
 5857SOL     OW29029   1.244   0.148   0.616 -0.1983  0.1957  0.8661
 5857SOL    HW129030   1.225   0.188   0.701 -1.0211  2.1296 -0.2354
 5857SOL    HW229031   1.331   0.179   0.594  0.7604 -1.3951  2.3972
 5858SOL     OW29032   4.227   4.137   1.106  1.1698 -0.5383 -0.6645
 5858SOL    HW129033   4.185   4.170   1.027  2.6651  2.7351 -0.0870
 5858SOL    HW229034   4.302   4.195   1.105 -0.4307  1.5732  1.2071
 5859SOL     OW29035   0.079   3.010   6.893  0.1273 -0.2501 -0.0360
 5859SOL    HW129036   4.722   3.064   6.899 -0.2656 -0.8266 -0.0463
 5859SOL    HW229037   0.138   3.066   6.943  0.3863 -1.7331  1.2871
 5860SOL     OW29038   3.392   0.018   0.189  0.1560  0.8938 -0.2198
 5860SOL    HW129039   3.378   4.664   0.246  1.1132 -0.8858 -2.3511
 5860SOL    HW229040   3.468   4.713   0.138  2.5751  3.5164  1.9439
 5861SOL     OW29041   3.463   4.040   1.121  0.2646  0.2654  0.3281
 5861SOL    HW129042   3.527   3.971   1.105  0.9820  0.8096  0.8521
 5861SOL    HW229043   3.474   4.055   1.215  1.0694  1.3192  0.0654
 5862SOL     OW29044   2.506   3.040  15.633 -0.0891 -0.7091 -0.4045
 5862SOL    HW129045   2.562   3.104  15.677 -0.4441 -0.8102  0.2027
 5862SOL    HW229046   2.458   3.004  15.708 -0.9773  0.7969 -0.2682
 5863SOL     OW29047   3.087   2.847   4.391 -0.2348 -0.4435 -0.0375
 5863SOL    HW129048   3.033   2.925   4.405  3.3341  1.8066  0.8916
 5863SOL    HW229049   3.021   2.787   4.355 -0.3807  1.0077 -2.1671
 5864SOL     OW29050   0.242   3.388   9.209  0.1069  0.0671  0.2737
 5864SOL    HW129051   0.263   3.296   9.194  0.3191  0.1063  0.3405
 5864SOL    HW229052   0.334   3.411   9.218  0.3098 -0.8323  0.5100
 5865SOL     OW29053   0.769   1.618   9.310  0.0898  0.2937 -0.1381
 5865SOL    HW129054   0.743   1.650   9.396 -1.0945 -2.0107  0.3651
 5865SOL    HW229055   0.820   1.693   9.279 -1.2790  0.5360 -1.8232
 5866SOL     OW29056   4.546   3.957   6.165  0.2453  0.3017  0.1209
 5866SOL    HW129057   4.514   4.031   6.216  0.3621  0.1192  0.4659
 5866SOL    HW229058   4.608   3.997   6.104 -1.0034  1.1318 -0.5888
 5867SOL     OW29059   4.466   4.130   0.315 -0.0330  0.0270 -0.4402
 5867SOL    HW129060   4.424   4.141   0.400 -2.6915 -0.2903 -1.6999
 5867SOL    HW229061   4.557   4.151   0.337 -0.6236 -0.2736  2.3009
 5868SOL     OW29062   3.243   0.884   3.846  0.7781 -0.0001 -0.1223
 5868SOL    HW129063   3.263   0.792   3.827 -0.5480 -0.4404  0.5938
 5868SOL    HW229064   3.312   0.926   3.794 -0.5879  1.8268 -0.4261
 5869SOL     OW29065   4.619   0.383  17.598 -0.1038 -0.4334 -0.0647
 5869SOL    HW129066   4.655   0.450  17.656  0.2956  2.4513 -3.6324
 5869SOL    HW229067   4.608   0.439  17.522 -3.0213  1.1559  1.5069
 5870SOL     OW29068   1.008   4.085   1.877 -0.4062 -0.2129  0.7496
 5870SOL    HW129069   0.913   4.090   1.890 -0.6127 -1.2773 -0.3990
 5870SOL    HW229070   1.009   3.999   1.835  1.2432  0.0341  0.2922
 5871SOL     OW29071   3.327   0.698   8.932  0.5241  0.6303 -0.3019
 5871SOL    HW129072   3.288   0.715   9.018 -1.5363 -0.5724 -0.9687
 5871SOL    HW229073   3.363   0.612   8.953  2.4130  0.8308 -2.7422
 5872SOL     OW29074   0.232   4.278  10.850  0.3108  0.5626 -0.6272
 5872SOL    HW129075   0.300   4.257  10.913  0.7092  1.9702 -0.5884
 5872SOL    HW229076   0.148   4.284  10.896  0.5802  3.3648 -0.4750
 5873SOL     OW29077   1.515   3.114  13.049 -0.2222 -0.4288  0.0717
 5873SOL    HW129078   1.474   3.173  12.987 -0.3186 -0.3517  0.2095
 5873SOL    HW229079   1.510   3.162  13.132 -2.4326  1.0090 -0.9006
 5874SOL     OW29080   2.519   2.099   9.914  0.0110  0.5553  0.2812
 5874SOL    HW129081   2.507   2.047   9.835 -0.6591 -1.6589  1.8464
 5874SOL    HW229082   2.568   2.176   9.885 -2.3608  0.7970 -3.0488
 5875SOL     OW29083   3.972   0.447   6.697  0.4833  0.6936  0.0993
 5875SOL    HW129084   4.047   0.473   6.751  1.1814  0.4749 -0.7540
 5875SOL    HW229085   3.923   0.388   6.753  1.4029  0.0604  0.2410
 5876SOL     OW29086   1.950   3.305   0.295 -0.1137  0.4229 -0.2181
 5876SOL    HW129087   1.969   3.397   0.312  1.6627 -0.1460  0.8599
 5876SOL    HW229088   1.902   3.320   0.213  0.7595 -0.4168 -0.8878
 5877SOL     OW29089   4.271   4.623   2.850  0.5859 -0.3226  0.0588
 5877SOL    HW129090   4.220   4.678   2.790  2.3130 -0.6239 -1.6920
 5877SOL    HW229091   4.241   4.658   2.934  1.6483 -0.6762  0.5825
 5878SOL     OW29092   1.761   3.901   4.687  0.1835  0.1668 -0.1838
 5878SOL    HW129093   1.686   3.849   4.659  1.3949 -0.7207 -1.7708
 5878SOL    HW229094   1.718   3.947   4.759  0.7164 -0.9884  0.8729
 5879SOL     OW29095   1.917   2.237  13.530  0.0903 -0.1287  0.0263
 5879SOL    HW129096   1.915   2.266  13.621  0.8197  0.6397 -0.1930
 5879SOL    HW229097   1.893   2.145  13.540 -0.0589 -0.2707 -1.6225
 5880SOL     OW29098   0.118   2.634   4.205  0.1045 -0.0206  0.1334
 5880SOL    HW129099   0.081   2.548   4.186 -2.9042  1.2444  0.3323
 5880SOL    HW229100   0.144   2.658   4.116  2.6045  0.7463  1.0666
 5881SOL     OW29101   0.913   3.290  12.179 -1.2170 -0.1416 -0.0108
 5881SOL    HW129102   0.826   3.315  12.211  0.0576  2.6971  1.2668
 5881SOL    HW229103   0.908   3.195  12.168  2.1867 -0.7063  3.3489
 5882SOL     OW29104   2.460   3.464   7.463  0.6475  0.2948 -0.1442
 5882SOL    HW129105   2.480   3.414   7.542 -1.1763  2.2784  1.5832
 5882SOL    HW229106   2.462   3.545   7.512 -0.7477 -0.1552  0.6725
 5883SOL     OW29107   0.798   1.440   1.684  0.3543 -0.4763 -0.1955
 5883SOL    HW129108   0.845   1.508   1.732 -0.0231  1.6019 -2.7594
 5883SOL    HW229109   0.756   1.386   1.751  1.1612 -3.0865 -1.7564
 5884SOL     OW29110   4.524   3.520   1.078 -0.2790  0.1574  0.2972
 5884SOL    HW129111   4.447   3.470   1.050  1.5790 -3.2815  1.2844
 5884SOL    HW229112   4.498   3.600   1.033  0.8900 -0.8647 -2.1782
 5885SOL     OW29113   2.893   1.573   8.202 -0.1289 -0.0959 -0.1815
 5885SOL    HW129114   2.875   1.481   8.220  2.6091 -0.4094  1.0189
 5885SOL    HW229115   2.971   1.597   8.253 -0.2156  1.1588 -0.6368
 5886SOL     OW29116   2.881   0.799   6.004  0.0315 -0.8444  0.1499
 5886SOL    HW129117   2.794   0.834   5.986 -0.4713 -1.9478  0.5005
 5886SOL    HW229118   2.866   0.726   6.063  2.9386 -2.3668 -0.9484
 5887SOL     OW29119   4.356   2.194   2.452 -0.6243 -0.4663 -0.2878
 5887SOL    HW129120   4.426   2.162   2.395 -1.7655 -1.8276 -0.8980
 5887SOL    HW229121   4.330   2.280   2.419  1.0479 -0.2809 -1.1218
 5888SOL     OW29122   1.407   2.970   7.676  0.0728 -0.0473  0.1783
 5888SOL    HW129123   1.381   3.058   7.703  2.0249  0.2955  0.9557
 5888SOL    HW229124   1.337   2.960   7.612 -1.1077 -1.6555  1.7383
 5889SOL     OW29125   3.861   1.830   6.414  0.3668  0.3850  0.0984
 5889SOL    HW129126   3.897   1.903   6.463 -1.5428  0.8260  0.8416
 5889SOL    HW229127   3.935   1.774   6.391  0.0958 -0.3608  1.0470
 5890SOL     OW29128   0.193   1.475   1.029  0.5913  0.2168 -0.4894
 5890SOL    HW129129   0.234   1.562   1.028  0.0243  0.4553 -2.8397
 5890SOL    HW229130   0.238   1.434   1.102 -0.3309 -0.4451 -0.2957
 5891SOL     OW29131   0.217   3.427  14.788 -0.3655  0.0696  0.0897
 5891SOL    HW129132   0.244   3.518  14.797  0.4766 -0.3355  1.5674
 5891SOL    HW229133   0.256   3.416  14.702  1.8264 -1.5599  1.2979
 5892SOL     OW29134   0.926   4.224  15.251 -0.0929 -0.5935  0.1956
 5892SOL    HW129135   0.900   4.150  15.306 -0.7093  0.6798  1.5979
 5892SOL    HW229136   0.982   4.186  15.183  0.9093  0.6137  0.3612
 5893SOL     OW29137   4.416   0.353  11.061  0.0796  0.3032  1.1242
 5893SOL    HW129138   4.507   0.382  11.067 -0.0107  0.4448  1.7555
 5893SOL    HW229139   4.381   0.414  10.996  2.4300  1.6274  1.0951
 5894SOL     OW29140   1.757   2.726   5.175 -0.2321  0.2617 -0.1466
 5894SOL    HW129141   1.669   2.748   5.142 -0.3851 -0.9995 -0.5816
 5894SOL    HW229142   1.783   2.647   5.127 -2.3288 -0.3577 -0.2932
 5895SOL     OW29143   0.893   3.892   2.234 -0.0057  0.6108  0.7058
 5895SOL    HW129144   0.878   3.872   2.141 -0.5298 -0.7987  1.1034
 5895SOL    HW229145   0.987   3.873   2.238 -0.6442 -2.8665 -1.2409
 5896SOL     OW29146   4.244   4.307   9.802 -0.0235 -0.3592 -0.2539
 5896SOL    HW129147   4.286   4.389   9.828  1.5759 -0.7421 -1.6340
 5896SOL    HW229148   4.210   4.324   9.714  1.6786 -0.1528 -0.8657
 5897SOL     OW29149   2.626   3.235   2.302  0.7508  0.1084 -0.2971
 5897SOL    HW129150   2.567   3.205   2.232 -1.9663 -1.1354  2.5429
 5897SOL    HW229151   2.577   3.310   2.336  2.3009  0.9303  0.1151
 5898SOL     OW29152   2.766   2.672   5.121  0.8989  0.3737 -0.5642
 5898SOL    HW129153   2.760   2.681   5.216  1.5535 -2.9441 -0.2054
 5898SOL    HW229154   2.690   2.727   5.101  0.2326 -0.4798 -0.3927
 5899SOL     OW29155   3.842   0.274   3.743  0.1986  0.3192 -0.6219
 5899SOL    HW129156   3.761   0.253   3.790  0.1582  2.0178  0.0632
 5899SOL    HW229157   3.907   0.244   3.806 -0.4090  1.0790  0.3759
 5900SOL     OW29158   0.978   1.420   2.886 -0.1881  0.5220 -0.0759
 5900SOL    HW129159   0.986   1.472   2.806  1.7772 -1.0566 -0.9104
 5900SOL    HW229160   1.066   1.381   2.885 -0.3849  0.1770 -3.1077
 5901SOL     OW29161   3.000   3.678  12.469 -0.2440  0.6959 -0.3948
 5901SOL    HW129162   2.924   3.688  12.412  0.1303  1.5960 -0.7387
 5901SOL    HW229163   3.072   3.716  12.418  0.7938 -0.7036  0.0207
 5902SOL     OW29164   4.021   0.005  11.127  0.2961  0.4935 -0.1041
 5902SOL    HW129165   3.982   0.022  11.041 -1.4068 -2.1221  0.1561
 5902SOL    HW229166   4.036   4.635  11.108 -3.5189 -0.4283  1.2714
 5903SOL     OW29167   0.927   0.475   5.542 -0.2613  0.0700 -0.1186
 5903SOL    HW129168   1.016   0.509   5.539 -0.4653  0.6315  0.1565
 5903SOL    HW229169   0.878   0.529   5.604 -0.6914 -1.0837  0.5578
 5904SOL     OW29170   3.341   0.487   5.324  0.1268  0.1469  0.8972
 5904SOL    HW129171   3.394   0.409   5.309  0.7775  0.8492 -0.5358
 5904SOL    HW229172   3.250   0.456   5.320  0.8762 -1.7504 -1.3739
 5905SOL     OW29173   0.813   1.416   0.653 -0.6054 -0.3212 -0.0165
 5905SOL    HW129174   0.863   1.476   0.597 -1.2297  0.1613 -0.0588
 5905SOL    HW229175   0.781   1.485   0.710 -0.1745  0.7041 -1.0099
 5906SOL     OW29176   0.061   0.622   8.371 -0.3343 -0.1244 -0.2728
 5906SOL    HW129177   0.129   0.624   8.438 -0.2834 -2.0187 -0.2724
 5906SOL    HW229178   0.072   0.702   8.320 -1.0285  0.1715  0.0336
 5907SOL     OW29179   2.223   4.104   3.470 -0.2968  0.2868  0.2482
 5907SOL    HW129180   2.234   4.076   3.561 -0.5950 -1.7027 -0.3361
 5907SOL    HW229181   2.305   4.083   3.426 -0.1345 -1.6995  1.4819
 5908SOL     OW29182   0.208   4.291  13.876 -0.1943  0.0807  0.0468
 5908SOL    HW129183   0.295   4.256  13.898 -1.2486 -1.6126  1.4290
 5908SOL    HW229184   0.225   4.380  13.908 -0.9447  0.4736 -0.6406
 5909SOL     OW29185   3.805   4.139   1.187  0.0187  0.1765 -0.0454
 5909SOL    HW129186   3.728   4.161   1.239  0.3793  0.6756  0.2749
 5909SOL    HW229187   3.869   4.198   1.228  1.9414 -0.2407 -2.3927
 5910SOL     OW29188   3.145   0.737   5.061 -0.5584  0.2038 -0.3672
 5910SOL    HW129189   3.082   0.667   5.041 -0.6453 -0.0598  0.8702
 5910SOL    HW229190   3.130   0.791   4.983  1.6694  0.7337 -0.4323
 5911SOL     OW29191   3.135   1.863   3.461 -0.1299 -0.1968  1.0123
 5911SOL    HW129192   3.128   1.786   3.519 -1.0891  0.8076  2.2277
 5911SOL    HW229193   3.042   1.886   3.461  0.0504  0.5400  1.5607
 5912SOL     OW29194   4.059   2.464   8.056 -0.5601  0.7227  0.2703
 5912SOL    HW129195   4.133   2.494   8.109  1.1004  0.0535 -1.6582
 5912SOL    HW229196   4.069   2.370   8.065  1.0327  0.9034  0.4426
 5913SOL     OW29197   1.596   1.469   5.733 -0.0900 -0.5506  0.1300
 5913SOL    HW129198   1.578   1.485   5.640  0.4017 -0.9365 -0.0323
 5913SOL    HW229199   1.529   1.517   5.781  0.4220 -0.5429  0.8365
 5914SOL     OW29200   0.387   1.469   2.345 -0.2473 -0.1958 -0.0137
 5914SOL    HW129201   0.318   1.451   2.409  0.7958  0.1626  1.2174
 5914SOL    HW229202   0.347   1.438   2.264  0.3490 -1.0086  0.0113
 5915SOL     OW29203   3.342   4.471  14.278  0.1951  0.2619  0.6479
 5915SOL    HW129204   3.423   4.453  14.325 -0.6303 -0.1512  1.9329
 5915SOL    HW229205   3.279   4.416  14.327  1.3620  0.0221  1.8801
 5916SOL     OW29206   0.086   4.191   8.937 -0.2450  0.5247  0.1910
 5916SOL    HW129207   0.117   4.176   8.848  0.3451  1.1090  0.2974
 5916SOL    HW229208   0.064   4.283   8.949  0.8846  1.0603 -1.8683
 5917SOL     OW29209   1.696   0.967  10.667  0.5980 -0.0778 -0.7057
 5917SOL    HW129210   1.623   1.005  10.715  1.7092  0.5385  0.5203
 5917SOL    HW229211   1.743   1.045  10.637 -0.8289  1.5549  1.2983
 5918SOL     OW29212   0.128   4.196   7.382 -0.1605 -0.0530 -0.7017
 5918SOL    HW129213   0.201   4.134   7.380  1.5462  1.9559 -1.3130
 5918SOL    HW229214   0.062   4.136   7.349 -0.6698 -1.0456  2.1362
 5919SOL     OW29215   3.239   1.223   2.840  0.2799  0.1832  0.0978
 5919SOL    HW129216   3.294   1.239   2.763  1.6109 -0.7633  0.8605
 5919SOL    HW229217   3.205   1.135   2.822  2.1100 -0.4139 -0.4264
 5920SOL     OW29218   1.525   4.210  12.704  0.2253  0.5336  0.1397
 5920SOL    HW129219   1.477   4.133  12.735 -0.6008  1.0151  0.0794
 5920SOL    HW229220   1.515   4.211  12.609  1.2850  1.1237  0.0412
 5921SOL     OW29221   4.422   0.927   7.377  0.9676 -0.4819 -0.0019
 5921SOL    HW129222   4.495   0.922   7.438  1.1391 -0.7251 -0.2255
 5921SOL    HW229223   4.401   0.834   7.378 -0.1048 -0.2252  0.8258
 5922SOL     OW29224   3.321   1.092  10.772 -0.0752  0.4746 -0.1084
 5922SOL    HW129225   3.233   1.090  10.810 -1.4661 -0.0469 -3.4172
 5922SOL    HW229226   3.315   1.032  10.698 -2.0105 -1.1359  1.3368
 5923SOL     OW29227   4.429   3.507   5.750 -0.0073 -0.3708  1.0138
 5923SOL    HW129228   4.443   3.415   5.729  0.4892  0.0969 -0.7510
 5923SOL    HW229229   4.522   3.529   5.746  0.0490 -0.7148  0.4247
 5924SOL     OW29230   1.993   0.809  11.477 -0.1813  0.6477  0.2038
 5924SOL    HW129231   1.944   0.885  11.508 -0.0541  1.2225 -0.9834
 5924SOL    HW229232   2.064   0.804  11.541  1.9709  0.9223 -2.1094
 5925SOL     OW29233   1.793   2.595   4.048 -0.1159  0.3543  0.1918
 5925SOL    HW129234   1.763   2.600   4.139 -0.0690 -0.7781  0.2665
 5925SOL    HW229235   1.865   2.533   4.060 -1.3631 -1.0792  0.2736
 5926SOL     OW29236   3.978   3.018  14.348 -0.1939  0.2183 -0.1493
 5926SOL    HW129237   3.930   3.081  14.293  1.3652  1.4088 -0.1606
 5926SOL    HW229238   3.929   3.027  14.429 -3.0623  2.7963 -2.1594
 5927SOL     OW29239   4.554   2.755   0.651 -0.0161  0.5741  0.0571
 5927SOL    HW129240   4.629   2.725   0.702 -0.3645 -2.6023 -1.2871
 5927SOL    HW229241   4.542   2.684   0.588 -3.0903  2.2904 -1.2829
 5928SOL     OW29242   0.232   2.119  12.354  0.0509  0.0213 -0.1804
 5928SOL    HW129243   0.248   2.068  12.433 -1.5788 -0.6026 -0.2599
 5928SOL    HW229244   0.231   2.209  12.385  0.7708 -0.0319  0.0028
 5929SOL     OW29245   3.920   1.383  10.871  0.0020 -0.8518 -0.1026
 5929SOL    HW129246   3.891   1.461  10.918 -0.5013 -1.5843  0.7915
 5929SOL    HW229247   3.929   1.428  10.787  0.0061 -0.5043  0.0835
 5930SOL     OW29248   1.256   2.455   4.008  0.4885 -0.0420  0.1429
 5930SOL    HW129249   1.309   2.472   3.929  1.8308  0.2008  1.0832
 5930SOL    HW229250   1.187   2.521   4.004  0.2842 -0.3418 -1.1658
 5931SOL     OW29251   2.794   0.002  13.294 -0.8771  0.5675  0.2883
 5931SOL    HW129252   2.878   4.713  13.337 -0.5761 -2.3503 -1.0830
 5931SOL    HW229253   2.760   4.639  13.322  1.0343 -0.6634 -1.1732
 5932SOL     OW29254   1.557   1.200   0.613 -0.1995  0.6498  0.1853
 5932SOL    HW129255   1.648   1.219   0.634 -0.5412  4.0030 -1.2892
 5932SOL    HW229256   1.537   1.111   0.640  0.9012 -0.0193 -1.2159
 5933SOL     OW29257   2.577   2.204   3.586 -0.1743  0.4226 -0.6144
 5933SOL    HW129258   2.658   2.165   3.555  1.7204  3.9829 -0.1986
 5933SOL    HW229259   2.512   2.148   3.545 -0.1503 -0.2463  0.2524
 5934SOL     OW29260   0.851   2.530   5.409  0.1577 -0.3312  0.3137
 5934SOL    HW129261   0.790   2.536   5.482  1.5980 -0.8528  1.5731
 5934SOL    HW229262   0.938   2.554   5.441  0.2981  0.1522 -0.4590
 5935SOL     OW29263   1.644   1.620   5.082  0.1017 -0.4615 -0.3377
 5935SOL    HW129264   1.558   1.601   5.119  0.6171 -0.9966  0.6018
 5935SOL    HW229265   1.628   1.688   5.017  1.0047  0.3669  0.3103
 5936SOL     OW29266   1.353   1.194  15.807 -0.4974 -0.0401  0.2984
 5936SOL    HW129267   1.403   1.254  15.863 -1.0108  0.9582 -0.3108
 5936SOL    HW229268   1.311   1.253  15.745 -0.3019 -1.1583 -0.8916
 5937SOL     OW29269   1.349   3.325   7.396  0.8024  0.5498 -0.1168
 5937SOL    HW129270   1.327   3.268   7.470 -0.9209 -0.9008 -1.7816
 5937SOL    HW229271   1.270   3.378   7.384  2.2139  2.8587  0.7194
 5938SOL     OW29272   4.404   4.408  16.210  0.5194 -0.2221  0.7481
 5938SOL    HW129273   4.318   4.439  16.238  0.5324 -0.5935  1.2023
 5938SOL    HW229274   4.458   4.385  16.286  1.0360  0.1664  0.5009
 5939SOL     OW29275   3.548   3.119   8.086 -0.3683  0.1460 -0.2242
 5939SOL    HW129276   3.547   3.214   8.091  1.1242  0.1537  0.0272
 5939SOL    HW229277   3.601   3.113   8.007  0.8801  0.5483  0.5687
 5940SOL     OW29278   4.356   1.435   5.408  0.2585 -0.0875  0.0075
 5940SOL    HW129279   4.372   1.507   5.346  0.7194 -0.5874 -0.4561
 5940SOL    HW229280   4.284   1.394   5.361  1.2926 -2.0763  0.1764
 5941SOL     OW29281   2.948   2.976  15.577  0.3835 -0.1306 -0.5007
 5941SOL    HW129282   2.856   2.983  15.552 -0.2096  1.2833  2.1252
 5941SOL    HW229283   2.999   2.942  15.504 -1.3636 -0.5213 -1.5365
 5942SOL     OW29284   3.247   0.437   5.598 -0.6254  0.5757  0.6565
 5942SOL    HW129285   3.250   0.349   5.561 -0.1265  0.9468 -0.1815
 5942SOL    HW229286   3.275   0.486   5.521 -0.8758 -2.5025 -1.3802
 5943SOL     OW29287   2.984   0.564   9.705 -0.3913 -0.2294 -0.1372
 5943SOL    HW129288   2.963   0.484   9.752  0.0965 -0.0714  0.3585
 5943SOL    HW229289   3.080   0.563   9.708 -0.4049 -1.1172 -0.0673
 5944SOL     OW29290   4.222   0.728   1.156  0.6667  0.3037  0.2358
 5944SOL    HW129291   4.135   0.755   1.128  0.4413 -1.2021 -0.5140
 5944SOL    HW229292   4.214   0.706   1.249  0.7905  1.5485  0.5449
 5945SOL     OW29293   2.690   0.393   5.738  0.0938  0.4740 -0.1553
 5945SOL    HW129294   2.606   0.378   5.781  0.8804 -0.8663  0.9220
 5945SOL    HW229295   2.702   0.487   5.746 -2.7195  0.7035  1.3374
 5946SOL     OW29296   2.982   2.673   0.349  0.1985  0.1234  0.4465
 5946SOL    HW129297   2.970   2.710   0.436  1.9768  1.5178  0.1093
 5946SOL    HW229298   2.908   2.614   0.335  0.7145  0.0941 -2.2664
 5947SOL     OW29299   2.920   0.789   3.164 -0.6119 -0.1723  0.4228
 5947SOL    HW129300   2.931   0.751   3.077  0.5973 -0.7006  0.8034
 5947SOL    HW229301   2.973   0.867   3.149  0.4895 -0.9946  0.0625
 5948SOL     OW29302   2.343   0.698   8.910  0.2918  0.0055 -0.4751
 5948SOL    HW129303   2.380   0.745   8.985  0.2955  0.7022 -0.9096
 5948SOL    HW229304   2.421   0.664   8.866 -0.3255 -1.7910 -0.1835
 5949SOL     OW29305   3.796   0.237   0.785 -0.1524  0.5087  0.4444
 5949SOL    HW129306   3.727   0.302   0.768 -1.7895 -1.3071  0.1602
 5949SOL    HW229307   3.869   0.297   0.769 -0.0487  0.6647  1.4865
 5950SOL     OW29308   3.969   4.000  10.700  0.0917  0.0021 -0.0361
 5950SOL    HW129309   3.998   3.960  10.618  1.0008  0.5670  0.0140
 5950SOL    HW229310   4.053   4.011  10.746  0.6120 -0.4271 -0.8915
 5951SOL     OW29311   2.983   3.720   2.874  0.5438  0.0932 -0.3286
 5951SOL    HW129312   3.029   3.788   2.824  1.5447 -0.2690  0.0947
 5951SOL    HW229313   2.897   3.716   2.832  0.4878 -0.4947 -0.1634
 5952SOL     OW29314   3.860   2.299   2.002 -0.3547 -0.2412 -0.3056
 5952SOL    HW129315   3.914   2.369   2.038 -0.6361  0.0623 -0.4722
 5952SOL    HW229316   3.928   2.266   1.944 -1.9236  1.0542 -2.8732
 5953SOL     OW29317   4.444   3.324   4.995 -0.1490  0.3225 -0.4332
 5953SOL    HW129318   4.448   3.388   5.065 -0.8111 -1.4657  1.2256
 5953SOL    HW229319   4.537   3.304   4.984  0.2170  2.0961 -0.5693
 5954SOL     OW29320   2.885   1.104   5.589 -0.4781 -0.2381  0.3581
 5954SOL    HW129321   2.851   1.099   5.500 -1.0179  2.1532  0.4330
 5954SOL    HW229322   2.805   1.099   5.642 -1.3787  0.6477 -0.9326
 5955SOL     OW29323   0.749   2.723   5.785  0.5868 -0.1099 -0.5285
 5955SOL    HW129324   0.822   2.752   5.731 -0.5085 -3.0155 -3.5650
 5955SOL    HW229325   0.791   2.683   5.861  0.9331 -0.1124 -0.7203
 5956SOL     OW29326   4.101   2.829   2.703  0.3331  0.1247 -0.5547
 5956SOL    HW129327   4.129   2.840   2.794  1.1472 -1.6070 -0.5950
 5956SOL    HW229328   4.139   2.910   2.668 -1.7317  1.8957  1.3712
 5957SOL     OW29329   3.449   0.023   6.580  0.5021  0.0089  0.1191
 5957SOL    HW129330   3.525   0.081   6.572 -0.6768  1.4373 -0.7511
 5957SOL    HW229331   3.383   0.080   6.620 -1.1828 -1.1796 -0.9817
 5958SOL     OW29332   3.324   4.635   8.155  0.0577 -0.2538  0.4839
 5958SOL    HW129333   3.272   4.643   8.235 -0.8282 -2.4158  0.1199
 5958SOL    HW229334   3.377   4.557   8.172 -1.0297 -2.0651 -4.6122
 5959SOL     OW29335   2.267   4.664   7.157 -0.0381  0.5538 -0.1647
 5959SOL    HW129336   2.176   4.646   7.132  0.4221  1.6604 -2.5960
 5959SOL    HW229337   2.259   4.685   7.250  1.2482 -2.0186  0.5443
 5960SOL     OW29338   4.183   3.665  14.549 -0.2304  0.6352 -0.0430
 5960SOL    HW129339   4.151   3.654  14.639  0.9099 -1.4674  0.1182
 5960SOL    HW229340   4.269   3.624  14.557 -0.9611 -0.8920 -0.0835
 5961SOL     OW29341   0.716   4.695   8.198  0.3857 -0.2761 -0.0837
 5961SOL    HW129342   0.643   0.035   8.193  0.3179 -0.4331 -0.9471
 5961SOL    HW229343   0.665   4.620   8.229  0.7876 -0.5771 -0.1541
 5962SOL     OW29344   0.542   2.006   7.454 -0.4369  0.5429 -0.5859
 5962SOL    HW129345   0.482   1.952   7.506 -0.3755  2.1775  1.2062
 5962SOL    HW229346   0.592   1.931   7.423 -1.7817 -0.2394 -0.8512
 5963SOL     OW29347   0.055   0.690   1.383  0.2062 -0.4157  0.0259
 5963SOL    HW129348   0.115   0.762   1.401  0.9487 -1.8527  3.2221
 5963SOL    HW229349   0.055   0.644   1.467  1.1538 -0.0283  0.2361
 5964SOL     OW29350   1.037   2.674   6.487 -0.4784  0.2798 -0.6733
 5964SOL    HW129351   1.113   2.658   6.543 -0.6752 -0.0844 -0.5105
 5964SOL    HW229352   1.090   2.691   6.409 -0.9885  1.0007 -0.8663
 5965SOL     OW29353   0.032   0.141   6.009 -0.3407 -0.1699  0.3889
 5965SOL    HW129354   4.668   0.175   5.987 -0.3388  0.8696  1.9829
 5965SOL    HW229355   4.722   0.052   6.021  0.8683 -0.5098  1.1201
 5966SOL     OW29356   2.762   0.074  14.845  0.3854  0.5053 -0.0217
 5966SOL    HW129357   2.767   0.097  14.752  3.1998  0.0896  0.0443
 5966SOL    HW229358   2.776   0.163  14.877  0.5502 -0.0501  1.4538
 5967SOL     OW29359   2.443   0.959   7.602 -0.2266  0.1285  0.1337
 5967SOL    HW129360   2.405   0.876   7.633  0.8925 -0.4549 -0.0648
 5967SOL    HW229361   2.483   0.933   7.519 -1.3299  1.9090 -0.9457
 5968SOL     OW29362   1.813   1.699   4.454  0.7200  0.4675 -0.4279
 5968SOL    HW129363   1.839   1.638   4.385 -0.1198 -1.3544  0.8478
 5968SOL    HW229364   1.786   1.771   4.397 -3.6250 -2.6811 -2.3679
 5969SOL     OW29365   3.102   0.899   3.540 -0.0053  0.2778 -0.1977
 5969SOL    HW129366   3.023   0.888   3.487  0.9805 -0.1194 -1.5914
 5969SOL    HW229367   3.109   0.810   3.576  0.7012 -1.2232 -4.0484
 5970SOL     OW29368   0.582   4.608   8.547 -0.0971  0.4140 -0.1085
 5970SOL    HW129369   0.637   4.663   8.603 -0.5773  0.8855 -0.1046
 5970SOL    HW229370   0.648   4.543   8.521 -1.5357 -2.0716  2.5183
 5971SOL     OW29371   3.893   3.648  14.529 -0.2980  0.8147 -0.3710
 5971SOL    HW129372   3.977   3.678  14.494  0.0283  2.6015  1.9206
 5971SOL    HW229373   3.869   3.722  14.584 -1.5577  0.7332 -0.8077
 5972SOL     OW29374   2.954   4.625   4.835  0.6306 -0.6877 -0.0344
 5972SOL    HW129375   3.018   4.682   4.878 -1.8951  1.2464  1.1813
 5972SOL    HW229376   2.951   4.554   4.899 -0.1295 -0.1717  0.5145
 5973SOL     OW29377   3.554   0.845   0.340  0.0028  0.7207 -0.3260
 5973SOL    HW129378   3.593   0.837   0.427 -2.6991  2.0272  1.0032
 5973SOL    HW229379   3.533   0.756   0.310 -1.4171  1.4419 -1.4685
 5974SOL     OW29380   2.598   2.576   2.347  0.5934  0.1098  0.2108
 5974SOL    HW129381   2.616   2.518   2.421  0.3873  1.1174  1.0461
 5974SOL    HW229382   2.673   2.550   2.294  0.1882 -1.3755  0.3512
 5975SOL     OW29383   1.010   0.633   1.835  0.0935 -0.1756  0.3164
 5975SOL    HW129384   0.937   0.684   1.801  0.0844 -1.6222 -1.8322
 5975SOL    HW229385   1.071   0.628   1.761 -0.0587 -1.9476  0.3321
 5976SOL     OW29386   2.703   0.075  12.757  0.0282  0.6451 -0.3571
 5976SOL    HW129387   2.690   0.162  12.793  0.6949  0.4373  0.3918
 5976SOL    HW229388   2.618   0.060  12.716  1.2504 -1.0569 -2.2423
 5977SOL     OW29389   0.920   2.811  14.833 -0.8630 -0.2299 -0.1821
 5977SOL    HW129390   0.998   2.828  14.781 -0.9181  1.6923  0.3593
 5977SOL    HW229391   0.900   2.902  14.855 -0.7919 -0.1080 -0.6137
 5978SOL     OW29392   4.195   3.274   8.112  0.0528 -0.4177  0.0599
 5978SOL    HW129393   4.230   3.260   8.200  2.3291 -1.8677 -1.0695
 5978SOL    HW229394   4.277   3.266   8.063  0.4036 -0.7770  0.7088
 5979SOL     OW29395   0.053   3.052   5.643  0.3465 -0.6275 -0.7007
 5979SOL    HW129396   0.121   3.112   5.613 -3.0877  4.6289  2.1970
 5979SOL    HW229397   4.691   3.093   5.625  1.2466  1.3356 -0.3737
 5980SOL     OW29398   2.880   1.042  13.475  0.3076  0.0496  0.2668
 5980SOL    HW129399   2.877   1.025  13.380 -0.0922  0.3518  0.2211
 5980SOL    HW229400   2.867   0.950  13.497  0.9333  0.3244  1.7199
 5981SOL     OW29401   1.590   4.600   4.459 -0.2998 -0.4796  0.2765
 5981SOL    HW129402   1.645   4.570   4.532  1.0655  1.5353  0.0824
 5981SOL    HW229403   1.520   4.536   4.472 -0.6246 -0.6912 -2.4954
 5982SOL     OW29404   0.118   2.186  12.696  0.2459 -0.1220  0.2638
 5982SOL    HW129405   0.144   2.266  12.650  0.6093 -0.6035 -0.3606
 5982SOL    HW229406   0.185   2.132  12.654  0.8180  0.4881  0.3968
 5983SOL     OW29407   2.893   2.281   5.911 -0.1501 -0.0097 -0.2576
 5983SOL    HW129408   2.911   2.335   5.988 -0.5847 -1.4953  0.8971
 5983SOL    HW229409   2.961   2.214   5.920 -1.7272 -1.4184  1.3076
 5984SOL     OW29410   0.894   3.870   2.874 -0.0565  0.2999 -0.0130
 5984SOL    HW129411   0.870   3.898   2.786  0.6211 -2.2180 -1.0247
 5984SOL    HW229412   0.905   3.958   2.909 -0.3161  0.7973 -1.1714
 5985SOL     OW29413   1.834   3.320   3.955  0.5014 -0.4044  0.2784
 5985SOL    HW129414   1.899   3.376   3.912 -0.2027 -0.3362 -0.7229
 5985SOL    HW229415   1.773   3.300   3.884 -0.1314 -1.5706  1.1558
 5986SOL     OW29416   3.244   4.627   6.848 -0.1985  0.6322 -0.7277
 5986SOL    HW129417   3.253   4.718   6.821 -1.0469  0.5037 -1.4113
 5986SOL    HW229418   3.193   4.596   6.774 -0.4155 -2.2379  0.6047
 5987SOL     OW29419   4.046   2.090   2.370  0.4304 -0.4348 -0.0041
 5987SOL    HW129420   3.978   2.122   2.311 -0.7413 -2.0840  0.4618
 5987SOL    HW229421   4.080   2.157   2.429 -1.3142 -0.5089  1.0922
 5988SOL     OW29422   3.004   1.153   3.385 -0.3172  0.0372  0.1284
 5988SOL    HW129423   3.056   1.093   3.438 -0.9131 -0.0304  0.6400
 5988SOL    HW229424   2.945   1.177   3.457 -0.3403  2.4908 -0.7204
 5989SOL     OW29425   2.640   0.839   5.254 -0.9041  0.3719  0.3943
 5989SOL    HW129426   2.597   0.874   5.332 -0.9549  0.9980  0.0817
 5989SOL    HW229427   2.641   0.920   5.204  0.9684 -0.7790 -1.4393
 5990SOL     OW29428   1.047   0.112  11.386 -0.1354 -0.0519  0.5390
 5990SOL    HW129429   0.998   0.164  11.450 -1.5753 -0.9694  0.1698
 5990SOL    HW229430   1.133   0.115  11.430  0.2354 -0.1162 -0.1896
 5991SOL     OW29431   3.721   2.630  14.805 -0.7170 -0.6274 -0.3248
 5991SOL    HW129432   3.634   2.659  14.836  0.2662 -0.0276  1.9109
 5991SOL    HW229433   3.756   2.713  14.774  2.8845 -2.0497 -0.0259
 5992SOL     OW29434   4.280   2.724  17.107 -0.0982  0.0821  0.3393
 5992SOL    HW129435   4.236   2.695  17.187 -0.8343  0.6528  0.1390
 5992SOL    HW229436   4.241   2.809  17.089 -0.7871 -0.1906  0.5414
 5993SOL     OW29437   0.882   0.603  12.628  0.5219 -0.1275 -0.1635
 5993SOL    HW129438   0.828   0.635  12.555 -1.3490 -0.7296  0.9593
 5993SOL    HW229439   0.973   0.628  12.612 -0.3372  2.4185 -1.1302
 5994SOL     OW29440   2.493   0.985   2.921 -0.8077  0.6207  0.6358
 5994SOL    HW129441   2.479   1.035   2.840  0.9542 -0.7642 -0.5351
 5994SOL    HW229442   2.550   1.046   2.969  0.9504  0.7611 -1.6391
 5995SOL     OW29443   2.709   2.531   5.886  0.3624  0.0725  0.1811
 5995SOL    HW129444   2.763   2.454   5.901  0.8208  0.4468  0.4515
 5995SOL    HW229445   2.770   2.603   5.870  0.9276 -1.2395 -3.5462
 5996SOL     OW29446   1.040   1.411  15.944 -0.1451 -0.1667  0.0623
 5996SOL    HW129447   0.967   1.470  15.925  0.7953  0.8221 -0.4580
 5996SOL    HW229448   1.033   1.350  15.870 -0.5401 -0.7846  0.6089
 5997SOL     OW29449   1.152   4.039   7.209 -0.4174 -0.8602 -0.1582
 5997SOL    HW129450   1.162   4.098   7.134 -2.5513  0.2604  0.4601
 5997SOL    HW229451   1.161   3.952   7.169  2.3074 -0.8881  0.5276
 5998SOL     OW29452   2.067   4.279   8.243 -0.0595  0.3027 -0.2561
 5998SOL    HW129453   2.132   4.261   8.175 -0.8449 -1.6881 -0.4839
 5998SOL    HW229454   1.995   4.303   8.185 -2.4987 -1.8440  1.8552
 5999SOL     OW29455   0.158   1.757  16.430 -0.1497 -0.0930  0.1994
 5999SOL    HW129456   0.249   1.775  16.454 -0.2650  1.6690 -0.7121
 5999SOL    HW229457   0.173   1.742  16.337  1.1149 -0.4852  0.4629
 6000SOL     OW29458   3.489   3.799   7.683 -0.4937 -0.4590  0.1808
 6000SOL    HW129459   3.529   3.861   7.622  0.2648  0.0685  1.2056
 6000SOL    HW229460   3.402   3.774   7.654 -0.1199 -0.8724 -0.5823
 6001SOL     OW29461   1.640   1.770   5.313  0.5372 -0.1012  0.2627
 6001SOL    HW129462   1.690   1.838   5.268  2.3769 -1.2688  0.5205
 6001SOL    HW229463   1.630   1.704   5.244 -0.9119  1.1887 -0.7595
 6002SOL     OW29464   4.276   3.885  13.012 -0.7727 -0.1670  0.0276
 6002SOL    HW129465   4.257   3.942  13.086 -1.3224 -1.6769  1.0539
 6002SOL    HW229466   4.237   3.805  13.049  1.6982 -1.6244 -0.5078
 6003SOL     OW29467   2.831   3.360   0.985 -0.7533 -0.3054 -0.2446
 6003SOL    HW129468   2.744   3.368   0.948 -1.1359  0.2327  0.7598
 6003SOL    HW229469   2.814   3.377   1.078  0.1887 -3.1188  0.4324
 6004SOL     OW29470   4.569   0.061   7.572  0.3726  0.6897  0.1077
 6004SOL    HW129471   4.578   0.117   7.649 -0.3321  0.3583  0.4277
 6004SOL    HW229472   4.484   0.026   7.597  0.7658 -0.6706 -0.4875
 6005SOL     OW29473   1.275   2.846   5.192 -0.2960 -0.6339 -0.3820
 6005SOL    HW129474   1.216   2.771   5.178  0.2521 -0.7280 -2.2231
 6005SOL    HW229475   1.212   2.918   5.196  2.2820  1.6473 -0.9078
 6006SOL     OW29476   2.325   3.359   4.660 -0.6118 -0.3015  0.2273
 6006SOL    HW129477   2.310   3.426   4.593 -1.5996  1.7485  2.5033
 6006SOL    HW229478   2.358   3.283   4.612 -0.3240  1.2107 -1.9950
 6007SOL     OW29479   3.643   2.875   6.445  0.0053  0.3736  0.2596
 6007SOL    HW129480   3.576   2.909   6.386 -0.9490 -2.6042 -0.3234
 6007SOL    HW229481   3.637   2.935   6.520 -0.1921 -2.5008  2.5482
 6008SOL     OW29482   3.415   2.587   6.980 -0.3860  0.5648 -0.0700
 6008SOL    HW129483   3.487   2.536   6.941 -0.4879  1.3868 -1.3390
 6008SOL    HW229484   3.339   2.571   6.923  0.1296 -2.0229 -0.0561
 6009SOL     OW29485   0.998   0.592  17.304 -0.9418 -0.7809 -0.4343
 6009SOL    HW129486   0.944   0.607  17.227 -0.1856  1.7764 -0.4620
 6009SOL    HW229487   0.929   0.595  17.370  0.1146 -1.6368  0.7007
 6010SOL     OW29488   2.472   3.224  17.245 -0.1628  0.1264  0.1252
 6010SOL    HW129489   2.544   3.213  17.184 -0.6830  0.4696 -0.5541
 6010SOL    HW229490   2.437   3.312  17.227 -0.0135  0.3680  0.9891
 6011SOL     OW29491   0.071   1.512   5.779 -0.3869  0.2194 -0.2666
 6011SOL    HW129492   0.044   1.598   5.749 -2.0247 -0.1936 -0.0051
 6011SOL    HW229493   0.166   1.520   5.793 -0.3513  1.3314 -1.2122
 6012SOL     OW29494   3.397   4.519   8.487  0.5070 -0.5292 -0.6393
 6012SOL    HW129495   3.450   4.503   8.409  0.6554 -0.6999 -0.5040
 6012SOL    HW229496   3.328   4.576   8.454  0.9686 -1.6684 -3.5864
 6013SOL     OW29497   3.437   3.630   0.341 -0.0493  0.2306 -0.3003
 6013SOL    HW129498   3.506   3.567   0.321  1.4662  0.9070  2.8381
 6013SOL    HW229499   3.360   3.580   0.313 -0.8905  1.1524  0.3409
 6014SOL     OW29500   2.075   0.413   7.674  0.4705 -0.5661  0.2931
 6014SOL    HW129501   2.068   0.413   7.769 -1.6036 -4.0037  0.1441
 6014SOL    HW229502   2.084   0.508   7.666  0.2934 -0.4507  1.4297
 6015SOL     OW29503   2.673   2.328   1.905 -0.0582  0.2985 -0.0312
 6015SOL    HW129504   2.604   2.352   1.844 -0.0025 -0.2814 -0.3177
 6015SOL    HW229505   2.641   2.251   1.953 -2.7135  0.6541 -1.2245
 6016SOL     OW29506   0.461   0.550   2.409 -0.2674  0.0637  0.7343
 6016SOL    HW129507   0.449   0.629   2.356  0.2792 -0.3748 -0.0339
 6016SOL    HW229508   0.387   0.493   2.387  0.0421 -0.8137  2.0016
 6017SOL     OW29509   0.848   4.563   7.021  0.1030 -0.2621 -0.1484
 6017SOL    HW129510   0.877   4.478   6.989  1.0090  0.6230 -1.7048
 6017SOL    HW229511   0.867   4.568   7.115  1.4590 -0.5693 -0.4094
 6018SOL     OW29512   2.113   0.999   3.648  0.4451 -0.0958 -0.4249
 6018SOL    HW129513   2.083   1.052   3.574 -2.3038  0.8424  1.3463
 6018SOL    HW229514   2.147   0.922   3.604  0.2275 -1.2968  1.5393
 6019SOL     OW29515   2.984   0.796   0.529 -0.0324 -0.1614  0.2463
 6019SOL    HW129516   2.895   0.760   0.524  0.1653 -0.3844 -1.7236
 6019SOL    HW229517   2.966   0.869   0.588  0.6363  0.7011 -0.6207
 6020SOL     OW29518   4.650   0.569   5.654 -0.6213  0.2585 -0.1052
 6020SOL    HW129519   4.633   0.640   5.717 -0.5266 -1.0008  1.3250
 6020SOL    HW229520   0.004   0.601   5.606 -0.6532 -0.6919 -0.7678
 6021SOL     OW29521   2.698   0.541   3.051 -0.6041  0.2908  0.1373
 6021SOL    HW129522   2.783   0.584   3.062  0.1121 -0.5662 -2.0466
 6021SOL    HW229523   2.656   0.599   2.987 -0.8745 -0.3125 -0.2259
 6022SOL     OW29524   3.302   0.416   4.678 -1.0105  0.2626  0.2782
 6022SOL    HW129525   3.314   0.346   4.742  0.1181  0.3258  0.1392
 6022SOL    HW229526   3.391   0.448   4.691 -0.4637 -1.4221  0.6643
 6023SOL     OW29527   0.581   1.316  16.512 -0.0272  0.2263  0.1475
 6023SOL    HW129528   0.604   1.229  16.479  0.8285  0.4515  0.1479
 6023SOL    HW229529   0.500   1.344  16.469 -0.4627  1.0492  1.5252
 6024SOL     OW29530   4.438   4.101   8.689  0.2584  0.1040  0.1533
 6024SOL    HW129531   4.486   4.095   8.772 -1.6397  1.2988  1.3583
 6024SOL    HW229532   4.362   4.139   8.734  1.1631  1.3333  0.6586
 6025SOL     OW29533   3.198   1.754  16.909  0.1762  0.3022 -0.0925
 6025SOL    HW129534   3.195   1.848  16.892  0.6918 -0.0515 -2.1350
 6025SOL    HW229535   3.262   1.743  16.978 -0.2332 -0.1677  0.2148
 6026SOL     OW29536   1.032   0.808   8.270  0.1771  0.5865 -0.5473
 6026SOL    HW129537   0.993   0.722   8.252 -0.1173  0.7356 -0.6249
 6026SOL    HW229538   1.000   0.846   8.188  2.6944  2.5013 -0.6390
 6027SOL     OW29539   0.606   3.395   2.965  0.1535 -0.0392  0.1666
 6027SOL    HW129540   0.675   3.332   2.942  0.1990  0.2424 -0.4746
 6027SOL    HW229541   0.633   3.471   2.913 -2.1053  1.1098  0.6870
 6028SOL     OW29542   0.382   4.320   6.550 -0.0430 -0.7093 -0.3736
 6028SOL    HW129543   0.387   4.229   6.581 -0.2928 -0.6200 -0.0715
 6028SOL    HW229544   0.465   4.330   6.505  0.3750  0.2785  0.6314
 6029SOL     OW29545   3.173   0.617   3.534  0.2309  0.0390 -0.3775
 6029SOL    HW129546   3.123   0.629   3.453 -1.8401  0.2079  0.9340
 6029SOL    HW229547   3.135   0.532   3.558  1.0960  0.4851  2.4926
 6030SOL     OW29548   4.272   0.468  17.691  0.5421  0.3899  0.0673
 6030SOL    HW129549   4.182   0.454  17.661  0.9015  0.3363 -0.9942
 6030SOL    HW229550   4.281   0.563  17.684 -1.8398  0.5152 -1.1159
 6031SOL     OW29551   3.929   4.511   2.981  0.0311  0.7250  0.3553
 6031SOL    HW129552   3.874   4.587   2.960  0.6665  1.0930  0.0188
 6031SOL    HW229553   3.888   4.463   3.053  1.8104  0.7199  1.3978
 6032SOL     OW29554   2.870   2.043   8.842  0.3112  0.6542  0.2676
 6032SOL    HW129555   2.856   2.014   8.933 -1.0251  0.3379 -0.0415
 6032SOL    HW229556   2.858   2.138   8.848 -1.6122  0.4912 -1.1630
 6033SOL     OW29557   3.708   0.437   2.579  0.0665 -0.3282 -0.1591
 6033SOL    HW129558   3.634   0.395   2.535 -0.4055  1.3486 -0.9665
 6033SOL    HW229559   3.666   0.489   2.648  0.1539  0.8594 -0.9962
 6034SOL     OW29560   3.898   2.577  16.406  0.4999  0.0950 -0.4480
 6034SOL    HW129561   3.817   2.552  16.362  0.3848  0.2996 -0.3499
 6034SOL    HW229562   3.901   2.668  16.377 -1.0924  0.4644  0.5110
 6035SOL     OW29563   1.846   1.072   2.207 -0.5708 -0.0654  0.8286
 6035SOL    HW129564   1.759   1.036   2.189 -0.8107  1.5918 -1.2629
 6035SOL    HW229565   1.841   1.155   2.161  2.9058  0.8566  2.0773
 6036SOL     OW29566   1.218   2.628  17.530 -0.4541 -0.4331 -0.2584
 6036SOL    HW129567   1.200   2.629  17.436 -0.3628  0.1839 -0.2660
 6036SOL    HW229568   1.312   2.607  17.527 -0.7280 -1.6634 -0.3516
 6037SOL     OW29569   4.220   4.182   7.962 -0.3049 -0.3156 -0.0613
 6037SOL    HW129570   4.304   4.224   7.979  0.2866 -1.3933 -0.2961
 6037SOL    HW229571   4.160   4.256   7.958 -0.1369 -0.1289  1.0044
 6038SOL     OW29572   2.239   1.257   0.191 -0.6330  0.7520 -0.3786
 6038SOL    HW129573   2.281   1.247   0.106  1.7356  1.3152  0.7057
 6038SOL    HW229574   2.150   1.250   0.158 -0.4957 -1.9678 -0.1971
 6039SOL     OW29575   3.857   4.200  10.094 -0.2782 -0.1517  0.6005
 6039SOL    HW129576   3.807   4.202  10.176 -2.5186  1.8463 -0.8280
 6039SOL    HW229577   3.877   4.293  10.084  1.0774 -0.4579  0.4991
 6040SOL     OW29578   3.645   0.485   5.259  0.4986 -0.3824  0.7753
 6040SOL    HW129579   3.667   0.409   5.206 -1.2276 -0.2654 -0.0853
 6040SOL    HW229580   3.715   0.548   5.239 -0.5817  1.1040  1.6410
 6041SOL     OW29581   4.095   1.971   4.385  0.0660 -0.1127 -0.1890
 6041SOL    HW129582   4.002   1.946   4.380 -0.5438  2.2988 -1.2057
 6041SOL    HW229583   4.086   2.017   4.468 -3.5794 -0.7819 -0.2183
 6042SOL     OW29584   1.052   2.734   2.393  0.5462  0.3495 -0.1949
 6042SOL    HW129585   1.060   2.724   2.298  1.7514 -1.9021  0.1304
 6042SOL    HW229586   1.051   2.829   2.401  0.2015  0.0735  2.7521
 6043SOL     OW29587   1.110   3.718  14.865  0.4339  0.1518 -0.0160
 6043SOL    HW129588   1.155   3.673  14.936  0.1273  0.7203  0.5328
 6043SOL    HW229589   1.049   3.653  14.831  2.3853 -1.9602  0.5251
 6044SOL     OW29590   0.272   4.673   9.234  0.4439 -0.3301  0.3326
 6044SOL    HW129591   0.201   0.004   9.269 -1.4014 -1.5806 -1.5664
 6044SOL    HW229592   0.233   4.587   9.250  1.7361 -1.3299 -1.9778
 6045SOL     OW29593   0.022   2.731   6.795 -0.4752 -0.3226  0.1802
 6045SOL    HW129594   4.666   2.708   6.746 -0.2056  0.1180 -0.4555
 6045SOL    HW229595   0.004   2.818   6.831 -4.3618 -0.7409 -0.6932
 6046SOL     OW29596   0.439   1.792   8.104  0.3331  0.0661 -0.2429
 6046SOL    HW129597   0.389   1.753   8.032  0.8894 -1.2162  0.0663
 6046SOL    HW229598   0.491   1.852   8.051 -0.8499  0.2604 -1.1935
 6047SOL     OW29599   4.594   1.187   7.203  0.2590 -0.1453  0.1239
 6047SOL    HW129600   4.590   1.239   7.123  0.8707 -1.8043 -0.9839
 6047SOL    HW229601   4.516   1.214   7.252  1.0397  3.3038 -0.4752
 6048SOL     OW29602   0.617   2.186   2.447  0.0687  0.7469 -0.4403
 6048SOL    HW129603   0.548   2.120   2.445 -1.4550  2.3092  0.5976
 6048SOL    HW229604   0.593   2.235   2.368 -0.4397 -0.0562 -0.7827
 6049SOL     OW29605   0.348   1.321   4.709  0.0116  0.1538  0.2272
 6049SOL    HW129606   0.328   1.269   4.631 -0.5698  0.2794  0.2934
 6049SOL    HW229607   0.352   1.249   4.772 -1.1112  0.6760  0.8836
 6050SOL     OW29608   1.386   4.551  11.508  0.1616  0.1463  0.0231
 6050SOL    HW129609   1.339   4.474  11.474  2.7165 -0.6752 -1.7009
 6050SOL    HW229610   1.389   4.520  11.599  1.3994 -2.6058 -0.9368
 6051SOL     OW29611   1.249   3.140  14.869  1.2989 -0.5184  0.1112
 6051SOL    HW129612   1.341   3.153  14.894  1.0435  0.3876  0.5555
 6051SOL    HW229613   1.227   3.068  14.928  0.4586 -0.6448 -0.3691
 6052SOL     OW29614   0.356   0.151   2.420 -0.0303 -0.1639 -0.1733
 6052SOL    HW129615   0.309   0.166   2.338 -2.1378 -1.6652  0.7495
 6052SOL    HW229616   0.333   0.226   2.474  2.1236 -0.1503  0.7270
 6053SOL     OW29617   2.993   1.899   4.321  0.5314  0.0351  0.5917
 6053SOL    HW129618   2.982   1.882   4.414 -1.2445 -0.6684  0.2370
 6053SOL    HW229619   2.993   1.994   4.330 -0.4815  0.1558 -0.7400
 6054SOL     OW29620   4.684   2.160   8.408  0.5195 -0.0885  0.4516
 6054SOL    HW129621   4.650   2.142   8.495 -1.5798 -0.1370 -0.3918
 6054SOL    HW229622   0.038   2.213   8.428 -0.0949  0.7503  0.5381
 6055SOL     OW29623   2.854   4.510   4.494  0.9776 -0.6203 -0.0987
 6055SOL    HW129624   2.800   4.575   4.450  1.4272  0.7550  1.4250
 6055SOL    HW229625   2.859   4.452   4.418 -1.3788  0.2948 -0.9402
 6056SOL     OW29626   1.743   1.666  14.003 -0.3968 -0.7427  0.5458
 6056SOL    HW129627   1.735   1.750  13.960  1.0764 -0.0122  1.7091
 6056SOL    HW229628   1.686   1.624  13.938  1.2736  0.4434 -1.6831
 6057SOL     OW29629   4.178   2.487  13.366  0.5403 -0.2167 -0.1074
 6057SOL    HW129630   4.191   2.414  13.306  0.8155 -0.6772  0.5112
 6057SOL    HW229631   4.192   2.453  13.455  1.1503 -1.9105 -0.8537
 6058SOL     OW29632   4.405   1.570  12.532  0.1282 -0.0870  0.6129
 6058SOL    HW129633   4.329   1.600  12.582 -1.2463  0.0442 -1.5244
 6058SOL    HW229634   4.436   1.638  12.472  0.5390 -0.9282 -0.1312
 6059SOL     OW29635   1.785   2.396  10.719 -0.0475 -0.4236  0.0327
 6059SOL    HW129636   1.854   2.439  10.769 -1.7992  2.0365  0.3818
 6059SOL    HW229637   1.791   2.449  10.639  1.1642 -1.2770 -0.4315
 6060SOL     OW29638   0.637   2.205  10.233  0.2010 -0.6067 -0.3897
 6060SOL    HW129639   0.603   2.213  10.322 -0.1887 -0.5519 -0.5465
 6060SOL    HW229640   0.732   2.202  10.245 -0.0571 -0.4783  1.6022
 6061SOL     OW29641   1.586   0.049   1.528 -0.0687 -0.2569 -0.0325
 6061SOL    HW129642   1.504   0.063   1.481 -0.2344  0.0544  0.3385
 6061SOL    HW229643   1.560   0.073   1.617  0.6080 -0.0901  0.1250
 6062SOL     OW29644   0.473   3.363   5.467 -0.2776  0.2278 -0.4494
 6062SOL    HW129645   0.557   3.319   5.461  0.6651  1.7894  1.0892
 6062SOL    HW229646   0.473   3.366   5.563 -0.1373 -0.8671 -0.4161
 6063SOL     OW29647   1.133   1.885   8.993 -0.4346  0.2387 -0.1471
 6063SOL    HW129648   1.160   1.921   8.908 -0.8545 -2.1784 -1.2835
 6063SOL    HW229649   1.154   1.794   8.975  1.7830  0.7104  0.0008
 6064SOL     OW29650   1.253   1.950  14.195  0.3518 -0.0059 -0.7571
 6064SOL    HW129651   1.247   1.891  14.270  3.2071 -0.3011 -0.7717
 6064SOL    HW229652   1.345   1.975  14.196  0.0297  1.1422  0.5198
 6065SOL     OW29653   1.702   0.029   5.494  0.4453 -0.4952 -0.3652
 6065SOL    HW129654   1.726   4.714   5.409 -0.0375 -0.9908 -0.2790
 6065SOL    HW229655   1.776   0.004   5.550 -0.7530 -1.3768  0.8200
 6066SOL     OW29656   0.143   1.375   4.271 -0.1710 -0.1928  0.5956
 6066SOL    HW129657   0.197   1.448   4.242 -1.2853 -0.0906 -1.2434
 6066SOL    HW229658   0.064   1.401   4.224 -1.1582 -0.7744  1.9443
 6067SOL     OW29659   0.201   1.091   2.739  0.2057 -0.2149  0.2217
 6067SOL    HW129660   0.143   1.131   2.674  0.8515  1.9204  0.9817
 6067SOL    HW229661   0.176   1.124   2.825  0.6142  1.3584 -0.2710
 6068SOL     OW29662   3.303   1.817   5.109 -0.2060 -0.2724 -0.2695
 6068SOL    HW129663   3.238   1.784   5.046 -0.1815  0.6917 -0.8033
 6068SOL    HW229664   3.244   1.822   5.184 -0.3411  3.3789 -0.6024
 6069SOL     OW29665   3.613   0.109   5.543  0.5277 -0.1987  0.2477
 6069SOL    HW129666   3.583   0.105   5.634 -0.4436 -3.1856 -0.2284
 6069SOL    HW229667   3.578   0.197   5.526  0.7374  0.2406  2.0370
 6070SOL     OW29668   0.799   3.199   4.440 -0.2811 -0.1632  0.6551
 6070SOL    HW129669   0.728   3.150   4.482  0.8135 -1.3877  1.0747
 6070SOL    HW229670   0.755   3.228   4.360 -1.9539 -1.3104  1.1527
 6071SOL     OW29671   4.594   1.715   6.487  0.2242 -0.4051  0.9399
 6071SOL    HW129672   4.637   1.632   6.509  2.6797  0.1457 -1.7788
 6071SOL    HW229673   4.503   1.690   6.475  0.3379  0.4094 -1.5273
 6072SOL     OW29674   2.459   2.488   6.059  0.9450 -0.2619  0.4325
 6072SOL    HW129675   2.486   2.465   6.148  0.2973  1.3386  1.0459
 6072SOL    HW229676   2.540   2.486   6.008  0.2129 -1.7390 -0.6493
 6073SOL     OW29677   4.016   1.159   9.667  0.4937  0.0774  0.4854
 6073SOL    HW129678   4.006   1.228   9.733  0.5715  1.5878 -1.0901
 6073SOL    HW229679   3.926   1.126   9.663  0.0197  1.2527  1.6326
 6074SOL     OW29680   4.078   1.587   6.995 -0.3741 -0.2561 -0.1718
 6074SOL    HW129681   4.120   1.653   6.940  0.8693  0.5804  1.7926
 6074SOL    HW229682   4.148   1.541   7.042 -1.0839 -1.5432 -0.3854
 6075SOL     OW29683   0.048   4.057   0.935  0.1416  0.7842  0.1684
 6075SOL    HW129684   0.102   3.991   0.891 -2.4185 -0.8029 -0.5889
 6075SOL    HW229685   0.033   4.119   0.864  0.9508 -0.1023 -0.7654
 6076SOL     OW29686   1.790   3.245   7.831 -0.1449 -0.1110  0.1361
 6076SOL    HW129687   1.711   3.275   7.786  1.1399  1.1363 -1.2860
 6076SOL    HW229688   1.832   3.188   7.766 -1.0157  0.1293 -0.6248
 6077SOL     OW29689   3.945   0.523   2.488 -0.3586  0.3666 -0.3479
 6077SOL    HW129690   3.922   0.606   2.445  2.2465  1.3724  0.2270
 6077SOL    HW229691   3.864   0.489   2.527 -0.1799  0.4620  0.1009
 6078SOL     OW29692   3.264   3.371   6.626  0.4562  0.5005 -0.0218
 6078SOL    HW129693   3.323   3.319   6.572  0.1941 -1.7681  1.8658
 6078SOL    HW229694   3.295   3.460   6.607 -0.8321  1.0451  0.4431
 6079SOL     OW29695   3.292   3.441   3.297 -0.3159 -0.0811  0.4691
 6079SOL    HW129696   3.205   3.412   3.269  0.7575 -0.0648 -2.9039
 6079SOL    HW229697   3.327   3.473   3.213  1.7883 -2.5070  0.4135
 6080SOL     OW29698   4.446   1.170   2.214 -0.3590 -0.7409  0.2054
 6080SOL    HW129699   4.491   1.093   2.247 -0.5813 -0.9329  0.0605
 6080SOL    HW229700   4.474   1.174   2.122  3.2635 -0.6370  1.2905
 6081SOL     OW29701   2.028   1.566   2.594  0.7866 -0.2994 -0.3512
 6081SOL    HW129702   2.014   1.489   2.539  0.4262  1.1304 -2.2782
 6081SOL    HW229703   2.117   1.593   2.572  0.7715  0.2651  0.2734
 6082SOL     OW29704   4.629   3.861   4.556 -0.0584  0.3671  0.9539
 6082SOL    HW129705   4.537   3.875   4.578  0.5757  3.6926  1.4930
 6082SOL    HW229706   4.614   3.817   4.472 -1.2501 -0.9265  1.8466
 6083SOL     OW29707   3.875   1.883   6.118  0.2941 -0.0790 -0.0126
 6083SOL    HW129708   3.794   1.934   6.116  0.2974 -0.0860 -0.4225
 6083SOL    HW229709   3.879   1.856   6.209  1.0511 -0.2751 -0.0999
 6084SOL     OW29710   4.551   3.076   8.343  0.3395 -0.2865  0.1930
 6084SOL    HW129711   4.616   3.146   8.349  0.6131 -0.5950  0.8847
 6084SOL    HW229712   4.614   3.005   8.358  1.1609  0.2101 -0.8746
 6085SOL     OW29713   3.364   2.913   4.691 -0.0243 -0.2761  0.2366
 6085SOL    HW129714   3.445   2.933   4.738 -1.2400  1.6782  1.4953
 6085SOL    HW229715   3.381   2.942   4.601 -1.4732  0.5763  0.2453
 6086SOL     OW29716   2.906   2.526   6.545  0.1804  0.0505 -0.2503
 6086SOL    HW129717   2.844   2.513   6.616 -1.1639  1.7718 -1.1068
 6086SOL    HW229718   2.907   2.438   6.506 -0.0178  1.6356 -3.8008
 6087SOL     OW29719   1.119   2.732   7.075  0.2124  0.3267  0.6407
 6087SOL    HW129720   1.128   2.704   6.984 -0.7742 -0.9226  0.9299
 6087SOL    HW229721   1.086   2.654   7.119  4.3394 -1.7488  0.0303
 6088SOL     OW29722   2.167   1.218   1.179 -0.9238  0.6775 -0.2247
 6088SOL    HW129723   2.198   1.132   1.205 -0.2909  0.8042 -0.5623
 6088SOL    HW229724   2.080   1.194   1.146 -0.0685 -1.3099 -1.0665
 6089SOL     OW29725   1.900   3.853   8.413 -0.0931  0.0473  0.0596
 6089SOL    HW129726   1.837   3.781   8.421  0.2460 -0.2586 -0.0252
 6089SOL    HW229727   1.879   3.888   8.499 -1.2170  0.3886 -0.3471
 6090SOL     OW29728   2.198   0.324   1.399  0.3697  0.1422 -0.0644
 6090SOL    HW129729   2.122   0.365   1.440  1.9035  1.6605  1.2883
 6090SOL    HW229730   2.258   0.313   1.473  1.9445 -1.6677 -1.6194
 6091SOL     OW29731   1.171   1.625  13.093  0.5330  0.0785 -0.0939
 6091SOL    HW129732   1.229   1.673  13.032  1.3109 -1.8905 -0.8923
 6091SOL    HW229733   1.151   1.696  13.154  0.8914 -1.9231  2.3215
 6092SOL     OW29734   1.891   1.931  14.172 -0.2107  0.8535  0.2909
 6092SOL    HW129735   1.865   1.886  14.092 -1.9203 -0.2022  1.4214
 6092SOL    HW229736   1.975   1.966  14.143 -0.0052  0.3472  0.2737
 6093SOL     OW29737   3.055   2.162  15.758  0.0257 -0.4688 -0.2198
 6093SOL    HW129738   3.036   2.148  15.665 -3.4601  0.9740  0.3013
 6093SOL    HW229739   2.997   2.100  15.803  1.8353 -1.9382  0.0963
 6094SOL     OW29740   3.461   1.169   4.615  0.3408 -0.7188  0.4793
 6094SOL    HW129741   3.476   1.083   4.577  1.3831  0.0274 -0.7714
 6094SOL    HW229742   3.423   1.214   4.539  1.2244  0.1288  0.5383
 6095SOL     OW29743   2.438   4.286   1.855  0.2751 -0.2424 -0.0116
 6095SOL    HW129744   2.390   4.203   1.862 -1.3220  0.7921  1.2827
 6095SOL    HW229745   2.488   4.272   1.775  2.5821  0.6803  1.2970
 6096SOL     OW29746   2.767   1.362   8.844 -0.2708 -0.0386  0.2539
 6096SOL    HW129747   2.821   1.383   8.920  0.5085 -0.0151 -0.2949
 6096SOL    HW229748   2.788   1.426   8.776 -1.2685  0.7695  0.7109
 6097SOL     OW29749   1.379   1.162   9.223  0.0296 -0.0890 -0.2183
 6097SOL    HW129750   1.316   1.213   9.274 -1.4391  0.1323 -2.2492
 6097SOL    HW229751   1.436   1.107   9.277 -1.7095 -0.6220  1.0925
 6098SOL     OW29752   1.025   1.714   3.914  0.4437  0.2922 -0.0834
 6098SOL    HW129753   1.028   1.807   3.891  0.2098 -0.0987 -1.6437
 6098SOL    HW229754   1.108   1.696   3.958  0.1277 -0.4491  0.2108
 6099SOL     OW29755   1.267   1.126  13.862 -0.3406  0.5469 -0.2165
 6099SOL    HW129756   1.355   1.089  13.867 -0.6146 -0.1323 -0.4851
 6099SOL    HW229757   1.305   1.213  13.879 -0.2614  0.6420 -0.8996
 6100SOL     OW29758   1.823   0.572  11.543 -0.1185 -0.0771 -0.2706
 6100SOL    HW129759   1.756   0.597  11.479 -0.7738 -2.5982 -0.5508
 6100SOL    HW229760   1.875   0.651  11.555 -0.0953 -0.1380  0.0252
 6101SOL     OW29761   3.120   1.410  15.678 -0.2528 -0.0118  0.1699
 6101SOL    HW129762   3.060   1.415  15.752  0.0178  0.1310  0.3787
 6101SOL    HW229763   3.127   1.505  15.676  1.9959 -0.2235 -2.3715
 6102SOL     OW29764   2.167   1.904   7.664  0.1982  0.2215  1.1166
 6102SOL    HW129765   2.182   1.824   7.614 -0.4248  0.6679  0.2214
 6102SOL    HW229766   2.106   1.949   7.605  2.1686  0.0123 -1.0900
 6103SOL     OW29767   0.957   4.229   4.244  0.0827 -0.0644  0.0887
 6103SOL    HW129768   0.861   4.221   4.239 -0.1095  2.0260  0.4976
 6103SOL    HW229769   0.961   4.245   4.338  2.3919  0.3776 -0.0869
 6104SOL     OW29770   2.376   3.385   6.639 -0.4586 -0.4677  0.1100
 6104SOL    HW129771   2.441   3.454   6.625 -0.6430  0.0310  1.7377
 6104SOL    HW229772   2.330   3.428   6.712 -2.9171  1.6084 -2.6716
 6105SOL     OW29773   4.348   4.125   4.720  0.8741  0.1677 -0.3152
 6105SOL    HW129774   4.368   4.126   4.626 -1.5289  0.4628 -0.8226
 6105SOL    HW229775   4.439   4.113   4.747  0.6527 -0.3649  0.1882
 6106SOL     OW29776   2.607   3.469   0.301 -0.1344  0.1021  0.5965
 6106SOL    HW129777   2.678   3.509   0.352 -0.6668 -1.7006  2.7837
 6106SOL    HW229778   2.529   3.522   0.321 -0.5707  0.1368 -1.2249
 6107SOL     OW29779   4.598   3.298  10.791 -0.2968 -0.0238 -0.0664
 6107SOL    HW129780   4.602   3.320  10.884 -1.5059 -0.3603  0.0747
 6107SOL    HW229781   4.579   3.388  10.765  1.7208 -0.0549 -1.6762
 6108SOL     OW29782   1.905   2.019   0.349  0.0743 -0.1701  0.4952
 6108SOL    HW129783   1.996   2.013   0.320 -0.4527 -0.4765 -1.1203
 6108SOL    HW229784   1.857   2.058   0.276  1.3291 -0.4859 -0.4972
 6109SOL     OW29785   2.173   1.335   7.779 -0.1013 -0.5946  0.0903
 6109SOL    HW129786   2.237   1.266   7.797  1.0718  1.3171  3.2982
 6109SOL    HW229787   2.115   1.294   7.714  1.2862 -0.6115 -1.1354
 6110SOL     OW29788   3.245   2.229   2.256 -0.0793 -0.8290  0.7695
 6110SOL    HW129789   3.185   2.231   2.332 -2.9873 -0.0064 -1.5516
 6110SOL    HW229790   3.247   2.136   2.232 -0.3779 -1.1103  1.8093
 6111SOL     OW29791   2.693   2.415   2.568 -0.0971  0.4864  0.0317
 6111SOL    HW129792   2.752   2.356   2.615  0.5106  1.0844  0.0130
 6111SOL    HW229793   2.727   2.501   2.592  1.8684  0.5119 -2.7931
 6112SOL     OW29794   2.296   3.434   0.708 -0.3624  0.3585 -0.3946
 6112SOL    HW129795   2.276   3.447   0.616  1.0149  2.1732 -0.4151
 6112SOL    HW229796   2.345   3.352   0.706 -0.4813  0.2186  2.3546
 6113SOL     OW29797   4.523   0.582   2.625 -0.0593  0.5471 -0.0845
 6113SOL    HW129798   4.517   0.604   2.718 -1.4812 -2.2641  0.4893
 6113SOL    HW229799   4.513   0.487   2.626  0.1237  0.5229 -0.3602
 6114SOL     OW29800   2.723   4.175   8.818 -0.3908  0.4843  0.2596
 6114SOL    HW129801   2.754   4.183   8.908  0.4403 -1.8733  0.1918
 6114SOL    HW229802   2.663   4.100   8.820 -0.7095  0.7156 -0.6951
 6115SOL     OW29803   0.732   4.688   2.101 -0.0642 -0.0623 -0.6057
 6115SOL    HW129804   0.733   4.594   2.082 -1.2235 -0.1099 -0.4313
 6115SOL    HW229805   0.742   4.683   2.196 -0.6498 -0.0097 -0.5417
 6116SOL     OW29806   0.668   3.979   6.390 -0.4373 -0.5639  0.0236
 6116SOL    HW129807   0.726   3.906   6.409 -1.4610 -1.0605  1.2963
 6116SOL    HW229808   0.672   3.979   6.294 -0.2626  0.0316  0.0332
 6117SOL     OW29809   3.987   0.641   5.762  0.2894  0.1860 -0.3606
 6117SOL    HW129810   4.037   0.598   5.831 -1.4596  0.2571  0.9389
 6117SOL    HW229811   3.981   0.572   5.696 -1.7981  2.0152 -2.0847
 6118SOL     OW29812   1.889   0.280   7.536 -0.4646 -0.3515  0.0933
 6118SOL    HW129813   1.840   0.260   7.616 -0.7603  0.7862  0.1941
 6118SOL    HW229814   1.921   0.366   7.563 -1.2931  0.3506 -1.2189
 6119SOL     OW29815   1.242   2.211   1.129 -0.4200  1.3833 -0.0886
 6119SOL    HW129816   1.285   2.190   1.046 -4.2380 -2.5855 -1.0616
 6119SOL    HW229817   1.186   2.284   1.105 -1.2756 -0.2533 -3.1619
 6120SOL     OW29818   1.369   2.424  16.070  0.0547 -0.1646  0.7207
 6120SOL    HW129819   1.450   2.377  16.054 -1.4478 -1.8462 -1.9500
 6120SOL    HW229820   1.305   2.363  16.034  2.3024 -2.5158  0.7623
 6121SOL     OW29821   1.060   1.381   2.071  0.2498  0.4141 -0.5407
 6121SOL    HW129822   1.132   1.441   2.052  3.1726 -2.8249  0.4123
 6121SOL    HW229823   1.070   1.352   2.162 -1.3552  2.5948  0.3377
 6122SOL     OW29824   2.757   2.506   7.776  0.0335  0.6116  0.3041
 6122SOL    HW129825   2.667   2.510   7.742 -0.7835  1.9700  2.5875
 6122SOL    HW229826   2.796   2.454   7.707 -0.0334  0.1666  0.6012
 6123SOL     OW29827   3.649   4.233   5.825  0.4438 -0.0331 -0.1886
 6123SOL    HW129828   3.599   4.183   5.889 -1.7749  0.8047 -1.2586
 6123SOL    HW229829   3.707   4.272   5.890  0.6405  0.3457 -0.5903
 6124SOL     OW29830   2.054   0.716   7.553 -0.0917 -0.1670 -0.1151
 6124SOL    HW129831   2.080   0.784   7.615 -1.0140  0.6540 -0.6284
 6124SOL    HW229832   2.035   0.774   7.479 -1.3432 -0.1561  0.2047
 6125SOL     OW29833   1.739   3.937  11.696 -0.0982 -0.1744  0.4805
 6125SOL    HW129834   1.644   3.929  11.705  0.2034 -3.2256  0.9478
 6125SOL    HW229835   1.753   3.882  11.619 -2.2021 -2.3334  1.6001
 6126SOL     OW29836   4.245   3.517   5.214 -0.0510  0.6018 -0.2075
 6126SOL    HW129837   4.213   3.427   5.215 -0.8967  0.8996 -0.2181
 6126SOL    HW229838   4.164   3.567   5.205 -0.4161  0.3050  1.3996
 6127SOL     OW29839   0.416   0.897   9.784  0.5373 -0.2052  0.0691
 6127SOL    HW129840   0.458   0.948   9.852  2.4442 -0.7215 -0.7313
 6127SOL    HW229841   0.360   0.967   9.750  0.7895  0.1629  0.4291
 6128SOL     OW29842   1.617   0.769  11.540  0.6060 -0.7851  0.1044
 6128SOL    HW129843   1.624   0.721  11.458  0.9280  1.4625 -1.1695
 6128SOL    HW229844   1.637   0.862  11.529 -1.6030 -0.3867 -0.6390
 6129SOL     OW29845   3.303   0.386   0.162  0.9940 -0.1264 -0.0808
 6129SOL    HW129846   3.240   0.345   0.102  2.5783 -0.2262 -1.6965
 6129SOL    HW229847   3.284   0.336   0.241 -2.1284  1.5963  0.2460
 6130SOL     OW29848   4.068   3.647   3.347  0.2032  0.0381 -0.3925
 6130SOL    HW129849   4.008   3.663   3.420 -0.3751 -2.1323 -0.3926
 6130SOL    HW229850   4.103   3.736   3.339 -0.2433  0.3086  0.5491
 6131SOL     OW29851   2.570   0.857   7.345  0.1930 -0.1455  0.3220
 6131SOL    HW129852   2.563   0.795   7.417  0.7369  1.2572  1.5996
 6131SOL    HW229853   2.588   0.794   7.275 -0.5515  0.7895 -0.7237
 6132SOL     OW29854   0.216   0.915   7.603 -0.3319  0.1329 -0.0007
 6132SOL    HW129855   0.243   0.979   7.538 -0.9716 -2.0115 -2.3967
 6132SOL    HW229856   0.297   0.889   7.646 -1.2615 -1.7714  0.6191
 6133SOL     OW29857   0.723   2.136   9.506 -0.6547 -0.0270  0.2412
 6133SOL    HW129858   0.772   2.056   9.487 -0.2075  0.2354  0.2917
 6133SOL    HW229859   0.790   2.201   9.488 -1.0960  1.1162  2.8536
 6134SOL     OW29860   1.183   3.568  16.381  0.4515  0.0641  0.2449
 6134SOL    HW129861   1.104   3.617  16.359 -0.1392 -0.6791  0.7198
 6134SOL    HW229862   1.177   3.488  16.329 -0.2367  1.4014 -1.6949
 6135SOL     OW29863   0.637   4.355   6.470  0.3996 -0.5321 -0.2777
 6135SOL    HW129864   0.645   4.316   6.383 -3.0910 -0.9447 -0.4118
 6135SOL    HW229865   0.714   4.409   6.481 -0.0562  0.6908 -3.1094
 6136SOL     OW29866   1.610   1.516   3.554 -0.2502 -0.2778 -0.4879
 6136SOL    HW129867   1.638   1.562   3.475 -0.8395  0.6314 -0.1602
 6136SOL    HW229868   1.525   1.557   3.573 -1.2083 -2.5648  0.2146
 6137SOL     OW29869   3.977   1.083  11.684 -0.2243  0.0301  0.4809
 6137SOL    HW129870   3.919   1.053  11.753 -0.4799 -0.8989 -0.1415
 6137SOL    HW229871   3.970   1.011  11.621  0.8652  1.2558 -1.0649
 6138SOL     OW29872   3.475   3.705   8.983  0.0004 -0.7896  0.3942
 6138SOL    HW129873   3.438   3.711   9.071  1.6308 -1.2604  1.1318
 6138SOL    HW229874   3.521   3.621   8.985 -0.5087 -1.0723  0.2320
 6139SOL     OW29875   2.226   0.329  17.104  0.2176 -0.5709 -0.7314
 6139SOL    HW129876   2.286   0.274  17.154 -2.8037 -2.1337  1.2447
 6139SOL    HW229877   2.287   0.382  17.053  1.5595 -0.2742  1.2096
 6140SOL     OW29878   1.494   0.559   3.008 -0.1151  0.1144 -0.4805
 6140SOL    HW129879   1.580   0.587   3.040  0.2367  1.1643 -2.3788
 6140SOL    HW229880   1.428   0.606   3.058 -0.5582 -1.8481  0.7695
 6141SOL     OW29881   0.588   2.184   4.908  0.0940 -0.4696  0.0160
 6141SOL    HW129882   0.550   2.147   4.829 -0.5931  0.3653 -0.0471
 6141SOL    HW229883   0.528   2.255   4.932 -0.4339 -1.8287  2.7260
 6142SOL     OW29884   4.599   4.310   3.632  0.2357 -0.1573  0.1786
 6142SOL    HW129885   4.627   4.244   3.695 -0.1650 -0.3603  0.1436
 6142SOL    HW229886   4.662   4.381   3.645 -0.7804  0.7209  0.3741
 6143SOL     OW29887   3.188   3.240  14.575  0.3370  0.6115 -0.9583
 6143SOL    HW129888   3.216   3.171  14.515  0.9159 -1.1444  1.3118
 6143SOL    HW229889   3.128   3.295  14.525 -1.0745 -0.5418 -0.5422
 6144SOL     OW29890   1.054   1.199  13.680 -0.1768  0.1696 -0.7868
 6144SOL    HW129891   1.120   1.267  13.665  1.6487 -1.3157  0.4152
 6144SOL    HW229892   1.102   1.136  13.734 -1.2591  0.2273  0.2469
 6145SOL     OW29893   4.083   1.888   3.568  0.3454  0.0396  0.4525
 6145SOL    HW129894   4.123   1.937   3.640  2.9001 -1.4110  0.0171
 6145SOL    HW229895   3.993   1.871   3.596 -0.5028  0.9514 -1.6711
 6146SOL     OW29896   1.156   0.525   4.086  0.7562 -0.4177 -0.2529
 6146SOL    HW129897   1.084   0.496   4.030 -0.2587 -0.1805  0.9260
 6146SOL    HW229898   1.164   0.615   4.053 -0.1203 -0.7626 -1.3893
 6147SOL     OW29899   0.573   0.399   7.274 -0.2922 -0.6111 -0.1510
 6147SOL    HW129900   0.631   0.352   7.334 -0.3908  0.1976  0.5816
 6147SOL    HW229901   0.486   0.394   7.312 -0.6900 -1.7826 -1.2038
 6148SOL     OW29902   3.093   1.302   6.275 -0.0606 -0.0027  0.2981
 6148SOL    HW129903   3.165   1.362   6.293  0.4893 -0.5458 -0.1204
 6148SOL    HW229904   3.072   1.328   6.186 -0.1510  2.2125  0.9638
 6149SOL     OW29905   0.275   0.566   3.063 -0.0443 -0.5521 -0.4375
 6149SOL    HW129906   0.224   0.489   3.086 -0.3475 -0.1785  0.1246
 6149SOL    HW229907   0.349   0.510   3.039 -0.0776 -0.6556 -0.3016
 6150SOL     OW29908   1.179   3.330   5.344  0.0922  0.1793 -0.0143
 6150SOL    HW129909   1.206   3.414   5.307  0.5908  0.6341  1.3802
 6150SOL    HW229910   1.259   3.291   5.379  0.0328 -1.3246 -1.5437
 6151SOL     OW29911   1.205   3.051  12.400 -0.7672 -0.4559 -0.1355
 6151SOL    HW129912   1.268   2.982  12.380  0.8789  1.4865 -1.6539
 6151SOL    HW229913   1.149   2.990  12.446 -0.4647 -0.9750 -0.4552
 6152SOL     OW29914   3.945   2.685   7.426  0.2629 -0.5589  0.0602
 6152SOL    HW129915   3.855   2.718   7.431  0.9919  1.2316  1.4497
 6152SOL    HW229916   3.939   2.605   7.479  2.3184  0.8112  2.3930
 6153SOL     OW29917   3.069   1.122  10.476 -0.1011  0.2712 -1.0527
 6153SOL    HW129918   2.991   1.146  10.425 -0.9528  0.1965  0.2283
 6153SOL    HW229919   3.055   1.184  10.547  1.9281 -1.4182  0.7741
 6154SOL     OW29920   2.971   2.175   6.857  0.1380 -0.6277  0.0890
 6154SOL    HW129921   3.014   2.100   6.814  0.7068 -1.2056  1.6818
 6154SOL    HW229922   3.046   2.202   6.910 -0.1718 -0.5769  0.4952
 6155SOL     OW29923   1.895   3.939  14.196  0.0274 -0.3800 -0.0098
 6155SOL    HW129924   1.840   3.868  14.164  0.8161 -1.5413  1.2315
 6155SOL    HW229925   1.922   3.895  14.276 -1.3308  0.8976  1.1472
 6156SOL     OW29926   0.689   0.736   7.913  0.4558 -0.1416 -0.0520
 6156SOL    HW129927   0.651   0.779   7.990 -1.3048  0.2742 -1.1693
 6156SOL    HW229928   0.620   0.731   7.847 -0.5994  0.5471  0.9940
 6157SOL     OW29929   1.029   4.139   8.096  0.7322  0.3966  0.7148
 6157SOL    HW129930   0.965   4.127   8.026  1.2062  0.3956  0.2819
 6157SOL    HW229931   1.080   4.211   8.059 -0.2940  0.7638  0.0264
 6158SOL     OW29932   3.572   3.043   6.057 -0.3140 -0.0429  0.0407
 6158SOL    HW129933   3.589   3.010   5.969  2.3760  2.4515 -0.3964
 6158SOL    HW229934   3.573   3.136   6.035  1.1212 -0.4587 -1.5755
 6159SOL     OW29935   4.164   3.684   1.587  0.1109  0.6772 -0.1165
 6159SOL    HW129936   4.215   3.625   1.532 -1.0891 -1.7344  1.3444
 6159SOL    HW229937   4.165   3.639   1.671  0.2536  0.9057  0.0040
 6160SOL     OW29938   4.564   3.239   0.168  0.8466  0.0974 -0.3065
 6160SOL    HW129939   4.618   3.194   0.234  1.6000 -1.4796 -1.9978
 6160SOL    HW229940   4.585   3.332   0.181  0.0558  0.3954 -1.1988
 6161SOL     OW29941   4.095   1.428   4.613 -0.3321  0.2713  0.4925
 6161SOL    HW129942   4.072   1.338   4.591 -0.8506  0.7783 -1.0392
 6161SOL    HW229943   4.157   1.457   4.546  0.8158  1.1860  1.9452
 6162SOL     OW29944   2.654   2.187   7.403 -0.0283 -0.3992  0.1801
 6162SOL    HW129945   2.638   2.136   7.482 -1.1319  1.7816  1.3746
 6162SOL    HW229946   2.695   2.121   7.347 -0.5151  0.4552 -1.2098
 6163SOL     OW29947   0.222   1.604   0.371 -0.6538  0.2977 -0.3649
 6163SOL    HW129948   0.174   1.663   0.313 -0.6227  0.5951 -0.0883
 6163SOL    HW229949   0.155   1.579   0.434  2.3899 -1.7373  2.0548
 6164SOL     OW29950   4.197   3.490   9.547  0.6820 -0.6027 -0.0748
 6164SOL    HW129951   4.169   3.580   9.561  3.0487 -0.0198  0.9092
 6164SOL    HW229952   4.285   3.493   9.585 -0.1975 -0.9825  1.9951
 6165SOL     OW29953   2.829   2.535   1.830  0.4361 -0.5268  0.3686
 6165SOL    HW129954   2.775   2.467   1.870 -0.4646  1.7958  3.1456
 6165SOL    HW229955   2.853   2.583   1.910 -0.6739  0.2142  0.2561
 6166SOL     OW29956   0.888   4.087   2.412  0.5317  0.3925 -0.4043
 6166SOL    HW129957   0.882   4.036   2.331 -0.1849  0.8358 -0.6286
 6166SOL    HW229958   0.962   4.146   2.392 -0.6187  1.4400 -1.5270
 6167SOL     OW29959   0.084   0.366  14.665 -0.0738 -0.3108  0.3276
 6167SOL    HW129960   0.046   0.408  14.742  0.7261 -0.1190  0.6117
 6167SOL    HW229961   0.013   0.308  14.636  0.9617 -1.7094  0.5682
 6168SOL     OW29962   2.124   1.284  11.459 -0.4577  0.1458 -0.1220
 6168SOL    HW129963   2.169   1.360  11.423  0.9857 -0.9546 -0.6176
 6168SOL    HW229964   2.035   1.313  11.481  0.3619  2.6283 -0.0872
 6169SOL     OW29965   0.876   0.211  14.976  0.1815 -0.7347 -0.1710
 6169SOL    HW129966   0.862   0.155  15.053 -2.0081  1.6331  1.1871
 6169SOL    HW229967   0.865   0.146  14.907 -0.0235  1.4984 -2.2148
 6170SOL     OW29968   1.541   0.157   8.621 -0.0890 -0.0739 -0.7219
 6170SOL    HW129969   1.553   0.112   8.704  5.4092  2.2137 -0.2395
 6170SOL    HW229970   1.530   0.087   8.557 -0.7960 -0.1730 -0.4852
 6171SOL     OW29971   3.528   1.315   3.152  0.2721  0.0097  0.4720
 6171SOL    HW129972   3.464   1.246   3.140 -0.9279  1.2151 -0.0332
 6171SOL    HW229973   3.518   1.342   3.061  1.4074 -0.1901  0.2808
 6172SOL     OW29974   1.226   3.194   7.633 -0.3100 -0.2163  0.2563
 6172SOL    HW129975   1.245   3.232   7.719  2.3741 -0.6963 -0.1065
 6172SOL    HW229976   1.133   3.179   7.646 -1.0164  1.9563 -2.5222
 6173SOL     OW29977   0.051   2.946   0.715  0.3185 -0.1160 -0.2317
 6173SOL    HW129978   4.702   2.947   0.779  0.1197 -3.2122 -0.4036
 6173SOL    HW229979   0.121   2.989   0.764  1.7538  0.0018 -2.4141
 6174SOL     OW29980   0.377   0.634   7.281  0.2126  0.5016 -0.6867
 6174SOL    HW129981   0.391   0.606   7.191 -0.1083 -0.7964 -0.3295
 6174SOL    HW229982   0.301   0.692   7.275 -1.5397 -1.8527 -1.0141
 6175SOL     OW29983   0.088   1.425   4.843  0.5197 -0.4011 -0.5882
 6175SOL    HW129984   0.163   1.413   4.784 -1.1746 -2.4174 -2.3551
 6175SOL    HW229985   0.128   1.445   4.927  1.0019 -1.1403 -0.6492
 6176SOL     OW29986   4.506   2.774   7.090 -0.3269 -0.1139  0.1756
 6176SOL    HW129987   4.548   2.700   7.045 -2.0788 -0.5360 -0.7879
 6176SOL    HW229988   4.532   2.753   7.180 -1.3697 -0.2905  0.4368
 6177SOL     OW29989   2.069   4.706   9.087  0.0259  0.4824  0.0024
 6177SOL    HW129990   2.005   4.702   9.158  1.3404  0.6952  1.2077
 6177SOL    HW229991   2.027   4.647   9.024 -0.1901 -0.6138  1.1788
 6178SOL     OW29992   0.660   2.918   8.757 -0.1620 -0.0751  0.1791
 6178SOL    HW129993   0.731   2.939   8.698  1.1697  1.2010  2.2427
 6178SOL    HW229994   0.595   2.885   8.694  0.9934  0.6538 -1.3602
 6179SOL     OW29995   3.085   0.862   8.722 -0.1300 -0.2463  0.2275
 6179SOL    HW129996   3.111   0.913   8.646 -1.5562 -0.7364 -0.5942
 6179SOL    HW229997   3.083   0.933   8.787  0.0606 -0.1132  0.0870
 6180SOL     OW29998   0.866   1.722   4.750  0.0328  0.2076 -0.3171
 6180SOL    HW129999   0.788   1.774   4.769 -0.9152 -0.7337 -1.7298
 6180SOL    HW230000   0.904   1.800   4.710 -0.4705  1.1935  1.1188
 6181SOL     OW30001   2.947   3.785   5.544  0.6168  0.0212 -0.2032
 6181SOL    HW130002   2.860   3.777   5.582  0.3858  1.6940 -0.3737
 6181SOL    HW230003   2.930   3.780   5.450 -1.0352 -0.3674  0.1159
 6182SOL     OW30004   0.097   1.226   1.360 -0.3160  0.4041  0.3041
 6182SOL    HW130005   0.119   1.171   1.285  2.2807  0.1016  1.2956
 6182SOL    HW230006   0.049   1.162   1.413 -2.8822  1.7142 -0.4404
 6183SOL     OW30007   4.656   0.983   7.573 -0.1972 -0.0331  0.2494
 6183SOL    HW130008   0.022   0.972   7.607 -0.7060  0.6193  1.8424
 6183SOL    HW230009   4.686   1.002   7.484  2.3150 -0.8203  0.9487
 6184SOL     OW30010   2.426   3.939   5.994  0.6073  0.0911  1.0154
 6184SOL    HW130011   2.469   3.854   5.994  1.4700  0.5297  0.1951
 6184SOL    HW230012   2.386   3.931   6.081 -2.1353  0.3233 -0.2248
 6185SOL     OW30013   2.130   1.010   7.956 -0.3473 -0.4226  0.7168
 6185SOL    HW130014   2.169   1.077   8.012  1.5024 -1.1850  0.3640
 6185SOL    HW230015   2.140   0.935   8.014 -0.2055  1.0241  2.5568
 6186SOL     OW30016   1.899   1.301   9.027 -0.3329 -0.0326 -0.3252
 6186SOL    HW130017   1.965   1.232   9.032 -1.6708 -1.3163 -0.4793
 6186SOL    HW230018   1.836   1.282   9.095  0.9666 -1.0073  0.6063
 6187SOL     OW30019   2.576   3.843   7.189 -0.2496  0.0269  0.2551
 6187SOL    HW130020   2.559   3.935   7.168 -0.8458 -0.5657 -1.7800
 6187SOL    HW230021   2.654   3.859   7.243 -0.4920 -0.9739  0.8987
 6188SOL     OW30022   2.620   1.686  13.535 -0.1138  0.5461 -0.0806
 6188SOL    HW130023   2.595   1.593  13.532 -0.8865  0.8025 -1.7777
 6188SOL    HW230024   2.575   1.710  13.454  0.8134 -0.3359 -0.8619
 6189SOL     OW30025   1.186   0.205   8.167  0.4356  0.6410  0.2927
 6189SOL    HW130026   1.158   0.293   8.191  0.6619  0.6054  0.6944
 6189SOL    HW230027   1.101   0.169   8.143  1.2690  0.7305 -2.8060
 6190SOL     OW30028   1.678   2.100  17.360 -0.1726 -0.6981  0.1398
 6190SOL    HW130029   1.752   2.158  17.342 -1.4417  1.0824  0.6541
 6190SOL    HW230030   1.607   2.164  17.368  0.5408  0.2098 -0.7684
 6191SOL     OW30031   2.347   2.258  12.195  0.9822  0.2087  0.0843
 6191SOL    HW130032   2.324   2.351  12.195 -0.8664 -0.2333 -0.9635
 6191SOL    HW230033   2.306   2.220  12.273  0.7235 -1.3487 -0.8122
 6192SOL     OW30034   2.419   3.197   0.754 -0.5437  0.1596 -0.1576
 6192SOL    HW130035   2.348   3.159   0.702 -0.3817  1.7846 -1.5549
 6192SOL    HW230036   2.475   3.119   0.754  0.3986  0.8487  0.4814
 6193SOL     OW30037   0.028   0.210   2.664 -0.1023  0.1060 -0.3176
 6193SOL    HW130038   0.060   0.119   2.663  1.1247  0.5238  1.4055
 6193SOL    HW230039   4.656   0.198   2.667 -0.1762  0.5968 -0.7527
 6194SOL     OW30040   3.580   0.463   3.462 -0.1392 -0.3767  1.0571
 6194SOL    HW130041   3.655   0.405   3.459  0.5663  0.6146 -0.5332
 6194SOL    HW230042   3.549   0.444   3.373 -0.4436 -0.7409  1.2407
 6195SOL     OW30043   2.248   1.454   6.424  0.1350  0.3045  0.1127
 6195SOL    HW130044   2.288   1.524   6.476  0.9470  0.6336 -0.9315
 6195SOL    HW230045   2.154   1.459   6.437 -0.0462  1.0663 -1.4088
 6196SOL     OW30046   0.374   4.284   2.406  0.2058 -0.5221  0.4318
 6196SOL    HW130047   0.411   4.198   2.383  3.0466  0.6240  0.7377
 6196SOL    HW230048   0.333   4.256   2.488  0.6502 -2.8456 -0.1319
 6197SOL     OW30049   3.618   0.173   5.818  0.1979  0.0817  0.3669
 6197SOL    HW130050   3.650   0.150   5.905  0.5309  2.1098  0.7949
 6197SOL    HW230051   3.600   0.267   5.825 -0.3592 -0.0960  1.2949
 6198SOL     OW30052   4.306   3.999  10.528 -0.0064  0.5217 -0.6816
 6198SOL    HW130053   4.368   4.016  10.457  0.4160  1.2912 -0.1252
 6198SOL    HW230054   4.322   4.078  10.580 -1.3453  0.0625  0.4343
 6199SOL     OW30055   0.912   4.343   6.929  0.4677  0.7321 -0.1740
 6199SOL    HW130056   0.871   4.332   6.844  1.0082 -2.0201 -0.1119
 6199SOL    HW230057   0.875   4.268   6.976 -0.5924  1.4828  0.1780
 6200SOL     OW30058   4.451   1.992   2.628  0.3478 -0.0619 -0.1681
 6200SOL    HW130059   4.402   1.926   2.580  2.5112 -0.5646 -1.7054
 6200SOL    HW230060   4.420   2.071   2.584  0.1153  0.1928  0.4587
 6201SOL     OW30061   4.257   4.146   7.234  0.2407  0.0036  0.0265
 6201SOL    HW130062   4.295   4.108   7.155 -1.9212 -3.4254  0.6136
 6201SOL    HW230063   4.258   4.075   7.297  1.5687 -0.4516 -0.5276
 6202SOL     OW30064   2.740   4.469  13.387  0.8539  0.2414  0.2867
 6202SOL    HW130065   2.800   4.430  13.324  2.2816  0.1084  1.7102
 6202SOL    HW230066   2.673   4.402  13.398  1.8309 -0.9536 -0.9870
 6203SOL     OW30067   3.753   0.248  11.783  0.3975 -0.3557 -0.0725
 6203SOL    HW130068   3.810   0.258  11.859 -0.0617  1.3124  0.0452
 6203SOL    HW230069   3.780   0.158  11.765  0.6606 -0.2407 -0.2550
 6204SOL     OW30070   2.200   0.590   4.687  0.7158  0.9161  0.4892
 6204SOL    HW130071   2.222   0.589   4.780 -0.4830 -0.5443  0.7377
 6204SOL    HW230072   2.262   0.654   4.649  0.9259 -1.8225 -3.7811
 6205SOL     OW30073   3.147   4.100   4.810  0.1632  0.1115 -0.0612
 6205SOL    HW130074   3.211   4.080   4.741 -1.5673 -2.4324 -0.9167
 6205SOL    HW230075   3.138   4.010   4.842 -0.9207  0.3246  0.2141
 6206SOL     OW30076   2.612   0.653   0.085 -0.0032  0.1944  0.7955
 6206SOL    HW130077   2.644   0.742   0.098 -0.9253  0.6689 -0.1959
 6206SOL    HW230078   2.675   0.624   0.020  1.0299  1.0144  1.4343
 6207SOL     OW30079   0.814   4.104   7.807 -0.2599 -0.1422 -0.3470
 6207SOL    HW130080   0.766   4.084   7.727 -1.4803  0.5456  0.2153
 6207SOL    HW230081   0.895   4.123   7.760 -0.2557  0.1041 -0.2412
 6208SOL     OW30082   3.155   2.190   8.708 -0.2695  0.3306  0.6061
 6208SOL    HW130083   3.070   2.154   8.683 -0.8957  0.2942  2.8474
 6208SOL    HW230084   3.199   2.182   8.623  0.3836 -2.2852  1.2251
 6209SOL     OW30085   0.760   1.897   0.970  0.5736 -0.1783 -0.0011
 6209SOL    HW130086   0.689   1.832   0.967  0.3757 -0.0434  1.7712
 6209SOL    HW230087   0.784   1.900   1.063  0.4472  2.8473 -0.0661
 6210SOL     OW30088   3.654   3.774   4.360  0.3828  0.3647  0.4404
 6210SOL    HW130089   3.741   3.803   4.386  0.0254  0.4690  1.5021
 6210SOL    HW230090   3.611   3.860   4.363  0.7291  0.6354 -2.4006
 6211SOL     OW30091   1.407   4.515   5.343 -0.4525  0.3169 -0.2425
 6211SOL    HW130092   1.492   4.505   5.300  1.2945  1.6377  2.8837
 6211SOL    HW230093   1.350   4.471   5.280 -1.1064  1.1744 -0.2420
 6212SOL     OW30094   2.816   1.571  10.800  0.0041 -0.1586  0.1861
 6212SOL    HW130095   2.726   1.605  10.798  0.1875  0.3907  1.1973
 6212SOL    HW230096   2.847   1.640  10.859  0.7740 -0.2276 -0.1493
 6213SOL     OW30097   3.485   3.506   7.058  0.2729 -0.2781 -0.0382
 6213SOL    HW130098   3.434   3.521   6.979  1.7485 -0.3646 -1.0016
 6213SOL    HW230099   3.474   3.411   7.059  0.2377 -0.2604  1.3018
 6214SOL     OW30100   2.333   3.931  11.936 -0.2858 -0.3489  0.0448
 6214SOL    HW130101   2.255   3.891  11.975 -0.4169 -0.0016  0.1399
 6214SOL    HW230102   2.352   3.992  12.007 -0.8111  0.9338 -0.9282
 6215SOL     OW30103   3.007   0.767   7.898 -0.3272  0.0423 -0.2399
 6215SOL    HW130104   3.098   0.795   7.889 -0.0560 -0.6836  0.2510
 6215SOL    HW230105   3.017   0.672   7.905 -0.3869  0.2167  2.2270
 6216SOL     OW30106   2.593   3.517  11.525  0.4989  0.5318 -0.2094
 6216SOL    HW130107   2.657   3.468  11.577 -0.6316 -1.6266 -0.8592
 6216SOL    HW230108   2.514   3.485  11.567  0.6744 -1.3908 -1.3258
 6217SOL     OW30109   4.412   2.009  16.771  0.0613  0.0899  0.1431
 6217SOL    HW130110   4.379   1.919  16.776 -1.1839  0.5078 -0.5635
 6217SOL    HW230111   4.499   1.995  16.809 -0.0378 -0.0648  0.3103
 6218SOL     OW30112   2.916   1.360   6.692 -0.4537 -0.0169 -0.3528
 6218SOL    HW130113   2.986   1.425   6.689 -0.5185  0.0353 -0.7531
 6218SOL    HW230114   2.845   1.411   6.653 -2.7642 -0.2399  3.4805
 6219SOL     OW30115   3.123   4.378  14.494 -0.0177  0.1271  0.2957
 6219SOL    HW130116   3.095   4.452  14.548  0.2610  0.5253 -0.1090
 6219SOL    HW230117   3.055   4.369  14.427 -0.0381 -0.4225  0.3952
 6220SOL     OW30118   4.311   0.848   5.215  0.7190  0.0012 -0.2543
 6220SOL    HW130119   4.237   0.816   5.267 -0.7794  1.1511 -1.7122
 6220SOL    HW230120   4.262   0.875   5.138 -1.6530 -0.3302  1.1371
 6221SOL     OW30121   0.574   0.231   9.241 -0.5445  0.2240 -0.4474
 6221SOL    HW130122   0.497   0.269   9.197 -0.9904  0.2673  0.3740
 6221SOL    HW230123   0.595   0.310   9.290  0.7320  0.7766 -1.8841
 6222SOL     OW30124   0.715   4.242   8.008 -0.3148  0.0887  0.5045
 6222SOL    HW130125   0.629   4.205   8.026 -0.0859 -1.1076 -0.9393
 6222SOL    HW230126   0.752   4.211   7.926  0.4234 -1.4181  1.4129
 6223SOL     OW30127   2.244   1.368   0.440  0.4290 -0.0420 -0.1927
 6223SOL    HW130128   2.272   1.352   0.350  1.2832  0.4285 -0.0198
 6223SOL    HW230129   2.271   1.287   0.482  0.1721  0.3600  0.7584
 6224SOL     OW30130   2.484   4.436   4.511  0.2133 -0.2133 -0.1411
 6224SOL    HW130131   2.538   4.509   4.480  0.2596  0.7865  2.2912
 6224SOL    HW230132   2.499   4.372   4.442  0.8317 -0.0741 -0.1374
 6225SOL     OW30133   1.769   2.145   2.230 -0.1777  0.3264 -0.3165
 6225SOL    HW130134   1.771   2.208   2.303  1.6412  1.0138 -0.9606
 6225SOL    HW230135   1.742   2.066   2.277 -0.8893 -0.7321 -2.4971
 6226SOL     OW30136   4.213   3.195   0.084 -0.2945 -0.1867 -0.4212
 6226SOL    HW130137   4.224   3.156   0.171 -0.7193  2.1693  0.6985
 6226SOL    HW230138   4.303   3.189   0.052  0.5911 -0.9235  2.2594
 6227SOL     OW30139   4.612   1.872   3.171  0.1113 -0.7799 -0.0097
 6227SOL    HW130140   4.665   1.944   3.136 -2.8673  1.8727  0.9096
 6227SOL    HW230141   4.599   1.907   3.259 -0.3749  0.9922 -0.7915
 6228SOL     OW30142   4.454   2.986  17.285 -0.6860 -0.3668  0.4758
 6228SOL    HW130143   4.450   3.081  17.278 -1.7738 -0.3615  1.1424
 6228SOL    HW230144   4.360   2.972  17.297 -0.7781  0.0414  0.2415
 6229SOL     OW30145   0.901   2.787   8.973  0.3521 -0.5449 -0.3835
 6229SOL    HW130146   0.894   2.784   8.877 -0.4252 -1.0146 -0.3147
 6229SOL    HW230147   0.882   2.881   8.977 -2.3413 -1.0867  0.2199
 6230SOL     OW30148   0.249   2.140   2.057  0.1999  0.7222  0.2479
 6230SOL    HW130149   0.344   2.124   2.056  0.1307  0.2996  0.5297
 6230SOL    HW230150   0.236   2.172   1.968 -1.0956 -1.3455 -0.3143
 6231SOL     OW30151   4.137   3.480   6.051  0.1877 -0.2450  0.2937
 6231SOL    HW130152   4.231   3.461   6.052  0.5149  1.3911  1.4021
 6231SOL    HW230153   4.123   3.530   5.970 -2.4005 -0.6142  0.5078
 6232SOL     OW30154   2.299   3.194   7.740  0.1620  0.5313  0.2013
 6232SOL    HW130155   2.304   3.141   7.819 -0.4136 -1.1188 -0.8749
 6232SOL    HW230156   2.382   3.242   7.745 -1.1393  2.9355 -1.1318
 6233SOL     OW30157   2.202   4.406   4.542 -0.5465  0.2523 -0.1383
 6233SOL    HW130158   2.197   4.409   4.637 -2.8788  0.2614 -0.2417
 6233SOL    HW230159   2.295   4.398   4.525 -0.4663  3.4177 -1.1386
 6234SOL     OW30160   1.657   4.327   1.958 -0.3245  0.2369  0.2827
 6234SOL    HW130161   1.691   4.300   2.043  2.3754 -0.4051 -1.0144
 6234SOL    HW230162   1.643   4.420   1.978  2.1102  0.3614  1.4233
 6235SOL     OW30163   0.773   1.272   7.349 -0.2326  0.4374  0.2700
 6235SOL    HW130164   0.721   1.200   7.311  0.0195 -0.0894  0.9200
 6235SOL    HW230165   0.851   1.221   7.371  1.2569  2.1943 -0.8916
 6236SOL     OW30166   0.597   1.081   5.585 -0.1898  0.3902  0.3168
 6236SOL    HW130167   0.643   1.113   5.508 -1.0921 -0.0322 -0.4007
 6236SOL    HW230168   0.657   1.009   5.604  1.4307  1.2151 -1.6427
 6237SOL     OW30169   1.083   0.115   4.227 -0.1370 -0.0258 -0.4023
 6237SOL    HW130170   1.032   0.185   4.268  0.1312  0.7439 -1.3816
 6237SOL    HW230171   1.011   0.065   4.188 -0.3013  0.6520 -0.9707
 6238SOL     OW30172   4.313   0.539  15.898  0.6965 -0.5560 -0.7880
 6238SOL    HW130173   4.280   0.540  15.988  2.5818 -0.0944 -0.1086
 6238SOL    HW230174   4.227   0.559  15.861  1.3920  0.9625 -1.5752
 6239SOL     OW30175   3.753   0.230   8.588 -0.2032  0.1664  0.6291
 6239SOL    HW130176   3.746   0.277   8.671  2.5121  0.0465  0.9302
 6239SOL    HW230177   3.660   0.231   8.565 -0.5288  4.2734  2.1047
 6240SOL     OW30178   2.547   2.475   7.072  0.0184 -0.0557 -0.2437
 6240SOL    HW130179   2.490   2.419   7.126 -0.0935 -0.8931 -1.2355
 6240SOL    HW230180   2.600   2.404   7.035 -0.8917 -0.2226 -1.2247
 6241SOL     OW30181   3.655   3.900  11.220  0.0353 -0.2274 -0.5520
 6241SOL    HW130182   3.651   3.945  11.305 -0.0340 -2.8673  0.8532
 6241SOL    HW230183   3.603   3.945  11.154 -1.7805 -2.0916 -0.4033
 6242SOL     OW30184   3.177   1.623  16.688 -0.3926 -0.7985 -0.2154
 6242SOL    HW130185   3.082   1.634  16.683 -0.1862 -0.2665 -3.3115
 6242SOL    HW230186   3.196   1.660  16.774 -1.0986 -2.2226  0.5515
 6243SOL     OW30187   2.821   2.220   2.324 -0.2766  0.2232 -0.3719
 6243SOL    HW130188   2.815   2.306   2.285 -0.6558  1.0385  1.4683
 6243SOL    HW230189   2.854   2.164   2.253 -2.6664 -1.6465  0.0027
 6244SOL     OW30190   1.485   0.252   3.330 -0.2927 -0.5680  0.0904
 6244SOL    HW130191   1.495   0.180   3.393 -0.8541  0.9660  1.9581
 6244SOL    HW230192   1.569   0.275   3.291 -0.4690  1.5749  0.9553
 6245SOL     OW30193   3.136   0.430   0.602 -0.4856  0.2211  0.4583
 6245SOL    HW130194   3.051   0.467   0.576 -0.5807  0.1588  0.6838
 6245SOL    HW230195   3.161   0.376   0.527  0.0227  0.0905  0.7261
 6246SOL     OW30196   0.570   3.388  10.808  0.1836  0.3768  0.1080
 6246SOL    HW130197   0.628   3.364  10.880 -0.7916 -1.3757  0.3105
 6246SOL    HW230198   0.494   3.343  10.844  0.6593  1.3379  2.3135
 6247SOL     OW30199   1.724   0.871   0.417 -0.2090  0.0526 -0.0156
 6247SOL    HW130200   1.640   0.827   0.433  0.5976 -0.8075  1.9355
 6247SOL    HW230201   1.764   0.814   0.352 -0.0041  1.8619 -1.4499
 6248SOL     OW30202   0.562   3.524   2.181 -0.1379  0.1104  0.2681
 6248SOL    HW130203   0.656   3.520   2.164 -0.1844 -0.2664  0.1006
 6248SOL    HW230204   0.528   3.493   2.097 -2.0521  0.1265  1.0391
 6249SOL     OW30205   2.153   0.241   2.392  0.4418  0.1107  0.6985
 6249SOL    HW130206   2.063   0.210   2.403  0.0030  1.1077 -0.0035
 6249SOL    HW230207   2.142   0.274   2.303 -0.5918  0.9625  1.1343
 6250SOL     OW30208   0.626   3.677   1.824  0.1177 -0.0316  0.4207
 6250SOL    HW130209   0.585   3.602   1.868  1.5950  0.7215  3.0821
 6250SOL    HW230210   0.683   3.633   1.761  1.7171  2.6852 -0.0235
 6251SOL     OW30211   1.635   1.269   5.290 -0.2188  0.1684  0.1317
 6251SOL    HW130212   1.560   1.240   5.342  1.3633 -3.4766  0.3452
 6251SOL    HW230213   1.626   1.235   5.201 -0.9312  1.4067 -0.2818
 6252SOL     OW30214   3.194   0.658   0.717 -0.1940  0.3823 -0.0852
 6252SOL    HW130215   3.168   0.728   0.657 -1.1032  0.9276  0.9467
 6252SOL    HW230216   3.124   0.597   0.691 -1.6476  1.6564  0.8316
 6253SOL     OW30217   0.027   2.163   4.656  0.1954 -0.0057 -0.2449
 6253SOL    HW130218   4.687   2.202   4.717  0.3497 -0.2759  0.0915
 6253SOL    HW230219   0.069   2.091   4.704 -3.3173 -3.6140 -2.5879
 6254SOL     OW30220   1.088   1.001   1.208 -0.8078  0.3398 -0.7120
 6254SOL    HW130221   1.016   1.016   1.269 -1.6342 -0.1963 -1.5582
 6254SOL    HW230222   1.097   1.087   1.167 -0.4979  1.6057  1.9704
 6255SOL     OW30223   4.181   0.046   6.293 -0.9565 -0.0665  0.0128
 6255SOL    HW130224   4.229   4.685   6.289  1.5971  1.3252  1.5982
 6255SOL    HW230225   4.145   0.058   6.205 -2.0491  1.2071  0.6431
 6256SOL     OW30226   0.396   4.595  11.017  0.1776 -0.1807 -0.2660
 6256SOL    HW130227   0.370   4.647  11.093 -1.1034 -2.1389  0.6273
 6256SOL    HW230228   0.370   4.658  10.949 -0.1484  0.4985  0.4944
 6257SOL     OW30229   3.655   4.401   7.914  0.3830  0.3906  0.1811
 6257SOL    HW130230   3.680   4.442   7.831  1.1018 -0.6216 -0.1007
 6257SOL    HW230231   3.700   4.456   7.979 -1.1765  0.1499  1.4570
 6258SOL     OW30232   3.920   2.823   5.756 -0.4388 -0.4019 -0.6696
 6258SOL    HW130233   3.996   2.882   5.757 -0.0612 -0.8901 -0.1046
 6258SOL    HW230234   3.950   2.761   5.823 -0.4473 -1.5823 -1.7614
 6259SOL     OW30235   1.480   1.940  15.621 -0.0958  0.5645  0.3299
 6259SOL    HW130236   1.528   2.003  15.674  0.7764 -1.6757  2.1620
 6259SOL    HW230237   1.541   1.874  15.587  0.5548  0.7859  1.0980
 6260SOL     OW30238   1.042   3.800   3.404 -0.0703  0.0248  0.3529
 6260SOL    HW130239   1.086   3.869   3.454 -0.7409  0.3466  0.4979
 6260SOL    HW230240   1.114   3.790   3.342 -1.4621 -3.7534 -0.6547
 6261SOL     OW30241   1.133   2.056   5.813  0.1320  0.6838 -0.3768
 6261SOL    HW130242   1.183   2.113   5.871 -1.3074 -1.1757  2.6803
 6261SOL    HW230243   1.085   2.125   5.767 -0.7976 -0.4983 -1.2097
 6262SOL     OW30244   2.843   1.931   6.392  0.0890 -0.3600 -0.1445
 6262SOL    HW130245   2.810   1.899   6.476 -1.5585  0.2922 -0.5360
 6262SOL    HW230246   2.914   1.984   6.426  0.1626 -1.0021  0.7196
 6263SOL     OW30247   1.615   3.161   8.025  0.5530 -0.3503  0.3144
 6263SOL    HW130248   1.667   3.145   8.103 -1.2957 -2.1074  1.1592
 6263SOL    HW230249   1.681   3.183   7.958  0.7825 -0.2514  0.5740
 6264SOL     OW30250   3.789   2.609   3.325 -0.0148  0.5089 -0.5868
 6264SOL    HW130251   3.869   2.642   3.284  1.9015  0.1537  2.8790
 6264SOL    HW230252   3.793   2.517   3.297 -2.5330  0.0058  0.6852
 6265SOL     OW30253   4.327   4.541   6.282 -0.4689 -0.0299  0.2481
 6265SOL    HW130254   4.278   4.467   6.246  0.8288 -0.0493 -1.5072
 6265SOL    HW230255   4.413   4.505   6.258  0.0639  0.8232  0.8661
 6266SOL     OW30256   0.917   1.556  15.352 -0.5632 -0.8420  0.2542
 6266SOL    HW130257   0.980   1.614  15.394 -0.1419 -0.3228 -1.1027
 6266SOL    HW230258   0.861   1.619  15.307 -1.3349 -0.1878  2.0993
 6267SOL     OW30259   4.535   1.375   7.020 -0.1560  0.5606  0.0686
 6267SOL    HW130260   4.484   1.412   6.947  1.5311 -0.1838 -1.4825
 6267SOL    HW230261   4.535   1.450   7.080 -0.6663  0.7246 -0.1264
 6268SOL     OW30262   0.068   0.477  10.400  0.0848 -0.5287 -0.4305
 6268SOL    HW130263   0.101   0.392  10.371  0.1164 -0.9045  0.7367
 6268SOL    HW230264   0.128   0.532  10.350  2.0936 -0.1766  2.4579
 6269SOL     OW30265   2.218   2.274   1.363 -0.1335 -0.3679  0.1002
 6269SOL    HW130266   2.191   2.274   1.271 -0.4340  0.2216  0.1933
 6269SOL    HW230267   2.197   2.366   1.379  0.6903 -0.1675 -0.0058
 6270SOL     OW30268   1.480   2.464  10.720 -0.1318 -0.5079  0.7727
 6270SOL    HW130269   1.464   2.440  10.812  0.8264 -0.4343  0.9551
 6270SOL    HW230270   1.573   2.446  10.710  0.5259  1.9909  2.4212
 6271SOL     OW30271   0.003   0.237  12.622 -0.0218 -0.0632  0.5623
 6271SOL    HW130272   0.090   0.202  12.604  0.3137  1.4825 -0.7663
 6271SOL    HW230273   4.689   0.184  12.694 -0.2231  0.8780  1.1569
 6272SOL     OW30274   1.851   2.862   1.755  0.6379 -0.3616 -0.0959
 6272SOL    HW130275   1.934   2.910   1.753  0.2419  0.4201  2.5809
 6272SOL    HW230276   1.852   2.828   1.844 -1.0387 -0.1477 -0.0026
 6273SOL     OW30277   0.794   3.544   5.884 -0.4918 -0.6648 -0.2487
 6273SOL    HW130278   0.884   3.567   5.905 -0.4212  0.9509 -2.3985
 6273SOL    HW230279   0.779   3.565   5.792  1.6064  1.3860 -0.1200
 6274SOL     OW30280   2.102   0.868   0.818 -0.1699  0.2822 -0.0836
 6274SOL    HW130281   2.042   0.855   0.744 -0.1954 -0.2946  0.0404
 6274SOL    HW230282   2.051   0.854   0.898  1.5345  0.0335  0.9524
 6275SOL     OW30283   3.972   3.974   7.165 -0.5997 -0.3313 -0.7203
 6275SOL    HW130284   3.916   3.967   7.242 -1.0554  1.7651 -0.8377
 6275SOL    HW230285   3.955   4.064   7.136 -0.6397  0.0026  0.3418
 6276SOL     OW30286   2.635   1.659   8.117 -0.1294 -0.2490  0.5047
 6276SOL    HW130287   2.722   1.620   8.128  0.2852  0.0422 -1.5730
 6276SOL    HW230288   2.627   1.695   8.205  2.0894 -1.2343  1.0991
 6277SOL     OW30289   1.462   1.233   8.216  0.0699 -0.2106 -0.1464
 6277SOL    HW130290   1.443   1.326   8.232  1.4768  0.5244 -2.8907
 6277SOL    HW230291   1.487   1.208   8.305 -0.1787 -0.1259 -0.0500
 6278SOL     OW30292   3.529   3.654   0.934  0.2864  0.1883  0.1823
 6278SOL    HW130293   3.440   3.618   0.936  0.6746 -0.8040 -0.5206
 6278SOL    HW230294   3.556   3.626   0.847 -3.1332 -0.0256 -0.8095
 6279SOL     OW30295   4.527   0.774   6.368 -0.0104 -0.5132 -0.8087
 6279SOL    HW130296   4.436   0.802   6.373  0.1795 -0.4563  1.9631
 6279SOL    HW230297   4.564   0.861   6.382  0.7506 -1.1519  1.1864
 6280SOL     OW30298   4.636   1.934  17.594  0.1959 -0.4643 -0.8273
 6280SOL    HW130299   4.661   2.011  17.542 -1.0560  0.3219 -0.2550
 6280SOL    HW230300   4.591   1.983  17.662  0.9848 -2.2140  0.9476
 6281SOL     OW30301   3.815   0.750  10.727 -0.0261 -0.3826  0.0463
 6281SOL    HW130302   3.765   0.719  10.803 -0.5239 -0.7757 -0.4431
 6281SOL    HW230303   3.895   0.790  10.759 -0.6633 -0.6966  2.0466
 6282SOL     OW30304   4.434   3.960   4.012 -0.7021  0.3290  0.0561
 6282SOL    HW130305   4.391   3.980   3.929  1.6485 -0.0500 -1.2681
 6282SOL    HW230306   4.500   3.902   3.974 -2.5011 -1.5662 -0.1299
 6283SOL     OW30307   3.096   1.743   3.214  0.0565  0.1906  0.4490
 6283SOL    HW130308   3.152   1.765   3.288 -1.9402  2.1161  1.3977
 6283SOL    HW230309   3.094   1.827   3.168 -0.4484  0.8275  1.6195
 6284SOL     OW30310   1.153   1.407   0.233  0.0401  0.1504 -0.4482
 6284SOL    HW130311   1.070   1.362   0.248  0.9783 -1.5771 -0.4185
 6284SOL    HW230312   1.215   1.334   0.237 -0.7440 -0.4685  0.3805
 6285SOL     OW30313   3.752   0.351   6.882 -0.0432 -0.3396  0.0291
 6285SOL    HW130314   3.722   0.421   6.823 -0.1857 -1.6985 -1.5142
 6285SOL    HW230315   3.755   0.397   6.966 -1.3770  0.2105 -0.2109
 6286SOL     OW30316   1.174   0.016   7.114 -0.2765 -0.1040  0.1127
 6286SOL    HW130317   1.093   0.062   7.093  0.0441  1.3041  2.0154
 6286SOL    HW230318   1.221   0.082   7.164 -3.7024  1.1509  1.6282
 6287SOL     OW30319   4.490   2.877   1.828 -0.2871 -0.4522 -0.0124
 6287SOL    HW130320   4.477   2.936   1.901 -2.2461 -2.1035  0.9555
 6287SOL    HW230321   4.511   2.794   1.870  1.1674 -0.4000 -0.6116
 6288SOL     OW30322   2.544   1.511   3.739  0.1086  0.1882 -0.5279
 6288SOL    HW130323   2.523   1.528   3.647  0.1744 -1.5657 -0.8544
 6288SOL    HW230324   2.637   1.489   3.733  0.6994  2.6150 -0.2441
 6289SOL     OW30325   1.317   1.789   6.688 -0.0638  0.0578 -0.4479
 6289SOL    HW130326   1.371   1.838   6.626 -0.9862 -1.4123 -2.4073
 6289SOL    HW230327   1.281   1.866   6.734 -3.1178 -0.4818 -1.9483
 6290SOL     OW30328   4.578   3.083   4.713  0.4693 -0.2973 -0.4075
 6290SOL    HW130329   4.604   3.034   4.634 -1.6358  0.0412 -1.2944
 6290SOL    HW230330   4.615   3.170   4.696 -2.1681  0.4468 -2.4167
 6291SOL     OW30331   1.548   3.018   4.439  0.3735 -0.1372 -0.4494
 6291SOL    HW130332   1.483   3.011   4.509  3.6551 -2.0719  2.3649
 6291SOL    HW230333   1.623   2.993   4.493 -0.6602  0.0231  1.0602
 6292SOL     OW30334   1.943   2.889   2.755 -0.0655  0.2540 -0.5476
 6292SOL    HW130335   1.936   2.982   2.735 -2.9696 -0.1710 -1.4512
 6292SOL    HW230336   2.037   2.882   2.775  0.0233 -0.2581 -1.1463
 6293SOL     OW30337   0.022   4.582   6.732  0.3223  0.5399 -0.1674
 6293SOL    HW130338   0.098   4.547   6.778  1.1370  2.1023 -0.3231
 6293SOL    HW230339   0.071   4.631   6.667 -0.9336  1.5805 -0.3345
 6294SOL     OW30340   1.763   4.181   3.211  0.1629 -0.0509  0.3831
 6294SOL    HW130341   1.724   4.094   3.208  1.0508 -0.3764 -1.3742
 6294SOL    HW230342   1.851   4.168   3.245  0.0986 -0.5250  0.3669
 6295SOL     OW30343   2.506   1.931   3.203 -0.0440 -0.2924 -0.0348
 6295SOL    HW130344   2.432   1.894   3.156 -0.4081  0.7180 -0.2389
 6295SOL    HW230345   2.578   1.895   3.150  0.0413  0.1508 -0.2131
 6296SOL     OW30346   0.168   0.229  11.773 -0.0405 -0.0441 -0.6222
 6296SOL    HW130347   0.107   0.242  11.845 -1.2168  2.2242 -2.0243
 6296SOL    HW230348   0.215   0.309  11.794 -0.1154 -0.1233 -0.1654
 6297SOL     OW30349   2.115   0.013   8.134  0.2885  0.3509  0.0686
 6297SOL    HW130350   2.153   0.030   8.220 -1.4986  1.4331  0.6582
 6297SOL    HW230351   2.160   4.660   8.098  1.3840  0.9931  0.0821
 6298SOL     OW30352   4.134   4.412   5.884 -0.3445  0.2824 -0.4478
 6298SOL    HW130353   4.149   4.504   5.863 -0.2023  0.3814  0.0980
 6298SOL    HW230354   4.118   4.389   5.792  0.1453 -1.7840 -0.0229
 6299SOL     OW30355   2.280   3.656   5.075  0.6174 -0.5992  0.2189
 6299SOL    HW130356   2.308   3.567   5.053  0.4294 -0.6498  0.1825
 6299SOL    HW230357   2.348   3.685   5.135  1.7103 -1.1546 -0.7534
 6300SOL     OW30358   0.311   3.267  12.395 -0.5519  0.3350  0.4876
 6300SOL    HW130359   0.387   3.209  12.389 -0.9911 -0.1790 -0.1709
 6300SOL    HW230360   0.307   3.289  12.302  2.2926  0.7243  0.4569
 6301SOL     OW30361   2.513   0.712   8.624  0.0267 -0.5149 -0.2961
 6301SOL    HW130362   2.506   0.783   8.687  1.8212  0.3369 -1.0795
 6301SOL    HW230363   2.602   0.721   8.590  0.1089 -1.1302 -0.2450
 6302SOL     OW30364   1.280   0.798   1.200  0.6267  0.1350 -0.0416
 6302SOL    HW130365   1.323   0.806   1.285 -0.1687  0.6263  0.3099
 6302SOL    HW230366   1.214   0.867   1.204  2.7966  2.2736 -1.3730
 6303SOL     OW30367   2.083   4.521   3.180 -0.2677 -0.1386 -0.2875
 6303SOL    HW130368   2.117   4.610   3.177 -0.1466 -0.1119  2.0043
 6303SOL    HW230369   2.001   4.535   3.227  0.6036  0.3759  1.0684
 6304SOL     OW30370   3.956   2.999   2.985  0.1914  0.4114 -0.6134
 6304SOL    HW130371   3.877   2.993   2.930  0.1818  1.2592 -0.6962
 6304SOL    HW230372   3.962   3.095   2.994 -1.1974  0.5455 -1.0526
 6305SOL     OW30373   3.204   2.033  14.183  0.4047  0.4030 -0.3957
 6305SOL    HW130374   3.116   2.041  14.148 -0.0121  0.9460  0.7832
 6305SOL    HW230375   3.258   2.004  14.109  1.5567 -0.6122  0.8320
 6306SOL     OW30376   4.608   0.267  11.409  0.0261 -0.4353 -0.0686
 6306SOL    HW130377   4.674   0.255  11.478 -0.3366 -1.2635  0.1241
 6306SOL    HW230378   4.567   0.340  11.456 -0.8660 -0.2355 -1.1633
 6307SOL     OW30379   0.383   1.507   2.836  0.0286  0.0813 -0.1774
 6307SOL    HW130380   0.476   1.492   2.850 -0.0169  0.6230  0.6904
 6307SOL    HW230381   0.374   1.446   2.763 -0.6095  0.5900 -0.5246
 6308SOL     OW30382   3.879   4.117   4.320  0.2798  0.0836  0.1964
 6308SOL    HW130383   3.853   4.163   4.399  0.4388 -0.7823  0.7616
 6308SOL    HW230384   3.881   4.024   4.346 -0.5060  0.2544  0.8844
 6309SOL     OW30385   2.194   4.165   4.990  0.5265 -0.1861 -0.3892
 6309SOL    HW130386   2.260   4.233   5.004 -0.7293  0.4617  2.3172
 6309SOL    HW230387   2.125   4.201   5.045  0.5729 -0.6674 -0.0248
 6310SOL     OW30388   4.517   0.067  12.420  0.0371  0.1240  0.1201
 6310SOL    HW130389   4.598   0.017  12.410 -0.8138 -1.2940  0.1726
 6310SOL    HW230390   4.532   0.138  12.358  1.5077 -0.8991 -0.6811
 6311SOL     OW30391   2.847   3.856  13.732  0.3294  0.2013 -0.1093
 6311SOL    HW130392   2.796   3.776  13.721 -1.9905  1.4159  1.9403
 6311SOL    HW230393   2.905   3.854  13.655 -1.9353 -1.1062 -1.7901
 6312SOL     OW30394   0.604   3.456   4.552  0.1931  0.3712  0.2181
 6312SOL    HW130395   0.663   3.465   4.627 -0.3416  0.5953  0.6067
 6312SOL    HW230396   0.529   3.411   4.590 -0.5154  2.4599  1.3156
 6313SOL     OW30397   1.827   1.178  12.585 -0.1958  0.0916  0.2380
 6313SOL    HW130398   1.756   1.241  12.586  1.5170  1.9929  0.8594
 6313SOL    HW230399   1.863   1.198  12.671  1.2014 -1.3585  0.0099
 6314SOL     OW30400   4.672   1.810   9.903  0.2118 -1.2015 -0.4761
 6314SOL    HW130401   4.683   1.732   9.849  3.0461 -0.4138 -1.0601
 6314SOL    HW230402   4.579   1.806   9.923  0.1876 -0.3278 -0.3952
 6315SOL     OW30403   1.393   1.652  13.772  0.2730  0.4240 -0.2131
 6315SOL    HW130404   1.368   1.720  13.834 -0.7693 -0.1653  0.0191
 6315SOL    HW230405   1.315   1.654  13.717  0.3333 -0.0581 -0.3167
 6316SOL     OW30406   1.949   2.971  16.181 -0.2061 -0.0930  0.3279
 6316SOL    HW130407   1.967   3.056  16.222 -0.7617 -0.5992  1.6044
 6316SOL    HW230408   1.998   2.920  16.244  0.8155  1.0370  0.4520
 6317SOL     OW30409   0.600   3.238   7.560  0.2439  0.2105 -0.3097
 6317SOL    HW130410   0.591   3.331   7.578  1.7588  0.3396 -0.1904
 6317SOL    HW230411   0.644   3.208   7.640 -0.3286  2.6040  0.8786
 6318SOL     OW30412   2.801   0.429  12.170  0.1369  0.3246 -0.6030
 6318SOL    HW130413   2.794   0.432  12.266  0.3575 -1.3701 -0.5211
 6318SOL    HW230414   2.868   0.496  12.155  0.2288  0.4782  0.4599
 6319SOL     OW30415   1.118   4.247   9.026 -0.6559  0.3624  0.8837
 6319SOL    HW130416   1.135   4.254   9.120 -0.2853  1.3760  0.7493
 6319SOL    HW230417   1.146   4.157   9.012  0.9656  1.0736 -0.4455
 6320SOL     OW30418   4.389   1.323  12.892 -0.2325 -0.7151 -0.2382
 6320SOL    HW130419   4.400   1.418  12.898 -1.5123 -0.7277  2.3790
 6320SOL    HW230420   4.338   1.302  12.971 -1.2634 -1.1147 -1.0084
 6321SOL     OW30421   3.256   4.514  10.091 -0.2703  0.3845  0.9273
 6321SOL    HW130422   3.334   4.465  10.064  0.0741  1.1056  0.5834
 6321SOL    HW230423   3.218   4.508  10.003 -1.0093  2.4938  1.0885
 6322SOL     OW30424   4.615   0.819   4.866 -0.0101 -0.2594  0.4860
 6322SOL    HW130425   4.531   0.864   4.868  0.5806  0.9201 -1.3781
 6322SOL    HW230426   4.582   0.731   4.886 -0.9923  0.2544  1.0946
 6323SOL     OW30427   1.275   0.354   8.446 -0.0429 -0.0115  1.0408
 6323SOL    HW130428   1.313   0.385   8.529  2.6235  0.8946 -0.5103
 6323SOL    HW230429   1.208   0.291   8.473 -1.4378  1.5450  1.1279
 6324SOL     OW30430   4.038   2.886   8.361  0.4312 -0.2189 -0.3387
 6324SOL    HW130431   4.038   2.895   8.457 -0.6958 -4.2520  0.0041
 6324SOL    HW230432   4.127   2.852   8.351 -0.5774 -2.7570 -0.5967
 6325SOL     OW30433   2.879   2.648   4.364 -0.2609  0.1519 -0.0200
 6325SOL    HW130434   2.825   2.624   4.289  1.6237  0.1631 -1.4080
 6325SOL    HW230435   2.814   2.698   4.413 -0.5371 -0.4367  0.2147
 6326SOL     OW30436   1.002   3.773  13.514  0.0378  0.5085  0.0659
 6326SOL    HW130437   0.968   3.826  13.586  2.0897  1.3164  0.4621
 6326SOL    HW230438   1.076   3.732  13.559 -1.2472  0.1575  1.8726
 6327SOL     OW30439   2.793   1.179   8.656  0.1403 -0.6502 -0.0454
 6327SOL    HW130440   2.758   1.248   8.713 -1.9425 -2.4942  0.8949
 6327SOL    HW230441   2.882   1.187   8.690  0.7255  0.7667 -1.9263
 6328SOL     OW30442   4.166   1.060   9.456  0.2929  0.2462 -0.1955
 6328SOL    HW130443   4.122   1.099   9.532  0.9348  0.0049  0.2971
 6328SOL    HW230444   4.207   0.980   9.489  0.1958  0.2704 -0.0143
 6329SOL     OW30445   3.206   4.000   0.239  0.7407  0.8317  0.3992
 6329SOL    HW130446   3.139   3.933   0.252 -1.1359  2.0299 -3.2273
 6329SOL    HW230447   3.255   3.973   0.162 -1.2414 -2.7938  0.4384
 6330SOL     OW30448   2.360   4.629   3.295 -0.2714 -0.1227 -0.0003
 6330SOL    HW130449   2.346   4.535   3.304  0.0717 -0.0681  1.1350
 6330SOL    HW230450   2.325   4.670   3.375  1.4453  1.0772  0.1371
 6331SOL     OW30451   1.398   3.718   3.066  0.1537 -0.5120 -0.3379
 6331SOL    HW130452   1.346   3.754   2.995 -1.9950  0.0781  1.5170
 6331SOL    HW230453   1.476   3.702   3.014  0.5825 -0.1027  0.1781
 6332SOL     OW30454   4.456   2.534   7.804 -0.1767 -0.2383 -0.0725
 6332SOL    HW130455   4.368   2.521   7.770  0.9161  1.7627 -3.6592
 6332SOL    HW230456   4.434   2.611   7.857  0.8611  1.0210 -1.4753
 6333SOL     OW30457   4.017   2.821   7.854  0.1242 -0.1062  0.1125
 6333SOL    HW130458   4.060   2.816   7.940  0.4058 -1.0251 -0.0819
 6333SOL    HW230459   3.935   2.799   7.899  1.2199 -0.6723  1.8114
 6334SOL     OW30460   4.506   2.289  16.511  0.1098 -0.7519  0.2311
 6334SOL    HW130461   4.434   2.349  16.534 -0.7474 -2.0576  1.0028
 6334SOL    HW230462   4.564   2.318  16.581 -0.1244 -2.6605  1.2039
 6335SOL     OW30463   3.804   2.187   0.341  0.0330  0.2653 -0.4630
 6335SOL    HW130464   3.776   2.150   0.425  0.7671  1.9578  0.5469
 6335SOL    HW230465   3.734   2.152   0.286  1.2804 -0.5050 -1.5615
 6336SOL     OW30466   3.694   2.135   1.248 -0.3292 -0.3574  0.4608
 6336SOL    HW130467   3.734   2.221   1.261  0.2543 -0.8010  1.6358
 6336SOL    HW230468   3.675   2.143   1.155  0.3270 -1.9143  0.1944
 6337SOL     OW30469   2.513   2.955   6.243 -0.5251 -0.3542  0.4312
 6337SOL    HW130470   2.463   3.025   6.200 -1.6001  0.0504  2.3211
 6337SOL    HW230471   2.443   2.902   6.281  1.8766 -3.0745  1.0028
 6338SOL     OW30472   2.373   1.095   8.690 -0.2129  0.0451 -0.5252
 6338SOL    HW130473   2.443   1.042   8.730 -0.3864  0.5601  0.4748
 6338SOL    HW230474   2.373   1.171   8.748 -0.8351 -0.2685 -0.1005
 6339SOL     OW30475   3.961   3.961   8.042  0.1688 -0.1439  0.0180
 6339SOL    HW130476   3.932   4.051   8.030  0.4653 -0.3794 -2.5364
 6339SOL    HW230477   3.966   3.929   7.951  2.0597 -0.3902  0.2054
 6340SOL     OW30478   2.436   3.063   7.060  0.4126  0.0240  0.0883
 6340SOL    HW130479   2.434   3.112   6.978 -1.1347  1.3965  0.9526
 6340SOL    HW230480   2.365   3.003   7.041  1.7708 -1.1459 -1.2820
 6341SOL     OW30481   0.812   4.184   8.500 -0.0907  0.3499  0.3001
 6341SOL    HW130482   0.807   4.202   8.594 -3.2639 -1.4148  0.4661
 6341SOL    HW230483   0.882   4.239   8.466 -0.4900 -0.2458 -1.4646
 6342SOL     OW30484   2.022   3.598   7.079  0.7256 -0.4241 -0.1461
 6342SOL    HW130485   1.973   3.680   7.082  0.8848 -0.3707  0.9911
 6342SOL    HW230486   1.959   3.537   7.042  1.2646 -1.1881  0.1930
 6343SOL     OW30487   2.476   2.519  11.324  0.0733  0.2289  0.0567
 6343SOL    HW130488   2.522   2.524  11.240 -1.8778 -0.6555 -1.0878
 6343SOL    HW230489   2.484   2.428  11.351 -0.0210  0.3805  0.5917
 6344SOL     OW30490   1.910   0.030   5.677  0.0652 -0.0426  0.0439
 6344SOL    HW130491   1.938   4.682   5.736 -0.0431 -0.0739  0.0593
 6344SOL    HW230492   1.918   0.111   5.727 -1.6028  1.5033 -2.1930
 6345SOL     OW30493   3.672   1.400  14.287 -0.3488  0.8002 -0.1923
 6345SOL    HW130494   3.627   1.424  14.368  1.0438 -1.5897  1.2906
 6345SOL    HW230495   3.632   1.314  14.278 -0.4524  0.8811 -0.4824
 6346SOL     OW30496   2.037   1.024   8.509 -0.3204 -0.5066 -0.6334
 6346SOL    HW130497   1.950   1.046   8.541 -0.2651  0.8476 -1.3864
 6346SOL    HW230498   2.036   0.933   8.537 -0.6403 -0.5808 -0.8893
 6347SOL     OW30499   4.687   1.688   2.981  0.3151  0.5958 -0.2642
 6347SOL    HW130500   4.637   1.751   2.930  0.8809  0.7595 -0.6196
 6347SOL    HW230501   4.678   1.736   3.063 -0.7277  0.7290 -0.4628
 6348SOL     OW30502   1.185   4.476   4.316  0.4597  0.0068  0.0902
 6348SOL    HW130503   1.214   4.562   4.347  0.6172 -1.1410  3.0596
 6348SOL    HW230504   1.090   4.474   4.332  0.3174  1.0934 -0.5817
 6349SOL     OW30505   3.734   1.664   6.721  0.5495  0.2955 -0.0009
 6349SOL    HW130506   3.734   1.570   6.743 -0.1505  0.3934  0.4069
 6349SOL    HW230507   3.690   1.659   6.636  2.3281 -2.1250 -0.8022
 6350SOL     OW30508   2.748   1.499   6.544 -0.0868 -0.3076  0.5499
 6350SOL    HW130509   2.791   1.453   6.472  0.4451  3.1282 -1.3625
 6350SOL    HW230510   2.704   1.569   6.497 -0.2948  0.2954  1.6386
 6351SOL     OW30511   1.132   3.753   1.903  0.2090 -0.3107 -0.6015
 6351SOL    HW130512   1.057   3.792   1.858  0.7692  0.7795 -0.6054
 6351SOL    HW230513   1.212   3.799   1.878 -0.0090  0.1999 -0.3729
 6352SOL     OW30514   4.519   1.290   8.841  0.1387  0.0662 -0.4299
 6352SOL    HW130515   4.504   1.385   8.842  2.9083  0.4978 -0.8930
 6352SOL    HW230516   4.425   1.275   8.847 -0.0487  0.9962 -1.0778
 6353SOL     OW30517   0.803   3.647   2.708  0.3492 -0.1272 -0.4033
 6353SOL    HW130518   0.832   3.696   2.785  1.7513 -0.7925 -0.5176
 6353SOL    HW230519   0.713   3.636   2.739  0.5485  0.1091  0.2597
 6354SOL     OW30520   0.863   2.193  11.183  0.4505  0.2008 -0.1860
 6354SOL    HW130521   0.932   2.132  11.212  0.5193  0.4424  0.1552
 6354SOL    HW230522   0.892   2.275  11.223  1.7687 -0.6540  0.6320
 6355SOL     OW30523   0.232   1.565   4.535  0.3169  0.4680 -0.1048
 6355SOL    HW130524   0.137   1.563   4.527  0.2152  1.5299  0.9248
 6355SOL    HW230525   0.246   1.621   4.611 -1.2598 -1.2515  1.4480
 6356SOL     OW30526   4.403   2.899   1.348 -0.1779  0.4487 -0.1670
 6356SOL    HW130527   4.319   2.855   1.353  0.3607 -0.3792  1.7059
 6356SOL    HW230528   4.448   2.873   1.428 -2.8283  0.0525  1.1694
 6357SOL     OW30529   2.462   3.671   9.066 -0.4879 -0.0356  0.4457
 6357SOL    HW130530   2.499   3.662   9.154 -3.2147 -0.5450  1.5199
 6357SOL    HW230531   2.538   3.661   9.009 -0.2076 -0.0033  0.8120
 6358SOL     OW30532   3.441   2.304  12.302  0.3828 -0.2708  0.6636
 6358SOL    HW130533   3.452   2.377  12.242  2.5278  0.5856  2.0813
 6358SOL    HW230534   3.418   2.341  12.387  0.6910  0.4296  0.4387
 6359SOL     OW30535   4.529   2.714   9.038  0.9086 -0.0851  0.4004
 6359SOL    HW130536   4.475   2.751   8.967  2.3196 -0.4493 -0.8635
 6359SOL    HW230537   4.606   2.688   8.987  0.2871 -1.3497  0.1326
 6360SOL     OW30538   1.333   3.889   1.784  0.2636 -0.2276  0.7282
 6360SOL    HW130539   1.395   3.873   1.713  1.9326  0.2629  2.0928
 6360SOL    HW230540   1.308   3.980   1.767 -1.5788 -0.4292  2.3672
 6361SOL     OW30541   2.827   4.649   1.344  0.0421  0.1628  0.1824
 6361SOL    HW130542   2.744   4.675   1.305  0.3193  0.2583 -0.3411
 6361SOL    HW230543   2.798   4.623   1.432 -0.6456  1.4310  0.3324
 6362SOL     OW30544   1.776   2.977   5.611 -0.3907 -0.5983 -0.1523
 6362SOL    HW130545   1.702   3.005   5.557  1.2995  3.4114 -0.3519
 6362SOL    HW230546   1.732   2.958   5.693 -2.1805 -1.5004 -1.3202
 6363SOL     OW30547   2.529   2.859  15.886 -0.2298  0.2857  0.3276
 6363SOL    HW130548   2.561   2.778  15.845  2.8739  1.4694  0.4332
 6363SOL    HW230549   2.434   2.846  15.887 -0.1347 -0.5395 -1.4758
 6364SOL     OW30550   4.298   3.829  14.365 -0.1076 -0.6479 -0.4861
 6364SOL    HW130551   4.254   3.806  14.447  0.5458 -2.5872 -0.6855
 6364SOL    HW230552   4.289   3.741  14.329 -2.8532 -0.2697 -0.7306
 6365SOL     OW30553   4.031   2.554   8.430 -0.0828 -0.1814  0.2417
 6365SOL    HW130554   3.968   2.587   8.367  2.9520  1.5175 -1.8500
 6365SOL    HW230555   4.004   2.471   8.470 -0.4679  0.5467  1.5114
 6366SOL     OW30556   3.486   3.203  11.807 -0.0939 -0.0192 -1.0457
 6366SOL    HW130557   3.401   3.190  11.849  0.8761 -1.0871  0.5644
 6366SOL    HW230558   3.523   3.115  11.810  0.4875  0.2309 -0.8289
 6367SOL     OW30559   2.257   0.595   7.383 -0.0324 -0.0823 -0.5517
 6367SOL    HW130560   2.239   0.650   7.307  0.2086  0.8977  0.1127
 6367SOL    HW230561   2.193   0.625   7.448 -1.3758  0.3818 -2.0682
 6368SOL     OW30562   0.278   3.395  14.518 -0.4985 -0.1091  0.2089
 6368SOL    HW130563   0.373   3.397  14.525 -0.4586 -0.3551 -0.2658
 6368SOL    HW230564   0.260   3.438  14.434 -0.2748 -0.4500 -0.0129
 6369SOL     OW30565   0.047   2.956   6.550  0.3687  0.5896  0.2466
 6369SOL    HW130566   4.708   2.929   6.482  0.8872  1.5946 -0.6368
 6369SOL    HW230567   4.709   3.019   6.589 -2.1667 -0.8549 -1.3705
 6370SOL     OW30568   1.620   1.948   4.155  0.0788 -0.2163 -0.0531
 6370SOL    HW130569   1.571   1.922   4.077 -1.0287  3.7995 -0.7228
 6370SOL    HW230570   1.609   2.043   4.147  0.1720 -0.1636  0.4878
 6371SOL     OW30571   1.786   1.758   0.645  0.0958  0.1692 -0.0632
 6371SOL    HW130572   1.694   1.735   0.658  0.1681  0.5325  1.1399
 6371SOL    HW230573   1.827   1.672   0.641  2.3788  1.1871  1.2399
 6372SOL     OW30574   2.785   3.481  12.051 -0.0282 -0.7921  0.6983
 6372SOL    HW130575   2.814   3.503  12.139  0.2965  1.0699  0.1105
 6372SOL    HW230576   2.808   3.388  12.043  1.3730 -0.0945 -3.0183
 6373SOL     OW30577   0.518   0.714  14.221 -0.1189 -0.2005 -0.4766
 6373SOL    HW130578   0.570   0.751  14.292 -0.7794  1.2676 -0.7679
 6373SOL    HW230579   0.451   0.670  14.274 -0.4579 -1.1078 -1.6494
 6374SOL     OW30580   1.415   1.238   2.779  0.1068  0.2296  0.4030
 6374SOL    HW130581   1.338   1.189   2.808  1.0096 -1.3457  0.1252
 6374SOL    HW230582   1.483   1.176   2.752 -0.5778  0.8556 -2.7293
 6375SOL     OW30583   2.574   0.190  12.121  0.1007  1.0630  0.4754
 6375SOL    HW130584   2.626   0.270  12.115  2.0439 -0.1244  1.5570
 6375SOL    HW230585   2.544   0.179  12.031 -0.4912 -0.2249  0.8340
 6376SOL     OW30586   2.106   0.529   3.419 -0.5766  0.1118 -0.2025
 6376SOL    HW130587   2.109   0.450   3.473 -0.4241  0.5529  0.4383
 6376SOL    HW230588   2.015   0.546   3.394 -0.6017  1.1272  0.5894
 6377SOL     OW30589   1.819   2.802   1.498 -0.1250 -0.4254  0.0456
 6377SOL    HW130590   1.855   2.855   1.569  0.8839 -0.1305 -0.6826
 6377SOL    HW230591   1.772   2.733   1.544  0.3315 -0.3978  0.5435
 6378SOL     OW30592   4.097   4.311  15.927  0.3953  0.2352 -0.0948
 6378SOL    HW130593   4.040   4.260  15.984 -0.7792  2.2558  0.5184
 6378SOL    HW230594   4.065   4.397  15.955  0.6692  0.2593  0.1455
 6379SOL     OW30595   2.382   0.707   2.200 -0.1636  0.2717  0.1967
 6379SOL    HW130596   2.360   0.653   2.276  0.5476  3.1813  2.4705
 6379SOL    HW230597   2.478   0.712   2.203 -0.3000  2.1529  1.5240
 6380SOL     OW30598   0.865   2.261   3.844 -0.7034  0.0793  0.5389
 6380SOL    HW130599   0.870   2.169   3.818  2.5419  0.5450 -0.4453
 6380SOL    HW230600   0.819   2.249   3.927 -0.2143  2.0785  1.0905
 6381SOL     OW30601   0.053   1.107   3.895 -0.1109  0.0017 -0.5436
 6381SOL    HW130602   0.115   1.128   3.964 -0.4365 -3.1348  0.7031
 6381SOL    HW230603   0.070   1.013   3.894  3.7263  0.6988  0.2266
 6382SOL     OW30604   1.367   2.576   7.608  0.1498 -0.4866 -0.0350
 6382SOL    HW130605   1.388   2.521   7.683 -0.7393 -0.0664  0.5287
 6382SOL    HW230606   1.305   2.630   7.658 -0.0097  0.2706 -1.0372
 6383SOL     OW30607   0.980   2.822  12.989 -0.2952  0.1105 -0.3245
 6383SOL    HW130608   1.029   2.885  13.042 -0.8643 -0.4680  0.8796
 6383SOL    HW230609   1.039   2.807  12.915 -1.1869  0.3208 -1.0922
 6384SOL     OW30610   3.789   2.152   7.056  0.3623  0.1148 -0.1643
 6384SOL    HW130611   3.864   2.136   7.114  0.2722  0.3022  0.0068
 6384SOL    HW230612   3.724   2.192   7.114  2.0809  0.6605  1.3762
 6385SOL     OW30613   2.932   1.396   8.475 -0.5280  0.2533  0.0578
 6385SOL    HW130614   3.008   1.435   8.431  0.2670 -1.9054 -0.4544
 6385SOL    HW230615   2.938   1.309   8.436  1.0878 -0.2193  1.3695
 6386SOL     OW30616   2.763   3.323   7.573 -0.6286 -0.1049 -0.1848
 6386SOL    HW130617   2.827   3.278   7.628  0.4560  1.0512 -0.4846
 6386SOL    HW230618   2.793   3.414   7.569 -2.0261  0.4822  2.5332
 6387SOL     OW30619   2.447   3.106   6.614  0.1208  0.3656 -0.1038
 6387SOL    HW130620   2.535   3.125   6.582  1.0257 -2.4246  0.7431
 6387SOL    HW230621   2.412   3.193   6.634 -0.3198 -0.2103  1.5964
 6388SOL     OW30622   3.358   0.053  10.686  0.3593  0.3317  0.2077
 6388SOL    HW130623   3.269   0.071  10.653 -0.5091 -0.0311  2.3711
 6388SOL    HW230624   3.346   0.030  10.778  1.0768  1.6444  0.6198
 6389SOL     OW30625   3.571   2.876   4.864 -0.0040  0.1302 -0.5496
 6389SOL    HW130626   3.629   2.941   4.904  0.9478 -1.2274  0.2909
 6389SOL    HW230627   3.523   2.847   4.941  0.1726 -0.7560 -0.7725
 6390SOL     OW30628   3.641   0.713  10.931 -0.2131  0.1863 -0.5480
 6390SOL    HW130629   3.610   0.801  10.909 -1.4338  0.3710  1.8382
 6390SOL    HW230630   3.654   0.739  11.022 -1.3115 -1.8858  0.2130
 6391SOL     OW30631   3.279   1.283  16.621 -0.0322  0.0957  0.3496
 6391SOL    HW130632   3.323   1.341  16.683  2.5169 -0.2886 -1.0862
 6391SOL    HW230633   3.253   1.212  16.680  1.3950 -0.9589 -0.3008
 6392SOL     OW30634   2.680   2.974   1.513 -0.2239  0.2823  0.7070
 6392SOL    HW130635   2.757   2.929   1.479 -0.1408  0.4999  0.6088
 6392SOL    HW230636   2.675   2.943   1.603 -0.3204  0.6587  0.8310
 6393SOL     OW30637   3.131   3.948   2.678 -0.3704  0.5354  0.0789
 6393SOL    HW130638   3.161   4.037   2.658 -0.0878 -0.0046 -1.9302
 6393SOL    HW230639   3.074   3.942   2.602  2.2210 -0.6405 -1.8015
 6394SOL     OW30640   2.048   3.602   5.235 -0.0978 -0.0144 -0.0431
 6394SOL    HW130641   2.019   3.537   5.171 -0.0913  0.1524 -0.2167
 6394SOL    HW230642   2.112   3.647   5.180  0.9814 -2.0608 -0.4498
 6395SOL     OW30643   2.393   2.005  13.339 -0.6830  0.3219  0.1238
 6395SOL    HW130644   2.323   2.067  13.319 -2.0952 -0.7006  1.8851
 6395SOL    HW230645   2.399   2.000  13.435 -1.1773  0.3070  0.1524
 6396SOL     OW30646   3.130   0.831   5.875  0.1339  0.3486  0.3454
 6396SOL    HW130647   3.041   0.802   5.895 -0.4460  0.7738 -1.6713
 6396SOL    HW230648   3.137   0.895   5.946 -0.4729 -0.9206  1.5571
 6397SOL     OW30649   0.507   4.506   8.269  0.0114  0.0276 -0.3332
 6397SOL    HW130650   0.492   4.416   8.238 -2.3428  0.2094  0.3069
 6397SOL    HW230651   0.449   4.560   8.216 -1.2907 -0.5577  0.4868
 6398SOL     OW30652   2.404   1.199   4.112 -0.2049 -0.3258 -0.7807
 6398SOL    HW130653   2.396   1.213   4.207 -0.9063 -2.6816 -0.5144
 6398SOL    HW230654   2.404   1.293   4.091 -3.9891 -0.1736 -0.1098
 6399SOL     OW30655   2.483   3.404  15.689 -0.0065 -0.4859 -0.4603
 6399SOL    HW130656   2.424   3.468  15.728  0.9289  0.0769  0.0202
 6399SOL    HW230657   2.416   3.362  15.634 -0.0566 -0.3118 -0.5335
 6400SOL     OW30658   0.141   4.507   8.138 -0.6355 -0.1524 -0.4350
 6400SOL    HW130659   0.221   4.557   8.129  0.2356 -0.8868  3.0343
 6400SOL    HW230660   0.159   4.431   8.083  1.7393 -0.3141  0.5680
 6401SOL     OW30661   4.030   1.806   0.009  0.0471  0.4147 -0.2301
 6401SOL    HW130662   4.125   1.817   0.010  0.1790 -0.8370  1.0878
 6401SOL    HW230663   3.995   1.887   0.048  0.7614  0.8974 -0.6018
 6402SOL     OW30664   3.594   3.400   3.512  0.1757 -0.0961  0.0901
 6402SOL    HW130665   3.615   3.323   3.566  0.8510 -0.1826 -0.2904
 6402SOL    HW230666   3.518   3.375   3.461 -0.5425  0.6196  0.8127
 6403SOL     OW30667   3.590   1.870   8.496 -0.7404  0.6253 -0.4127
 6403SOL    HW130668   3.556   1.847   8.583 -2.5535 -0.6884 -1.4897
 6403SOL    HW230669   3.523   1.932   8.467 -2.3452 -1.3976 -1.0380
 6404SOL     OW30670   1.104   1.373   6.294  0.6104  0.0645  0.0207
 6404SOL    HW130671   1.063   1.360   6.208 -1.4096 -0.4652  1.0690
 6404SOL    HW230672   1.192   1.395   6.263  1.0099 -1.3544  0.1929
 6405SOL     OW30673   0.877   0.347   4.611  0.0970  0.0638  0.6563
 6405SOL    HW130674   0.799   0.365   4.663 -0.5332  0.1095 -0.2929
 6405SOL    HW230675   0.939   0.376   4.677  1.4002 -2.1719  0.4221
 6406SOL     OW30676   4.145   4.618   8.815 -0.0343 -0.3710  0.0810
 6406SOL    HW130677   4.220   4.676   8.806  0.7970 -1.6838 -1.3821
 6406SOL    HW230678   4.100   4.663   8.886  1.3669 -0.6158  1.1339
 6407SOL     OW30679   1.875   3.074   7.654  0.1573 -0.4144  0.3626
 6407SOL    HW130680   1.805   3.010   7.646 -1.2440  1.4876 -2.5496
 6407SOL    HW230681   1.888   3.100   7.562  0.3316 -0.5449  0.3507
 6408SOL     OW30682   0.844   0.977   7.691  0.9760 -0.2689 -0.1825
 6408SOL    HW130683   0.861   1.035   7.617  0.1701  0.3953  0.1520
 6408SOL    HW230684   0.890   1.031   7.756  0.9841  0.2848 -0.6458
 6409SOL     OW30685   4.478   1.239   8.025 -0.1691  0.0522  0.5686
 6409SOL    HW130686   4.542   1.205   7.962  0.9335  1.4345  0.9483
 6409SOL    HW230687   4.467   1.159   8.077 -1.3148  0.0508  0.3234
 6410SOL     OW30688   2.901   2.961   6.996  0.6515  0.2120 -0.1945
 6410SOL    HW130689   2.851   2.888   6.960 -0.8754  1.1165  0.0846
 6410SOL    HW230690   2.843   2.997   7.062 -1.7494 -0.8849 -1.7235
 6411SOL     OW30691   3.803   3.717   5.143  0.1962  0.1733 -0.0240
 6411SOL    HW130692   3.892   3.681   5.139  0.4742  0.8422  0.0542
 6411SOL    HW230693   3.757   3.647   5.189  0.3452  0.0995  0.0139
 6412SOL     OW30694   1.531   3.256   0.953  0.5032  0.6409 -0.2457
 6412SOL    HW130695   1.497   3.204   1.026 -0.2976  0.6009 -0.6427
 6412SOL    HW230696   1.540   3.338   1.001 -2.1713 -1.1037  3.1778
 6413SOL     OW30697   2.677   0.257   9.227 -0.3489  0.1600 -0.0083
 6413SOL    HW130698   2.730   0.206   9.288 -0.6538 -0.2391 -0.0768
 6413SOL    HW230699   2.607   0.194   9.210 -1.0500  1.2017 -0.9534
 6414SOL     OW30700   0.838   2.423  11.355  0.0989  1.0304  0.0721
 6414SOL    HW130701   0.862   2.507  11.318 -2.3275  2.1847  1.1343
 6414SOL    HW230702   0.828   2.439  11.449  1.6245 -0.0272  0.4304
 6415SOL     OW30703   0.888   3.281  13.263  0.5770  0.3649  0.0451
 6415SOL    HW130704   0.868   3.360  13.313 -0.4525 -0.6363  1.2141
 6415SOL    HW230705   0.851   3.308  13.179  1.0092  1.1189  0.0986
 6416SOL     OW30706   2.574   2.560   4.728 -0.1975  0.2983  0.0704
 6416SOL    HW130707   2.568   2.653   4.706  0.1154  0.8703  2.4895
 6416SOL    HW230708   2.512   2.560   4.800 -0.2823  0.5927 -0.0026
 6417SOL     OW30709   2.858   3.641   4.186  0.8488  0.0255  0.3793
 6417SOL    HW130710   2.857   3.677   4.274  1.3151  1.2579 -0.1167
 6417SOL    HW230711   2.864   3.546   4.200  1.1726 -0.1729 -1.0311
 6418SOL     OW30712   3.432   2.830   2.205 -0.7503 -0.0358 -0.0947
 6418SOL    HW130713   3.371   2.853   2.275  0.1826  0.7436  0.4646
 6418SOL    HW230714   3.500   2.778   2.247 -1.7703 -0.3384  1.2075
 6419SOL     OW30715   3.633   4.256   3.965  0.0258  0.0354 -0.5858
 6419SOL    HW130716   3.603   4.272   3.876  0.4122 -1.7171 -1.0294
 6419SOL    HW230717   3.698   4.326   3.960  1.3989 -1.1572  0.3284
 6420SOL     OW30718   4.335   3.963   5.843  0.0486  0.2546  0.3101
 6420SOL    HW130719   4.428   3.941   5.850 -0.1067 -1.3317 -2.7510
 6420SOL    HW230720   4.338   4.046   5.796 -3.3706 -0.4908 -1.2351
 6421SOL     OW30721   3.899   0.429  14.456  0.3664 -0.6168  0.2289
 6421SOL    HW130722   3.918   0.472  14.373 -1.2471 -0.5918 -0.1200
 6421SOL    HW230723   3.833   0.494  14.480  1.7795  0.6533  0.7241
 6422SOL     OW30724   1.109   3.108   1.822 -0.1766 -0.2312  0.3300
 6422SOL    HW130725   1.089   3.199   1.800 -0.3660 -0.2002  0.6187
 6422SOL    HW230726   1.021   3.069   1.824 -1.0878  1.8130  0.2655
 6423SOL     OW30727   2.705   4.451   4.704 -0.7421 -0.5546  0.0375
 6423SOL    HW130728   2.630   4.445   4.645 -2.4687 -2.8228  2.4768
 6423SOL    HW230729   2.771   4.473   4.638  0.7071  0.6638  1.8858
 6424SOL     OW30730   1.985   4.057   3.299 -0.0100 -0.2236  0.8518
 6424SOL    HW130731   2.061   4.108   3.271  0.6484 -1.1631  0.9075
 6424SOL    HW230732   1.992   3.980   3.242  1.5178  1.5244 -1.2757
 6425SOL     OW30733   1.913   4.074   3.554 -0.0547  0.1958  0.1778
 6425SOL    HW130734   1.922   4.070   3.459 -4.5857 -1.3633 -0.1657
 6425SOL    HW230735   1.864   4.156   3.547 -1.9752 -0.7570  2.7858
 6426SOL     OW30736   2.697   3.917   7.973  0.1641 -0.1413  0.4361
 6426SOL    HW130737   2.714   3.832   8.014  0.0706 -0.8743 -1.0570
 6426SOL    HW230738   2.602   3.912   7.974  0.2316 -1.3670  1.2030
 6427SOL     OW30739   1.685   1.071   8.228  0.0229  0.2039  0.4194
 6427SOL    HW130740   1.756   1.101   8.171  0.0982  0.5620  0.7044
 6427SOL    HW230741   1.624   1.143   8.242 -0.9138 -0.2523 -1.2416
 6428SOL     OW30742   0.934   2.279   5.388  0.2423 -1.1011 -0.3140
 6428SOL    HW130743   0.860   2.218   5.384  0.1742 -1.0950  0.8439
 6428SOL    HW230744   0.892   2.359   5.356  1.1378 -0.8758 -0.9211
 6429SOL     OW30745   1.397   0.775   5.891 -0.0283  0.2936 -0.5604
 6429SOL    HW130746   1.367   0.827   5.966  0.9612 -2.0437  1.4235
 6429SOL    HW230747   1.319   0.720   5.886 -1.3175  2.0622 -0.2820
 6430SOL     OW30748   2.582   3.386   4.248 -0.0717 -0.3939 -0.3140
 6430SOL    HW130749   2.575   3.347   4.335 -1.2733 -2.8138 -1.5005
 6430SOL    HW230750   2.551   3.475   4.265  3.2866  0.5501  0.8123
 6431SOL     OW30751   0.708   1.580   8.795 -0.2990  0.1997 -0.2011
 6431SOL    HW130752   0.660   1.603   8.715  0.9551 -1.2708 -1.3718
 6431SOL    HW230753   0.654   1.599   8.871  1.4524 -0.3107  1.1663
 6432SOL     OW30754   1.295   1.661  16.735 -0.2802 -0.2568  0.1556
 6432SOL    HW130755   1.354   1.734  16.756  1.0015 -1.4909  0.8521
 6432SOL    HW230756   1.211   1.691  16.770 -0.3260  0.7966 -0.8653
 6433SOL     OW30757   1.344   1.883  11.674  0.2905  0.2344 -0.0497
 6433SOL    HW130758   1.405   1.918  11.738  2.2833 -2.6054 -0.3925
 6433SOL    HW230759   1.406   1.878  11.601  2.1946 -1.1261  1.6469
 6434SOL     OW30760   0.910   0.134   6.537  0.4391 -0.0504 -0.0881
 6434SOL    HW130761   1.004   0.135   6.554  0.1784 -0.7380  1.4320
 6434SOL    HW230762   0.872   0.153   6.623 -0.1985 -0.6416 -0.2381
 6435SOL     OW30763   4.259   0.326   7.896 -0.3175 -0.0685 -0.2286
 6435SOL    HW130764   4.336   0.382   7.898 -0.0843 -0.4299  1.6857
 6435SOL    HW230765   4.297   0.247   7.858  2.3650  1.0775  0.0493
 6436SOL     OW30766   0.403   3.112   8.544  0.2618  0.2831 -0.1338
 6436SOL    HW130767   0.353   3.070   8.474  1.4962 -0.0068 -0.8362
 6436SOL    HW230768   0.342   3.177   8.578 -0.7872 -1.0673  0.6013
 6437SOL     OW30769   0.400   3.851   8.616  0.3133  0.0506  1.2732
 6437SOL    HW130770   0.467   3.870   8.682  0.9602 -3.5105  1.6446
 6437SOL    HW230771   0.403   3.932   8.565  1.1028  0.6456  2.2461
 6438SOL     OW30772   0.868   2.674   3.142  0.3872 -0.4560  0.0552
 6438SOL    HW130773   0.920   2.681   3.222  0.6821 -1.0611 -0.0864
 6438SOL    HW230774   0.935   2.641   3.081  0.9302 -1.5880  1.2649
 6439SOL     OW30775   4.605   4.703   4.529  0.2843  0.6555 -0.7680
 6439SOL    HW130776   4.545   4.670   4.462  1.8369 -0.5877 -1.5294
 6439SOL    HW230777   4.660   0.039   4.477  1.3286 -1.1259 -1.6807
 6440SOL     OW30778   0.088   3.431   4.640 -0.1562  0.3449  0.3604
 6440SOL    HW130779   0.141   3.503   4.607  1.6608 -0.7198  0.9431
 6440SOL    HW230780   0.090   3.374   4.563  1.5234  2.0327 -0.8402
 6441SOL     OW30781   2.753   4.596   5.358 -0.2832 -0.1367  0.0778
 6441SOL    HW130782   2.751   4.593   5.454 -0.7559 -1.5595  0.0249
 6441SOL    HW230783   2.661   4.617   5.341 -0.3349  0.0896  0.6086
 6442SOL     OW30784   3.191   4.314   4.496 -0.3174  0.2962  0.7161
 6442SOL    HW130785   3.180   4.222   4.471  0.9743  0.4657 -0.4820
 6442SOL    HW230786   3.105   4.329   4.536 -0.1540  0.0936  1.1302
 6443SOL     OW30787   2.523   3.584   3.243 -0.1055  0.2616 -0.2097
 6443SOL    HW130788   2.510   3.493   3.272 -0.6868  0.9022  1.5199
 6443SOL    HW230789   2.542   3.638   3.319  2.3309  1.2943 -1.5723
 6444SOL     OW30790   4.650   3.773  15.591 -0.5901  0.6263 -0.2687
 6444SOL    HW130791   4.622   3.716  15.520 -1.5994  0.4425  0.2720
 6444SOL    HW230792   4.624   3.860  15.560 -0.7860  0.9697  0.8301
 6445SOL     OW30793   2.240   1.952   4.065  0.0121  0.0384 -0.0386
 6445SOL    HW130794   2.164   1.895   4.062 -0.0718  0.1510 -0.0561
 6445SOL    HW230795   2.315   1.894   4.078 -1.1809 -1.7641 -1.2587
 6446SOL     OW30796   4.692   1.550   4.495 -0.0503 -0.4841 -0.5305
 6446SOL    HW130797   4.654   1.538   4.408  0.0946  0.4595 -0.7227
 6446SOL    HW230798   4.654   1.634   4.522 -0.2869  0.6693 -4.3955
 6447SOL     OW30799   3.367   4.515   9.321  0.1376 -0.1186  0.0271
 6447SOL    HW130800   3.382   4.581   9.253 -2.8935  0.2634 -0.2389
 6447SOL    HW230801   3.328   4.442   9.273 -0.8605  0.4802 -0.0635
 6448SOL     OW30802   0.915   1.731   8.493  0.4460  0.4020 -0.6362
 6448SOL    HW130803   0.926   1.811   8.443 -1.5461  0.7354 -0.5661
 6448SOL    HW230804   0.855   1.683   8.435  0.2930 -0.2016  0.0195
 6449SOL     OW30805   3.403   2.115   5.080  0.0494 -0.1697  0.0479
 6449SOL    HW130806   3.363   2.119   5.167 -0.2817  3.1883 -0.2611
 6449SOL    HW230807   3.331   2.157   5.032  0.6615  0.0114 -0.7036
 6450SOL     OW30808   3.871   2.949   3.719 -0.3221 -0.1203 -0.9916
 6450SOL    HW130809   3.856   3.038   3.751  0.2541  0.0395 -1.1612
 6450SOL    HW230810   3.829   2.896   3.786 -1.1018  1.5503 -0.1534
 6451SOL     OW30811   4.601   0.784  13.661 -0.2329  0.2228 -0.0557
 6451SOL    HW130812   4.606   0.827  13.746 -3.0153  2.2806 -0.9339
 6451SOL    HW230813   4.566   0.852  13.603 -0.8969 -0.3003 -0.2612
 6452SOL     OW30814   4.440   3.602   2.687 -0.4936  0.3765 -0.0674
 6452SOL    HW130815   4.404   3.513   2.694  0.1798 -0.0234 -1.7415
 6452SOL    HW230816   4.378   3.641   2.748 -1.9262  0.5119 -1.6122
 6453SOL     OW30817   2.863   3.947   5.298 -0.0943 -0.5965 -0.1668
 6453SOL    HW130818   2.853   3.992   5.214 -0.2986  0.4541  0.4196
 6453SOL    HW230819   2.812   3.866   5.287 -0.8007  0.0441 -1.6004
 6454SOL     OW30820   0.578   0.702   5.188 -0.0718 -0.3411 -0.3669
 6454SOL    HW130821   0.521   0.681   5.262  1.4206 -1.4807  0.4619
 6454SOL    HW230822   0.660   0.689   5.235  0.6409  1.8642 -0.9872
 6455SOL     OW30823   1.121   4.337   5.569 -0.0848 -0.3163 -0.2324
 6455SOL    HW130824   1.124   4.321   5.664 -1.2710 -2.5220 -0.5763
 6455SOL    HW230825   1.114   4.433   5.570 -1.4616 -0.4282  1.2799
 6456SOL     OW30826   3.860   3.033   6.282  0.2039 -0.7943 -0.7975
 6456SOL    HW130827   3.810   3.111   6.257  1.5075  0.0448 -0.7723
 6456SOL    HW230828   3.789   2.979   6.317  2.0994 -1.7571  1.5421
 6457SOL     OW30829   0.988   2.537   8.025  0.6225 -0.5754  0.0493
 6457SOL    HW130830   0.922   2.514   8.091 -0.1959  0.3905 -0.4314
 6457SOL    HW230831   0.979   2.632   8.026 -0.3652 -0.6661 -0.3677
 6458SOL     OW30832   4.304   2.309   2.903 -0.6493 -0.0392  0.2337
 6458SOL    HW130833   4.355   2.294   2.983 -2.1905  0.6846  1.3561
 6458SOL    HW230834   4.286   2.403   2.906  0.2084  0.1198  0.3414
 6459SOL     OW30835   0.630   1.884   3.135  0.0420  0.1241  0.4106
 6459SOL    HW130836   0.566   1.892   3.065  0.6229 -1.9300 -0.3462
 6459SOL    HW230837   0.641   1.975   3.165  3.9647 -0.4684  0.6875
 6460SOL     OW30838   2.303   0.781   7.193 -0.0835  0.2427  0.4288
 6460SOL    HW130839   2.212   0.812   7.190  0.1269  0.6058 -2.4319
 6460SOL    HW230840   2.337   0.827   7.116 -3.2886 -1.3361 -1.8984
 6461SOL     OW30841   3.158   2.319  14.101 -0.2894 -0.0576 -0.2633
 6461SOL    HW130842   3.077   2.327  14.050 -1.3993  1.9924  1.8092
 6461SOL    HW230843   3.223   2.306  14.032 -2.6375 -3.6461 -1.7278
 6462SOL     OW30844   0.597   4.019   4.524  0.5015  0.3563 -0.3708
 6462SOL    HW130845   0.692   4.014   4.513  0.6769 -1.6563  2.0593
 6462SOL    HW230846   0.591   4.108   4.558 -0.1881 -0.6572  2.1697
 6463SOL     OW30847   1.756   2.858  16.906 -0.0561  0.2209  0.5917
 6463SOL    HW130848   1.687   2.822  16.962 -0.0833  0.5634  0.7792
 6463SOL    HW230849   1.812   2.782  16.889 -1.7253 -0.5145 -1.5225
 6464SOL     OW30850   3.345   0.482   7.634  0.1867 -0.2521  0.1753
 6464SOL    HW130851   3.311   0.421   7.699 -0.5466 -0.5880 -0.5292
 6464SOL    HW230852   3.427   0.440   7.609  1.2548  0.9408  1.6081
 6465SOL     OW30853   0.804   2.579   6.527  0.2372 -0.1449  0.2342
 6465SOL    HW130854   0.833   2.540   6.609 -0.6892 -0.0192  0.6142
 6465SOL    HW230855   0.883   2.632   6.512  0.1723 -0.4822 -1.2876
 6466SOL     OW30856   3.333   2.474   3.366  0.2805 -0.1674 -0.1051
 6466SOL    HW130857   3.337   2.398   3.309  0.4832 -1.2241  1.3095
 6466SOL    HW230858   3.387   2.539   3.322 -0.6260  0.6406 -0.0324
 6467SOL     OW30859   2.865   3.752   6.224 -0.2870  0.4330  0.1332
 6467SOL    HW130860   2.796   3.798   6.272  0.1915  0.9450  0.3266
 6467SOL    HW230861   2.828   3.664   6.211 -1.2015  0.4517  2.4050
 6468SOL     OW30862   1.922   0.221   5.096  0.3916  0.0970  0.3922
 6468SOL    HW130863   1.961   0.201   5.181  1.0723 -2.2338 -0.4538
 6468SOL    HW230864   2.000   0.226   5.040 -0.0054  0.9499 -0.0722
 6469SOL     OW30865   0.493   2.787   3.106  0.0225  0.3156 -0.0508
 6469SOL    HW130866   0.482   2.876   3.140  0.2012  0.7275 -1.0527
 6469SOL    HW230867   0.440   2.791   3.026  0.2549 -0.5201 -0.2468
 6470SOL     OW30868   2.933   1.927   8.279 -0.5799  0.0809 -0.3903
 6470SOL    HW130869   2.910   2.020   8.275  0.1549  0.3784  2.3377
 6470SOL    HW230870   2.938   1.913   8.374  0.4336 -1.1414 -0.6241
 6471SOL     OW30871   4.394   2.466   7.237 -0.3434  0.2499 -0.0808
 6471SOL    HW130872   4.319   2.407   7.232 -0.6422  0.5710  0.5769
 6471SOL    HW230873   4.420   2.482   7.146  0.4754 -0.4196  0.0415
 6472SOL     OW30874   0.610   4.009   7.295  0.2907  0.1089 -0.2676
 6472SOL    HW130875   0.532   3.972   7.252  1.4118 -0.3544 -1.8675
 6472SOL    HW230876   0.587   4.101   7.284 -0.4245 -0.2982 -2.1023
 6473SOL     OW30877   0.048   3.132   9.419  0.3791  0.8805  0.2992
 6473SOL    HW130878   0.007   3.045   9.415  2.1435  0.1801 -2.5990
 6473SOL    HW230879   0.123   3.103   9.471  0.4119 -0.1909 -0.3482
 6474SOL     OW30880   0.755   2.097   4.058  0.0229  0.2503 -0.7850
 6474SOL    HW130881   0.715   2.072   4.141  2.8662 -0.8244  0.2738
 6474SOL    HW230882   0.845   2.101   4.091  0.1710  2.5184 -1.4470
 6475SOL     OW30883   3.642   0.834   6.723  0.0501 -0.3410  0.0970
 6475SOL    HW130884   3.677   0.863   6.639 -0.6359 -1.9563 -0.7484
 6475SOL    HW230885   3.547   0.824   6.711  0.3246 -0.8875 -1.6626
 6476SOL     OW30886   3.396   0.239   4.887 -0.3081 -0.4173  0.2555
 6476SOL    HW130887   3.451   0.312   4.918 -1.4626  0.2898  0.6485
 6476SOL    HW230888   3.458   0.167   4.879  0.9683  0.6448  0.4336
 6477SOL     OW30889   2.504   1.816   9.944 -0.5953  0.1390  0.3449
 6477SOL    HW130890   2.410   1.820   9.957 -0.7220 -1.0815 -0.1693
 6477SOL    HW230891   2.521   1.895   9.893 -2.1785 -0.7885 -1.6187
 6478SOL     OW30892   0.614   2.839   7.150  0.4449  0.2231 -0.2719
 6478SOL    HW130893   0.684   2.856   7.213 -1.0424 -0.4468  1.5542
 6478SOL    HW230894   0.544   2.819   7.212  1.2689 -2.1667 -0.1440
 6479SOL     OW30895   3.653   2.075  12.977 -0.4768  0.6407 -0.3875
 6479SOL    HW130896   3.677   1.987  13.006  2.5926  1.6233  0.0462
 6479SOL    HW230897   3.688   2.140  13.038  1.0381 -0.9536  0.4421
 6480SOL     OW30898   1.086   0.533   7.365  0.0975 -0.0527 -0.0751
 6480SOL    HW130899   1.126   0.556   7.449  0.6291 -1.3135  0.0095
 6480SOL    HW230900   1.121   0.608   7.316 -4.1222  1.8632 -0.1793
 6481SOL     OW30901   3.940   0.336  16.201 -0.3124 -0.0741 -0.7355
 6481SOL    HW130902   3.943   0.423  16.241 -2.0592  1.1362 -3.2262
 6481SOL    HW230903   3.949   0.354  16.107 -0.4523 -3.3948 -1.3888
 6482SOL     OW30904   1.402   1.847   8.461 -0.2261  0.2237 -0.6021
 6482SOL    HW130905   1.345   1.832   8.385  0.0776  0.2066 -0.8235
 6482SOL    HW230906   1.487   1.876   8.429  1.0210  0.9289  3.2601
 6483SOL     OW30907   1.706   2.197  15.651  0.0641 -0.1225  0.2333
 6483SOL    HW130908   1.794   2.178  15.684 -0.0978 -0.0120  0.7409
 6483SOL    HW230909   1.730   2.196  15.559 -0.8357 -2.2146  0.0294
 6484SOL     OW30910   1.663   3.075  16.775 -0.4170  0.2275  0.3659
 6484SOL    HW130911   1.711   2.996  16.801  1.7259  0.1584 -3.7713
 6484SOL    HW230912   1.710   3.139  16.829  0.2351 -1.1727  1.4579
 6485SOL     OW30913   0.617   0.465   8.219 -0.2967 -0.1682 -0.2098
 6485SOL    HW130914   0.525   0.483   8.200 -0.0267 -1.7641 -3.1425
 6485SOL    HW230915   0.634   0.493   8.309 -0.8783  0.0739 -0.1763
 6486SOL     OW30916   3.714   0.442   6.157 -0.2804 -0.5999 -0.0564
 6486SOL    HW130917   3.660   0.496   6.214  2.8351  2.1806  0.2944
 6486SOL    HW230918   3.803   0.451   6.192  0.1185 -1.4358 -0.8393
 6487SOL     OW30919   0.365   1.915   5.680  0.0978 -0.1832 -1.0043
 6487SOL    HW130920   0.356   1.997   5.729  0.5210  0.7170 -2.4478
 6487SOL    HW230921   0.354   1.937   5.587  1.3956  0.0604 -1.0954
 6488SOL     OW30922   1.884   1.781   1.264 -0.0158  0.0760  0.1665
 6488SOL    HW130923   1.891   1.697   1.309  1.3614  1.2138  2.0691
 6488SOL    HW230924   1.796   1.777   1.227  0.0674 -0.7230  0.0547
 6489SOL     OW30925   2.110   4.032   6.389  0.1873  0.2382  0.0201
 6489SOL    HW130926   2.178   4.089   6.426 -0.2255 -0.2636  1.5433
 6489SOL    HW230927   2.126   3.953   6.439 -1.0500 -0.1664 -0.2290
 6490SOL     OW30928   1.909   0.849   0.630 -0.4802 -0.1865 -0.3613
 6490SOL    HW130929   1.850   0.888   0.566 -2.0883 -1.8094  0.1420
 6490SOL    HW230930   1.967   0.801   0.571 -0.5055  0.4255 -0.8867
 6491SOL     OW30931   4.332   2.292   8.587  0.1377 -0.4474  0.4252
 6491SOL    HW130932   4.262   2.227   8.594 -0.4787  0.0611 -1.0990
 6491SOL    HW230933   4.402   2.235   8.621 -0.9563 -1.0044  1.7454
 6492SOL     OW30934   0.328   1.623   5.839 -0.3622 -0.0008  0.4244
 6492SOL    HW130935   0.341   1.702   5.786  0.6614 -0.1086  0.5105
 6492SOL    HW230936   0.309   1.662   5.924  0.9351  0.3147  0.5617
 6493SOL     OW30937   1.345   1.875   2.612 -0.3288  0.0111 -0.1619
 6493SOL    HW130938   1.352   1.779   2.611  2.9653  0.2324 -0.7956
 6493SOL    HW230939   1.311   1.891   2.524 -4.6262 -0.3313  1.4795
 6494SOL     OW30940   3.911   4.473   9.724 -0.1832 -0.4421  0.6007
 6494SOL    HW130941   3.835   4.493   9.779 -0.2852  1.3681 -0.1965
 6494SOL    HW230942   3.977   4.523   9.771 -0.8087  1.4867 -0.5517
 6495SOL     OW30943   2.326   0.491  10.441 -0.1056  0.1067  0.1301
 6495SOL    HW130944   2.384   0.416  10.431  0.3205  0.5117 -0.4484
 6495SOL    HW230945   2.252   0.445  10.482  0.2326  0.9224  1.6557
 6496SOL     OW30946   1.169   2.602   0.708 -0.0322 -0.1108 -0.0164
 6496SOL    HW130947   1.219   2.682   0.693 -1.6660  0.7014 -0.9907
 6496SOL    HW230948   1.182   2.597   0.803  0.0124  1.9341  0.0912
 6497SOL     OW30949   4.088   0.381   3.551 -0.1154 -0.0491  0.3591
 6497SOL    HW130950   4.183   0.394   3.560 -0.0547  1.3118 -2.3622
 6497SOL    HW230951   4.076   0.383   3.456 -0.8166 -0.7893  0.4370
 6498SOL     OW30952   4.191   3.268   5.217 -0.0649 -0.0858 -0.4465
 6498SOL    HW130953   4.241   3.195   5.179 -0.1431  1.0201 -2.6612
 6498SOL    HW230954   4.188   3.235   5.307  1.8882 -1.3284 -0.8258
 6499SOL     OW30955   1.954   3.740  15.154 -0.0916  0.6030 -0.3688
 6499SOL    HW130956   1.957   3.794  15.233 -3.1932  1.1527 -0.6079
 6499SOL    HW230957   2.013   3.798  15.105 -0.0863  0.8914 -0.0280
 6500SOL     OW30958   1.397   4.237   7.195 -0.1367  0.1726 -0.4233
 6500SOL    HW130959   1.461   4.300   7.229 -0.5793 -0.3873  1.4176
 6500SOL    HW230960   1.333   4.286   7.142 -0.5338  0.6732  0.5177
 6501SOL     OW30961   1.744   1.681   7.916  0.2719 -0.1869  0.1272
 6501SOL    HW130962   1.690   1.737   7.971 -0.9375  0.8396 -2.1191
 6501SOL    HW230963   1.827   1.729   7.924 -0.2288  0.5626  0.7244
 6502SOL     OW30964   1.269   0.786  16.293 -0.6139  0.0376  0.1641
 6502SOL    HW130965   1.355   0.812  16.327 -1.1507 -0.5441  1.9919
 6502SOL    HW230966   1.235   0.757  16.378  1.2693 -1.5040  0.3941
 6503SOL     OW30967   1.415   3.733   7.426 -0.3896 -0.3068 -0.0371
 6503SOL    HW130968   1.451   3.652   7.460  0.0099 -0.2851 -0.4033
 6503SOL    HW230969   1.492   3.783   7.398 -1.3322  0.6415 -0.9358
 6504SOL     OW30970   2.766   3.857  10.400  0.2782  0.0921  0.2826
 6504SOL    HW130971   2.803   3.787  10.346 -2.7741  0.3939 -2.1642
 6504SOL    HW230972   2.846   3.904  10.422 -0.3740  1.6108 -0.5774
 6505SOL     OW30973   3.560   0.745   4.899  0.1330 -0.4483 -0.4085
 6505SOL    HW130974   3.488   0.783   4.849 -0.9937  0.6390  2.0609
 6505SOL    HW230975   3.567   0.810   4.968  2.7536  0.1036 -1.2027
 6506SOL     OW30976   3.071   2.109   6.508  0.0640 -0.3124 -0.3069
 6506SOL    HW130977   3.154   2.141   6.474 -1.1167  4.7497  1.6256
 6506SOL    HW230978   3.094   2.075   6.595  0.4906  0.1106 -0.2530
 6507SOL     OW30979   1.761   4.640   8.457 -0.1035  0.7007 -0.8792
 6507SOL    HW130980   1.801   4.675   8.377 -1.5709  0.7294 -1.5860
 6507SOL    HW230981   1.670   4.629   8.430  0.2414 -4.0335 -0.1526
 6508SOL     OW30982   0.112   4.357   2.026 -0.0742  0.5471  0.5464
 6508SOL    HW130983   0.020   4.353   2.049 -0.0958  2.6251  0.7806
 6508SOL    HW230984   0.120   4.448   1.999 -0.3588 -0.0334 -1.4789
 6509SOL     OW30985   1.570   1.012  15.668  0.3213  0.3462 -0.3710
 6509SOL    HW130986   1.568   1.069  15.591  2.3409  0.3383 -0.4300
 6509SOL    HW230987   1.484   1.038  15.702  0.1942 -0.3984 -0.1212
 6510SOL     OW30988   1.017   3.537   3.667  0.0629 -0.3939  0.1811
 6510SOL    HW130989   1.073   3.471   3.627 -0.6256 -0.5294 -0.5734
 6510SOL    HW230990   1.080   3.576   3.727  1.8354 -0.9188 -1.3256
 6511SOL     OW30991   2.630   2.393   3.778 -0.6010  0.3939  0.5250
 6511SOL    HW130992   2.612   2.331   3.849  2.0046  0.4333  1.2207
 6511SOL    HW230993   2.622   2.327   3.708 -1.8069 -0.4679  1.4738
 6512SOL     OW30994   0.646   4.253   3.099  0.1811  0.2307 -0.3037
 6512SOL    HW130995   0.657   4.253   3.194 -1.5486  0.4731 -0.1029
 6512SOL    HW230996   0.632   4.345   3.074 -4.5836 -0.1935  0.8197
 6513SOL     OW30997   1.809   3.175   1.494 -0.3312  0.7059  0.0775
 6513SOL    HW130998   1.730   3.144   1.537  0.9514 -1.8094  0.6546
 6513SOL    HW230999   1.771   3.231   1.427  0.0844 -0.0532 -0.7851
 6514SOL     OW31000   0.861   3.996   4.512 -0.8588 -0.0842  0.5318
 6514SOL    HW131001   0.894   4.083   4.489 -1.4068  0.1439  0.5826
 6514SOL    HW231002   0.868   3.942   4.433  2.3612 -1.6049  1.8914
 6515SOL     OW31003   0.417   0.475  11.684 -0.1965  0.0057  0.6260
 6515SOL    HW131004   0.491   0.420  11.657 -0.7593 -0.4700  0.0702
 6515SOL    HW231005   0.407   0.526  11.603 -2.3796 -2.1795 -0.4676
 6516SOL     OW31006   3.693   3.872   8.890  1.3880  0.4506  0.0858
 6516SOL    HW131007   3.665   3.952   8.846  0.9120 -0.3771 -1.1121
 6516SOL    HW231008   3.611   3.844   8.931  1.0904  0.5854 -0.4241
 6517SOL     OW31009   2.051   2.179   3.052  0.0395 -0.0063  0.1810
 6517SOL    HW131010   2.028   2.249   2.991 -1.9240 -1.1278 -0.3843
 6517SOL    HW231011   2.145   2.198   3.053  0.2631 -1.1040  0.3681
 6518SOL     OW31012   3.949   3.160   7.189  0.4247 -0.2955 -0.0294
 6518SOL    HW131013   3.884   3.109   7.238  0.0044  0.4456  0.1826
 6518SOL    HW231014   4.030   3.131   7.231  0.5872 -0.9678 -0.8014
 6519SOL     OW31015   2.852   0.214  14.601  0.3269  0.2519 -0.2639
 6519SOL    HW131016   2.914   0.212  14.528  1.2944 -3.7372  0.6718
 6519SOL    HW231017   2.867   0.305  14.629  0.2277  0.4124 -0.7374
 6520SOL     OW31018   0.986   4.133  11.490 -0.0294 -0.2687 -0.3117
 6520SOL    HW131019   0.975   4.118  11.584 -0.4212 -1.2555 -0.5116
 6520SOL    HW231020   1.072   4.096  11.471  0.1048 -0.1478  0.0718
 6521SOL     OW31021   4.360   1.353  15.985 -0.1692 -0.4319  0.2106
 6521SOL    HW131022   4.336   1.274  16.033 -2.8138  1.0677  1.3820
 6521SOL    HW231023   4.454   1.342  15.974 -0.3515 -1.6003 -0.1969
 6522SOL     OW31024   2.797   2.226   0.559 -0.2196  0.3922  0.2829
 6522SOL    HW131025   2.862   2.158   0.577  0.2685  0.7955  0.0216
 6522SOL    HW231026   2.841   2.261   0.482 -1.2389 -1.9104 -1.3396
 6523SOL     OW31027   2.502   2.826   7.655 -0.1787  0.7752 -0.1026
 6523SOL    HW131028   2.540   2.739   7.664 -0.8613  0.6888  1.9267
 6523SOL    HW231029   2.422   2.826   7.708  0.1142 -0.9871  0.3167
 6524SOL     OW31030   1.821   0.317  15.786 -0.1934  0.0709 -0.3056
 6524SOL    HW131031   1.816   0.233  15.832  0.6289 -0.1490 -0.6201
 6524SOL    HW231032   1.730   0.348  15.790 -0.0692  0.5382 -1.2390
 6525SOL     OW31033   0.987   2.790   7.910  0.2438  0.5003  0.0237
 6525SOL    HW131034   1.029   2.875   7.897 -2.9076  1.5091 -3.5618
 6525SOL    HW231035   0.984   2.753   7.822  1.3028  0.4342  0.0198
 6526SOL     OW31036   4.247   3.077   1.172  0.1745  0.3366  0.2506
 6526SOL    HW131037   4.221   2.988   1.195  1.2190  0.0657  0.4098
 6526SOL    HW231038   4.208   3.129   1.242 -0.6541 -1.5921  1.2131
 6527SOL     OW31039   1.744   3.080   8.241  0.3556  0.3693  0.1919
 6527SOL    HW131040   1.808   3.008   8.240 -1.1669 -0.9750 -0.7675
 6527SOL    HW231041   1.673   3.043   8.294 -0.3975  1.2443 -0.2242
 6528SOL     OW31042   1.858   2.332   2.482 -0.1963 -0.4214 -0.3579
 6528SOL    HW131043   1.913   2.407   2.457 -0.0586  0.1991  1.7715
 6528SOL    HW231044   1.917   2.285   2.542 -0.0982  1.1493  0.7801
 6529SOL     OW31045   1.738   0.889   6.322 -0.0962  0.7894  0.1025
 6529SOL    HW131046   1.779   0.813   6.364  0.9260  1.3961  0.1935
 6529SOL    HW231047   1.749   0.862   6.231  0.7280  0.9994  0.1418
 6530SOL     OW31048   3.102   2.019  13.862 -0.0632 -0.4088 -0.2841
 6530SOL    HW131049   3.025   1.972  13.832 -0.2969  1.0424 -1.9444
 6530SOL    HW231050   3.068   2.106  13.885  0.6749 -0.4758  1.1097
 6531SOL     OW31051   3.849   2.884   2.310  0.3829  0.6207 -0.5485
 6531SOL    HW131052   3.791   2.891   2.386  1.9987  0.7558  0.6588
 6531SOL    HW231053   3.924   2.830   2.334  0.3041  0.0601 -1.5461
 6532SOL     OW31054   1.935   0.570   1.075 -0.5246  0.1533 -0.3270
 6532SOL    HW131055   2.024   0.606   1.078  0.6024 -2.7642  0.8269
 6532SOL    HW231056   1.903   0.612   0.995  0.9001  0.4251 -0.7506
 6533SOL     OW31057   1.302   3.655   8.776  1.0100 -0.1123  0.0122
 6533SOL    HW131058   1.218   3.612   8.791  1.5546 -1.7647 -1.6978
 6533SOL    HW231059   1.356   3.582   8.805 -0.1497 -0.9192  0.1266
 6534SOL     OW31060   2.882   4.446  11.419 -0.1773  0.0782  0.0729
 6534SOL    HW131061   2.911   4.535  11.399  0.1815 -0.4169 -1.6213
 6534SOL    HW231062   2.896   4.415  11.329  0.8119  1.9145 -0.4060
 6535SOL     OW31063   4.201   3.153   6.937 -0.4345  0.1016  0.2192
 6535SOL    HW131064   4.249   3.105   7.004 -1.5067 -2.2192 -0.6734
 6535SOL    HW231065   4.224   3.102   6.860 -1.4332  0.2696 -0.1859
 6536SOL     OW31066   2.310   2.081   7.447  0.3053 -0.4844  0.3451
 6536SOL    HW131067   2.329   2.042   7.361 -2.2391 -0.0836 -0.4109
 6536SOL    HW231068   2.391   2.069   7.496  0.3792  1.6033  0.7043
 6537SOL     OW31069   1.587   3.690   8.477 -0.0611 -0.6906 -0.2662
 6537SOL    HW131070   1.628   3.610   8.443 -0.4973 -0.5840 -1.0476
 6537SOL    HW231071   1.651   3.717   8.542 -0.3343  0.1830 -0.3610
 6538SOL     OW31072   0.411   0.653   6.223  0.0806 -0.0819 -0.1315
 6538SOL    HW131073   0.415   0.597   6.300  0.6668 -1.2065 -0.9649
 6538SOL    HW231074   0.443   0.738   6.253 -0.8042  0.4002 -0.5769
 6539SOL     OW31075   4.445   3.793  12.631 -0.2464  0.2146  0.3759
 6539SOL    HW131076   4.540   3.784  12.625 -0.2892  0.0868 -0.1267
 6539SOL    HW231077   4.430   3.869  12.686  0.2268  0.2120  0.5004
 6540SOL     OW31078   4.464   3.002   3.888 -0.5802  0.0493  1.0765
 6540SOL    HW131079   4.489   3.058   3.814  2.7241 -1.1899  1.2877
 6540SOL    HW231080   4.546   2.956   3.901  0.7400  1.5821 -1.7130
 6541SOL     OW31081   0.683   4.313  13.785 -0.0899  0.0880 -0.1927
 6541SOL    HW131082   0.745   4.266  13.729 -0.0589  0.2356 -0.2826
 6541SOL    HW231083   0.601   4.265  13.771 -0.8173  0.6342  2.0518
 6542SOL     OW31084   3.331   2.438   4.141  0.4492 -0.6376 -0.3887
 6542SOL    HW131085   3.238   2.431   4.162  0.1896  2.0342 -0.7207
 6542SOL    HW231086   3.375   2.414   4.223  0.1500  0.6874  0.1567
 6543SOL     OW31087   2.242   1.287   3.182 -0.2018 -0.3744 -0.3898
 6543SOL    HW131088   2.324   1.299   3.134 -0.2335  2.4423  0.2723
 6543SOL    HW231089   2.176   1.320   3.121  0.7595 -2.5008 -2.5683
 6544SOL     OW31090   4.619   3.574  10.631  0.0657 -0.1463 -0.2077
 6544SOL    HW131091   4.585   3.661  10.654 -1.3898 -1.1995  1.5344
 6544SOL    HW231092   4.708   3.581  10.667 -0.3771 -0.4060  0.9256
 6545SOL     OW31093   2.075   0.326   3.619  0.5070  1.1451 -0.3996
 6545SOL    HW131094   2.066   0.238   3.584 -2.6730  1.4996 -0.4805
 6545SOL    HW231095   2.072   0.311   3.713  1.4960 -0.9442 -0.7018
 6546SOL     OW31096   4.660   1.534   4.145  0.1408 -0.1163 -0.5267
 6546SOL    HW131097   4.618   1.510   4.062 -2.7248  0.2553  0.8242
 6546SOL    HW231098   4.680   1.627   4.136  0.1397  0.0275  0.9582
 6547SOL     OW31099   1.426   2.127   1.339  0.2126  0.5454  0.3162
 6547SOL    HW131100   1.509   2.170   1.319  0.2023  1.3657  2.0776
 6547SOL    HW231101   1.371   2.160   1.268  0.0590 -1.9652 -0.7567
 6548SOL     OW31102   3.032   1.529  15.084 -0.2665  0.1434  0.0690
 6548SOL    HW131103   3.037   1.583  15.162  1.7978 -0.0397  0.0477
 6548SOL    HW231104   3.070   1.446  15.114 -0.0283  0.1402 -0.2432
 6549SOL     OW31105   0.871   4.228   2.724  0.4527  0.7398 -0.2377
 6549SOL    HW131106   0.830   4.261   2.644 -0.2709  1.8976  0.6192
 6549SOL    HW231107   0.813   4.152   2.721 -0.8099  1.6802  0.9445
 6550SOL     OW31108   4.612   2.391  15.972  0.2946 -0.2503  0.1625
 6550SOL    HW131109   4.621   2.331  15.898  0.6057 -2.2339  1.8353
 6550SOL    HW231110   4.690   2.445  15.959  0.6652 -0.7164  0.4654
 6551SOL     OW31111   0.067   1.608   3.630 -0.0867  0.3804 -0.3688
 6551SOL    HW131112   0.033   1.534   3.580  1.6042 -1.7086  1.5694
 6551SOL    HW231113   0.149   1.629   3.585  1.4424 -0.3393  2.0630
 6552SOL     OW31114   1.239   4.658   4.636 -0.1219 -0.2767  0.5826
 6552SOL    HW131115   1.147   4.660   4.662  0.4196  0.4963  2.4653
 6552SOL    HW231116   1.281   4.604   4.703  0.8603 -0.7790 -0.4509
 6553SOL     OW31117   4.444   2.617   5.495 -0.4448 -0.1417  0.2637
 6553SOL    HW131118   4.521   2.673   5.508 -0.0300 -1.1688  2.1435
 6553SOL    HW231119   4.402   2.666   5.424 -0.8463 -0.2702  0.4158
 6554SOL     OW31120   4.460   0.683   3.843  0.2680 -0.1110 -0.5417
 6554SOL    HW131121   4.461   0.599   3.888 -0.4123  1.1467  1.8188
 6554SOL    HW231122   4.376   0.695   3.798 -0.1816  1.6122  0.7807
 6555SOL     OW31123   3.024   1.739   6.256  0.1454 -0.1464 -0.4005
 6555SOL    HW131124   2.954   1.683   6.222  0.8499 -1.3772  0.2040
 6555SOL    HW231125   2.980   1.824   6.259  1.5946  0.5941 -0.2336
 6556SOL     OW31126   1.080   3.337   2.199  0.2306  0.6674  0.8746
 6556SOL    HW131127   0.999   3.332   2.149  1.9136  0.6839 -1.8242
 6556SOL    HW231128   1.142   3.291   2.142 -0.3643  0.0589  0.7235
 6557SOL     OW31129   3.020   1.299  12.743 -0.0272 -0.0503 -0.1731
 6557SOL    HW131130   2.999   1.391  12.726  3.3081  1.0118  1.5818
 6557SOL    HW231131   3.082   1.310  12.815 -2.2178  3.2269  1.2353
 6558SOL     OW31132   1.683   3.676   0.112 -0.8502 -0.4283 -0.5832
 6558SOL    HW131133   1.675   3.749   0.174  2.0848 -0.0399 -0.6860
 6558SOL    HW231134   1.681   3.724   0.029 -0.2730 -0.8083 -0.8175
 6559SOL     OW31135   2.515   2.138  10.241 -0.2543 -0.1977  0.2087
 6559SOL    HW131136   2.566   2.206  10.198  0.1192 -0.6630 -0.0836
 6559SOL    HW231137   2.514   2.082  10.164  0.6533  0.1055 -0.0154
 6560SOL     OW31138   1.735   2.146  14.209  0.1911 -0.6320  0.4811
 6560SOL    HW131139   1.777   2.062  14.225 -3.6889 -2.4385  1.0787
 6560SOL    HW231140   1.650   2.108  14.189 -0.6659  0.8619  1.2383
 6561SOL     OW31141   2.089   0.205  15.529 -0.0517 -0.0822  0.0477
 6561SOL    HW131142   2.041   0.124  15.544 -0.5230  0.0557 -0.7214
 6561SOL    HW231143   2.155   0.165  15.471  0.1455 -1.9582  1.5889
 6562SOL     OW31144   4.190   2.023  15.948  0.0643 -0.2974  0.0369
 6562SOL    HW131145   4.266   2.058  15.995 -0.3242 -0.7465  0.9871
 6562SOL    HW231146   4.179   2.090  15.880 -0.7130 -1.3852 -0.9009
 6563SOL     OW31147   3.376   2.843  15.365 -0.1630  0.7601 -0.2699
 6563SOL    HW131148   3.439   2.878  15.429  1.2229 -0.4840 -0.9551
 6563SOL    HW231149   3.377   2.920  15.308 -0.8793  0.2012 -1.0337
 6564SOL     OW31150   3.948   3.290   7.989 -0.5741  0.1160 -0.4195
 6564SOL    HW131151   3.985   3.272   7.903  0.3567  0.0072 -0.0042
 6564SOL    HW231152   4.020   3.269   8.049 -0.5645 -2.2716 -1.2586
 6565SOL     OW31153   2.687   1.903  17.389 -0.7866 -0.1039  0.5051
 6565SOL    HW131154   2.782   1.898  17.376 -0.6118  2.4514  0.7943
 6565SOL    HW231155   2.693   1.981  17.445 -1.0494  0.3474 -0.0898
 6566SOL     OW31156   4.317   3.719   0.926 -0.1092  0.3039 -0.6822
 6566SOL    HW131157   4.324   3.769   1.007  1.8476 -1.5276  0.2911
 6566SOL    HW231158   4.306   3.786   0.859 -0.3433  0.4563 -0.4895
 6567SOL     OW31159   2.171   3.876   3.845  0.0638  0.1104 -0.2857
 6567SOL    HW131160   2.128   3.798   3.810  2.2827 -1.6582  0.8728
 6567SOL    HW231161   2.254   3.835   3.870 -0.5953 -1.6008 -0.9032
 6568SOL     OW31162   1.432   4.501  12.904 -0.2204 -0.2799 -0.6081
 6568SOL    HW131163   1.509   4.474  12.955 -0.1330 -0.4940 -0.8515
 6568SOL    HW231164   1.395   4.572  12.956 -0.4068  0.4306 -1.7015
 6569SOL     OW31165   3.798   4.166  15.896  0.8167  0.3701  0.4799
 6569SOL    HW131166   3.818   4.072  15.896  0.0616  0.1946  3.0574
 6569SOL    HW231167   3.809   4.189  15.989  0.7577 -0.0687  0.5964
 6570SOL     OW31168   2.881   1.070   2.672  0.1887 -0.1412 -0.0132
 6570SOL    HW131169   2.870   1.156   2.632 -0.2719 -0.7405 -1.1464
 6570SOL    HW231170   2.888   1.089   2.766 -2.8642  0.3553  0.0849
 6571SOL     OW31171   2.703   2.910   7.968 -0.0290 -0.5437  0.3402
 6571SOL    HW131172   2.771   2.847   7.943  0.5346 -0.3372  1.3754
 6571SOL    HW231173   2.687   2.890   8.060 -0.0302 -1.4551  0.1474
 6572SOL     OW31174   4.356   2.161  12.221  0.5669  0.1635 -0.4389
 6572SOL    HW131175   4.281   2.102  12.234  1.9190 -1.3608  0.4146
 6572SOL    HW231176   4.379   2.132  12.133 -2.5926  0.4290 -1.3833
 6573SOL     OW31177   1.751   1.249   5.787  0.0008  0.6453  0.0841
 6573SOL    HW131178   1.694   1.326   5.783 -2.5411 -1.2188 -0.0909
 6573SOL    HW231179   1.779   1.259   5.878 -0.7413  1.6796  0.2071
 6574SOL     OW31180   1.773   1.965   3.528 -0.0055  0.4233 -0.4365
 6574SOL    HW131181   1.787   1.879   3.567  1.2518  0.6276 -0.4523
 6574SOL    HW231182   1.833   1.966   3.454 -1.7941  1.7768 -1.8799
 6575SOL     OW31183   3.178   2.948  16.885  0.5698 -0.4061 -0.7162
 6575SOL    HW131184   3.151   2.919  16.798  0.5693 -2.2149 -0.1101
 6575SOL    HW231185   3.137   3.035  16.891 -0.2011 -0.7248 -1.4649
 6576SOL     OW31186   4.654   4.146  10.597  0.2090 -0.1346 -0.4631
 6576SOL    HW131187   4.619   4.211  10.658  0.5538 -0.5405  0.1638
 6576SOL    HW231188   0.003   4.118  10.653  1.2565  3.1992 -0.1689
 6577SOL     OW31189   0.173   2.271  14.743  0.2490 -0.1449 -0.1278
 6577SOL    HW131190   0.146   2.183  14.719 -5.7504  2.0837 -1.6130
 6577SOL    HW231191   0.142   2.290  14.832 -0.0530  1.3601 -0.5464
 6578SOL     OW31192   0.769   2.016  15.318 -0.6500 -0.3899 -0.4481
 6578SOL    HW131193   0.858   2.045  15.338 -0.6276  1.0403 -2.6593
 6578SOL    HW231194   0.738   2.076  15.250  0.2804 -0.2748 -0.7744
 6579SOL     OW31195   3.260   1.043   5.044  0.1373  0.2132  0.0267
 6579SOL    HW131196   3.182   1.086   5.079 -0.5762 -1.3498  0.3730
 6579SOL    HW231197   3.229   1.011   4.959  1.6916 -2.0526  0.3206
 6580SOL     OW31198   2.190   1.333   5.010  0.2661 -0.5420  0.0142
 6580SOL    HW131199   2.210   1.240   5.009  0.3670 -0.5218  0.1587
 6580SOL    HW231200   2.188   1.362   5.101 -0.6668  0.6627 -0.3805
 6581SOL     OW31201   3.726   2.475   7.206 -0.0405 -0.2979  0.2326
 6581SOL    HW131202   3.739   2.452   7.298  1.1882  1.5174  0.5264
 6581SOL    HW231203   3.634   2.449   7.204 -0.2032  0.2525  0.4023
 6582SOL     OW31204   4.124   2.606   4.306 -0.0719  0.4925 -0.1653
 6582SOL    HW131205   4.041   2.639   4.271  0.2781  1.3518 -0.1648
 6582SOL    HW231206   4.123   2.510   4.306 -1.9182  0.4978 -0.1411
 6583SOL     OW31207   3.878   0.383  10.024  0.1851 -0.3749  0.4985
 6583SOL    HW131208   3.974   0.384  10.025  0.1679  1.3277 -0.3547
 6583SOL    HW231209   3.853   0.332  10.101 -0.9893 -0.5963 -0.0260
 6584SOL     OW31210   1.526   1.433   7.388  0.0228 -0.3808  0.0142
 6584SOL    HW131211   1.490   1.503   7.444  0.3185 -1.4299  1.5132
 6584SOL    HW231212   1.448   1.391   7.353 -0.5733 -0.2076  1.1447
 6585SOL     OW31213   4.416   0.756  10.286  0.0756  0.0052  0.5715
 6585SOL    HW131214   4.461   0.841  10.282  2.4805 -1.2935  0.2775
 6585SOL    HW231215   4.333   0.778  10.329  0.8061 -1.3093  2.6103
 6586SOL     OW31216   0.316   3.075  14.102 -0.1058  0.2400 -0.1467
 6586SOL    HW131217   0.324   3.169  14.088 -1.0438 -0.1430 -3.1727
 6586SOL    HW231218   0.255   3.042  14.036 -1.7460  0.4535  1.2630
 6587SOL     OW31219   2.692   0.535   7.655 -0.0938 -0.6121 -0.2736
 6587SOL    HW131220   2.672   0.552   7.747 -2.1608  1.2440 -1.0642
 6587SOL    HW231221   2.763   0.596   7.636 -0.0601 -0.3107  0.8138
 6588SOL     OW31222   1.443   0.455   3.842  0.6759  0.4585  0.0433
 6588SOL    HW131223   1.476   0.439   3.754  1.6783 -0.0322  0.5093
 6588SOL    HW231224   1.352   0.428   3.826  1.3664 -0.8790 -1.7125
 6589SOL     OW31225   1.299   0.042   8.344 -0.6159  0.9176 -0.0487
 6589SOL    HW131226   1.235   4.693   8.343  0.2339  0.1553  0.9684
 6589SOL    HW231227   1.264   0.114   8.291 -1.4817  1.0024  0.6381
 6590SOL     OW31228   0.605   4.157   5.369  0.1218  0.0758 -0.4553
 6590SOL    HW131229   0.681   4.205   5.403 -1.3656  3.3772 -1.8481
 6590SOL    HW231230   0.620   4.167   5.275 -0.3052  1.1743 -0.4039
 6591SOL     OW31231   1.866   2.370   5.560  0.4323 -0.0741  0.2350
 6591SOL    HW131232   1.850   2.454   5.604 -1.1496 -1.4248  2.2459
 6591SOL    HW231233   1.961   2.365   5.563  0.5594  1.6076 -1.1211
 6592SOL     OW31234   3.343   1.008   6.771  0.2735 -0.3063 -0.1827
 6592SOL    HW131235   3.332   0.977   6.860 -0.0437 -1.4998 -0.6462
 6592SOL    HW231236   3.303   1.095   6.775  1.2910  0.1002  1.2726
 6593SOL     OW31237   2.400   0.410   2.325  0.3057  0.0181  0.1669
 6593SOL    HW131238   2.420   0.433   2.416  0.6701  3.0306 -0.6716
 6593SOL    HW231239   2.405   0.315   2.333  2.8883  0.2677  1.4570
 6594SOL     OW31240   2.704   3.912   6.891  1.1503  0.0003  0.4291
 6594SOL    HW131241   2.705   3.976   6.962  0.2733  1.8771 -1.2528
 6594SOL    HW231242   2.684   3.831   6.938 -0.3831  1.1549  1.8109
 6595SOL     OW31243   2.400   3.923  10.651 -0.2879 -0.2528 -0.7600
 6595SOL    HW131244   2.350   3.845  10.626 -0.4091 -0.8335  1.2728
 6595SOL    HW231245   2.444   3.889  10.729 -2.7859  0.2307  0.8800
 6596SOL     OW31246   3.615   1.568   0.301  0.6123  0.1615  0.5398
 6596SOL    HW131247   3.682   1.598   0.241  1.5690 -1.0634  0.9826
 6596SOL    HW231248   3.638   1.616   0.381  1.6855  0.4969  0.0268
 6597SOL     OW31249   1.788   2.573  12.495 -0.2066 -0.5013 -0.0139
 6597SOL    HW131250   1.746   2.562  12.410 -1.2787  2.4682  0.1086
 6597SOL    HW231251   1.779   2.493  12.548 -0.4908 -1.3962 -1.4311
 6598SOL     OW31252   1.703   4.089   3.885 -0.2416  0.2700 -0.2680
 6598SOL    HW131253   1.747   4.084   3.970 -0.9358 -2.1808 -0.0420
 6598SOL    HW231254   1.632   4.027   3.904 -1.3137  1.4880 -0.3030
 6599SOL     OW31255   0.472   1.338   8.466  0.3024  0.3344 -0.1406
 6599SOL    HW131256   0.441   1.427   8.448 -1.2876 -0.0371  0.8165
 6599SOL    HW231257   0.426   1.321   8.548  0.1744  1.0334 -0.0656
 6600SOL     OW31258   1.673   1.337   4.077 -0.2592  0.0693 -0.2013
 6600SOL    HW131259   1.587   1.307   4.049  0.2590 -1.3709 -0.2072
 6600SOL    HW231260   1.691   1.384   3.996 -2.2410  1.2733  0.0590
 6601SOL     OW31261   1.137   4.111  15.134  0.3342  0.4687  0.1841
 6601SOL    HW131262   1.152   4.062  15.214 -0.1275 -2.8874 -1.7599
 6601SOL    HW231263   1.225   4.118  15.098  0.3504 -1.3971 -0.1513
 6602SOL     OW31264   2.786   1.418  13.448 -0.3922  0.0551 -0.0388
 6602SOL    HW131265   2.728   1.374  13.510 -1.8346  4.5316  1.7260
 6602SOL    HW231266   2.857   1.450  13.504 -1.3512  1.6688  0.2397
 6603SOL     OW31267   1.602   2.184   2.949 -0.3301  0.7064  0.2574
 6603SOL    HW131268   1.615   2.275   2.921  0.3597 -0.0233 -1.8229
 6603SOL    HW231269   1.510   2.179   2.973 -0.5241 -3.8993 -1.4174
 6604SOL     OW31270   2.427   1.765   4.093 -0.1779  0.5019  0.0933
 6604SOL    HW131271   2.446   1.758   3.999 -1.0062  0.4232 -0.0638
 6604SOL    HW231272   2.501   1.819   4.121 -1.3774  1.1249  2.0235
 6605SOL     OW31273   0.361   4.104   0.998 -0.0430  0.4872 -0.4606
 6605SOL    HW131274   0.274   4.067   0.983  0.6686 -1.2170 -0.3606
 6605SOL    HW231275   0.375   4.133   0.908  2.5040 -0.7803 -0.4551
 6606SOL     OW31276   4.244   2.968   7.773  0.2848 -0.3233 -0.3251
 6606SOL    HW131277   4.169   2.909   7.767  0.8955 -1.2050  0.7265
 6606SOL    HW231278   4.212   3.056   7.750  0.6525 -0.8907 -2.9879
 6607SOL     OW31279   4.649   2.830   4.974 -0.5891 -0.5048  0.8273
 6607SOL    HW131280   4.704   2.852   4.899  3.0223 -0.5195  3.4600
 6607SOL    HW231281   4.712   2.867   5.036  0.3273 -1.0564  0.2046
 6608SOL     OW31282   4.338   2.293  15.131  0.0604  0.1213  0.2724
 6608SOL    HW131283   4.294   2.358  15.186 -1.4742  0.0212 -0.8273
 6608SOL    HW231284   4.427   2.293  15.165  0.2639  0.7656 -0.2823
 6609SOL     OW31285   4.132   1.033  11.026  0.2884  0.7086  0.7180
 6609SOL    HW131286   4.044   1.053  10.995  0.9556  2.3214 -0.1377
 6609SOL    HW231287   4.162   1.111  11.072  1.5141  1.5534 -1.4692
 6610SOL     OW31288   0.393   0.904  12.141 -0.0816 -0.1380 -0.0651
 6610SOL    HW131289   0.416   0.928  12.231 -0.9357 -1.9931  0.6549
 6610SOL    HW231290   0.385   0.996  12.116  0.2567  0.3182  1.4970
 6611SOL     OW31291   3.397   0.397  13.432  0.0407 -0.2792  0.1246
 6611SOL    HW131292   3.325   0.417  13.491 -2.2209 -2.1251 -2.0356
 6611SOL    HW231293   3.381   0.303  13.427 -0.6946 -0.1947  0.8380
 6612SOL     OW31294   3.954   4.045   0.594  0.3794 -0.5212  0.0946
 6612SOL    HW131295   3.860   4.053   0.578  0.2774 -1.9511 -0.0493
 6612SOL    HW231296   3.962   4.071   0.686  0.3175  3.0391 -0.8979
 6613SOL     OW31297   4.566   4.595   3.411 -0.1504 -0.2148 -0.2878
 6613SOL    HW131298   4.541   4.508   3.378 -1.1132  0.3410 -1.0205
 6613SOL    HW231299   4.604   4.575   3.496 -0.9217  0.6321  0.2481
 6614SOL     OW31300   0.810   1.789   2.652 -0.0442  0.4609  0.0093
 6614SOL    HW131301   0.832   1.852   2.720  0.9344  0.6699 -0.5050
 6614SOL    HW231302   0.809   1.849   2.578 -1.9823  1.4101  0.8072
 6615SOL     OW31303   0.630   2.407   5.122  0.0512  1.0779 -0.3023
 6615SOL    HW131304   0.587   2.475   5.070  1.0387  1.0785 -1.1282
 6615SOL    HW231305   0.594   2.431   5.207 -1.9795  2.0893 -1.4693
 6616SOL     OW31306   0.307   0.783  15.013 -0.4785 -0.5609  0.1615
 6616SOL    HW131307   0.362   0.801  15.089  0.7651 -1.0701 -0.6146
 6616SOL    HW231308   0.328   0.690  15.001  2.3907 -0.0659  1.4650
 6617SOL     OW31309   0.722   4.510   4.683 -0.2572  0.3222  0.2774
 6617SOL    HW131310   0.669   4.563   4.742 -0.4349  0.9556 -0.4454
 6617SOL    HW231311   0.802   4.544   4.724 -0.3196 -2.6291  2.8785
 6618SOL     OW31312   3.876   4.608   5.987 -0.8542  0.3108 -0.5330
 6618SOL    HW131313   3.860   4.536   6.048 -0.1489  0.3746 -0.2733
 6618SOL    HW231314   3.804   4.668   6.008  0.5917  2.0745 -0.5883
 6619SOL     OW31315   2.649   4.566   3.464 -0.3236 -0.1873 -0.2654
 6619SOL    HW131316   2.645   4.602   3.552  1.6874 -1.6370  0.4213
 6619SOL    HW231317   2.560   4.562   3.431 -1.3890  0.9461  2.5102
 6620SOL     OW31318   3.393   1.701   4.819 -0.7476 -0.1400 -0.2402
 6620SOL    HW131319   3.403   1.644   4.743  0.4837 -1.1064  0.6565
 6620SOL    HW231320   3.326   1.649   4.863 -0.8132  1.8201  1.9604
 6621SOL     OW31321   2.527   4.447  16.567  0.8365  0.2331 -0.2350
 6621SOL    HW131322   2.514   4.375  16.505 -2.2249  0.5564  0.0330
 6621SOL    HW231323   2.616   4.429  16.598  0.2421 -0.9546  0.7729
 6622SOL     OW31324   3.662   2.225   6.376  0.1130  0.9867 -0.2921
 6622SOL    HW131325   3.632   2.271   6.298 -2.5424 -2.7953 -1.5315
 6622SOL    HW231326   3.721   2.290   6.414 -0.9639  1.8557 -0.0995
 6623SOL     OW31327   3.838   4.633   5.669  0.1794  0.1222  0.6954
 6623SOL    HW131328   3.927   4.652   5.639 -0.1327  2.3059  1.1115
 6623SOL    HW231329   3.851   4.630   5.764 -2.6079  2.4394  1.1598
 6624SOL     OW31330   1.404   3.050   0.805 -0.0894  0.0889 -0.0294
 6624SOL    HW131331   1.447   3.111   0.866  0.0018  0.7311 -0.7370
 6624SOL    HW231332   1.485   3.013   0.772  0.4952  0.9502  0.4309
 6625SOL     OW31333   2.472   3.739  13.284 -0.1624 -0.0173 -0.6519
 6625SOL    HW131334   2.492   3.689  13.205 -2.0752 -2.0311  0.1347
 6625SOL    HW231335   2.418   3.678  13.334 -3.0401  1.6620 -1.6805
 6626SOL     OW31336   3.233   2.577   5.669  0.0233  0.3099 -0.4415
 6626SOL    HW131337   3.169   2.506   5.665 -0.6752  0.9383 -0.2865
 6626SOL    HW231338   3.244   2.578   5.574 -1.8153  1.1214 -0.6455
 6627SOL     OW31339   4.461   3.339   0.714 -0.0803 -0.3356 -0.3798
 6627SOL    HW131340   4.441   3.257   0.758  1.0545 -0.0848  0.5896
 6627SOL    HW231341   4.549   3.347   0.749  0.0656  0.6467 -0.9464
 6628SOL     OW31342   1.370   2.605   3.799  0.3596 -0.5264 -0.3275
 6628SOL    HW131343   1.419   2.679   3.836 -1.5751  0.0637  1.0179
 6628SOL    HW231344   1.439   2.553   3.758  0.0181 -1.6240  0.4932
 6629SOL     OW31345   3.486   2.289   8.138 -0.2469  0.2229 -0.2591
 6629SOL    HW131346   3.525   2.252   8.217  1.5966  3.1068  0.1849
 6629SOL    HW231347   3.555   2.347   8.104  1.4669 -0.0055  2.8704
 6630SOL     OW31348   1.987   2.777   8.985 -0.1790  0.3818  0.3656
 6630SOL    HW131349   1.910   2.828   8.960  0.7154  2.0541  1.0340
 6630SOL    HW231350   1.947   2.722   9.053  2.0676 -0.9578  0.5980
 6631SOL     OW31351   3.559   4.459  10.936  0.0578 -0.0778  0.1602
 6631SOL    HW131352   3.535   4.545  10.899  0.5780  0.4831  1.1270
 6631SOL    HW231353   3.565   4.485  11.028  0.0675 -0.0619  0.1552
 6632SOL     OW31354   3.732   2.355   3.263 -0.4180  0.0292  0.0351
 6632SOL    HW131355   3.789   2.290   3.221 -0.2495 -1.2882  2.2708
 6632SOL    HW231356   3.653   2.348   3.209 -0.2147 -2.6907  0.0927
 6633SOL     OW31357   1.753   1.265   6.302  0.1910 -0.0878 -0.0193
 6633SOL    HW131358   1.784   1.217   6.379 -0.8423 -2.5528 -1.1303
 6633SOL    HW231359   1.838   1.289   6.265  0.2042  1.8025  1.2269
 6634SOL     OW31360   2.718   2.262   6.977 -0.4290  0.4261 -1.0779
 6634SOL    HW131361   2.704   2.188   7.036  0.1338  1.0398 -0.1757
 6634SOL    HW231362   2.805   2.240   6.943 -0.0586 -0.2429  0.3378
 6635SOL     OW31363   2.777   3.843  16.378 -0.3156  0.1561 -0.3344
 6635SOL    HW131364   2.823   3.917  16.338  0.7820 -1.0456 -1.3134
 6635SOL    HW231365   2.756   3.886  16.460 -0.5606  0.1861 -0.4110
 6636SOL     OW31366   0.637   1.027   9.157  0.1403 -0.1961  0.1932
 6636SOL    HW131367   0.629   1.119   9.132  1.4546 -0.0915  0.1382
 6636SOL    HW231368   0.689   1.002   9.081  1.0210 -0.3507  0.8523
 6637SOL     OW31369   4.342   1.339   6.292  0.3955  0.4202  0.0413
 6637SOL    HW131370   4.264   1.364   6.243  0.5185  0.0210 -0.3540
 6637SOL    HW231371   4.383   1.271   6.239 -1.4955 -1.9479  1.6524
 6638SOL     OW31372   4.612   1.728  11.694 -0.1047  0.1207  0.3483
 6638SOL    HW131373   4.635   1.820  11.703 -0.1724  0.1160  0.5662
 6638SOL    HW231374   4.639   1.699  11.781  0.1463 -1.7071 -0.3443
 6639SOL     OW31375   3.484   3.308   5.120 -0.1812  0.6634 -0.2233
 6639SOL    HW131376   3.392   3.306   5.147 -0.8731  1.4085 -2.5892
 6639SOL    HW231377   3.471   3.293   5.026 -3.1201  2.4769 -0.0854
 6640SOL     OW31378   3.089   0.539   5.812  0.2243 -0.6728 -0.1318
 6640SOL    HW131379   3.143   0.607   5.851 -1.2284 -0.3665  1.3626
 6640SOL    HW231380   3.149   0.495   5.751  1.8782 -0.8889  1.6474
 6641SOL     OW31381   1.342   3.000  12.694 -0.2887  0.3436 -0.1426
 6641SOL    HW131382   1.422   3.015  12.744 -0.7129  3.9844 -0.5999
 6641SOL    HW231383   1.343   3.075  12.634 -1.3937  0.6950  0.2888
 6642SOL     OW31384   2.291   3.195   0.073  0.4442  0.3643  0.6936
 6642SOL    HW131385   2.308   3.180  17.672 -2.4825  1.1144  0.0460
 6642SOL    HW231386   2.293   3.290   0.082 -6.2713  0.6861 -1.5924
 6643SOL     OW31387   1.176   3.585   3.181  0.1602  0.2791  0.1293
 6643SOL    HW131388   1.252   3.620   3.134  1.0582 -1.2438  0.4530
 6643SOL    HW231389   1.223   3.575   3.264  0.1366  0.4403  0.1626
 6644SOL     OW31390   4.653   0.284  16.769 -0.3671  0.2480 -0.5283
 6644SOL    HW131391   0.015   0.260  16.808  0.2675  2.3215 -0.6345
 6644SOL    HW231392   4.606   0.326  16.841 -2.1507 -0.1748 -1.4385
 6645SOL     OW31393   2.268   0.320   4.223 -0.5464  0.2472  0.0040
 6645SOL    HW131394   2.193   0.310   4.283  0.6910  1.6761  1.7908
 6645SOL    HW231395   2.243   0.276   4.142 -2.4153  0.6002  0.3788
 6646SOL     OW31396   4.064   4.025   3.815 -0.1304 -0.3592  0.1069
 6646SOL    HW131397   4.087   3.979   3.735 -0.8830  1.3015 -1.0810
 6646SOL    HW231398   4.009   4.098   3.786  0.3076 -0.4597 -0.9501
 6647SOL     OW31399   4.082   4.322  13.453 -0.1566 -0.4579  0.5548
 6647SOL    HW131400   4.079   4.368  13.537  0.6367 -1.0879  0.9351
 6647SOL    HW231401   3.992   4.327  13.421 -0.1413 -3.2831  0.0643
 6648SOL     OW31402   2.426   2.591   6.509  0.2928  0.1661  0.3121
 6648SOL    HW131403   2.519   2.600   6.489  0.7128 -2.2184  1.2496
 6648SOL    HW231404   2.404   2.670   6.559 -0.9055  0.9090 -1.3557
 6649SOL     OW31405   4.616   1.258  17.561 -0.0589 -0.7940  0.0077
 6649SOL    HW131406   4.605   1.340  17.608  0.9660  0.1412 -1.3844
 6649SOL    HW231407   4.683   1.224  17.620  0.4644  1.2698  0.6005
 6650SOL     OW31408   3.510   1.575   8.004  0.2877  0.1041 -0.0458
 6650SOL    HW131409   3.589   1.618   7.971  0.6364 -0.4999  0.0056
 6650SOL    HW231410   3.440   1.640   7.992  1.3501  1.5193  1.4121
 6651SOL     OW31411   3.577   1.417   9.260  0.3006  0.4035 -0.1471
 6651SOL    HW131412   3.662   1.400   9.219 -0.3389  2.4253 -2.2844
 6651SOL    HW231413   3.549   1.494   9.211  0.4699  0.2287 -0.5231
 6652SOL     OW31414   4.372   3.038   7.123  0.0710 -0.2571 -0.4005
 6652SOL    HW131415   4.315   2.998   7.189 -0.1955  2.0074  0.7418
 6652SOL    HW231416   4.441   2.972   7.117  0.2777 -0.0982  0.2097
 6653SOL     OW31417   3.909   4.478  10.088  0.3288  0.0351 -0.0587
 6653SOL    HW131418   3.971   4.515  10.025  3.6900 -2.7923  1.5241
 6653SOL    HW231419   3.830   4.529  10.074  0.5818  0.7326  0.9956
 6654SOL     OW31420   2.611   3.939   2.661 -0.2432 -0.0977  0.1001
 6654SOL    HW131421   2.540   3.959   2.722  1.0590  2.8580  0.6820
 6654SOL    HW231422   2.688   3.979   2.702  0.5469 -1.3922 -0.1375
 6655SOL     OW31423   1.885   1.291  11.625 -0.4804 -0.3142 -0.3290
 6655SOL    HW131424   1.800   1.298  11.669 -0.5079 -1.1887 -0.2463
 6655SOL    HW231425   1.860   1.341  11.547 -0.3500  0.2405 -0.0152
 6656SOL     OW31426   1.545   2.319   9.118  0.1539  0.1223  0.4651
 6656SOL    HW131427   1.520   2.347   9.206 -2.9705  0.0723 -0.3974
 6656SOL    HW231428   1.460   2.290   9.084  0.7616  3.0030 -3.6169
 6657SOL     OW31429   4.628   2.717   9.362  0.0870  0.4815 -0.1674
 6657SOL    HW131430   4.669   2.767   9.292 -0.3547  1.6086  0.3865
 6657SOL    HW231431   4.647   2.773   9.437 -1.3765  0.4979  0.1949
 6658SOL     OW31432   4.319   1.080   2.648  0.2488  0.1501 -0.1084
 6658SOL    HW131433   4.315   1.005   2.589 -1.8782 -1.6583  2.3206
 6658SOL    HW231434   4.361   1.142   2.588 -1.3107  1.0420 -0.2893
 6659SOL     OW31435   2.522   3.049   0.179  0.0524 -0.1956  0.2602
 6659SOL    HW131436   2.515   3.104   0.257 -1.5256 -0.4394  0.2913
 6659SOL    HW231437   2.477   3.106   0.116  3.2740 -0.1423 -1.9911
 6660SOL     OW31438   1.353   0.203   2.310 -0.8487 -0.1155 -0.0025
 6660SOL    HW131439   1.320   0.254   2.236 -0.6821 -1.6968 -1.1744
 6660SOL    HW231440   1.449   0.203   2.313 -0.8956 -0.2020  1.5076
 6661SOL     OW31441   2.746   4.151   5.456 -0.4745  0.1003 -0.0210
 6661SOL    HW131442   2.689   4.087   5.499 -1.2483 -0.0705 -1.3143
 6661SOL    HW231443   2.788   4.092   5.394  1.1813  0.8818  0.3404
 6662SOL     OW31444   1.948   0.837  13.727  0.4932  0.2746  0.1152
 6662SOL    HW131445   1.970   0.759  13.778  1.4302  0.1153 -0.5322
 6662SOL    HW231446   1.884   0.886  13.779 -2.7211 -1.6791 -1.9553
 6663SOL     OW31447   1.595   2.398   2.501 -0.0485  0.5802  0.2643
 6663SOL    HW131448   1.688   2.376   2.495 -0.1652  0.3240 -0.5457
 6663SOL    HW231449   1.585   2.435   2.589  1.1028 -0.8901  1.0104
 6664SOL     OW31450   4.106   3.733   1.221  0.4591  0.0313 -0.1802
 6664SOL    HW131451   4.126   3.739   1.314 -0.2920 -1.5546  0.0810
 6664SOL    HW231452   4.188   3.762   1.180  1.4703 -0.5243  1.4402
 6665SOL     OW31453   4.180   2.109  10.459  0.1898  0.2685 -0.5281
 6665SOL    HW131454   4.216   2.195  10.477  2.3207 -0.8265  0.4050
 6665SOL    HW231455   4.256   2.051  10.463  0.8037  0.8323 -3.7563
 6666SOL     OW31456   0.538   4.232  12.488  0.2180  0.3324 -0.5166
 6666SOL    HW131457   0.558   4.198  12.400  2.0370  0.0008  0.0307
 6666SOL    HW231458   0.625   4.231  12.526  0.0603 -1.4312 -0.1865
 6667SOL     OW31459   3.537   2.349  10.184 -0.2116 -0.0935  0.2690
 6667SOL    HW131460   3.461   2.346  10.241 -1.0688 -0.0777 -0.8851
 6667SOL    HW231461   3.516   2.271  10.132 -0.1980 -1.4796  2.3069
 6668SOL     OW31462   0.296   0.620   8.535 -0.6852 -0.3875 -0.2454
 6668SOL    HW131463   0.315   0.528   8.520 -0.7946 -0.3454 -0.6360
 6668SOL    HW231464   0.339   0.633   8.620 -1.9102 -1.1081  0.4806
 6669SOL     OW31465   2.571   4.013   3.894 -0.2759 -0.7717 -0.2930
 6669SOL    HW131466   2.512   3.938   3.889 -2.3642  0.8455  0.1608
 6669SOL    HW231467   2.654   3.976   3.922  1.3533  2.4967 -0.7822
 6670SOL     OW31468   1.751   1.930   2.451 -0.1757  0.2058  1.0502
 6670SOL    HW131469   1.809   1.880   2.509 -1.2362 -1.6505  0.5316
 6670SOL    HW231470   1.713   1.986   2.518 -2.1185  1.5406 -1.1804
 6671SOL     OW31471   0.780   4.608   2.740  0.0839 -0.4615 -0.2428
 6671SOL    HW131472   0.727   4.560   2.676 -2.4005  0.3464  1.2082
 6671SOL    HW231473   0.769   4.699   2.714  3.6583  0.4630  1.3943
 6672SOL     OW31474   3.107   4.350  10.922  0.5313  0.3605 -0.2052
 6672SOL    HW131475   3.075   4.275  10.972 -0.6415 -0.8969 -2.8437
 6672SOL    HW231476   3.099   4.429  10.975 -0.9339 -2.7557  4.1772
 6673SOL     OW31477   2.743   0.679   1.218 -0.3079  0.1693  0.7062
 6673SOL    HW131478   2.806   0.635   1.276  2.4220 -1.5476 -3.5953
 6673SOL    HW231479   2.665   0.649   1.263  0.6474 -0.2956  2.0475
 6674SOL     OW31480   1.439   0.703   3.553  0.3396 -0.1924 -0.2071
 6674SOL    HW131481   1.500   0.647   3.505  0.9890  0.7403 -0.4483
 6674SOL    HW231482   1.355   0.663   3.530  0.3414  0.3763 -1.1849
 6675SOL     OW31483   1.879   3.839   7.114 -0.1473  0.5092 -0.1710
 6675SOL    HW131484   1.925   3.918   7.087  0.8844 -0.0857 -0.1529
 6675SOL    HW231485   1.795   3.842   7.068 -0.3549 -2.5183  0.0251
 6676SOL     OW31486   2.742   1.834   7.707  1.0798 -0.0957 -0.3978
 6676SOL    HW131487   2.696   1.750   7.697  1.5633 -0.2492 -1.3226
 6676SOL    HW231488   2.828   1.801   7.735  0.7154  0.2038  1.0884
 6677SOL     OW31489   3.845   0.145   7.062  0.0835  0.0964 -0.3903
 6677SOL    HW131490   3.791   0.068   7.041 -1.1915  0.4243  1.6551
 6677SOL    HW231491   3.796   0.212   7.015 -0.1392 -0.4438 -0.9244
 6678SOL     OW31492   2.504   2.831  11.578  0.7976 -0.2406  0.3103
 6678SOL    HW131493   2.536   2.744  11.599  1.4964 -0.2991 -0.9302
 6678SOL    HW231494   2.450   2.805  11.503 -0.6696  2.0547  0.5532
 6679SOL     OW31495   0.236   3.127   8.035 -0.5676 -0.0822  0.6433
 6679SOL    HW131496   0.218   3.124   7.941 -3.7239  1.7674  1.1839
 6679SOL    HW231497   0.223   3.034   8.054  0.7636 -0.4601 -0.3304
 6680SOL     OW31498   1.364   2.558   0.182 -0.2928  0.0362  0.1407
 6680SOL    HW131499   1.276   2.590   0.163  0.1036  1.1870  0.2934
 6680SOL    HW231500   1.388   2.602   0.263  1.0479 -0.7877  0.2018
 6681SOL     OW31501   3.179   0.221   0.381 -0.2581 -0.1233 -0.5231
 6681SOL    HW131502   3.105   0.160   0.384 -0.2587 -0.1181 -0.4236
 6681SOL    HW231503   3.233   0.160   0.432  0.2902 -0.9571 -2.0909
 6682SOL     OW31504   1.671   3.549   6.495 -0.2252  0.3840 -0.3990
 6682SOL    HW131505   1.664   3.569   6.402 -2.7850  0.8461 -0.1242
 6682SOL    HW231506   1.709   3.629   6.530 -0.2633  1.1557 -2.1474
 6683SOL     OW31507   3.716   0.966   4.745  0.4305  0.0532  0.0240
 6683SOL    HW131508   3.653   0.934   4.809  0.3011  0.3683  0.0552
 6683SOL    HW231509   3.678   1.046   4.709 -0.4431 -0.5573 -0.4300
 6684SOL     OW31510   4.281   0.685   6.557  0.0877  0.0706  0.7240
 6684SOL    HW131511   4.235   0.638   6.627 -0.2519  0.1664  0.5623
 6684SOL    HW231512   4.372   0.673   6.584  0.9565  1.7990 -1.4703
 6685SOL     OW31513   2.633   1.662   0.003  0.1600 -0.1926 -0.1245
 6685SOL    HW131514   2.644   1.744   0.051  0.7394  0.0128 -0.6178
 6685SOL    HW231515   2.542   1.656   0.034 -0.4182  1.6431 -1.4272
 6686SOL     OW31516   0.243   2.223  14.323  0.6420 -0.2191 -0.1565
 6686SOL    HW131517   0.184   2.295  14.345  0.2916 -1.0124  1.5140
 6686SOL    HW231518   0.329   2.251  14.355  0.5993  0.0181 -0.2525
 6687SOL     OW31519   1.052   1.845   1.147 -0.9901 -0.2869 -0.2952
 6687SOL    HW131520   1.089   1.913   1.203  0.0377 -2.6119  1.8412
 6687SOL    HW231521   1.052   1.886   1.060 -2.4602 -1.3593 -0.8068
 6688SOL     OW31522   0.114   0.624   2.750  0.8681 -0.5619  0.2599
 6688SOL    HW131523   0.143   0.651   2.663 -1.7463 -0.9852 -0.7648
 6688SOL    HW231524   0.172   0.551   2.770 -0.1845 -0.7850  2.4643
 6689SOL     OW31525   0.035   3.104   3.704 -0.0741 -0.0970  0.4891
 6689SOL    HW131526   0.041   3.103   3.608 -3.9155  0.6976  0.2685
 6689SOL    HW231527   0.102   3.041   3.731 -1.2060 -2.0918 -1.3287
 6690SOL     OW31528   3.108   4.597   5.618 -0.1065 -0.3352 -0.0803
 6690SOL    HW131529   3.034   4.547   5.654  0.1909  0.0816  1.1048
 6690SOL    HW231530   3.112   4.585   5.523  2.0514  0.6212 -0.1021
 6691SOL     OW31531   2.441   0.944  14.516 -0.0312  0.4940  0.4992
 6691SOL    HW131532   2.529   0.907  14.510 -0.8888 -1.5916  0.4903
 6691SOL    HW231533   2.465   1.036  14.525 -0.4312  0.8928 -2.3937
 6692SOL     OW31534   3.597   1.757  17.094  0.0972 -0.3192  0.6489
 6692SOL    HW131535   3.636   1.842  17.073 -2.8287  0.4690 -1.6694
 6692SOL    HW231536   3.624   1.756  17.185 -0.8566  1.0410  0.9436
 6693SOL     OW31537   4.299   0.584   8.448 -0.5760 -0.0227  0.1616
 6693SOL    HW131538   4.367   0.599   8.513  1.3844  0.9367 -2.1388
 6693SOL    HW231539   4.349   0.602   8.369  0.7307 -2.2413  0.4594
 6694SOL     OW31540   4.126   4.528   5.174  0.3046 -0.0134 -0.3860
 6694SOL    HW131541   4.046   4.478   5.160  0.1019 -0.2594  1.5706
 6694SOL    HW231542   4.098   4.619   5.175 -0.8459 -0.3518 -2.5650
 6695SOL     OW31543   3.894   3.136  17.274  0.3589 -0.3871  0.3840
 6695SOL    HW131544   3.928   3.167  17.191  2.1327 -1.3641  0.7377
 6695SOL    HW231545   3.831   3.068  17.251 -1.0572  1.0741 -0.0546
 6696SOL     OW31546   1.454   2.877   0.052  0.3061  0.1423 -0.6533
 6696SOL    HW131547   1.484   2.830   0.130 -1.8089  1.7278  1.1203
 6696SOL    HW231548   1.490   2.815  17.681  4.6748  2.0579 -0.0265
 6697SOL     OW31549   2.623   3.578   7.880 -0.0203 -0.0044 -0.1447
 6697SOL    HW131550   2.685   3.609   7.946 -1.4994 -0.8003  1.6089
 6697SOL    HW231551   2.540   3.582   7.928  0.2032  0.0868  0.2305
 6698SOL     OW31552   3.284   2.696   6.088  0.1335  0.1585  0.4666
 6698SOL    HW131553   3.214   2.742   6.040  0.8284 -0.3930 -1.0682
 6698SOL    HW231554   3.347   2.680   6.017 -1.0383 -0.1690 -0.5138
 6699SOL     OW31555   3.054   4.275   8.942 -0.2245 -0.2217  0.6019
 6699SOL    HW131556   3.034   4.182   8.930  6.1150 -1.5787  0.5037
 6699SOL    HW231557   2.976   4.306   8.988 -0.2221 -0.7911  0.9878
 6700SOL     OW31558   1.971   3.616   6.764 -0.0044 -0.0579 -0.2241
 6700SOL    HW131559   2.060   3.582   6.768  0.1795  0.4845  0.1156
 6700SOL    HW231560   1.922   3.576   6.835 -0.6098 -0.2287 -0.7303
 6701SOL     OW31561   3.363   0.336  10.871 -0.0891 -0.0235 -0.0586
 6701SOL    HW131562   3.383   0.299  10.957 -3.8649 -2.4763 -0.2365
 6701SOL    HW231563   3.285   0.287  10.844 -1.7356  1.6489  1.6402
 6702SOL     OW31564   2.286   2.763  16.035 -0.3005  0.3895  0.7867
 6702SOL    HW131565   2.235   2.733  15.960  0.1813  0.7869  0.2985
 6702SOL    HW231566   2.322   2.677  16.058  1.9880  1.1423 -0.0320
 6703SOL     OW31567   1.417   0.605  15.306 -0.5724 -0.3375  0.3375
 6703SOL    HW131568   1.400   0.700  15.309 -4.8748 -1.1068 -0.1661
 6703SOL    HW231569   1.500   0.593  15.351  1.2479  0.5663 -2.7682
 6704SOL     OW31570   0.927   3.820   6.519 -0.1292 -0.5272 -0.0564
 6704SOL    HW131571   0.959   3.897   6.565  0.1426 -1.4648  1.3344
 6704SOL    HW231572   0.971   3.759   6.579 -0.5521 -1.8262 -1.0607
 6705SOL     OW31573   0.262   0.131   4.817  0.5708  0.3499 -0.4272
 6705SOL    HW131574   0.310   0.181   4.883 -0.0447 -0.7415  0.8495
 6705SOL    HW231575   0.327   0.062   4.801  1.8353  1.1777  1.1435
 6706SOL     OW31576   2.632   0.740   5.774  0.2333  0.1248  0.2333
 6706SOL    HW131577   2.715   0.754   5.727  0.2787 -0.5304  0.1093
 6706SOL    HW231578   2.583   0.688   5.710 -0.9392  1.1149  0.3329
 6707SOL     OW31579   4.138   1.969   4.100  0.2184  0.3239  0.0009
 6707SOL    HW131580   4.117   1.977   4.194 -1.7857  0.6473 -0.4668
 6707SOL    HW231581   4.161   1.876   4.092 -0.5042  0.2780 -1.5844
 6708SOL     OW31582   1.209   1.669   0.803 -0.2280 -0.2870  0.2990
 6708SOL    HW131583   1.128   1.720   0.811 -1.0362 -1.5119 -0.1200
 6708SOL    HW231584   1.182   1.607   0.736 -1.0990 -1.0050  1.3020
 6709SOL     OW31585   2.910   3.952  17.098  0.4821 -0.3619 -0.4959
 6709SOL    HW131586   3.001   3.972  17.121  0.4549 -2.1113  1.1726
 6709SOL    HW231587   2.871   3.947  17.185  1.3253 -1.0072 -0.1494
 6710SOL     OW31588   3.749   0.878   6.163 -0.3659  0.4794 -0.0753
 6710SOL    HW131589   3.735   0.838   6.078  0.9189  1.6476 -0.8395
 6710SOL    HW231590   3.660   0.896   6.192 -1.6687 -1.1178 -3.1263
 6711SOL     OW31591   1.626   2.825  13.150 -0.4897 -0.6434 -0.2947
 6711SOL    HW131592   1.714   2.858  13.135 -0.8368 -0.8493 -2.7484
 6711SOL    HW231593   1.631   2.808  13.244 -1.2425  0.4736 -0.0558
 6712SOL     OW31594   1.453   4.489   6.590 -0.2793 -0.4899  0.2427
 6712SOL    HW131595   1.369   4.451   6.567 -0.1007 -0.2558 -0.7950
 6712SOL    HW231596   1.512   4.418   6.567  0.8809  0.4556  0.2813
 6713SOL     OW31597   1.072   4.580   6.379 -0.1408 -0.3753 -0.6779
 6713SOL    HW131598   1.066   4.614   6.290 -0.7643 -0.8773 -0.8297
 6713SOL    HW231599   1.155   4.619   6.405 -0.2260 -1.9622  2.0782
 6714SOL     OW31600   1.248   3.040   9.290 -0.1814  0.0647  0.4606
 6714SOL    HW131601   1.310   2.968   9.283 -0.3404 -0.0988  0.7805
 6714SOL    HW231602   1.183   3.030   9.220  1.3712  0.7798 -1.0893
 6715SOL     OW31603   0.586   4.484   2.618  0.2483 -0.3351 -0.2284
 6715SOL    HW131604   0.598   4.426   2.542  1.1423 -0.5172  0.0417
 6715SOL    HW231605   0.512   4.460   2.674 -1.3873  3.1593 -0.9457
 6716SOL     OW31606   4.634   2.260  14.125 -0.1155  0.2054 -0.3112
 6716SOL    HW131607   4.685   2.184  14.097  0.2038  0.1601  0.3886
 6716SOL    HW231608   4.610   2.312  14.049  1.5299 -0.7256 -1.4633
 6717SOL     OW31609   2.019   3.090   1.256  0.4801 -0.0781 -0.6763
 6717SOL    HW131610   2.002   3.094   1.350  3.4771 -0.7639 -0.1285
 6717SOL    HW231611   1.943   3.138   1.223 -0.6001 -1.0557  0.3840
 6718SOL     OW31612   1.325   3.296  15.644  0.1541  0.2767  0.1401
 6718SOL    HW131613   1.404   3.293  15.590 -0.6218 -1.8638 -0.8576
 6718SOL    HW231614   1.289   3.210  15.665 -0.1679  0.0293 -1.4961
 6719SOL     OW31615   4.477   0.553   7.169 -0.3839  0.1522  0.4523
 6719SOL    HW131616   4.569   0.571   7.191  0.3899 -2.9036 -0.2850
 6719SOL    HW231617   4.481   0.581   7.078 -1.8123 -0.1262  0.3130
 6720SOL     OW31618   3.046   2.472  15.863 -0.2378  0.7637 -0.2012
 6720SOL    HW131619   2.957   2.507  15.871 -0.5606 -0.8925  3.4880
 6720SOL    HW231620   3.037   2.378  15.877 -0.3639  0.8583  0.3342
 6721SOL     OW31621   4.513   0.431  16.950 -0.3261 -0.2840  0.2177
 6721SOL    HW131622   4.562   0.507  16.981  2.2912 -0.8979 -2.3296
 6721SOL    HW231623   4.426   0.445  16.986 -0.6691  3.0657 -1.8980
 6722SOL     OW31624   3.324   1.667   7.296  0.3061 -0.1990 -0.3902
 6722SOL    HW131625   3.375   1.601   7.249  0.1735  0.1312 -0.9933
 6722SOL    HW231626   3.247   1.616   7.324 -0.1383  1.2026  0.9532
 6723SOL     OW31627   0.613   3.685   4.053  0.3465  0.2463 -0.0473
 6723SOL    HW131628   0.553   3.759   4.050 -0.5116 -0.5014 -0.9884
 6723SOL    HW231629   0.618   3.679   4.148  1.1557  0.9497 -0.0505
 6724SOL     OW31630   3.555   0.511   5.554  0.6848 -0.5139 -0.3599
 6724SOL    HW131631   3.503   0.590   5.540  1.4256 -0.4049 -2.5197
 6724SOL    HW231632   3.599   0.515   5.469  0.2501  0.1169 -0.5483
 6725SOL     OW31633   3.298   4.083   6.192  0.0560  0.3141  0.3603
 6725SOL    HW131634   3.209   4.096   6.224  0.5468  2.6399  0.7844
 6725SOL    HW231635   3.327   4.045   6.275 -0.4927  1.5705  1.1358
 6726SOL     OW31636   3.159   3.100   7.329  0.0877  0.2530 -0.7804
 6726SOL    HW131637   3.100   3.065   7.396  1.1019 -0.2287 -0.1458
 6726SOL    HW231638   3.190   3.020   7.288 -0.6489 -0.1336 -0.5871
 6727SOL     OW31639   0.720   3.682  11.046 -0.1074  0.2260  0.3019
 6727SOL    HW131640   0.789   3.749  11.044 -2.1335  2.3541  2.1350
 6727SOL    HW231641   0.658   3.729  11.101  0.8536 -1.0060  2.4179
 6728SOL     OW31642   0.376   2.207   8.739  0.1004  0.2470  0.2205
 6728SOL    HW131643   0.317   2.246   8.803 -0.7127 -0.2905 -0.2072
 6728SOL    HW231644   0.460   2.202   8.785  0.0962  1.9451  0.4120
 6729SOL     OW31645   0.535   3.489  14.506  0.7764  0.5315 -0.0341
 6729SOL    HW131646   0.521   3.575  14.545 -0.2994 -0.6680  2.2660
 6729SOL    HW231647   0.611   3.506  14.450 -0.9063  0.6353 -2.2752
 6730SOL     OW31648   0.449   2.449   0.704  0.1890  0.2739  1.0750
 6730SOL    HW131649   0.462   2.407   0.789  2.4330  2.9973  2.0774
 6730SOL    HW231650   0.536   2.446   0.665  0.4035 -1.1276  1.6758
 6731SOL     OW31651   2.830   0.439  11.208  0.0288  0.2093  0.1109
 6731SOL    HW131652   2.787   0.355  11.221 -0.8286  0.1874 -2.9218
 6731SOL    HW231653   2.758   0.495  11.178  0.2479  0.9988  1.0509
 6732SOL     OW31654   1.075   0.194   9.216 -0.1996  0.2031 -0.1732
 6732SOL    HW131655   1.007   0.171   9.279 -0.3710 -0.1222 -0.4826
 6732SOL    HW231656   1.045   0.144   9.140  2.6964 -1.2734 -0.3445
 6733SOL     OW31657   0.398   2.386  13.114 -0.1618 -0.1689 -0.6258
 6733SOL    HW131658   0.418   2.298  13.081  0.1849 -0.4704  0.4232
 6733SOL    HW231659   0.482   2.417  13.146  1.1597 -1.2428 -3.0080
 6734SOL     OW31660   2.148   0.797  13.994 -0.1554 -0.4737 -0.1376
 6734SOL    HW131661   2.059   0.777  13.963  0.2465 -1.5145 -0.6242
 6734SOL    HW231662   2.172   0.709  14.023  0.2250 -0.5543 -0.6840
 6735SOL     OW31663   0.082   1.491   7.799 -0.1190 -0.2283  0.0036
 6735SOL    HW131664   0.057   1.400   7.783 -0.7569  0.0023 -0.2927
 6735SOL    HW231665   0.077   1.494   7.895 -0.6530 -1.6425  0.0188
 6736SOL     OW31666   1.768   4.012   1.623  0.0105 -0.2627 -0.1904
 6736SOL    HW131667   1.761   3.975   1.535  1.1529  1.1099 -0.8543
 6736SOL    HW231668   1.725   4.098   1.616  0.2338  0.0014  1.7524
 6737SOL     OW31669   0.120   1.340   3.428  0.4629 -0.2864 -0.7450
 6737SOL    HW131670   0.053   1.288   3.384 -1.2424  1.1800  0.1591
 6737SOL    HW231671   0.193   1.282   3.452  1.0889  1.0929  0.6713
 6738SOL     OW31672   2.029   2.664  15.581  0.1161 -0.3538 -0.8036
 6738SOL    HW131673   2.011   2.580  15.538  0.8543 -0.6578 -0.5270
 6738SOL    HW231674   1.938   2.688  15.598 -0.1878 -0.9976 -1.5041
 6739SOL     OW31675   0.392   0.375   8.830 -0.4232  0.3281 -0.2952
 6739SOL    HW131676   0.446   0.446   8.797 -2.6229  0.9877 -2.5079
 6739SOL    HW231677   0.345   0.350   8.750 -1.5813 -0.3111  0.5804
 6740SOL     OW31678   2.209   2.762  10.766 -0.1214 -0.1805  0.2419
 6740SOL    HW131679   2.267   2.770  10.841  2.0337 -0.4378 -1.4151
 6740SOL    HW231680   2.265   2.810  10.706 -1.2821  1.1436  0.2130
 6741SOL     OW31681   1.555   4.475  16.456 -0.1054 -0.4833  0.0313
 6741SOL    HW131682   1.525   4.518  16.536 -2.0140  0.0984 -1.0064
 6741SOL    HW231683   1.494   4.516  16.395 -0.6104 -0.0192  0.8585
 6742SOL     OW31684   0.123   3.714   8.036 -0.2467  0.3257 -0.1525
 6742SOL    HW131685   0.140   3.779   7.968 -0.9674 -0.7998 -1.4052
 6742SOL    HW231686   0.036   3.734   8.071 -0.2004 -2.3587  1.4705
 6743SOL     OW31687   0.936   0.942   2.233  0.2778 -0.5096 -0.1057
 6743SOL    HW131688   0.923   1.029   2.271 -1.0591  0.0424 -1.8284
 6743SOL    HW231689   1.030   0.933   2.250  0.3862  0.0445 -0.3835
 6744SOL     OW31690   2.506   2.123   2.970  0.4764 -0.3754 -0.3883
 6744SOL    HW131691   2.546   2.047   3.012  2.0496 -0.4456 -2.0192
 6744SOL    HW231692   2.554   2.120   2.887 -1.3447  0.7318 -1.4791
 6745SOL     OW31693   4.279   2.671  16.836  0.5930  0.2159  0.5560
 6745SOL    HW131694   4.278   2.686  16.931 -0.3684  1.5190  0.3330
 6745SOL    HW231695   4.251   2.754  16.800  0.5504  0.2752  0.7276
 6746SOL     OW31696   0.230   0.251   4.190  0.0699  0.1401  0.1855
 6746SOL    HW131697   0.248   0.262   4.097  2.8624 -1.3404  0.5308
 6746SOL    HW231698   0.218   0.343   4.215 -1.6656 -0.3990  1.3597
 6747SOL     OW31699   0.550   4.173  10.550 -0.5642 -0.1242 -0.1412
 6747SOL    HW131700   0.551   4.144  10.458 -2.1012 -1.0999  0.1514
 6747SOL    HW231701   0.639   4.152  10.579 -1.0365 -1.3955  0.3756
 6748SOL     OW31702   4.174   4.177   4.430  0.5979 -0.2322  0.1779
 6748SOL    HW131703   4.259   4.190   4.387  0.4121 -0.3332 -0.2190
 6748SOL    HW231704   4.114   4.170   4.356 -0.7934  1.9634  1.0926
 6749SOL     OW31705   2.426   2.241  11.842  0.2439 -0.1310 -0.2308
 6749SOL    HW131706   2.410   2.317  11.786 -0.3071 -0.1202 -0.0593
 6749SOL    HW231707   2.499   2.202  11.793 -1.8552 -2.4470 -1.4741
 6750SOL     OW31708   2.119   2.746  15.816 -0.7696  0.1944 -0.1219
 6750SOL    HW131709   2.045   2.795  15.851 -1.7026  0.7192 -2.8670
 6750SOL    HW231710   2.102   2.722  15.725 -0.4427  0.0599 -0.1487
 6751SOL     OW31711   1.946   1.015  11.784  0.3154 -0.4817  0.2055
 6751SOL    HW131712   2.019   1.025  11.723  0.6162  2.8680  1.1406
 6751SOL    HW231713   1.934   1.109  11.791  0.9821 -0.3420 -0.5254
 6752SOL     OW31714   2.257   4.368   6.640  0.5246 -0.0161  0.2823
 6752SOL    HW131715   2.229   4.324   6.721 -1.7370  1.1353  0.1348
 6752SOL    HW231716   2.215   4.319   6.569 -0.9595  0.2634  0.9534
 6753SOL     OW31717   1.531   4.462   3.697 -0.3454 -0.0302 -0.1246
 6753SOL    HW131718   1.516   4.374   3.662  1.2075 -0.2647 -0.1995
 6753SOL    HW231719   1.481   4.522   3.642 -1.5180 -0.9974 -0.1027
 6754SOL     OW31720   2.987   2.952   4.758  0.8356  0.0640 -0.2324
 6754SOL    HW131721   3.053   2.942   4.826  1.4060  0.6733 -0.6922
 6754SOL    HW231722   2.938   2.872   4.778 -0.5591  0.8935 -0.3248
 6755SOL     OW31723   1.306   3.519   4.303 -0.4076 -0.3236  0.2000
 6755SOL    HW131724   1.358   3.600   4.296 -0.3459 -0.3178  0.7545
 6755SOL    HW231725   1.348   3.477   4.227 -0.4493  1.2466 -0.7017
 6756SOL     OW31726   2.099   1.651   3.742 -0.2818  0.0644 -0.1995
 6756SOL    HW131727   2.102   1.688   3.830 -0.4749  0.4170 -0.3430
 6756SOL    HW231728   2.087   1.557   3.758  0.5331 -0.0488 -0.2463
 6757SOL     OW31729   1.939   3.098   3.692 -0.3539  0.4192  0.0442
 6757SOL    HW131730   1.936   3.110   3.597 -1.1047  4.3313  0.5807
 6757SOL    HW231731   2.024   3.055   3.702 -0.2484  0.0872 -2.1033
 6758SOL     OW31732   1.836   1.097   6.502  0.0445 -0.3237  0.6501
 6758SOL    HW131733   1.838   1.025   6.439  2.2179 -0.7322  1.1881
 6758SOL    HW231734   1.776   1.067   6.570 -0.1198  0.8605  1.0238
 6759SOL     OW31735   1.007   4.493   3.273 -0.8895  0.4470 -0.3641
 6759SOL    HW131736   1.066   4.457   3.207 -0.6136  0.3795 -0.0831
 6759SOL    HW231737   1.017   4.589   3.271 -0.7339  0.4811  1.6422
 6760SOL     OW31738   1.715   2.932   6.706  0.0175 -0.5018  0.0553
 6760SOL    HW131739   1.772   2.894   6.774 -0.1571 -1.2725 -0.2234
 6760SOL    HW231740   1.629   2.907   6.739 -0.0824  0.9870  0.9162
 6761SOL     OW31741   3.651   1.757   5.860 -0.0938 -0.0283 -0.0747
 6761SOL    HW131742   3.632   1.851   5.852 -0.1961  0.0368  0.8646
 6761SOL    HW231743   3.665   1.735   5.768  0.1113 -0.5574  0.0811
 6762SOL     OW31744   2.152   1.345   4.204  0.1768  0.3270  0.0773
 6762SOL    HW131745   2.146   1.437   4.229  1.1200  0.3732  0.1309
 6762SOL    HW231746   2.168   1.358   4.110  3.8878 -1.8472  0.4117
 6763SOL     OW31747   0.310   3.894   1.683 -0.5023 -0.7262 -0.0550
 6763SOL    HW131748   0.378   3.927   1.741  0.4026  2.8110 -3.1585
 6763SOL    HW231749   0.225   3.922   1.717 -1.0752 -0.3670 -1.7629
 6764SOL     OW31750   3.761   2.787   4.624  0.3772  0.7017 -0.1950
 6764SOL    HW131751   3.744   2.859   4.563  0.7433  1.0684  0.1406
 6764SOL    HW231752   3.689   2.794   4.686  0.6445  0.9149  0.0883
 6765SOL     OW31753   4.712   3.314   1.085  0.1099 -0.0202 -0.2005
 6765SOL    HW131754   4.675   3.256   1.152 -2.0135  0.5882 -0.8429
 6765SOL    HW231755   4.653   3.390   1.083  0.1006  0.0522  2.8337
 6766SOL     OW31756   3.002   3.421   8.130 -0.0329 -0.1771 -0.3438
 6766SOL    HW131757   3.093   3.392   8.117 -0.3490 -0.9172 -0.9340
 6766SOL    HW231758   2.957   3.349   8.174  1.7912 -0.8191  0.4674
 6767SOL     OW31759   4.666   2.266  12.014  0.9880  0.4537  0.0900
 6767SOL    HW131760   4.610   2.343  12.014  1.1415  0.5586 -1.9458
 6767SOL    HW231761   0.028   2.310  12.025  0.6999  0.9498  0.2778
 6768SOL     OW31762   2.923   1.181   9.087 -0.0594 -0.5823  0.2053
 6768SOL    HW131763   2.859   1.205   9.155  0.9138  1.1898  0.4970
 6768SOL    HW231764   2.976   1.260   9.077 -0.8999 -0.5072 -3.7073
 6769SOL     OW31765   3.537   2.412   5.964  0.2204 -0.5086 -0.1663
 6769SOL    HW131766   3.499   2.495   5.933  1.1210 -0.8826 -2.2917
 6769SOL    HW231767   3.502   2.347   5.903  0.7513 -0.6206 -0.3493
 6770SOL     OW31768   3.416   3.881  10.259 -0.1060  0.2546  0.2672
 6770SOL    HW131769   3.341   3.831  10.225 -0.5336  1.5671 -0.7080
 6770SOL    HW231770   3.462   3.886  10.176 -0.5348 -0.8123 -0.0360
 6771SOL     OW31771   1.085   4.520   3.725 -0.0620 -0.1998 -0.0280
 6771SOL    HW131772   1.142   4.515   3.802 -0.2255  1.5452  0.2022
 6771SOL    HW231773   1.120   4.581   3.660  1.1130 -0.9982 -0.1556
 6772SOL     OW31774   3.161   0.703  10.444  0.0717 -0.1665 -0.0251
 6772SOL    HW131775   3.081   0.669  10.484 -1.4711  0.5512 -2.4830
 6772SOL    HW231776   3.212   0.622  10.438  0.5158  0.0176  1.1397
 6773SOL     OW31777   3.370   0.240  11.114 -0.1157  0.1371 -0.3971
 6773SOL    HW131778   3.283   0.256  11.151 -0.7872  0.8287 -2.2792
 6773SOL    HW231779   3.425   0.261  11.189  1.6780  2.5628 -2.3742
 6774SOL     OW31780   1.781   4.607   6.721  0.0992  0.2689  0.3984
 6774SOL    HW131781   1.867   4.594   6.680 -0.2373  3.0120 -1.1512
 6774SOL    HW231782   1.727   4.554   6.662 -0.8743  0.4886  1.0911
 6775SOL     OW31783   3.839   0.039   2.842  0.0265  0.8394 -0.4229
 6775SOL    HW131784   3.925   0.035   2.802  0.6946  1.2958  0.9523
 6775SOL    HW231785   3.780   0.016   2.770  1.8861 -1.9567 -1.0299
 6776SOL     OW31786   1.481   1.843   1.365 -0.5835 -0.6331  0.3643
 6776SOL    HW131787   1.403   1.825   1.416  0.6294 -2.4501  1.5932
 6776SOL    HW231788   1.477   1.937   1.347  1.2691 -0.6405 -0.0588
 6777SOL     OW31789   1.797   2.785   8.280 -0.1951  0.0747 -0.2284
 6777SOL    HW131790   1.757   2.752   8.200  1.1291  1.7099 -1.5623
 6777SOL    HW231791   1.879   2.737   8.278  2.3161  4.3343  0.8258
 6778SOL     OW31792   0.698   2.830   1.227 -0.5337  0.4038 -0.3556
 6778SOL    HW131793   0.781   2.858   1.266  1.4034 -4.2821 -1.1610
 6778SOL    HW231794   0.690   2.895   1.157  1.3905  0.4312 -0.5366
 6779SOL     OW31795   2.708   3.709   5.258 -0.1320  0.3663 -0.2510
 6779SOL    HW131796   2.723   3.632   5.313  1.3847 -0.2275 -1.4908
 6779SOL    HW231797   2.699   3.677   5.168 -0.5750 -1.8468  0.5725
 6780SOL     OW31798   3.227   3.801  10.064  0.3975 -0.0965 -0.7205
 6780SOL    HW131799   3.133   3.817  10.055  0.3085  0.3682  1.0744
 6780SOL    HW231800   3.247   3.856   9.988 -0.0778 -0.4744 -1.1280
 6781SOL     OW31801   0.319   1.018   3.179  0.4261  0.1334 -0.4909
 6781SOL    HW131802   0.259   0.961   3.228  1.2681 -0.9305 -0.6907
 6781SOL    HW231803   0.314   1.004   3.085 -0.9225  0.3367 -0.4498
 6782SOL     OW31804   2.114   1.986   2.447 -0.3354 -0.5525 -0.1693
 6782SOL    HW131805   2.075   2.007   2.532  1.2070  2.1560 -0.1566
 6782SOL    HW231806   2.172   2.059   2.427 -1.0475 -0.1226 -0.6503
 6783SOL     OW31807   0.693   1.094   1.787 -0.2241  0.4225 -0.3235
 6783SOL    HW131808   0.762   1.159   1.802  1.1736 -1.3799  0.9667
 6783SOL    HW231809   0.716   1.020   1.843  1.4425 -0.9869 -2.8501
 6784SOL     OW31810   2.479   4.491   6.548  0.0634  0.0293  0.3161
 6784SOL    HW131811   2.554   4.441   6.578  0.2557  0.2912  0.2735
 6784SOL    HW231812   2.403   4.445   6.584  0.3074  0.6224  1.5719
 6785SOL     OW31813   0.578   0.143   4.581  0.7283  0.2407 -0.4606
 6785SOL    HW131814   0.531   0.075   4.532  0.6061  0.2472 -0.3522
 6785SOL    HW231815   0.515   0.214   4.566 -1.2143 -0.8612  2.4776
 6786SOL     OW31816   3.548   2.238   3.724  0.5422  0.4949 -0.0729
 6786SOL    HW131817   3.592   2.322   3.737 -0.9814  1.1629  0.6840
 6786SOL    HW231818   3.481   2.250   3.791 -0.2696 -2.4050 -0.3803
 6787SOL     OW31819   1.955   2.692   3.056 -0.9319  0.0636 -0.0750
 6787SOL    HW131820   2.043   2.714   3.088 -1.7505  2.2467  0.6668
 6787SOL    HW231821   1.946   2.750   2.981  0.6632 -1.6827 -1.6197
 6788SOL     OW31822   3.241   1.219   5.932  0.0639 -0.3876 -0.1389
 6788SOL    HW131823   3.233   1.125   5.949 -0.8521 -0.1608  0.6607
 6788SOL    HW231824   3.322   1.251   5.973  0.3663 -2.2312  0.7142
 6789SOL     OW31825   1.187   1.414   7.485 -0.4414 -0.2931 -0.4014
 6789SOL    HW131826   1.094   1.420   7.506 -1.0341 -3.1961 -2.1388
 6789SOL    HW231827   1.216   1.501   7.512  1.2612 -0.3927 -1.8712
 6790SOL     OW31828   2.205   1.518   7.965  0.0020  0.3085 -0.2254
 6790SOL    HW131829   2.298   1.514   7.988 -0.2949 -1.3979  0.6643
 6790SOL    HW231830   2.207   1.442   7.907  1.4712  1.7435 -2.0766
 6791SOL     OW31831   3.780   3.986   3.381  0.1055 -0.2020 -0.3750
 6791SOL    HW131832   3.853   4.048   3.382  0.1703 -0.2924  0.4263
 6791SOL    HW231833   3.730   3.993   3.299  2.4171  1.7487 -1.6235
 6792SOL     OW31834   3.857   3.237   1.602  0.3066  0.6841  0.8108
 6792SOL    HW131835   3.780   3.229   1.546  1.2191  0.3689 -0.4033
 6792SOL    HW231836   3.819   3.230   1.690  1.5675  2.9302  1.5336
 6793SOL     OW31837   4.287   1.367  10.681  0.1346  0.3419  0.3312
 6793SOL    HW131838   4.261   1.275  10.684  0.9797  0.1653  3.1825
 6793SOL    HW231839   4.217   1.405  10.734 -0.5584 -1.6453  0.8532
 6794SOL     OW31840   0.215   1.689  15.654 -0.1711 -0.3020  0.2246
 6794SOL    HW131841   0.157   1.673  15.580 -0.9641 -1.2057  1.0452
 6794SOL    HW231842   0.278   1.617  15.652  0.3567  0.1534  0.2636
 6795SOL     OW31843   4.254   3.167   7.513 -0.1290  0.2585 -0.7222
 6795SOL    HW131844   4.172   3.120   7.521 -1.1702  2.4442  1.7272
 6795SOL    HW231845   4.314   3.097   7.539 -0.2310  0.7454  0.8576
 6796SOL     OW31846   0.868   0.380   7.668  0.6594 -0.2274  0.0186
 6796SOL    HW131847   0.959   0.354   7.654  0.7100  0.4317 -0.8549
 6796SOL    HW231848   0.874   0.474   7.654 -0.0827 -0.2006 -0.1147
 6797SOL     OW31849   3.914   2.146   5.958 -0.5330  0.2342 -0.5540
 6797SOL    HW131850   3.933   2.097   5.878 -1.0277  0.6927 -0.9550
 6797SOL    HW231851   3.820   2.134   5.971 -0.6024  0.9453 -0.3963
 6798SOL     OW31852   2.215   2.438   3.940 -0.4449 -0.1743 -0.0210
 6798SOL    HW131853   2.212   2.343   3.928 -2.0426 -0.2683  1.1127
 6798SOL    HW231854   2.193   2.465   3.851  0.3422  0.2442 -0.0938
 6799SOL     OW31855   1.428   4.463  12.644 -0.1571 -0.5146  0.2802
 6799SOL    HW131856   1.428   4.511  12.727 -0.6438  0.8400 -0.5022
 6799SOL    HW231857   1.430   4.372  12.671  2.2181 -0.8330 -0.9869
 6800SOL     OW31858   1.297   1.043   2.530  0.4315  0.2859  0.1516
 6800SOL    HW131859   1.390   1.046   2.555  0.2677 -0.4846  0.8618
 6800SOL    HW231860   1.263   1.133   2.535  1.1862  0.4468  2.4196
 6801SOL     OW31861   1.584   4.089  15.278 -0.9557  0.2983 -0.2869
 6801SOL    HW131862   1.592   4.179  15.245  0.5025 -0.1926 -1.2580
 6801SOL    HW231863   1.562   4.037  15.201  0.7740 -0.7219 -0.0960
 6802SOL     OW31864   2.178   2.334   0.222  0.3159  0.2472 -0.6497
 6802SOL    HW131865   2.151   2.245   0.246  1.6530 -1.2374 -4.7169
 6802SOL    HW231866   2.202   2.325   0.130  1.6620  0.6102 -0.3312
 6803SOL     OW31867   3.301   3.642   8.303 -0.3103 -0.5509 -0.5203
 6803SOL    HW131868   3.367   3.581   8.269  0.3130 -0.2985  0.2534
 6803SOL    HW231869   3.293   3.612   8.394  1.3216 -0.7138 -0.4250
 6804SOL     OW31870   3.827   4.534   0.582 -0.4185 -0.1070 -0.1396
 6804SOL    HW131871   3.812   4.601   0.516  2.5973  0.8965  0.1700
 6804SOL    HW231872   3.744   4.487   0.583 -0.0561 -0.7537 -0.7944
 6805SOL     OW31873   1.687   3.759   4.241 -0.1354 -0.5475 -0.1362
 6805SOL    HW131874   1.709   3.744   4.149 -0.1152 -1.4173  0.0090
 6805SOL    HW231875   1.724   3.681   4.281 -2.1797 -1.7679 -0.6245
 6806SOL     OW31876   4.309   3.244   3.775  0.4996  0.3701 -0.4020
 6806SOL    HW131877   4.241   3.290   3.824  0.5805 -0.2100  0.2441
 6806SOL    HW231878   4.336   3.176   3.836 -0.3974 -0.8915 -1.4281
 6807SOL     OW31879   1.615   4.239   4.300  0.0446  0.3630  0.0429
 6807SOL    HW131880   1.554   4.307   4.326 -3.0991 -2.8204  0.9840
 6807SOL    HW231881   1.662   4.227   4.382 -1.1603  1.4750  0.8977
 6808SOL     OW31882   0.325   4.362  10.605  0.0904  0.1561  0.1201
 6808SOL    HW131883   0.388   4.292  10.586 -0.2799 -0.5500  1.5324
 6808SOL    HW231884   0.293   4.337  10.692 -0.0866  0.2588  0.0824
 6809SOL     OW31885   4.512   1.180  15.749  0.4481 -0.8076  0.0666
 6809SOL    HW131886   4.565   1.254  15.780  1.0661 -1.2861  0.1527
 6809SOL    HW231887   4.564   1.105  15.777  0.2298 -0.1897  2.0703
 6810SOL     OW31888   2.727   3.497   6.136 -1.0095  0.0434 -0.5582
 6810SOL    HW131889   2.765   3.420   6.179 -0.6029  1.3494  1.4588
 6810SOL    HW231890   2.758   3.489   6.046 -2.2904  0.9421 -1.0755
 6811SOL     OW31891   3.481   4.348   2.491 -0.0218  0.2560  0.1099
 6811SOL    HW131892   3.404   4.393   2.525 -0.1921 -0.2564  0.3968
 6811SOL    HW231893   3.484   4.381   2.401  1.7301  2.7959  1.1153
 6812SOL     OW31894   4.639   4.266   7.116 -0.3645  0.2021 -0.0431
 6812SOL    HW131895   4.694   4.248   7.040  0.0952  2.3607 -0.2282
 6812SOL    HW231896   4.666   4.202   7.181 -0.3406 -0.0864 -0.3365
 6813SOL     OW31897   4.522   0.027   6.780  0.3149 -0.8756 -0.1329
 6813SOL    HW131898   4.587   0.068   6.723 -0.5970  0.0994 -0.4827
 6813SOL    HW231899   4.563   4.664   6.791  1.2410 -0.9016 -3.7938
 6814SOL     OW31900   3.323   2.432   2.840 -0.6201  0.1276 -0.3843
 6814SOL    HW131901   3.313   2.512   2.788 -2.5601  0.8914  1.1389
 6814SOL    HW231902   3.403   2.462   2.884 -1.2050 -0.7963  1.3027
 6815SOL     OW31903   4.278   2.487   4.597 -0.7273 -0.2668 -0.1592
 6815SOL    HW131904   4.258   2.509   4.688 -0.6983 -0.0171 -0.2133
 6815SOL    HW231905   4.326   2.568   4.581 -1.7523  0.0901 -1.4071
 6816SOL     OW31906   4.694   0.881   5.468 -0.0446  0.3956 -0.8367
 6816SOL    HW131907   4.707   0.890   5.373 -1.4140  1.2551 -0.9337
 6816SOL    HW231908   4.625   0.935   5.507 -1.3893 -0.1471 -2.4306
 6817SOL     OW31909   4.711   4.208   5.720 -0.3019 -0.0069  0.1466
 6817SOL    HW131910   0.005   4.260   5.799 -3.5401  2.2189 -0.6137
 6817SOL    HW231911   4.652   4.262   5.669 -2.4621 -2.9943 -0.5548
 6818SOL     OW31912   2.325   1.668   6.544 -0.2231 -0.0721  0.2875
 6818SOL    HW131913   2.421   1.665   6.550 -0.0903  2.2199 -0.4757
 6818SOL    HW231914   2.300   1.641   6.632 -0.8775  2.7535  0.9934
 6819SOL     OW31915   2.477   0.480   8.338  0.1149 -0.2497  0.9598
 6819SOL    HW131916   2.541   0.408   8.348 -0.1715 -0.4669  1.2302
 6819SOL    HW231917   2.499   0.517   8.253 -1.4540 -1.7601 -0.1117
 6820SOL     OW31918   0.111   2.905   5.170  0.6560  0.2892 -0.0004
 6820SOL    HW131919   0.150   2.882   5.254 -0.4310 -0.4621  0.2883
 6820SOL    HW231920   0.066   2.984   5.200  0.2522 -0.6021  1.6972
 6821SOL     OW31921   4.649   0.897   6.047  0.0564  0.2072 -0.0997
 6821SOL    HW131922   0.003   0.864   6.094 -1.2831  0.8643  2.5516
 6821SOL    HW231923   4.688   0.970   5.998  0.8609 -1.0538 -1.3516
 6822SOL     OW31924   2.475   2.894   9.161  0.4166 -0.2803  0.2950
 6822SOL    HW131925   2.398   2.878   9.107 -0.7034  1.6040  1.2955
 6822SOL    HW231926   2.543   2.840   9.122 -0.4354 -1.3196  0.2593
 6823SOL     OW31927   2.660   0.683   2.290  0.6533 -0.1375 -0.1681
 6823SOL    HW131928   2.728   0.703   2.354  0.8889 -2.7826  0.4336
 6823SOL    HW231929   2.676   0.588   2.288  0.8437 -0.0764 -1.6162
 6824SOL     OW31930   2.438   2.398   7.450  0.3327 -1.2120  0.2766
 6824SOL    HW131931   2.380   2.413   7.375 -0.6298  0.9538  1.4141
 6824SOL    HW231932   2.486   2.321   7.421  0.0222 -0.6622 -1.6445
 6825SOL     OW31933   2.565   0.137  14.562  0.2011  0.4053  0.1748
 6825SOL    HW131934   2.655   0.166  14.546  0.5800 -0.6068  0.4456
 6825SOL    HW231935   2.515   0.214  14.536 -1.2616  0.7892  4.1067
 6826SOL     OW31936   1.078   2.937  14.490  0.0619  0.2291  0.7436
 6826SOL    HW131937   0.986   2.920  14.467  0.7078 -1.4204 -0.6167
 6826SOL    HW231938   1.075   3.021  14.534  2.3243 -0.8651  2.9773
 6827SOL     OW31939   2.621   4.508   7.773  0.5303  0.4458 -0.3448
 6827SOL    HW131940   2.690   4.574   7.782 -0.2235  0.9385  1.9527
 6827SOL    HW231941   2.678   4.439   7.740 -0.3817  0.1027 -1.2250
 6828SOL     OW31942   0.748   4.410  16.197  0.4140  0.3439  0.1254
 6828SOL    HW131943   0.828   4.395  16.147  0.6165  0.8718  0.2912
 6828SOL    HW231944   0.703   4.326  16.198 -0.8820  1.0204 -4.0107
 6829SOL     OW31945   3.412   4.072   7.104  0.5569  0.3022  0.0222
 6829SOL    HW131946   3.332   4.084   7.156 -0.2193 -0.8793 -0.9177
 6829SOL    HW231947   3.434   3.979   7.107  2.6471  0.7979 -0.2471
 6830SOL     OW31948   3.341   0.672   5.771 -0.6500  0.3330 -0.7577
 6830SOL    HW131949   3.299   0.745   5.816  1.1929 -0.5763  2.4540
 6830SOL    HW231950   3.330   0.687   5.677  0.5329 -0.9369 -1.1032
 6831SOL     OW31951   0.163   2.071   1.065  0.5899  0.9177 -0.0720
 6831SOL    HW131952   0.122   2.139   1.118  3.3097  1.1022  1.7624
 6831SOL    HW231953   0.255   2.097   1.067  0.7336  0.5327 -1.4730
 6832SOL     OW31954   0.995   3.909  13.219 -0.4380 -0.4707 -0.7011
 6832SOL    HW131955   0.965   3.914  13.309 -0.1068 -0.2203 -0.6074
 6832SOL    HW231956   0.990   3.817  13.193  1.4785 -0.6782 -0.2999
 6833SOL     OW31957   0.713   3.421   8.418 -0.6164 -0.4148  0.0620
 6833SOL    HW131958   0.726   3.420   8.323  3.0441 -3.6357  0.5646
 6833SOL    HW231959   0.640   3.482   8.428 -0.4950 -0.2076 -0.3160
 6834SOL     OW31960   2.403   2.561   4.941 -0.5975  0.5371 -0.1700
 6834SOL    HW131961   2.439   2.474   4.958  0.9286  0.9315 -1.3204
 6834SOL    HW231962   2.313   2.544   4.968  0.4648 -0.1684  2.8612
 6835SOL     OW31963   2.919   3.320   3.694  0.4150  0.4442  0.0021
 6835SOL    HW131964   2.977   3.390   3.666 -0.3337  1.0750  0.0185
 6835SOL    HW231965   2.838   3.372   3.696  0.3888  0.3740  1.0302
 6836SOL     OW31966   1.621   0.636  16.534  0.2640 -0.0705  0.2155
 6836SOL    HW131967   1.668   0.556  16.510  0.1688 -0.5982  1.8076
 6836SOL    HW231968   1.662   0.669  16.614  0.8200  1.1516 -0.5797
 6837SOL     OW31969   0.650   0.543   3.835 -0.0861 -0.1195  0.5438
 6837SOL    HW131970   0.659   0.532   3.741 -1.6623 -1.2975  0.5273
 6837SOL    HW231971   0.594   0.620   3.840 -1.3642 -1.2109  3.0004
 6838SOL     OW31972   3.227   3.100  13.238 -0.0089 -0.3387  0.4304
 6838SOL    HW131973   3.229   3.053  13.154  0.9835  1.4845 -0.5762
 6838SOL    HW231974   3.158   3.166  13.239 -1.5637 -1.9016 -1.6549
 6839SOL     OW31975   3.512   2.631   3.255 -0.4068 -0.3807  0.3798
 6839SOL    HW131976   3.604   2.621   3.279 -0.7167 -0.9174  1.3251
 6839SOL    HW231977   3.509   2.726   3.241 -1.4230 -0.6766 -1.3565
 6840SOL     OW31978   3.975   2.904   4.052 -0.0890  0.1077  0.5252
 6840SOL    HW131979   3.893   2.941   4.020 -1.1563 -2.1605  0.6180
 6840SOL    HW231980   3.934   2.857   4.125 -0.5450  0.4545  0.4868
 6841SOL     OW31981   4.019   1.145  15.817 -0.1333  0.1263 -0.1552
 6841SOL    HW131982   3.995   1.194  15.738 -3.4139 -2.6012 -0.8169
 6841SOL    HW231983   4.100   1.110  15.779  0.3222  0.5314  0.4481
 6842SOL     OW31984   3.070   0.912   4.866  1.0315  0.7525 -0.1560
 6842SOL    HW131985   3.002   0.978   4.851  1.3704  0.7793 -1.5894
 6842SOL    HW231986   3.106   0.909   4.777 -2.0468 -1.6696 -1.2861
 6843SOL     OW31987   1.174   3.008   8.211 -0.0495 -0.5560  0.3600
 6843SOL    HW131988   1.248   2.949   8.198  0.7385  0.2490  1.1330
 6843SOL    HW231989   1.205   3.097   8.229  0.8303 -0.9222  0.6442
 6844SOL     OW31990   4.473   1.616   1.163 -0.1331  0.3901 -0.2036
 6844SOL    HW131991   4.557   1.657   1.140  1.3040 -1.4381  1.8076
 6844SOL    HW231992   4.436   1.675   1.228  0.6413  0.0727  0.5254
 6845SOL     OW31993   4.030   3.620   7.914 -0.3108  0.6127  0.6431
 6845SOL    HW131994   4.027   3.704   7.869  1.9104  1.1624  1.5385
 6845SOL    HW231995   3.985   3.638   7.997 -0.8851 -1.5009  0.7780
 6846SOL     OW31996   2.103   3.817  10.431 -0.0883 -0.0533 -0.1914
 6846SOL    HW131997   2.077   3.891  10.486  3.5782  0.9184  0.1816
 6846SOL    HW231998   2.036   3.754  10.457 -2.9854  1.7905 -3.1803
 6847SOL     OW31999   3.159   2.166   7.262  0.6528 -0.5284 -0.3625
 6847SOL    HW132000   3.181   2.187   7.171  1.9002 -1.5128 -0.2902
 6847SOL    HW232001   3.100   2.235   7.292  2.1182 -0.1083  1.5715
 6848SOL     OW32002   1.278   1.479  11.804  0.4827 -0.2204 -0.2006
 6848SOL    HW132003   1.196   1.528  11.805 -0.7345 -2.2371 -0.7652
 6848SOL    HW232004   1.349   1.542  11.810 -0.1978  0.3350  2.0526
 6849SOL     OW32005   3.261   1.779  11.686 -0.1832 -0.0343  0.6519
 6849SOL    HW132006   3.267   1.749  11.777 -1.4241 -0.7408  0.5041
 6849SOL    HW232007   3.334   1.841  11.679 -1.1964  1.2530  1.4040
 6850SOL     OW32008   4.072   4.309   8.245 -0.0928 -0.3908 -0.3468
 6850SOL    HW132009   4.148   4.367   8.238 -0.5078  0.5419  2.5577
 6850SOL    HW232010   4.053   4.302   8.152  1.0876  1.6537 -0.7297
 6851SOL     OW32011   1.636   0.798   4.783  0.3174  0.4401  0.2708
 6851SOL    HW132012   1.625   0.709   4.815  1.3062  0.7432  1.4558
 6851SOL    HW232013   1.664   0.773   4.695 -1.7866  0.9379 -0.5349
 6852SOL     OW32014   4.541   1.193  11.001  0.0606  0.2930 -0.1597
 6852SOL    HW132015   4.594   1.197  10.921 -0.2352  1.4949 -0.2964
 6852SOL    HW232016   4.552   1.283  11.032  0.6659  0.7730 -1.7407
 6853SOL     OW32017   0.040   1.502   9.269 -0.2740 -0.2233 -0.5535
 6853SOL    HW132018   0.112   1.515   9.331 -2.4320 -0.0356  1.9248
 6853SOL    HW232019   0.047   1.581   9.215  1.4570 -1.1770 -1.6945
 6854SOL     OW32020   4.311   2.599   5.107 -0.7085  0.0372  0.1939
 6854SOL    HW132021   4.273   2.580   5.021 -0.3596 -0.7591  0.2134
 6854SOL    HW232022   4.244   2.641   5.160 -1.8697 -0.3366 -0.9583
 6855SOL     OW32023   0.134   0.468  11.567 -0.0737  0.1493  0.4297
 6855SOL    HW132024   0.200   0.430  11.510  1.0292  2.2892  0.3206
 6855SOL    HW232025   0.091   0.517  11.497  2.2550  1.6635  0.0635
 6856SOL     OW32026   3.061   4.330   3.278 -0.0562 -0.1508  0.7403
 6856SOL    HW132027   3.142   4.379   3.289 -0.1993  0.0792  0.7554
 6856SOL    HW232028   3.070   4.323   3.183  0.4312  0.1781  0.7653
 6857SOL     OW32029   1.064   3.620   6.632 -0.7224 -0.1134  0.5376
 6857SOL    HW132030   1.133   3.554   6.622 -0.3889  0.1531  1.1175
 6857SOL    HW232031   1.101   3.678   6.698 -1.3349 -0.2858  1.0262
 6858SOL     OW32032   4.251   3.832   8.805 -0.2947  0.1943 -0.1062
 6858SOL    HW132033   4.320   3.886   8.844  1.6857 -0.3213 -2.8346
 6858SOL    HW232034   4.183   3.864   8.864 -1.2665 -1.0382 -0.5603
 6859SOL     OW32035   0.213   3.589   3.130 -0.9100 -0.3324 -0.0572
 6859SOL    HW132036   0.193   3.624   3.217 -0.0427  0.2104 -0.0762
 6859SOL    HW232037   0.303   3.620   3.121 -1.0890 -0.5954 -2.7682
 6860SOL     OW32038   2.128   2.405   6.305 -0.4929 -0.1762 -0.3123
 6860SOL    HW132039   2.136   2.344   6.232 -1.1900  1.0267 -1.3799
 6860SOL    HW232040   2.212   2.377   6.343  1.3323  0.8465 -3.5482
 6861SOL     OW32041   0.140   2.435   3.547  0.1553  0.4249  0.0795
 6861SOL    HW132042   0.061   2.381   3.537 -1.1781  2.2476  0.7965
 6861SOL    HW232043   0.207   2.374   3.516 -0.2739 -0.3700  0.7513
 6862SOL     OW32044   3.884   0.009  13.236  0.6753 -0.4757  0.2835
 6862SOL    HW132045   3.823   4.718  13.308 -0.2458 -2.4216 -0.8657
 6862SOL    HW232046   3.898   0.104  13.235  2.4127 -0.7210 -0.2464
 6863SOL     OW32047   0.172   2.260   7.509 -0.0790 -0.2834 -0.0720
 6863SOL    HW132048   0.219   2.199   7.452  1.1566  0.2377  0.3646
 6863SOL    HW232049   0.150   2.326   7.443  0.9739  0.0304 -0.1141
 6864SOL     OW32050   1.240   3.569  13.563  0.7934 -0.4422  0.7257
 6864SOL    HW132051   1.165   3.519  13.595 -1.7873  2.1303 -1.3211
 6864SOL    HW232052   1.312   3.509  13.580  1.6287  0.0120 -1.2837
 6865SOL     OW32053   3.292   4.069   2.941  0.2532 -0.7062 -0.4159
 6865SOL    HW132054   3.230   4.028   3.001  0.2044  0.8758  0.6090
 6865SOL    HW232055   3.254   4.156   2.938 -0.0998 -0.8273  0.4626
 6866SOL     OW32056   0.910   4.216   6.636 -0.5546 -0.3165  0.0980
 6866SOL    HW132057   0.822   4.231   6.669 -0.0049 -1.1658  1.9514
 6866SOL    HW232058   0.925   4.122   6.638  0.6044 -0.1352  0.1081
 6867SOL     OW32059   4.445   4.627   8.362  0.0696 -0.5861 -0.0189
 6867SOL    HW132060   4.385   4.689   8.403  2.2963  1.3957  0.2200
 6867SOL    HW232061   4.432   4.544   8.408 -1.5581  0.2823  1.0639
 6868SOL     OW32062   4.237   3.602  16.134  0.0565  0.6946  0.3411
 6868SOL    HW132063   4.323   3.639  16.153  0.5577  1.0915 -2.6426
 6868SOL    HW232064   4.183   3.638  16.205  1.5763 -0.4061  2.0454
 6869SOL     OW32065   3.585   2.867  15.604 -0.3193 -0.1192 -0.5663
 6869SOL    HW132066   3.503   2.826  15.630 -0.0354  1.4931  2.8939
 6869SOL    HW232067   3.649   2.823  15.661 -1.0161 -2.3164 -1.4598
 6870SOL     OW32068   4.463   0.743  11.619  0.2927  0.0805 -0.5656
 6870SOL    HW132069   4.417   0.743  11.703  2.2937  1.4867  0.5319
 6870SOL    HW232070   4.540   0.797  11.638 -0.8980  1.2788  0.8508
 6871SOL     OW32071   1.013   3.647   2.544  0.5452  0.2494  0.1929
 6871SOL    HW132072   0.940   3.652   2.605 -0.8521  0.8889 -1.5178
 6871SOL    HW232073   0.969   3.628   2.461  0.9329  0.7324 -0.1266
 6872SOL     OW32074   3.597   2.195   0.991  0.4355  0.2276  0.5965
 6872SOL    HW132075   3.544   2.242   0.926 -0.6929 -0.4881  0.9928
 6872SOL    HW232076   3.536   2.124   1.012 -0.0916  0.3823 -0.4144
 6873SOL     OW32077   3.864   0.520  17.073  0.1723 -0.4243 -0.2416
 6873SOL    HW132078   3.930   0.495  17.138  0.2593  1.3144  0.3395
 6873SOL    HW232079   3.791   0.546  17.131  0.8519 -1.7933  1.2270
 6874SOL     OW32080   1.905   1.773  11.202  0.5291  0.3951 -0.1026
 6874SOL    HW132081   1.936   1.795  11.290  1.7639  0.8759 -0.6571
 6874SOL    HW232082   1.949   1.688  11.207 -0.9276 -0.3398  0.0908
 6875SOL     OW32083   4.269   3.400   1.104  0.1549 -0.1239 -0.0519
 6875SOL    HW132084   4.244   3.329   1.046 -0.5829 -0.0061  0.1283
 6875SOL    HW232085   4.204   3.399   1.174  1.6948  0.6219  1.4103
 6876SOL     OW32086   1.186   3.421  13.121 -0.6025 -0.3055  0.1388
 6876SOL    HW132087   1.187   3.351  13.186 -2.2756 -0.3067  0.1503
 6876SOL    HW232088   1.109   3.398  13.070  0.6654 -1.1342 -1.4040
 6877SOL     OW32089   2.222   1.655   7.559 -0.2618 -0.0085  0.6810
 6877SOL    HW132090   2.272   1.643   7.478 -0.2267 -0.8038  0.8157
 6877SOL    HW232091   2.288   1.625   7.621 -1.0277 -1.9787  0.5571
 6878SOL     OW32092   3.652   0.537  13.464  0.3927 -0.1530  0.0233
 6878SOL    HW132093   3.564   0.500  13.460  0.3883 -0.1057 -0.3208
 6878SOL    HW232094   3.640   0.628  13.437 -1.8252  0.2935  2.4893
 6879SOL     OW32095   0.915   3.517   4.343  0.0226 -0.0787 -0.4995
 6879SOL    HW132096   0.863   3.596   4.355 -1.8727 -1.6590  1.4290
 6879SOL    HW232097   0.939   3.513   4.250  2.1225  0.5398  0.0145
 6880SOL     OW32098   3.016   1.218   4.321  0.0803 -0.2272 -0.2842
 6880SOL    HW132099   2.997   1.307   4.291 -1.2124 -0.3952  0.0503
 6880SOL    HW232100   3.035   1.176   4.237  0.8057 -0.3523 -0.0599
 6881SOL     OW32101   2.193   3.797   7.832 -0.5208  0.0485  0.1006
 6881SOL    HW132102   2.150   3.737   7.894 -0.1257  4.0142  4.1630
 6881SOL    HW232103   2.178   3.752   7.749  1.2735 -2.7361  1.2859
 6882SOL     OW32104   4.467   2.961   0.499  0.3529  0.0959 -0.4136
 6882SOL    HW132105   4.514   2.916   0.570  1.4580 -0.7986 -1.7121
 6882SOL    HW232106   4.399   2.895   0.484  0.6140 -0.5032  1.0179
 6883SOL     OW32107   0.740   1.027   9.441  0.2574  0.3324  0.0649
 6883SOL    HW132108   0.685   0.957   9.477  0.4511  0.5479  0.7766
 6883SOL    HW232109   0.746   1.011   9.347  0.1193 -0.9876  0.2685
 6884SOL     OW32110   2.804   1.822  16.371 -0.2100  0.4604 -0.5939
 6884SOL    HW132111   2.771   1.887  16.433  1.0402 -0.4903  1.0923
 6884SOL    HW232112   2.881   1.876  16.354  1.5159 -1.7517  0.2557
 6885SOL     OW32113   0.332   4.086   8.933 -0.0024  0.2215  0.7383
 6885SOL    HW132114   0.241   4.105   8.913 -0.2079 -1.1714  0.3551
 6885SOL    HW232115   0.369   4.069   8.846  2.4073 -1.2326  2.0394
 6886SOL     OW32116   4.211   4.065  10.868 -0.3069 -0.4899  0.1735
 6886SOL    HW132117   4.302   4.036  10.861 -0.3665 -0.2623 -1.4581
 6886SOL    HW232118   4.208   4.134  10.802 -2.5845 -0.8513 -0.1153
 6887SOL     OW32119   0.335   0.107  11.148 -0.5908 -0.4712 -0.1224
 6887SOL    HW132120   0.424   0.112  11.115 -0.3073 -1.3675  0.5108
 6887SOL    HW232121   0.306   0.193  11.118 -0.4892  0.0229  1.2128
 6888SOL     OW32122   2.584   2.727   8.189  0.0103 -0.1297 -0.3961
 6888SOL    HW132123   2.568   2.817   8.219 -0.6737 -0.3979  0.0516
 6888SOL    HW232124   2.541   2.677   8.258 -1.3895 -0.0088 -1.1962
 6889SOL     OW32125   4.693   1.602   5.421  0.2669  0.3341 -0.1417
 6889SOL    HW132126   4.623   1.638   5.368 -0.5834 -0.2533  0.5856
 6889SOL    HW232127   4.720   1.531   5.363  0.1111  1.6789 -1.8611
 6890SOL     OW32128   0.777   0.157   6.804 -0.1637  0.1926 -0.7697
 6890SOL    HW132129   0.721   0.136   6.878 -0.8604  1.3357 -0.9674
 6890SOL    HW232130   0.802   0.248   6.820  0.6923 -0.3548  0.9653
 6891SOL     OW32131   1.234   1.137   5.222  0.1132 -0.0338  0.1877
 6891SOL    HW132132   1.251   1.219   5.176 -0.1291  0.4053  0.8674
 6891SOL    HW232133   1.290   1.163   5.295 -0.0221  0.8460 -0.0175
 6892SOL     OW32134   2.714   3.794   8.687 -0.5353  0.4601 -0.0376
 6892SOL    HW132135   2.678   3.812   8.774 -0.9458  0.9325 -0.3076
 6892SOL    HW232136   2.696   3.875   8.640  1.4354  1.6706  1.3157
 6893SOL     OW32137   1.285   1.285   2.250 -0.0133 -0.3924  0.1026
 6893SOL    HW132138   1.290   1.208   2.307 -0.6005 -0.9162 -0.5533
 6893SOL    HW232139   1.330   1.251   2.172  1.5094 -0.2830  0.9221
 6894SOL     OW32140   0.606   3.221   9.425 -0.6770 -0.0355 -0.1470
 6894SOL    HW132141   0.612   3.316   9.410  1.9536 -0.0358  0.8307
 6894SOL    HW232142   0.546   3.192   9.357 -0.2246 -1.7259  0.1826
 6895SOL     OW32143   3.615   1.975  10.236  0.3252 -1.0757 -0.3384
 6895SOL    HW132144   3.651   1.911  10.175  2.4384  0.4454 -0.6634
 6895SOL    HW232145   3.543   2.016  10.188  0.6814 -0.8570 -0.6772
 6896SOL     OW32146   2.705   4.705   8.170  0.0207 -0.1140 -0.4333
 6896SOL    HW132147   2.765   0.035   8.223 -1.9836  0.6149  1.0920
 6896SOL    HW232148   2.651   4.668   8.240 -0.3078 -1.6768 -1.4816
 6897SOL     OW32149   1.109   3.322  12.386 -0.0009 -0.0612  1.0063
 6897SOL    HW132150   1.068   3.331  12.300 -0.0618  0.8934  1.1369
 6897SOL    HW232151   1.150   3.236  12.381 -2.6009 -1.3464  1.5743
 6898SOL     OW32152   2.722   1.609   0.274 -0.3732 -0.3410  0.5105
 6898SOL    HW132153   2.741   1.517   0.256  0.7646 -0.1303  0.6005
 6898SOL    HW232154   2.725   1.647   0.186  0.7823 -0.3586  0.5433
 6899SOL     OW32155   0.532   3.326  10.547  0.7127 -0.4080 -0.0211
 6899SOL    HW132156   0.559   3.342  10.637 -1.8025 -0.6907  0.7994
 6899SOL    HW232157   0.602   3.361  10.493  0.7701 -0.9027 -0.2717
 6900SOL     OW32158   1.843   3.769   3.362 -0.5867  0.4902  0.0160
 6900SOL    HW132159   1.785   3.838   3.330 -0.3631 -0.2535 -1.9913
 6900SOL    HW232160   1.887   3.748   3.279  0.4320  1.7276  0.2560
 6901SOL     OW32161   1.540   0.213   6.510  0.3256 -0.2569 -0.1354
 6901SOL    HW132162   1.470   0.273   6.534 -0.0897 -0.5627 -0.5810
 6901SOL    HW232163   1.518   0.145   6.573 -0.6089 -0.3113 -0.5236
 6902SOL     OW32164   4.337   0.301   9.662 -0.0463  0.5915 -0.0923
 6902SOL    HW132165   4.400   0.307   9.733 -2.0893 -3.2710  2.0041
 6902SOL    HW232166   4.394   0.298   9.585  0.7678  0.9321  0.4999
 6903SOL     OW32167   0.009   3.056   2.486 -0.0139  0.3229 -0.2607
 6903SOL    HW132168   0.041   2.985   2.542  0.4885  1.5039  0.9477
 6903SOL    HW232169   0.081   3.118   2.483 -0.9511  1.2792 -2.7890
 6904SOL     OW32170   3.967   3.302  11.881  0.2870 -0.5177 -0.6482
 6904SOL    HW132171   3.973   3.368  11.812  1.5760 -0.0833 -0.1091
 6904SOL    HW232172   4.015   3.229  11.841  1.7235  0.2486 -0.3056
 6905SOL     OW32173   3.045   1.297   1.184  0.4997  0.8203  0.2620
 6905SOL    HW132174   2.951   1.284   1.196  0.4566  0.2390 -0.6863
 6905SOL    HW232175   3.051   1.392   1.196 -3.0802  0.8707  1.6607
 6906SOL     OW32176   2.054   4.306   5.185 -0.4399 -0.1976  0.2534
 6906SOL    HW132177   2.127   4.266   5.232  0.9183  2.2228  0.1575
 6906SOL    HW232178   2.025   4.370   5.250 -2.2162  0.3394 -1.0734
 6907SOL     OW32179   2.975   0.676   5.388  0.4992 -0.5433  0.5756
 6907SOL    HW132180   3.064   0.663   5.355 -0.1307  0.3275 -1.4884
 6907SOL    HW232181   2.951   0.760   5.349 -0.3370 -1.1488 -0.2333
 6908SOL     OW32182   1.255   1.482   4.547  0.5065 -0.1574 -0.2858
 6908SOL    HW132183   1.262   1.483   4.643  1.9639  1.4925 -0.4135
 6908SOL    HW232184   1.347   1.498   4.523  0.4294 -1.8801 -1.7934
 6909SOL     OW32185   1.688   3.352   4.575  0.0637 -0.4653 -0.3731
 6909SOL    HW132186   1.691   3.373   4.668 -1.3782 -1.1233 -0.1831
 6909SOL    HW232187   1.696   3.257   4.578  1.7188 -0.3705 -1.4306
 6910SOL     OW32188   0.065   2.808  10.508 -0.2792 -0.0779  0.3342
 6910SOL    HW132189   4.702   2.777  10.480 -0.0865 -0.0580 -0.2646
 6910SOL    HW232190   0.058   2.809  10.604  1.0990 -1.5511  0.4467
 6911SOL     OW32191   2.806   3.775   4.442 -0.7229  0.0862 -0.4129
 6911SOL    HW132192   2.713   3.789   4.458 -0.4619  1.9144 -0.5365
 6911SOL    HW232193   2.845   3.800   4.526 -0.4583  0.2045 -0.5707
 6912SOL     OW32194   3.125   2.353  16.180  0.2545  0.2190  0.1100
 6912SOL    HW132195   3.220   2.363  16.188  0.3739 -0.8446 -0.0173
 6912SOL    HW232196   3.103   2.368  16.088  0.1126  1.8669  0.3970
 6913SOL     OW32197   0.256   3.143   6.579 -0.1689  0.1187 -0.0086
 6913SOL    HW132198   0.291   3.107   6.660 -1.1928 -0.8855 -0.0083
 6913SOL    HW232199   0.208   3.064   6.551 -2.3921  1.4444  0.0872
 6914SOL     OW32200   2.273   2.676   7.320 -0.1560 -0.3230 -0.2578
 6914SOL    HW132201   2.343   2.738   7.340  1.7809 -2.2002 -1.1949
 6914SOL    HW232202   2.320   2.594   7.302  2.4398  0.9102  0.8854
 6915SOL     OW32203   0.379   3.859   4.478 -0.0320 -0.4984 -0.3580
 6915SOL    HW132204   0.339   3.929   4.427 -1.6352  1.4851  3.6814
 6915SOL    HW232205   0.463   3.902   4.494  0.5582 -1.5416 -0.6250
 6916SOL     OW32206   1.117   3.387   2.471 -0.2865 -0.1273 -0.1087
 6916SOL    HW132207   1.145   3.342   2.391  1.5429  0.3523  0.2603
 6916SOL    HW232208   1.029   3.350   2.472 -0.9435  1.4655  0.4249
 6917SOL     OW32209   0.630   3.086   6.522  0.0603  0.1841 -0.4724
 6917SOL    HW132210   0.550   3.094   6.469  0.0601  0.1585 -0.4764
 6917SOL    HW232211   0.680   3.149   6.471 -1.2262  1.6687  0.0810
 6918SOL     OW32212   0.298   2.735   9.806  0.0857 -0.0089 -0.0856
 6918SOL    HW132213   0.219   2.681   9.805 -0.3567  0.6424 -0.1054
 6918SOL    HW232214   0.292   2.768   9.896 -0.7501 -2.1163  0.6317
 6919SOL     OW32215   2.859   0.472   3.811  0.1494  0.2223  0.0574
 6919SOL    HW132216   2.953   0.465   3.821  0.2533 -0.1260 -1.1402
 6919SOL    HW232217   2.835   0.457   3.902 -1.6703 -2.0275 -0.7912
 6920SOL     OW32218   1.778   1.111   3.913 -0.3990 -0.1920  0.5448
 6920SOL    HW132219   1.831   1.149   3.843  0.4357 -2.4406 -0.0493
 6920SOL    HW232220   1.827   1.134   3.992 -3.2494  2.2338  1.5846
 6921SOL     OW32221   4.348   3.701   7.192 -0.9632  0.0461 -0.0361
 6921SOL    HW132222   4.294   3.764   7.143  1.4526  2.4541  0.3816
 6921SOL    HW232223   4.393   3.653   7.123 -2.3378 -0.0885 -0.8308
 6922SOL     OW32224   2.754   1.539   8.647 -0.4898 -0.5810 -0.2613
 6922SOL    HW132225   2.746   1.633   8.627 -3.2430 -1.1276 -1.7384
 6922SOL    HW232226   2.828   1.506   8.597  1.3787  1.7593  0.9761
 6923SOL     OW32227   3.331   1.230   0.254  0.0314 -0.2475 -0.0762
 6923SOL    HW132228   3.335   1.134   0.264  3.3667  0.0286  1.3995
 6923SOL    HW232229   3.264   1.254   0.318  1.6746  0.5801  1.3091
 6924SOL     OW32230   0.352   4.640   6.467 -0.0865 -0.3149  0.0410
 6924SOL    HW132231   0.427   4.671   6.417 -1.0070  0.5473 -0.8072
 6924SOL    HW232232   0.359   4.546   6.450 -1.7527 -0.6445  1.1814
 6925SOL     OW32233   1.033   4.610  15.728 -0.1558  0.2988  0.4918
 6925SOL    HW132234   0.986   4.573  15.653  2.3306 -2.9493  0.5203
 6925SOL    HW232235   1.038   4.698  15.693 -0.7773  0.3461  0.5183
 6926SOL     OW32236   0.103   3.355   6.543  0.1437 -0.0475  0.3564
 6926SOL    HW132237   0.157   3.276   6.546 -0.8595 -0.6783  1.6266
 6926SOL    HW232238   0.046   3.336   6.617  1.2132 -0.6482  1.0320
 6927SOL     OW32239   0.106   3.016  15.267  0.1733 -0.3110  0.0793
 6927SOL    HW132240   0.151   3.053  15.343 -0.2621 -1.7091  1.0157
 6927SOL    HW232241   0.022   2.990  15.305 -0.4882 -0.2087 -1.3172
 6928SOL     OW32242   4.612   2.982   9.088  0.0455 -0.5475  0.4190
 6928SOL    HW132243   4.689   2.931   9.115 -0.0390 -0.2375  1.2518
 6928SOL    HW232244   4.565   2.914   9.041  1.3994 -0.1219 -1.5392
 6929SOL     OW32245   2.561   2.338   0.568  0.5704  0.6612 -0.3152
 6929SOL    HW132246   2.571   2.388   0.650  0.2411 -1.5448  1.0837
 6929SOL    HW232247   2.640   2.283   0.567 -1.0212 -1.6528  0.6154
 6930SOL     OW32248   3.107   2.744  12.977 -0.3176  0.0321  0.2677
 6930SOL    HW132249   3.027   2.785  13.011  0.7903  1.1920  1.5120
 6930SOL    HW232250   3.152   2.731  13.060 -1.0649  0.8983  0.8184
 6931SOL     OW32251   0.078   1.108   8.227  0.3142  0.5184  0.0060
 6931SOL    HW132252   0.097   1.112   8.320  1.5524 -1.2088 -0.1753
 6931SOL    HW232253   0.063   1.199   8.201  1.2081  0.8301  0.5900
 6932SOL     OW32254   3.406   0.114   3.659  0.3849 -0.2600 -0.1820
 6932SOL    HW132255   3.453   0.106   3.576  0.2900 -1.6367 -0.1054
 6932SOL    HW232256   3.424   0.030   3.701 -2.1598 -0.3812  0.6577
 6933SOL     OW32257   3.681   1.658   8.799  0.0868 -0.0932 -0.4606
 6933SOL    HW132258   3.682   1.750   8.774  1.1941 -0.2111 -0.8241
 6933SOL    HW232259   3.628   1.620   8.729 -0.5281 -1.9954  1.0382
 6934SOL     OW32260   2.980   1.731   7.732 -0.0391 -0.6175 -0.2656
 6934SOL    HW132261   3.017   1.780   7.805  2.4238 -2.9492  0.0078
 6934SOL    HW232262   3.058   1.677   7.721  0.3835 -0.0589 -0.0229
 6935SOL     OW32263   0.552   1.832  11.267 -0.2683 -0.1949  0.3260
 6935SOL    HW132264   0.578   1.924  11.258 -1.6274  0.0060 -1.4077
 6935SOL    HW232265   0.618   1.795  11.209  1.6516  1.2624  1.5637
 6936SOL     OW32266   2.779   2.716   8.841 -0.1150 -0.0576  0.3534
 6936SOL    HW132267   2.787   2.699   8.935 -1.4403  0.5859  0.5730
 6936SOL    HW232268   2.847   2.782   8.825 -1.2544  1.2984  1.1120
 6937SOL     OW32269   1.852   2.333  16.835 -0.1685 -0.1977 -0.3049
 6937SOL    HW132270   1.859   2.406  16.775 -0.6955  1.4595  1.6327
 6937SOL    HW232271   1.938   2.325  16.876  0.2167 -0.9491 -1.2662
 6938SOL     OW32272   4.636   4.156   8.148  0.4354 -0.3597 -0.3186
 6938SOL    HW132273   4.666   4.079   8.196 -1.0685 -2.1553 -2.2303
 6938SOL    HW232274   4.670   4.216   8.215 -1.2850 -2.0441  2.0639
 6939SOL     OW32275   0.162   2.554  16.764  0.8936  0.5094  0.2779
 6939SOL    HW132276   0.144   2.648  16.766  0.1932  0.4174 -1.1001
 6939SOL    HW232277   0.170   2.532  16.671 -0.5243 -0.7807  0.4396
 6940SOL     OW32278   3.897   3.779   3.524  0.7898  0.2762  0.4486
 6940SOL    HW132279   3.854   3.837   3.461  2.7160  0.8125 -0.3828
 6940SOL    HW232280   3.827   3.733   3.570 -0.3410  1.0802 -0.4716
 6941SOL     OW32281   4.681   1.316   5.384 -0.6810  0.1701  0.1643
 6941SOL    HW132282   4.669   1.312   5.479  0.5716 -1.4261  0.2531
 6941SOL    HW232283   4.598   1.343   5.346 -0.3907 -2.0932 -2.0284
 6942SOL     OW32284   0.515   0.426   5.562  0.5060  0.4858 -0.2538
 6942SOL    HW132285   0.427   0.402   5.591 -1.5407  4.8183 -2.8950
 6942SOL    HW232286   0.497   0.510   5.521  0.6010 -0.2504 -1.7870
 6943SOL     OW32287   1.643   2.136   8.409  0.2273 -0.8770  0.9914
 6943SOL    HW132288   1.617   2.200   8.343 -0.0912 -2.0521 -0.0240
 6943SOL    HW232289   1.720   2.091   8.374 -0.4777 -1.6206  0.3960
 6944SOL     OW32290   2.422   0.039  14.789 -0.0051  0.0002  0.0396
 6944SOL    HW132291   2.398   0.130  14.804  1.8261  0.6394 -0.8918
 6944SOL    HW232292   2.459   0.049  14.701  3.7229 -1.0886  1.4569
 6945SOL     OW32293   2.876   0.931   4.547 -0.2868 -0.0877  0.5201
 6945SOL    HW132294   2.815   0.938   4.621 -0.4849  0.4471  0.3039
 6945SOL    HW232295   2.820   0.952   4.472  0.8230 -0.5360 -0.4298
 6946SOL     OW32296   4.445   1.698  11.155  0.0021 -0.2276 -0.2413
 6946SOL    HW132297   4.390   1.738  11.222 -1.5991 -1.9660 -0.5099
 6946SOL    HW232298   4.384   1.687  11.082  1.6786  2.0404 -1.9442
 6947SOL     OW32299   0.688   0.720  14.008 -0.4331 -0.3972  0.7905
 6947SOL    HW132300   0.645   0.712  14.093 -0.6465 -1.3573  0.5871
 6947SOL    HW232301   0.677   0.634  13.968 -1.0007 -0.5233  1.2170
 6948SOL     OW32302   2.164   4.234   5.634 -0.0517  0.1420  0.2709
 6948SOL    HW132303   2.182   4.176   5.708 -0.4469  0.8873  0.9489
 6948SOL    HW232304   2.103   4.176   5.589  0.0532  1.6242 -1.7478
 6949SOL     OW32305   0.631   1.449   5.017  0.6417 -0.0225 -0.8281
 6949SOL    HW132306   0.712   1.404   5.040  0.3657 -0.2671 -0.3416
 6949SOL    HW232307   0.644   1.526   5.072  0.4184 -0.0891 -0.6806
 6950SOL     OW32308   3.100   0.312  17.142  0.8109  0.1431 -0.1833
 6950SOL    HW132309   3.065   0.246  17.082  0.1108  0.6962 -0.3891
 6950SOL    HW232310   3.141   0.264  17.213 -1.1385 -0.1822  0.7141
 6951SOL     OW32311   2.286   1.556  12.008 -0.3886  0.4475  0.1697
 6951SOL    HW132312   2.279   1.563  11.912 -1.5337 -0.1920  0.1979
 6951SOL    HW232313   2.319   1.644  12.022  1.1178  0.2889 -2.3332
 6952SOL     OW32314   3.160   0.237   2.700  0.0551  0.3138  0.4792
 6952SOL    HW132315   3.113   0.157   2.674  1.5320 -0.8573  1.3904
 6952SOL    HW232316   3.163   0.279   2.614 -0.7427  0.5673  0.5748
 6953SOL     OW32317   3.444   2.150  11.897  0.3275  0.7144 -0.5894
 6953SOL    HW132318   3.387   2.151  11.974  1.3804 -2.0121  0.2293
 6953SOL    HW232319   3.521   2.193  11.935 -0.5951  2.3977 -0.6642
 6954SOL     OW32320   1.628   3.926   3.323 -0.7421 -0.4623  0.3543
 6954SOL    HW132321   1.534   3.931   3.304 -0.9142 -0.6122  1.1716
 6954SOL    HW232322   1.642   3.903   3.415  0.6166 -1.1735 -0.0287
 6955SOL     OW32323   4.318   1.758   0.029  0.0832  0.1097  0.3085
 6955SOL    HW132324   4.321   1.677   0.080 -0.5045 -0.7213 -0.9706
 6955SOL    HW232325   4.409   1.784   0.036  0.1978 -1.4513  4.2613
 6956SOL     OW32326   3.135   2.433  12.136  0.1082 -0.1005 -0.9730
 6956SOL    HW132327   3.061   2.491  12.114  0.5071  0.5575 -0.5902
 6956SOL    HW232328   3.100   2.397  12.218  1.4861  0.9014  0.0544
 6957SOL     OW32329   3.176   3.215   4.981  0.5539 -0.0211 -0.3950
 6957SOL    HW132330   3.177   3.120   4.981 -0.9097 -0.0433 -0.4421
 6957SOL    HW232331   3.187   3.227   5.076  1.2170  0.8498 -0.5820
 6958SOL     OW32332   4.197   1.741   2.973  0.4252 -0.6342  0.1503
 6958SOL    HW132333   4.184   1.762   2.881 -3.3144 -1.5224  0.4646
 6958SOL    HW232334   4.159   1.653   2.977  0.3020 -0.6629 -1.9386
 6959SOL     OW32335   1.725   1.232   0.938  0.1222 -0.0624 -0.4159
 6959SOL    HW132336   1.743   1.251   0.846 -0.3884  1.8641 -0.1153
 6959SOL    HW232337   1.708   1.320   0.971  0.1283  1.2432 -3.9207
 6960SOL     OW32338   3.356   2.009  16.983  0.0196 -0.2338  0.0226
 6960SOL    HW132339   3.322   2.083  16.933 -1.0827  0.4372  1.7840
 6960SOL    HW232340   3.425   1.978  16.923 -1.1826 -1.1809 -0.8639
 6961SOL     OW32341   1.373   1.677   2.172 -0.0598 -0.0832 -0.0376
 6961SOL    HW132342   1.379   1.605   2.235  0.2870  0.5148  0.6098
 6961SOL    HW232343   1.395   1.756   2.222 -0.6423 -0.7158  1.2249
 6962SOL     OW32344   4.671   2.067   5.309 -0.1516  0.6523 -0.8279
 6962SOL    HW132345   0.012   2.024   5.366 -1.9851 -0.5468  0.3053
 6962SOL    HW232346   4.645   2.144   5.359 -0.0485  0.2210 -0.1134
 6963SOL     OW32347   1.837   2.336   3.369  0.4311 -0.2685 -0.1921
 6963SOL    HW132348   1.752   2.296   3.385  0.7524 -0.4474  1.0753
 6963SOL    HW232349   1.826   2.379   3.284 -2.1426  1.3128  0.9280
 6964SOL     OW32350   1.364   0.746   3.183 -0.1084 -0.1147 -0.1877
 6964SOL    HW132351   1.385   0.788   3.267  2.8255  0.6614 -1.2955
 6964SOL    HW232352   1.334   0.819   3.128 -1.6653 -0.7418 -0.1523
 6965SOL     OW32353   3.735   4.493  11.401 -0.0034 -0.4042  0.1215
 6965SOL    HW132354   3.738   4.579  11.359 -2.6613 -0.1978  0.3502
 6965SOL    HW232355   3.715   4.437  11.327  1.3245 -1.0858  0.2793
 6966SOL     OW32356   3.365   0.837   3.365 -0.2473 -0.0252  0.2947
 6966SOL    HW132357   3.385   0.802   3.452  0.8076  0.5437  0.2846
 6966SOL    HW232358   3.346   0.758   3.315 -1.1698 -1.3586  2.7707
 6967SOL     OW32359   4.128   1.812   5.464 -0.0830 -0.1691 -0.0209
 6967SOL    HW132360   4.210   1.861   5.457  0.2037 -0.4790  1.1158
 6967SOL    HW232361   4.151   1.748   5.397  0.7084  0.8628 -0.7446
 6968SOL     OW32362   3.427   3.635   4.959 -0.0225  0.2339  0.6457
 6968SOL    HW132363   3.399   3.710   5.012  0.5676 -0.5647  2.0647
 6968SOL    HW232364   3.349   3.579   4.965  0.8858 -1.1066 -0.0321
 6969SOL     OW32365   1.611   4.398   3.177  0.2118 -0.3278  0.2209
 6969SOL    HW132366   1.539   4.377   3.236 -0.5903  0.7970 -0.3750
 6969SOL    HW232367   1.680   4.337   3.205 -0.0253 -0.8136 -0.2722
 6970SOL     OW32368   2.898   4.454   5.747 -0.3878  0.6888 -0.2107
 6970SOL    HW132369   2.900   4.398   5.825  1.8676  1.4933  0.3084
 6970SOL    HW232370   2.826   4.415   5.698 -0.3528 -0.3579  0.5705
 6971SOL     OW32371   0.322   3.577   2.848 -0.0879 -1.0405 -0.0235
 6971SOL    HW132372   0.242   3.552   2.803 -1.0450  1.0205  0.5379
 6971SOL    HW232373   0.296   3.540   2.933 -0.2671  1.7605  1.1458
 6972SOL     OW32374   3.789   3.016   7.348 -0.3030  0.1044 -0.3758
 6972SOL    HW132375   3.707   3.026   7.397  1.0199  1.6013  1.5341
 6972SOL    HW232376   3.777   2.942   7.289  1.9975  1.6786 -2.8115
 6973SOL     OW32377   3.446   1.733   7.706 -0.4688 -0.1238  0.3312
 6973SOL    HW132378   3.489   1.809   7.744  0.3634 -0.5843  0.3187
 6973SOL    HW232379   3.512   1.663   7.702 -2.1962 -1.7136 -0.3474
 6974SOL     OW32380   3.921   4.198   0.853 -0.4127 -0.3196  0.4514
 6974SOL    HW132381   3.929   4.292   0.868 -0.2512 -0.6559  2.4246
 6974SOL    HW232382   3.838   4.179   0.897 -0.4130 -0.9316  0.1966
 6975SOL     OW32383   0.173   1.736   4.319  0.6774  0.3623 -0.2610
 6975SOL    HW132384   0.194   1.673   4.388 -1.5174  0.6239  0.6597
 6975SOL    HW232385   0.078   1.740   4.331  0.8134 -0.1677  0.9797
 6976SOL     OW32386   2.587   1.484   8.426 -0.1076 -0.4356 -0.3186
 6976SOL    HW132387   2.575   1.391   8.405  0.9705 -0.8064  0.7608
 6976SOL    HW232388   2.651   1.482   8.496  0.2750 -1.0138 -0.6881
 6977SOL     OW32389   0.651   0.754   4.876 -0.6346 -0.2699 -0.3364
 6977SOL    HW132390   0.623   0.845   4.865  2.6074  0.5139 -1.9339
 6977SOL    HW232391   0.642   0.742   4.971  0.9308  1.7345  0.0683
 6978SOL     OW32392   1.812   1.764   4.152  0.2790  0.0157 -0.4498
 6978SOL    HW132393   1.750   1.711   4.102 -0.1968  0.3999 -0.2795
 6978SOL    HW232394   1.756   1.842   4.150 -0.0753 -0.2585 -1.1573
 6979SOL     OW32395   2.520   1.822   1.323  0.4041  0.1902 -0.1298
 6979SOL    HW132396   2.457   1.777   1.267  0.2896  0.7729 -0.4666
 6979SOL    HW232397   2.460   1.889   1.356 -0.2369 -0.3155 -0.2758
 6980SOL     OW32398   1.652   3.296   4.853  0.0700  0.0807  0.4994
 6980SOL    HW132399   1.609   3.380   4.868 -0.2769  0.1491 -0.8146
 6980SOL    HW232400   1.585   3.233   4.825 -2.9670  3.6555 -0.2561
 6981SOL     OW32401   3.832   3.184  14.211  0.5602 -0.0372 -0.3301
 6981SOL    HW132402   3.765   3.133  14.165 -1.9333  3.8716 -0.9909
 6981SOL    HW232403   3.792   3.270  14.223  1.4304  0.6098 -1.9950
 6982SOL     OW32404   3.582   1.016  13.464  0.7652 -0.0435  0.5148
 6982SOL    HW132405   3.605   0.991  13.553 -0.3899  0.0463  0.8411
 6982SOL    HW232406   3.597   0.932  13.420  0.6743  0.7598 -1.0639
 6983SOL     OW32407   1.689   1.462   2.157 -0.4297  0.4903 -1.2477
 6983SOL    HW132408   1.767   1.409   2.142 -0.7282  0.2920 -2.1177
 6983SOL    HW232409   1.728   1.536   2.202  0.1802 -0.7722  0.2925
 6984SOL     OW32410   0.123   0.823   3.848 -0.2272  0.5873  0.4766
 6984SOL    HW132411   0.066   0.781   3.784 -0.0196  1.4824 -0.2937
 6984SOL    HW232412   0.090   0.787   3.931 -0.4882 -2.3999 -0.9271
 6985SOL     OW32413   1.869   1.784   2.647  0.4655 -0.4611  0.0692
 6985SOL    HW132414   1.909   1.700   2.624 -0.4598 -0.7185 -0.5944
 6985SOL    HW232415   1.888   1.796   2.740  0.2489  1.2527 -0.1071
 6986SOL     OW32416   4.373   4.290   3.505 -0.2818  0.3990  0.0690
 6986SOL    HW132417   4.331   4.365   3.548  1.1002  1.3967 -0.3277
 6986SOL    HW232418   4.453   4.292   3.559  0.5116  1.3733 -1.1526
 6987SOL     OW32419   3.180   4.325   2.846  0.0989  0.1087  0.0534
 6987SOL    HW132420   3.131   4.383   2.904 -1.4163 -0.8554 -0.2228
 6987SOL    HW232421   3.270   4.357   2.847 -0.4506  1.7384 -1.3294
 6988SOL     OW32422   4.490   0.445   3.987 -0.6144 -0.5839 -0.6560
 6988SOL    HW132423   4.405   0.441   4.031 -0.5973 -0.3745 -0.6042
 6988SOL    HW232424   4.509   0.357   3.955 -2.7485 -1.4515  0.4156
 6989SOL     OW32425   4.407   3.204  10.590  0.3503  0.0416  0.4912
 6989SOL    HW132426   4.493   3.210  10.630  0.6170 -1.2947  0.1279
 6989SOL    HW232427   4.378   3.294  10.602  2.1353  1.1912 -3.8438
 6990SOL     OW32428   0.833   1.631  12.233 -0.4554  0.0028 -0.4094
 6990SOL    HW132429   0.823   1.726  12.236 -3.0481 -0.3286  0.6719
 6990SOL    HW232430   0.904   1.614  12.295 -1.2034  0.8481  0.6720
 6991SOL     OW32431   4.046   2.719   2.385 -0.1518 -0.0703 -0.1613
 6991SOL    HW132432   4.112   2.701   2.452 -0.0754  0.4619 -0.0950
 6991SOL    HW232433   4.096   2.750   2.310  0.4377 -0.7042 -0.0240
 6992SOL     OW32434   3.846   1.580  15.119  0.1739 -0.1081 -0.1175
 6992SOL    HW132435   3.768   1.525  15.108 -0.2003  0.3788  0.1166
 6992SOL    HW232436   3.910   1.527  15.071  0.8681  1.5146 -1.0159
 6993SOL     OW32437   0.421   2.982   3.464 -0.3673  0.3475  0.1305
 6993SOL    HW132438   0.392   3.065   3.500 -0.4461  0.6146 -0.5603
 6993SOL    HW232439   0.498   3.002   3.410  0.0129 -1.2609  0.0684
 6994SOL     OW32440   1.733   0.037   2.971 -0.0673 -0.0855 -0.3714
 6994SOL    HW132441   1.673   0.049   2.897  0.0316 -0.2230 -0.4735
 6994SOL    HW232442   1.817   0.036   2.925  0.9983 -0.3533  1.6053
 6995SOL     OW32443   3.238   2.197   8.422 -0.1003  0.5387 -0.1896
 6995SOL    HW132444   3.151   2.234   8.407  0.0603  0.0904 -2.1795
 6995SOL    HW232445   3.283   2.277   8.451 -1.3600  0.5733  1.6649
 6996SOL     OW32446   3.483   1.897   3.627 -0.0593 -0.1662 -0.1439
 6996SOL    HW132447   3.511   1.819   3.579  1.6273  0.2294  0.1952
 6996SOL    HW232448   3.387   1.893   3.622  0.0247 -1.1731 -0.9677
 6997SOL     OW32449   2.063   2.401   2.893  0.0060 -0.6136  0.2013
 6997SOL    HW132450   2.033   2.492   2.901  1.6401 -0.1827  1.3158
 6997SOL    HW232451   2.155   2.418   2.871  0.6106 -1.0416  2.3983
 6998SOL     OW32452   2.735   0.946   3.718  0.2650 -0.3176  0.8143
 6998SOL    HW132453   2.749   0.862   3.673  0.3227  1.5636 -2.7182
 6998SOL    HW232454   2.801   0.945   3.787  0.6797  1.4844  0.4386
 6999SOL     OW32455   1.118   0.907   5.132  0.0518  0.0731  0.6723
 6999SOL    HW132456   1.141   0.998   5.149  2.1260 -0.6084  1.4731
 6999SOL    HW232457   1.186   0.888   5.067 -0.1287 -0.7474  0.7215
 7000SOL     OW32458   1.955   1.462   6.417 -0.7054  0.2684  0.5143
 7000SOL    HW132459   1.980   1.404   6.346  1.1482  1.4626  0.2000
 7000SOL    HW232460   1.870   1.498   6.390 -1.4902 -1.0815  1.1476
 7001SOL     OW32461   1.684   2.410   7.518 -0.0175 -0.1661  0.6618
 7001SOL    HW132462   1.741   2.345   7.558  0.7452 -0.6483 -1.1869
 7001SOL    HW232463   1.656   2.361   7.440  1.7012 -0.9381  0.5494
 7002SOL     OW32464   2.811   0.614  17.605 -0.0693 -0.2101 -0.6558
 7002SOL    HW132465   2.858   0.656  17.677  0.9074 -0.2918 -1.2570
 7002SOL    HW232466   2.889   0.577  17.564  0.4214  1.1678 -0.9461
 7003SOL     OW32467   4.672   0.733   3.672 -0.4567 -0.0848  0.5630
 7003SOL    HW132468   4.647   0.726   3.580  0.8385  0.1466  0.1888
 7003SOL    HW232469   4.599   0.693   3.719  0.3439 -0.9261  1.1051
 7004SOL     OW32470   3.717   1.338  14.777  0.3196 -0.5719 -0.8505
 7004SOL    HW132471   3.632   1.374  14.802  0.3709 -1.3843  0.5108
 7004SOL    HW232472   3.722   1.260  14.832 -1.9725 -1.4626 -1.9292
 7005SOL     OW32473   3.125   3.687   6.778 -0.0864 -0.1847  0.2921
 7005SOL    HW132474   3.160   3.747   6.844  1.1076  0.2030 -0.6966
 7005SOL    HW232475   3.160   3.729   6.699 -2.1360  0.4203 -0.2950
 7006SOL     OW32476   2.936   3.588   7.174 -0.4918 -0.0049 -0.4395
 7006SOL    HW132477   2.878   3.553   7.107  0.3371 -0.5630 -0.8676
 7006SOL    HW232478   2.891   3.576   7.257 -0.9272 -1.2847 -0.8638
 7007SOL     OW32479   4.077   3.194  15.615 -0.0026 -0.0695 -0.5336
 7007SOL    HW132480   4.100   3.176  15.523 -0.9808 -3.1310 -0.1550
 7007SOL    HW232481   4.089   3.289  15.622  0.8489 -0.1318 -1.1288
 7008SOL     OW32482   3.997   2.063   5.366 -0.1322 -0.3616  0.2017
 7008SOL    HW132483   4.038   2.007   5.433  0.3115  0.3856  0.5528
 7008SOL    HW232484   4.006   2.150   5.405 -0.4910 -0.5746  0.7518
 7009SOL     OW32485   0.905   0.428  14.327  0.3351 -0.4181 -0.1467
 7009SOL    HW132486   0.981   0.373  14.310  0.8890 -0.0969  1.3289
 7009SOL    HW232487   0.842   0.362  14.355  2.7311 -1.9925  1.4647
 7010SOL     OW32488   1.832   1.065   0.071  0.0193 -0.0554 -0.3868
 7010SOL    HW132489   1.873   1.023   0.147  1.3532  0.5728 -0.7560
 7010SOL    HW232490   1.893   1.134   0.047 -0.7693  1.1471  1.0378
 7011SOL     OW32491   2.277   2.534   7.795  0.1927  0.0196  0.3623
 7011SOL    HW132492   2.305   2.525   7.886 -0.1078 -0.2734  0.4274
 7011SOL    HW232493   2.258   2.628   7.791  1.9316  0.3576  0.0065
 7012SOL     OW32494   0.748   1.532   7.399  0.3439 -0.3776 -0.1578
 7012SOL    HW132495   0.671   1.528   7.456 -0.1927  1.2645 -0.7524
 7012SOL    HW232496   0.746   1.444   7.361 -2.0866 -0.3362 -0.1661
 7013SOL     OW32497   1.454   2.796   1.558  0.6733 -0.4204  0.0360
 7013SOL    HW132498   1.433   2.810   1.650 -0.4273  0.4172 -0.3428
 7013SOL    HW232499   1.492   2.708   1.551 -1.4149 -1.2683 -0.7445
 7014SOL     OW32500   3.222   1.251   6.753  0.8109 -0.3126 -0.1535
 7014SOL    HW132501   3.197   1.341   6.734 -0.0025 -0.5062 -0.0128
 7014SOL    HW232502   3.271   1.222   6.676 -0.2707 -1.8882 -0.2447
 7015SOL     OW32503   0.733   2.779  11.753  0.0182  0.9023 -0.3923
 7015SOL    HW132504   0.709   2.732  11.673  0.2174  2.1505 -1.1871
 7015SOL    HW232505   0.792   2.843  11.714 -0.2776  0.5576 -1.3999
 7016SOL     OW32506   1.165   3.990  14.814 -0.0851 -0.0958 -0.0271
 7016SOL    HW132507   1.234   3.998  14.880  0.1847 -0.0553 -0.3153
 7016SOL    HW232508   1.130   3.906  14.844 -2.3938  1.7460  2.4943
 7017SOL     OW32509   4.692   1.747   5.662  0.2203 -0.3851 -0.5225
 7017SOL    HW132510   0.030   1.817   5.638  0.3902  0.2585  1.8580
 7017SOL    HW232511   4.704   1.693   5.584  0.2714 -1.8631  0.5083
 7018SOL     OW32512   3.484   3.112   3.834  0.0396  0.2901 -0.0718
 7018SOL    HW132513   3.445   3.025   3.837  0.0811  0.2746  0.0288
 7018SOL    HW232514   3.441   3.163   3.903 -0.6908  0.3280 -0.5508
 7019SOL     OW32515   1.109   2.983  15.144  0.3176 -0.0036  0.4108
 7019SOL    HW132516   1.101   3.077  15.127 -0.9035 -0.0705  0.6588
 7019SOL    HW232517   1.159   2.989  15.225 -0.0023  0.4467  0.5696
 7020SOL     OW32518   2.989   4.463   5.138 -0.5043  0.0126  0.0987
 7020SOL    HW132519   3.015   4.406   5.210  0.0701 -0.6166 -0.5996
 7020SOL    HW232520   3.026   4.412   5.066  0.0242  0.7277 -0.1342
 7021SOL     OW32521   3.251   3.922   8.321 -0.5283 -0.1690  0.2561
 7021SOL    HW132522   3.271   3.829   8.336  0.7142  0.3488  1.7815
 7021SOL    HW232523   3.312   3.939   8.249  1.2361  0.2830  1.8771
 7022SOL     OW32524   4.719   0.906   1.741  0.4445 -0.4236 -0.0181
 7022SOL    HW132525   0.020   0.899   1.833  1.8675  0.5153 -0.3144
 7022SOL    HW232526   4.668   0.828   1.721  0.1554 -0.2797  0.1497
 7023SOL     OW32527   3.748   0.395   4.272 -0.1657  0.0365  0.4445
 7023SOL    HW132528   3.689   0.471   4.265 -1.5849 -0.9334  1.8520
 7023SOL    HW232529   3.826   0.427   4.227  0.7912 -1.9640  0.6916
 7024SOL     OW32530   0.023   3.721   5.244 -0.5484 -0.1274 -0.2292
 7024SOL    HW132531   0.101   3.670   5.267 -0.5263  1.0211  2.2303
 7024SOL    HW232532   4.689   3.724   5.321 -2.2809  0.9125 -1.5379
 7025SOL     OW32533   3.920   3.905   5.541 -0.5443  0.0038  0.3095
 7025SOL    HW132534   3.876   3.942   5.617  1.4909  3.0106  0.0675
 7025SOL    HW232535   3.846   3.891   5.483 -1.9349  2.3123  1.5303
 7026SOL     OW32536   3.591   4.337   6.663  0.3414 -0.2341  0.0984
 7026SOL    HW132537   3.579   4.427   6.694  0.1065  0.8236 -3.0771
 7026SOL    HW232538   3.577   4.289   6.745  1.7087 -0.9850 -0.1163
 7027SOL     OW32539   2.713   4.342   9.304 -0.3687 -0.0648 -0.4575
 7027SOL    HW132540   2.670   4.269   9.349 -0.8654  1.2356  1.1908
 7027SOL    HW232541   2.646   4.401   9.271 -0.9827 -1.5197 -1.7809
 7028SOL     OW32542   2.259   2.986   4.787  0.2795 -0.1723 -0.1459
 7028SOL    HW132543   2.183   3.034   4.753  0.4720 -0.3870 -0.8751
 7028SOL    HW232544   2.240   2.970   4.880 -0.1340 -0.1810 -0.2302
 7029SOL     OW32545   4.493   0.993  13.546  0.3021 -0.3665  0.5584
 7029SOL    HW132546   4.437   1.045  13.603  1.0504  0.6251  0.3965
 7029SOL    HW232547   4.547   1.069  13.522 -0.9234  0.7609  1.4263
 7030SOL     OW32548   0.782   0.730   4.231 -0.3665 -0.9295  0.0922
 7030SOL    HW132549   0.715   0.669   4.199 -1.0039  0.8164 -1.8820
 7030SOL    HW232550   0.766   0.813   4.187  1.5815  0.2356  1.5935
 7031SOL     OW32551   3.636   2.500   8.068 -0.2690 -0.0762  0.0475
 7031SOL    HW132552   3.580   2.577   8.066 -0.2875 -0.1300 -2.3354
 7031SOL    HW232553   3.679   2.528   7.987 -0.0451  1.0785  0.5754
 7032SOL     OW32554   4.713   3.748  12.594 -0.1554 -0.1940 -0.0081
 7032SOL    HW132555   4.715   3.736  12.499  1.1739  0.1210 -0.0078
 7032SOL    HW232556   0.076   3.790  12.603 -0.1568  0.3090 -2.2811
 7033SOL     OW32557   2.470   2.103  14.858 -0.0823 -0.2859 -0.2100
 7033SOL    HW132558   2.428   2.176  14.814 -0.1122 -0.9338 -1.2378
 7033SOL    HW232559   2.491   2.047  14.783 -0.4499 -0.0523 -0.4812
 7034SOL     OW32560   4.166   1.592   3.798 -0.1024  0.1552 -0.0808
 7034SOL    HW132561   4.181   1.687   3.794 -3.4980  0.7039  0.5023
 7034SOL    HW232562   4.250   1.556   3.768 -0.2865 -0.0773 -0.3122
 7035SOL     OW32563   1.925   2.637   7.643 -0.4306 -0.4408 -0.2353
 7035SOL    HW132564   1.888   2.587   7.570 -1.8467 -0.1331  0.2788
 7035SOL    HW232565   2.003   2.680   7.608  0.8217 -0.9218  1.9418
 7036SOL     OW32566   0.786   4.300   5.971  0.1348 -0.5614 -0.3117
 7036SOL    HW132567   0.746   4.353   5.903  2.1353  1.3081 -0.0063
 7036SOL    HW232568   0.716   4.290   6.035  1.4686  1.8660  1.5248
 7037SOL     OW32569   1.580   2.548  16.621 -0.0560 -0.2626 -0.2487
 7037SOL    HW132570   1.559   2.518  16.533 -1.6533 -2.0038  0.6980
 7037SOL    HW232571   1.671   2.576  16.617 -0.6526  1.5931 -0.9266
 7038SOL     OW32572   3.010   2.797   6.714 -0.2458 -0.2491  0.1888
 7038SOL    HW132573   2.992   2.734   6.783  0.4201  0.2035  0.7821
 7038SOL    HW232574   2.970   2.751   6.640 -0.1480 -0.7235  0.4358
 7039SOL     OW32575   0.024   3.781  17.348 -0.2429 -0.3673  0.2121
 7039SOL    HW132576   0.058   3.766  17.437  1.1894  0.0390 -0.2636
 7039SOL    HW232577   0.096   3.814  17.295  0.0465  2.7693  2.5723
 7040SOL     OW32578   4.702   3.377  11.064 -0.1693  0.1300 -0.1469
 7040SOL    HW132579   0.018   3.459  11.032  1.2375  0.4220  2.3565
 7040SOL    HW232580   4.623   3.407  11.110  0.0741  0.4440  0.0644
 7041SOL     OW32581   3.415   2.863   5.079 -0.0468  0.1195  0.2271
 7041SOL    HW132582   3.379   2.890   5.163  0.6369  0.4125  0.4213
 7041SOL    HW232583   3.486   2.811   5.119  0.3478  1.0036  0.6745
 7042SOL     OW32584   4.040   2.336   2.516 -0.3199  0.0660  0.3812
 7042SOL    HW132585   3.964   2.304   2.564  0.4042 -3.5771 -0.8473
 7042SOL    HW232586   4.045   2.426   2.548  0.5513  0.2336 -0.1967
 7043SOL     OW32587   4.339   3.252   8.356  0.5168  0.6524 -0.0572
 7043SOL    HW132588   4.314   3.257   8.448 -0.3067 -2.1584 -0.1308
 7043SOL    HW232589   4.406   3.184   8.362 -0.8556 -0.2443  4.8211
 7044SOL     OW32590   2.910   3.476   6.708 -0.2092  0.5747  0.0670
 7044SOL    HW132591   2.924   3.393   6.754 -1.9825  1.2165  1.7534
 7044SOL    HW232592   2.969   3.534   6.756  1.9968 -0.0732 -1.8640
 7045SOL     OW32593   4.430   2.369   8.326  0.4562 -0.0740  0.0879
 7045SOL    HW132594   4.388   2.346   8.409  0.6232 -1.2306 -0.1506
 7045SOL    HW232595   4.491   2.295   8.323 -0.5681 -0.9858  2.3875
 7046SOL     OW32596   2.958   3.670  16.431  0.6409  0.4703  0.5741
 7046SOL    HW132597   2.892   3.737  16.417 -1.3078 -1.2343  1.5587
 7046SOL    HW232598   2.898   3.595  16.430 -0.2031  1.1386  0.6310
 7047SOL     OW32599   0.961   2.503   8.871 -0.3641 -0.0109  0.4703
 7047SOL    HW132600   0.893   2.496   8.803 -0.2287 -1.4495  0.4912
 7047SOL    HW232601   1.037   2.524   8.816  0.7431 -1.8159  1.3199
 7048SOL     OW32602   0.507   2.737   4.544 -0.3215  0.4756  0.7890
 7048SOL    HW132603   0.450   2.718   4.469  1.2479 -1.9303  0.1987
 7048SOL    HW232604   0.477   2.664   4.597 -1.7183  1.3971  1.2505
 7049SOL     OW32605   4.116   3.754   9.589 -0.5937  0.1475  0.2345
 7049SOL    HW132606   4.090   3.782   9.501 -2.7774  1.0087  1.1375
 7049SOL    HW232607   4.111   3.841   9.629 -0.3135  0.2529  0.0353
 7050SOL     OW32608   1.302   2.012  13.142 -0.0104  0.4350  0.0404
 7050SOL    HW132609   1.377   1.958  13.167 -0.3993  0.0428  0.3528
 7050SOL    HW232610   1.338   2.064  13.070  2.8334  0.2143  1.3077
 7051SOL     OW32611   2.926   2.415   6.170  0.4304  0.8223  0.4041
 7051SOL    HW132612   2.892   2.503   6.189 -1.2094  0.1614  0.5495
 7051SOL    HW232613   2.933   2.375   6.256  0.1021  0.3387  0.2086
 7052SOL     OW32614   0.921   0.882   9.669  0.3910  0.0537  0.3134
 7052SOL    HW132615   0.921   0.817   9.599  0.2127  0.1919  0.1818
 7052SOL    HW232616   0.962   0.842   9.745  1.1345 -0.3129 -0.2816
 7053SOL     OW32617   4.658   1.577   0.803 -0.2641  0.6904 -0.2872
 7053SOL    HW132618   4.613   1.657   0.829  1.6800  2.2482 -1.6715
 7053SOL    HW232619   0.024   1.600   0.831  0.5830  0.5592 -2.8254
 7054SOL     OW32620   3.572   2.446  13.272  0.6765  0.2942 -0.2435
 7054SOL    HW132621   3.543   2.363  13.311 -0.0734  0.1707 -1.0617
 7054SOL    HW232622   3.549   2.430  13.181  0.8601 -0.3913 -0.1734
 7055SOL     OW32623   0.177   3.033   8.370  0.3053 -0.3034  0.0526
 7055SOL    HW132624   0.147   3.122   8.392  0.0973 -0.1233 -0.9707
 7055SOL    HW232625   0.108   2.975   8.402 -1.2028  0.9202 -0.9847
 7056SOL     OW32626   0.356   3.627   1.712 -0.0343  0.1182 -0.4814
 7056SOL    HW132627   0.318   3.709   1.683 -2.7130 -0.7335  0.5731
 7056SOL    HW232628   0.421   3.627   1.642  1.0775 -0.2240  0.5494
 7057SOL     OW32629   1.574   1.391  12.893  0.1763 -0.2989 -0.1006
 7057SOL    HW132630   1.486   1.426  12.909  0.2193  0.3213 -1.1841
 7057SOL    HW232631   1.618   1.475  12.880  0.3016  0.0059  2.3134
 7058SOL     OW32632   3.905   3.580   8.961 -0.5529 -0.0657  0.7973
 7058SOL    HW132633   3.855   3.564   8.881 -0.8911 -1.4821  1.3053
 7058SOL    HW232634   3.845   3.545   9.026  0.9174 -0.1873  2.0952
 7059SOL     OW32635   3.550   4.318   4.793 -0.1559 -0.0307 -0.2910
 7059SOL    HW132636   3.635   4.361   4.809  0.1074 -0.2360 -1.1175
 7059SOL    HW232637   3.524   4.370   4.717 -1.9880 -0.7277 -0.1370
 7060SOL     OW32638   3.553   1.099  16.454 -0.6002 -0.0043 -0.1191
 7060SOL    HW132639   3.521   1.182  16.487  2.0200  0.5306  1.0919
 7060SOL    HW232640   3.545   1.107  16.359  1.2827 -0.8254 -0.3533
 7061SOL     OW32641   2.456   4.546  10.149 -0.3763 -0.5262  0.0754
 7061SOL    HW132642   2.370   4.510  10.128 -0.5584 -0.6844  1.0538
 7061SOL    HW232643   2.511   4.470  10.131  0.3491  0.6254 -2.4923
 7062SOL     OW32644   4.267   0.733   6.166  0.3839 -0.2104 -0.3549
 7062SOL    HW132645   4.328   0.806   6.169 -2.3446  2.0778  0.0572
 7062SOL    HW232646   4.221   0.755   6.085 -2.0317  1.5202  1.4957
 7063SOL     OW32647   1.069   2.547   7.553 -0.4911  0.2050  0.0459
 7063SOL    HW132648   0.985   2.534   7.509 -0.1313  1.6912 -1.0871
 7063SOL    HW232649   1.133   2.512   7.491 -1.2147 -0.6859 -0.2026
 7064SOL     OW32650   3.420   2.260   4.395 -0.1462 -0.8128 -0.0055
 7064SOL    HW132651   3.364   2.217   4.459 -0.3344  0.0547  0.4066
 7064SOL    HW232652   3.417   2.350   4.427 -1.4909 -1.5219  1.8719
 7065SOL     OW32653   0.432   4.196   4.144 -0.2109  0.4619 -0.2047
 7065SOL    HW132654   0.341   4.169   4.126 -0.0740  0.0065 -0.2239
 7065SOL    HW232655   0.477   4.153   4.071 -1.3462 -1.8719  0.4818
 7066SOL     OW32656   0.665   0.078   3.553  0.8241 -0.2020  0.0605
 7066SOL    HW132657   0.705   0.082   3.466  0.7918  0.8573  0.0956
 7066SOL    HW232658   0.703   0.158   3.589 -0.4352  0.0984  0.7369
 7067SOL     OW32659   4.502   2.226   1.436  0.0590 -0.0319 -0.6715
 7067SOL    HW132660   4.548   2.161   1.383 -0.7846  0.1978 -1.6622
 7067SOL    HW232661   4.449   2.171   1.494 -1.6961  4.1197  1.7174
 7068SOL     OW32662   1.989   3.448   4.654  0.1256 -0.0324 -0.3446
 7068SOL    HW132663   1.982   3.400   4.571 -1.1587  0.0155 -0.2616
 7068SOL    HW232664   2.043   3.397   4.714 -0.5114  0.6054  0.7813
 7069SOL     OW32665   3.060   2.133   3.690  0.1644  0.3274 -0.2759
 7069SOL    HW132666   3.129   2.070   3.713  0.0188  0.0146 -0.6939
 7069SOL    HW232667   3.114   2.210   3.670  1.0780  0.5773  3.1722
 7070SOL     OW32668   4.694   0.059   2.392 -0.0123 -0.3321  0.4245
 7070SOL    HW132669   4.674   4.706   2.447  0.3666  0.0137  1.0270
 7070SOL    HW232670   0.034   0.014   2.334  0.3549  0.3085  0.3320
 7071SOL     OW32671   3.390   1.897  10.542 -0.4516 -0.2653 -0.3037
 7071SOL    HW132672   3.458   1.944  10.590 -0.6219  0.7275 -1.0404
 7071SOL    HW232673   3.306   1.924  10.579 -0.6043 -2.7587  1.1765
 7072SOL     OW32674   0.505   1.058   3.491  0.1823 -0.3111 -0.2798
 7072SOL    HW132675   0.476   0.977   3.534  1.0311 -0.8037 -0.6195
 7072SOL    HW232676   0.527   1.112   3.567 -2.2480 -0.8349  0.8036
 7073SOL     OW32677   0.937   3.749  16.047  0.1087 -0.4271  0.1992
 7073SOL    HW132678   0.882   3.827  16.041 -1.9615 -1.9704 -0.8707
 7073SOL    HW232679   0.951   3.733  16.140  0.7287 -2.3398 -0.2206
 7074SOL     OW32680   2.965   1.454   9.067  0.5273  0.1734 -0.1985
 7074SOL    HW132681   3.029   1.484   9.131  0.4116  1.7529 -0.8220
 7074SOL    HW232682   2.899   1.524   9.068  2.1784  1.7073  1.5621
 7075SOL     OW32683   2.984   4.629   8.916  0.3166  0.3979  0.2793
 7075SOL    HW132684   3.050   4.578   8.867 -1.8922 -0.2225 -2.0389
 7075SOL    HW232685   2.916   4.658   8.855  0.6419  1.9973  0.6602
 7076SOL     OW32686   0.908   1.611   1.135  0.0806  0.4477  0.9197
 7076SOL    HW132687   0.956   1.693   1.135 -0.4756  0.7813  1.8520
 7076SOL    HW232688   0.959   1.546   1.086  1.5313  1.8168  0.6543
 7077SOL     OW32689   3.267   3.328   8.965  0.1830 -0.5698 -0.0297
 7077SOL    HW132690   3.310   3.358   8.885  1.9890  3.8584  2.5836
 7077SOL    HW232691   3.279   3.234   8.954 -1.8539 -0.8605  0.2604
 7078SOL     OW32692   3.732   3.611   7.053  0.1824  0.3275 -0.3340
 7078SOL    HW132693   3.783   3.531   7.039  0.7136  0.7407 -0.7192
 7078SOL    HW232694   3.643   3.577   7.040  0.6688 -1.0459 -0.0707
 7079SOL     OW32695   1.145   4.310   7.910  0.6541 -0.2987  0.6437
 7079SOL    HW132696   1.234   4.295   7.878  0.5012 -1.4293  0.7351
 7079SOL    HW232697   1.156   4.405   7.904  1.2104 -0.3163  1.3561
 7080SOL     OW32698   1.266   0.897   8.851  0.3723 -0.1931  0.6156
 7080SOL    HW132699   1.335   0.942   8.900 -0.1128  0.4306  0.7208
 7080SOL    HW232700   1.281   0.808   8.881 -1.5493  0.1193  2.5024
 7081SOL     OW32701   0.491   1.164   6.813 -0.5257  0.2130  0.5171
 7081SOL    HW132702   0.455   1.178   6.901 -0.7382  0.0897  0.4517
 7081SOL    HW232703   0.553   1.236   6.804  1.6147 -1.6980 -0.1042
 7082SOL     OW32704   2.802   2.723   3.895  0.0641 -0.1086 -0.2090
 7082SOL    HW132705   2.736   2.679   3.842 -0.1782  0.8084 -0.6721
 7082SOL    HW232706   2.858   2.773   3.835 -1.8163  2.5877  0.3073
 7083SOL     OW32707   3.749   0.918   5.458 -0.3436 -0.2128 -0.1222
 7083SOL    HW132708   3.778   0.850   5.519 -0.9277 -0.5701 -0.2427
 7083SOL    HW232709   3.669   0.944   5.504  0.6606  3.2908 -0.3742
 7084SOL     OW32710   2.239   4.541   0.364 -0.3662 -0.2190 -0.4015
 7084SOL    HW132711   2.319   4.590   0.382 -1.2091  1.1950 -0.4495
 7084SOL    HW232712   2.185   4.564   0.440 -0.5047 -0.7005 -0.3569
 7085SOL     OW32713   2.917   0.847  12.095 -0.1090  0.5565  0.0065
 7085SOL    HW132714   2.862   0.902  12.040 -1.3712 -0.8255 -0.1180
 7085SOL    HW232715   2.956   0.919  12.144  0.7752  0.1610 -0.1125
 7086SOL     OW32716   2.632   1.854   0.371  0.2368 -0.3987  0.1500
 7086SOL    HW132717   2.614   1.761   0.357  1.2869 -0.4042 -1.1801
 7086SOL    HW232718   2.668   1.880   0.286 -0.3181  3.4903  1.1106
 7087SOL     OW32719   1.595   2.011   2.695 -0.1503 -0.5224 -0.8560
 7087SOL    HW132720   1.526   1.957   2.734  1.5683 -1.9427  0.2085
 7087SOL    HW232721   1.636   2.057   2.767 -1.6836 -3.4857  1.9160
 7088SOL     OW32722   1.384   2.126   4.528 -0.3366  0.2382  0.0444
 7088SOL    HW132723   1.313   2.068   4.555 -0.3301 -0.0284 -0.5120
 7088SOL    HW232724   1.341   2.167   4.453  2.2391  1.3814 -0.8003
 7089SOL     OW32725   0.659   0.002   5.670 -0.5561  0.7563  0.3068
 7089SOL    HW132726   0.686   0.060   5.740 -2.0037  1.4983  0.2601
 7089SOL    HW232727   0.714   4.656   5.708 -1.6608 -0.5869 -0.5116
 7090SOL     OW32728   0.775   1.067   4.148 -0.0699 -0.1253 -0.0571
 7090SOL    HW132729   0.842   1.069   4.080 -0.5880  0.0638 -0.5645
 7090SOL    HW232730   0.696   1.075   4.094  0.0189  0.2166 -0.1402
 7091SOL     OW32731   2.281   3.982   5.528  0.1035  0.3312  0.5306
 7091SOL    HW132732   2.281   4.017   5.617  0.5713 -0.2900  0.7687
 7091SOL    HW232733   2.208   3.920   5.532  1.3732 -1.2510 -0.7707
 7092SOL     OW32734   0.847   0.112   4.974  0.3801 -0.0309  0.3108
 7092SOL    HW132735   0.879   0.188   5.023 -0.2565  1.2119 -1.1662
 7092SOL    HW232736   0.866   0.135   4.883  0.3299 -0.1186  0.2779
 7093SOL     OW32737   3.271   3.481   2.721  0.1936  0.0016 -0.2293
 7093SOL    HW132738   3.342   3.545   2.723  1.5130 -1.4418 -1.0507
 7093SOL    HW232739   3.322   3.417   2.672  1.1324 -0.1204  0.9279
 7094SOL     OW32740   1.379   2.171   3.746 -0.4075 -0.3207  0.1160
 7094SOL    HW132741   1.431   2.252   3.747 -0.5048 -0.2857  2.2066
 7094SOL    HW232742   1.439   2.113   3.700  0.2265  0.0940  0.4112
 7095SOL     OW32743   1.439   4.461  13.241  0.5403 -0.2080  0.4078
 7095SOL    HW132744   1.513   4.461  13.181 -2.0840  0.3626 -2.7737
 7095SOL    HW232745   1.433   4.555  13.255 -0.7394  0.1004 -2.3083
 7096SOL     OW32746   3.667   1.110  12.650  0.6484  0.1741  0.2623
 7096SOL    HW132747   3.743   1.157  12.685  1.4472 -0.2416 -0.9493
 7096SOL    HW232748   3.696   1.115  12.559 -1.0097  0.9360 -0.2375
 7097SOL     OW32749   1.921   2.895   2.413  0.6398  0.5809  0.3388
 7097SOL    HW132750   1.947   2.851   2.495 -1.5474  0.9772  1.2266
 7097SOL    HW232751   1.853   2.830   2.393  0.9825  0.7876 -1.4769
 7098SOL     OW32752   3.801   1.256   2.473 -0.0251  0.1769  0.3888
 7098SOL    HW132753   3.741   1.223   2.540  1.1122 -0.5530  1.0555
 7098SOL    HW232754   3.804   1.348   2.502  0.0067  0.2483  0.1569
 7099SOL     OW32755   3.220   1.599   7.768  0.4455 -0.4538 -0.3006
 7099SOL    HW132756   3.308   1.635   7.765  1.2080 -2.2349  0.5866
 7099SOL    HW232757   3.218   1.586   7.863  2.5009  0.5116 -0.1352
 7100SOL     OW32758   3.487   0.274  15.479  0.1542 -0.0978  0.3427
 7100SOL    HW132759   3.502   0.245  15.568 -0.1264 -1.6354 -0.1141
 7100SOL    HW232760   3.456   0.362  15.501  3.8697  1.5488 -0.9825
 7101SOL     OW32761   0.166   1.492   2.568 -0.1252  0.2284 -0.6254
 7101SOL    HW132762   0.124   1.416   2.609 -0.9502  1.8056  1.3923
 7101SOL    HW232763   0.123   1.568   2.606 -1.1847  0.1315 -1.6058
 7102SOL     OW32764   1.473   3.294  11.274 -0.0941 -0.6888 -0.0574
 7102SOL    HW132765   1.405   3.262  11.334 -0.7980  0.1381 -0.4074
 7102SOL    HW232766   1.426   3.333  11.201  1.6428  1.3769 -0.0731
 7103SOL     OW32767   4.270   2.922  11.960 -0.4107 -0.4250  0.0384
 7103SOL    HW132768   4.220   2.914  12.041  0.4694 -0.5069  0.5738
 7103SOL    HW232769   4.354   2.963  11.982 -0.0526 -0.8513 -0.5199
 7104SOL     OW32770   1.951   4.105   4.596  0.2848 -0.3221  0.0527
 7104SOL    HW132771   2.035   4.093   4.640  0.7729 -1.8402 -1.2759
 7104SOL    HW232772   1.922   4.016   4.618 -3.3185  1.3678  2.1047
 7105SOL     OW32773   3.421   3.221  14.770 -0.0296  0.8808  0.0051
 7105SOL    HW132774   3.464   3.152  14.821 -2.3425 -0.4784  0.1360
 7105SOL    HW232775   3.491   3.241  14.708  1.4100  0.1652  1.4007
 7106SOL     OW32776   3.449   1.623  12.890  0.8554  0.3922  0.2900
 7106SOL    HW132777   3.355   1.638  12.884  0.7849  0.2856  1.1050
 7106SOL    HW232778   3.463   1.550  12.829  0.2998  0.2466  0.3371
 7107SOL     OW32779   3.071   3.160   0.734  0.3622 -0.0287  0.2723
 7107SOL    HW132780   3.076   3.065   0.745 -0.9612 -0.3824 -2.2016
 7107SOL    HW232781   2.986   3.165   0.691  0.4912 -1.2935 -0.1285
 7108SOL     OW32782   0.673   4.357   9.197 -0.2581  0.1738  0.3685
 7108SOL    HW132783   0.601   4.325   9.252 -1.0577  1.0334 -0.1922
 7108SOL    HW232784   0.655   4.450   9.211 -0.3906  0.5204 -2.2253
 7109SOL     OW32785   3.549   3.262   0.840  0.7618  0.1631 -0.3044
 7109SOL    HW132786   3.549   3.167   0.846  1.4025  0.1796 -0.0328
 7109SOL    HW232787   3.643   3.278   0.828  0.1605  1.3298 -3.4047
 7110SOL     OW32788   2.284   1.715   3.008 -0.3066  0.2175  0.1362
 7110SOL    HW132789   2.207   1.665   2.980  0.4525 -0.7348 -0.2643
 7110SOL    HW232790   2.343   1.715   2.933  0.6932 -0.2607  0.9246
 7111SOL     OW32791   1.694   1.767  15.298 -0.3011 -0.4092  0.0956
 7111SOL    HW132792   1.749   1.694  15.272  1.3251  0.5776  0.8099
 7111SOL    HW232793   1.664   1.794  15.212 -1.7052 -3.3230 -0.3224
 7112SOL     OW32794   1.352   1.681  14.481  0.5019  0.7566 -0.3916
 7112SOL    HW132795   1.447   1.676  14.489  0.1770 -0.5896  2.5223
 7112SOL    HW232796   1.334   1.659  14.389 -1.5346  1.1009 -0.0606
 7113SOL     OW32797   4.707   1.854  10.939 -0.0863 -0.4888  0.0710
 7113SOL    HW132798   4.624   1.895  10.965 -1.4794 -1.6367 -2.6521
 7113SOL    HW232799   4.690   1.802  10.861 -0.7487  1.7132 -1.2639
 7114SOL     OW32800   4.103   2.322   0.076  0.3098 -0.4138 -0.7085
 7114SOL    HW132801   4.045   2.246   0.078  0.4854 -0.4867  1.6063
 7114SOL    HW232802   4.069   2.394   0.128  1.7171  0.0881 -0.4982
 7115SOL     OW32803   2.109   0.214   3.076 -0.3028  0.1926  0.2355
 7115SOL    HW132804   2.193   0.177   3.100 -1.1951 -0.7349  1.9463
 7115SOL    HW232805   2.085   0.234   3.167  2.9505 -1.4719  1.4409
 7116SOL     OW32806   2.797   3.886   3.998  0.0684 -0.0266  0.0912
 7116SOL    HW132807   2.888   3.882   3.967  0.1409 -1.5341  0.4978
 7116SOL    HW232808   2.815   3.887   4.092  0.6274 -0.8754 -0.0125
 7117SOL     OW32809   1.472   4.150   2.181  0.0846  0.4087  0.3611
 7117SOL    HW132810   1.390   4.122   2.139  1.0889 -2.3797  0.2907
 7117SOL    HW232811   1.450   4.230   2.229 -0.3439  0.9844 -0.7988
 7118SOL     OW32812   4.109   4.496   0.514  0.2146  0.5602 -0.5315
 7118SOL    HW132813   4.114   4.400   0.505 -1.4460  0.3269  0.9657
 7118SOL    HW232814   4.016   4.505   0.535  0.3273  0.5879 -0.0441
 7119SOL     OW32815   1.995   4.366   7.035  0.0134  0.0788  0.2321
 7119SOL    HW132816   2.025   4.400   7.119 -0.5564 -1.1048  0.9128
 7119SOL    HW232817   1.993   4.445   6.981 -0.8550 -0.7266 -0.9127
 7120SOL     OW32818   3.043   2.971  17.446 -0.0639 -0.4042 -0.1742
 7120SOL    HW132819   3.035   3.011  17.359  0.4536 -0.4503 -0.2450
 7120SOL    HW232820   2.963   3.007  17.485 -0.1289  1.7712 -2.3289
 7121SOL     OW32821   3.494   3.189  12.251 -0.4515  0.0274 -0.0193
 7121SOL    HW132822   3.525   3.271  12.213  2.1526 -1.6112 -1.4610
 7121SOL    HW232823   3.569   3.160  12.303 -0.7573 -2.0766 -0.7332
 7122SOL     OW32824   2.072   0.180   6.271  0.4641 -0.0066  0.6114
 7122SOL    HW132825   2.033   0.252   6.221 -0.0526  0.5486  1.8257
 7122SOL    HW232826   2.039   0.207   6.356 -0.4429 -1.2998  0.6793
 7123SOL     OW32827   1.271   4.623   7.723  0.0824  0.4959 -0.3371
 7123SOL    HW132828   1.269   4.701   7.778 -1.9559  0.7277 -0.7473
 7123SOL    HW232829   1.187   4.584   7.747  1.6792 -0.7129  3.3248
 7124SOL     OW32830   0.174   2.654   5.606 -0.0932  0.1976 -0.1998
 7124SOL    HW132831   0.116   2.582   5.628  0.2599 -0.4847 -1.5236
 7124SOL    HW232832   0.150   2.715   5.677  1.4450  2.4709 -1.6201
 7125SOL     OW32833   2.318   4.409   5.032  0.7406 -0.1992  0.9035
 7125SOL    HW132834   2.324   4.464   5.111  2.4240  0.6942  0.1453
 7125SOL    HW232835   2.402   4.433   4.993  1.2713 -1.2059  1.4248
 7126SOL     OW32836   2.584   1.630  17.423  0.0198 -0.0776 -0.8285
 7126SOL    HW132837   2.600   1.633  17.517 -1.5012 -0.8870 -0.5486
 7126SOL    HW232838   2.615   1.713  17.385 -0.0915 -0.0043 -0.7591
 7127SOL     OW32839   1.102   3.149   6.456  0.2053  0.2847  0.3518
 7127SOL    HW132840   1.043   3.074   6.464 -0.5523  1.0854  2.3987
 7127SOL    HW232841   1.065   3.209   6.391  0.8581 -0.5427 -0.7758
 7128SOL     OW32842   0.701   1.937   3.847 -0.1826 -0.1104  0.3597
 7128SOL    HW132843   0.722   1.990   3.924 -0.8382  1.3712 -0.4829
 7128SOL    HW232844   0.607   1.929   3.862 -0.1190  0.8808  1.3108
 7129SOL     OW32845   0.921   3.937   5.817  0.1957  0.3184  0.7009
 7129SOL    HW132846   0.911   4.015   5.872 -0.3310  1.2868 -0.7675
 7129SOL    HW232847   1.010   3.907   5.836 -0.1371 -1.6104 -0.8400
 7130SOL     OW32848   3.151   0.659   4.292 -0.3613  0.3424 -0.4481
 7130SOL    HW132849   3.074   0.716   4.297 -0.7531 -0.4580  2.3889
 7130SOL    HW232850   3.217   0.713   4.249 -2.5759  1.6958 -2.1479
 7131SOL     OW32851   2.027   1.380   3.680 -0.0789 -0.0661  0.2859
 7131SOL    HW132852   1.979   1.324   3.620  3.9921 -3.6354  0.3695
 7131SOL    HW232853   2.117   1.350   3.691  0.1703  0.7978  0.6486
 7132SOL     OW32854   0.307   0.376   6.801 -0.0083  0.0550  0.2980
 7132SOL    HW132855   0.322   0.285   6.828  0.5364  0.0776  0.0862
 7132SOL    HW232856   0.273   0.372   6.711 -0.3376  1.2999  0.3763
 7133SOL     OW32857   0.425   3.243   3.929 -0.0062  0.2016  0.8299
 7133SOL    HW132858   0.437   3.207   4.017  0.8705 -0.9614  0.2233
 7133SOL    HW232859   0.483   3.189   3.875  1.8686  3.8270 -0.8022
 7134SOL     OW32860   0.355   4.095   4.706  0.3138  0.4248  0.1089
 7134SOL    HW132861   0.390   4.133   4.625  0.4823 -1.0809 -0.5293
 7134SOL    HW232862   0.351   4.177   4.756  1.7089  1.2773 -1.1705
 7135SOL     OW32863   0.983   1.198   5.418  0.1639  0.2369 -0.3500
 7135SOL    HW132864   0.945   1.266   5.473 -0.8294  1.0257 -2.0149
 7135SOL    HW232865   1.040   1.256   5.367  1.0718  2.0796  2.8158
 7136SOL     OW32866   0.270   1.307   3.802 -0.3080 -0.5556 -0.4867
 7136SOL    HW132867   0.353   1.283   3.762  0.9362 -0.2163  1.8850
 7136SOL    HW232868   0.206   1.246   3.765  1.5432 -3.5063  1.2354
 7137SOL     OW32869   2.178   4.677   8.679  0.0791  0.1114 -0.0216
 7137SOL    HW132870   2.207   0.017   8.745 -2.9489  1.8023 -0.2985
 7137SOL    HW232871   2.094   4.716   8.656  0.6863  0.8600 -1.0161
 7138SOL     OW32872   4.714   3.423   3.718 -0.2171 -0.2034  0.4465
 7138SOL    HW132873   4.686   3.387   3.802 -1.6265  1.3426  0.6478
 7138SOL    HW232874   0.045   3.350   3.686  0.2483  0.1359  0.4555
 7139SOL     OW32875   4.374   2.149   3.558  0.1302 -0.4308  0.2298
 7139SOL    HW132876   4.354   2.176   3.469 -0.6819 -1.1379  0.1995
 7139SOL    HW232877   4.407   2.062   3.536 -0.7345 -0.0826 -2.4656
 7140SOL     OW32878   0.003   2.300   6.199 -0.7726 -0.0065  0.0770
 7140SOL    HW132879   0.056   2.301   6.279  1.2730  0.3770 -1.2924
 7140SOL    HW232880   0.016   2.389   6.167 -0.2978  0.2026  0.8480
 7141SOL     OW32881   0.657   4.475  14.586  0.1670 -0.3286 -0.2544
 7141SOL    HW132882   0.661   4.563  14.623  0.6550  0.0053 -1.0890
 7141SOL    HW232883   0.672   4.421  14.663 -0.9355 -2.8148 -1.7809
 7142SOL     OW32884   0.387   3.043   5.728 -0.0963  0.0642  0.8171
 7142SOL    HW132885   0.413   2.972   5.787 -0.7503 -0.4427  0.5008
 7142SOL    HW232886   0.431   3.024   5.645  0.4678 -0.1735  1.1717
 7143SOL     OW32887   3.099   0.810   8.323  0.2495 -0.1920 -0.2188
 7143SOL    HW132888   3.151   0.834   8.400  0.3591  0.4419 -0.4851
 7143SOL    HW232889   3.059   0.729   8.354  0.8265 -0.5771 -0.4746
 7144SOL     OW32890   4.104   3.201   5.479  0.0022 -0.4201 -0.0100
 7144SOL    HW132891   4.072   3.240   5.561  0.4377 -1.7345  0.7855
 7144SOL    HW232892   4.021   3.159   5.458 -1.2685  3.4510 -2.7661
 7145SOL     OW32893   4.022   4.565   3.347  0.3247 -0.2154  0.1966
 7145SOL    HW132894   3.930   4.590   3.335  0.1925 -0.3962  0.8308
 7145SOL    HW232895   4.051   4.632   3.409  0.6090 -0.1948  0.0406
 7146SOL     OW32896   2.933   1.312   8.155 -0.1307 -0.2990  0.2848
 7146SOL    HW132897   2.971   1.234   8.196 -0.7052 -0.1947  1.0070
 7146SOL    HW232898   2.926   1.282   8.064  0.8434 -0.6373  0.3276
 7147SOL     OW32899   0.977   0.488  15.446 -0.3577  0.3426 -0.8726
 7147SOL    HW132900   0.983   0.449  15.359 -0.6112  0.1695 -0.8091
 7147SOL    HW232901   1.067   0.489  15.480 -0.4482  0.8713 -0.6502
 7148SOL     OW32902   0.048   0.583  16.891 -0.1436  0.0785 -0.5664
 7148SOL    HW132903   0.118   0.634  16.931 -2.2537  1.0733  1.8404
 7148SOL    HW232904   0.024   0.644  16.821 -1.0201  0.5758  0.1641
 7149SOL     OW32905   1.356   2.828   3.262 -0.2751 -0.3409 -0.0018
 7149SOL    HW132906   1.373   2.800   3.352 -1.1069  2.1632  0.9474
 7149SOL    HW232907   1.262   2.816   3.260  0.1839 -3.7241 -0.1730
 7150SOL     OW32908   2.875   4.621   9.144 -0.2748  0.6329  0.0547
 7150SOL    HW132909   2.912   4.618   9.056  0.6096  1.4726  0.3877
 7150SOL    HW232910   2.939   4.567   9.190 -2.3343  0.1430  2.3176
 7151SOL     OW32911   3.970   0.993   2.752  0.0761  0.2471 -0.0824
 7151SOL    HW132912   3.876   0.998   2.768 -0.1875 -0.0839 -1.5230
 7151SOL    HW232913   3.974   1.013   2.659 -1.1293  2.8458  0.4196
 7152SOL     OW32914   0.933   2.194   8.848 -0.0041  0.3115  0.3188
 7152SOL    HW132915   0.972   2.173   8.763  0.0941 -0.6628  0.6074
 7152SOL    HW232916   0.932   2.290   8.848 -1.9346  0.2878  1.7466
 7153SOL     OW32917   0.449   2.915  14.265 -0.2153  0.2731  0.0493
 7153SOL    HW132918   0.483   2.994  14.306 -0.1615  0.6022 -0.6234
 7153SOL    HW232919   0.384   2.953  14.205  0.1646 -0.6054 -0.9222
 7154SOL     OW32920   3.087   4.608   7.081  0.1526  0.2045 -0.5702
 7154SOL    HW132921   3.137   4.595   7.000 -0.6115 -0.8760 -0.8805
 7154SOL    HW232922   3.135   4.554   7.144  0.6438 -0.6754 -1.6977
 7155SOL     OW32923   3.892   1.058   1.807 -0.1361  0.4027  0.1093
 7155SOL    HW132924   3.803   1.078   1.839 -0.8933 -1.3940 -0.9019
 7155SOL    HW232925   3.924   1.036   1.895  2.6780 -1.4563 -1.3997
 7156SOL     OW32926   4.182   2.101   7.812 -0.9612  0.6681 -0.3050
 7156SOL    HW132927   4.227   2.180   7.782  0.4093  0.3801  1.0015
 7156SOL    HW232928   4.129   2.136   7.884  1.4020  2.6075  0.5073
 7157SOL     OW32929   0.346   0.264   7.335  0.7401  0.2558  0.3139
 7157SOL    HW132930   0.280   0.228   7.394 -1.8297 -0.3103 -2.9562
 7157SOL    HW232931   0.385   0.184   7.300  0.9606  0.7076 -0.4589
 7158SOL     OW32932   3.637   1.882  15.798 -0.4733 -0.3640  0.4535
 7158SOL    HW132933   3.721   1.881  15.844  1.4757 -1.2434 -3.1464
 7158SOL    HW232934   3.631   1.790  15.771 -0.9566  0.0240 -0.7535
 7159SOL     OW32935   1.271   0.197   0.879 -0.5190 -0.1824 -0.2797
 7159SOL    HW132936   1.291   0.283   0.842 -0.0080  1.0073  2.7132
 7159SOL    HW232937   1.202   0.226   0.939 -0.5767  0.1878 -0.5271
 7160SOL     OW32938   1.785   3.050   6.244  0.2409  0.0440 -0.1658
 7160SOL    HW132939   1.751   3.090   6.324 -0.7252 -0.6193 -0.2483
 7160SOL    HW232940   1.881   3.046   6.250  0.2043 -2.0109 -0.9513
 7161SOL     OW32941   2.928   2.194   0.829 -0.8797 -0.0001  0.2555
 7161SOL    HW132942   2.900   2.270   0.777 -4.5352 -0.6703  1.2397
 7161SOL    HW232943   2.974   2.143   0.763 -1.7990  2.6211 -2.3880
 7162SOL     OW32944   1.721   2.605   5.742  0.2698  0.4090 -0.4623
 7162SOL    HW132945   1.671   2.524   5.745 -1.2487  1.3476 -0.8099
 7162SOL    HW232946   1.654   2.655   5.696 -1.2854 -1.1468  0.1460
 7163SOL     OW32947   1.194   3.089   4.152  0.5179 -0.2108  0.2513
 7163SOL    HW132948   1.168   3.140   4.075 -1.9927  0.2652  1.4468
 7163SOL    HW232949   1.189   3.145   4.229  2.2416  0.5086 -0.1576
 7164SOL     OW32950   2.855   4.654   3.297  0.3389  0.0172 -0.5085
 7164SOL    HW132951   2.926   4.653   3.362  0.7884  2.1512 -0.9781
 7164SOL    HW232952   2.793   4.613   3.358 -1.4387 -1.7308 -3.5285
 7165SOL     OW32953   3.624   4.466   3.720  0.5014 -0.7979  0.2611
 7165SOL    HW132954   3.559   4.533   3.741  0.7270 -0.3749 -0.3788
 7165SOL    HW232955   3.704   4.518   3.727 -0.4726  0.7619 -0.1614
 7166SOL     OW32956   2.265   3.511  17.140 -0.4139  0.1590 -0.6100
 7166SOL    HW132957   2.277   3.476  17.228 -2.1699  1.0262 -0.0269
 7166SOL    HW232958   2.319   3.590  17.143  0.6510 -0.6780  2.0699
 7167SOL     OW32959   0.357   0.461   4.360 -0.0064 -0.0251  0.3679
 7167SOL    HW132960   0.389   0.512   4.435 -2.3358  0.3405  1.1190
 7167SOL    HW232961   0.335   0.379   4.404 -2.1212  0.5250  0.3333
 7168SOL     OW32962   3.487   3.912   7.395  0.1376  0.2636 -0.1616
 7168SOL    HW132963   3.408   3.876   7.355  0.6906 -0.3706 -0.6819
 7168SOL    HW232964   3.548   3.841   7.374  0.3882  0.9039 -1.5703
 7169SOL     OW32965   1.867   0.647   3.428 -0.2645 -0.0544  0.6656
 7169SOL    HW132966   1.876   0.726   3.375  0.7234  0.3815  1.4832
 7169SOL    HW232967   1.890   0.674   3.517 -2.0254  0.8813  0.8327
 7170SOL     OW32968   2.288   3.658   8.510  0.0865 -0.1800  0.0112
 7170SOL    HW132969   2.375   3.625   8.530 -0.6865 -1.7462  0.7761
 7170SOL    HW232970   2.253   3.677   8.597  1.5444  1.1208  0.3112
 7171SOL     OW32971   2.219   3.448   9.142 -0.6252  0.3115 -0.4406
 7171SOL    HW132972   2.162   3.521   9.117 -1.8751 -1.0816 -1.6270
 7171SOL    HW232973   2.205   3.436   9.236 -0.8803 -2.3944 -0.8388
 7172SOL     OW32974   0.920   2.999   7.467  0.0596  0.0880 -0.4327
 7172SOL    HW132975   0.916   2.941   7.391  0.3682 -1.1615  0.5095
 7172SOL    HW232976   0.874   2.939   7.526 -0.9198 -0.1092 -1.3992
 7173SOL     OW32977   3.954   4.034   2.766  0.9815 -0.0509  0.5505
 7173SOL    HW132978   3.902   4.115   2.766  0.1850 -0.5670  1.0649
 7173SOL    HW232979   3.943   3.996   2.678 -3.3005  3.0386 -0.2680
 7174SOL     OW32980   0.403   4.143   0.448  0.1845 -0.4935 -0.3261
 7174SOL    HW132981   0.470   4.112   0.389  0.5322  1.0037 -0.7183
 7174SOL    HW232982   0.323   4.100   0.418 -1.8097  0.5176  3.4331
 7175SOL     OW32983   0.494   2.102   2.121  0.2589 -0.4649 -0.2824
 7175SOL    HW132984   0.547   2.178   2.145 -0.2359 -0.3935  0.5799
 7175SOL    HW232985   0.548   2.039   2.168 -0.3520  0.0140  1.0608
 7176SOL     OW32986   2.049   2.559   0.291 -0.3456 -0.4315 -0.3556
 7176SOL    HW132987   2.089   2.485   0.246  0.5583 -0.6047  0.7159
 7176SOL    HW232988   2.008   2.526   0.371  0.8507 -0.1666  0.3678
 7177SOL     OW32989   4.325   4.405   4.846  0.5178  0.0430 -0.7618
 7177SOL    HW132990   4.394   4.409   4.780  1.0880 -1.3298 -0.2538
 7177SOL    HW232991   4.369   4.366   4.922 -1.3717  0.0307  0.3430
 7178SOL     OW32992   1.239   4.469   9.726 -0.1840  0.0189 -0.7967
 7178SOL    HW132993   1.234   4.479   9.821  1.3383  2.2013 -0.9340
 7178SOL    HW232994   1.316   4.416   9.709 -0.5524 -0.5402 -0.7249
 7179SOL     OW32995   3.195   4.454   8.800  0.2219 -0.2408 -0.5716
 7179SOL    HW132996   3.163   4.373   8.839 -0.2760  0.5801  0.6999
 7179SOL    HW232997   3.289   4.440   8.805 -0.2283 -3.0072  0.6167
 7180SOL     OW32998   0.081   3.677   2.391 -0.0342 -0.3263 -0.0759
 7180SOL    HW132999   0.109   3.747   2.332 -1.3682  1.3768  1.3396
 7180SOL    HW233000   4.712   3.701   2.406  0.3967 -0.3739  2.6519
 7181SOL     OW33001   3.206   2.045   7.513  0.1406  0.1651 -0.2211
 7181SOL    HW133002   3.214   2.098   7.433  2.3419 -0.9240 -0.7235
 7181SOL    HW233003   3.280   1.986   7.506  1.1436  1.5202 -1.0403
 7182SOL     OW33004   4.453   4.062   7.692  0.3428 -0.0426  0.4627
 7182SOL    HW133005   4.507   3.990   7.723  0.5930 -0.0635 -0.0281
 7182SOL    HW233006   4.427   4.105   7.774 -1.7931  0.9203 -0.7183
 7183SOL     OW33007   2.106   4.387  13.032  0.1164 -0.3836  0.0555
 7183SOL    HW133008   2.138   4.380  12.942  1.7486  0.4411  0.5759
 7183SOL    HW233009   2.090   4.482  13.029 -2.1412 -0.7959 -0.6979
 7184SOL     OW33010   3.189   0.684  14.925  0.0604 -0.3072  0.4277
 7184SOL    HW133011   3.110   0.719  14.966  0.1188  0.8583 -0.4451
 7184SOL    HW233012   3.208   0.757  14.866  2.2628 -1.5677 -0.4331
 7185SOL     OW33013   0.600   4.682   6.324  0.2645  1.0336  0.3202
 7185SOL    HW133014   0.661   0.028   6.298 -2.1542  2.1595 -2.4085
 7185SOL    HW233015   0.644   4.651   6.403  0.1788  1.6939  0.6260
 7186SOL     OW33016   4.382   2.428  16.084  0.3123 -0.0868  0.2067
 7186SOL    HW133017   4.417   2.364  16.146 -1.1484 -1.7383 -0.6463
 7186SOL    HW233018   4.463   2.438  16.035  0.7451 -1.2146  0.6792
 7187SOL     OW33019   2.770   0.749   8.588  0.4314  0.4047 -0.3989
 7187SOL    HW133020   2.804   0.830   8.550 -1.5448  2.6307  2.5004
 7187SOL    HW233021   2.798   0.759   8.679 -0.0818  3.1061 -0.5501
 7188SOL     OW33022   3.235   2.239   4.639 -0.6202 -0.3038 -0.0594
 7188SOL    HW133023   3.227   2.239   4.734 -0.1793 -1.5196 -0.0310
 7188SOL    HW233024   3.187   2.319   4.615 -1.7753 -0.5604  1.3856
 7189SOL     OW33025   1.276   3.251   3.346 -0.4670 -0.8633 -0.2401
 7189SOL    HW133026   1.286   3.200   3.426  0.3573 -1.0039 -0.4343
 7189SOL    HW233027   1.181   3.253   3.341 -0.5437  1.1971  1.8391
 7190SOL     OW33028   3.172   0.275   4.502  0.5723  0.5901 -0.6859
 7190SOL    HW133029   3.134   0.221   4.571  1.7040 -0.5731 -0.9617
 7190SOL    HW233030   3.214   0.345   4.552 -2.6029  1.3751  0.8351
 7191SOL     OW33031   0.664   0.278   6.189  0.1397  0.9492 -0.6907
 7191SOL    HW133032   0.718   0.204   6.218  0.4580  0.9487 -1.2743
 7191SOL    HW233033   0.657   0.317   6.276 -0.7690  0.0848 -0.3789
 7192SOL     OW33034   4.626   3.302   5.869 -0.4016 -0.3355 -0.0988
 7192SOL    HW133035   4.701   3.245   5.885  0.7280  0.8060 -1.3166
 7192SOL    HW233036   4.640   3.376   5.929 -1.6642 -0.1459 -0.0378
 7193SOL     OW33037   2.965   3.642  11.414 -0.8611  0.4758 -0.4683
 7193SOL    HW133038   3.000   3.578  11.475 -1.3928  1.1292  0.5094
 7193SOL    HW233039   3.042   3.697  11.402 -0.4708 -0.0590 -0.4432
 7194SOL     OW33040   1.285   1.163   4.551 -0.1043 -0.3193  0.1357
 7194SOL    HW133041   1.366   1.140   4.598 -0.2658  1.3262  1.2174
 7194SOL    HW233042   1.318   1.199   4.469 -2.2953 -1.1732 -1.1056
 7195SOL     OW33043   2.212   3.168   9.050 -0.3812 -0.2916  0.3761
 7195SOL    HW133044   2.186   3.250   9.092 -0.0680 -0.2724  0.5327
 7195SOL    HW233045   2.219   3.181   8.955 -0.7187 -0.8141  0.2819
 7196SOL     OW33046   2.678   2.601   6.399 -0.0333 -0.2356  0.4662
 7196SOL    HW133047   2.712   2.659   6.331 -2.1764  1.3002  0.7107
 7196SOL    HW233048   2.758   2.584   6.451  1.0670 -0.7060 -1.3843
 7197SOL     OW33049   1.476   3.201   4.120 -0.6542  0.2335  0.2572
 7197SOL    HW133050   1.468   3.145   4.042 -0.0013 -0.0077  0.3605
 7197SOL    HW233051   1.384   3.226   4.126 -0.7813 -0.5202  1.3542
 7198SOL     OW33052   0.229   1.862  11.045 -0.2094  0.2102  0.1829
 7198SOL    HW133053   0.270   1.863  10.959  1.0685  1.8985  0.8260
 7198SOL    HW233054   0.140   1.879  11.014 -0.2548 -0.8114 -0.2465
 7199SOL     OW33055   0.511   3.926   1.856 -0.1081  0.1413 -0.5508
 7199SOL    HW133056   0.590   3.956   1.812  1.5050 -0.4935  1.9079
 7199SOL    HW233057   0.527   3.833   1.839 -0.5074 -0.3481  1.7449
 7200SOL     OW33058   2.421   1.664  15.912 -0.0913 -0.6831  0.2910
 7200SOL    HW133059   2.500   1.631  15.869  0.8450 -1.4496  2.6056
 7200SOL    HW233060   2.379   1.587  15.949 -1.4786 -0.2244 -0.3332
 7201SOL     OW33061   3.314   0.009   4.371  0.2594  0.3377 -0.1379
 7201SOL    HW133062   3.220   4.722   4.384  0.3190  0.4912  0.3956
 7201SOL    HW233063   3.339   4.692   4.455  0.9118 -0.9666 -0.9419
 7202SOL     OW33064   2.308   4.555   2.991 -0.2013  0.0750 -0.1114
 7202SOL    HW133065   2.242   4.544   2.923  0.4082  1.4615 -0.9312
 7202SOL    HW233066   2.258   4.560   3.072 -0.4032 -1.9480 -0.1119
 7203SOL     OW33067   2.748   0.767  16.444 -0.3000 -0.5851  0.1476
 7203SOL    HW133068   2.822   0.762  16.505 -0.4690 -1.2591  0.2947
 7203SOL    HW233069   2.756   0.855  16.408 -0.4808 -1.2036 -1.3778
 7204SOL     OW33070   1.431   2.188   6.518  0.6790  0.7009 -0.1819
 7204SOL    HW133071   1.340   2.183   6.489  0.1979 -1.9145  1.7577
 7204SOL    HW233072   1.448   2.097   6.493  1.2269  0.4221  1.1919
 7205SOL     OW33073   1.634   1.223   7.624  0.5548  0.6452 -0.1132
 7205SOL    HW133074   1.568   1.282   7.590 -0.3389  0.1701  0.7900
 7205SOL    HW233075   1.693   1.276   7.678  1.7293  0.2284 -0.9859
 7206SOL     OW33076   4.296   3.992   7.490  0.1500  0.2794  0.6206
 7206SOL    HW133077   4.214   3.981   7.539 -0.7241 -0.9316 -1.1193
 7206SOL    HW233078   4.352   4.014   7.565  0.0381 -0.3040  0.8779
 7207SOL     OW33079   3.316   2.652   2.699  0.3372 -0.0296 -0.3809
 7207SOL    HW133080   3.314   2.640   2.604  2.9462  2.0101 -0.6934
 7207SOL    HW233081   3.294   2.744   2.707  3.4251  0.9168 -2.6551
 7208SOL     OW33082   3.611   1.846  14.252  0.1373 -0.3844 -0.3270
 7208SOL    HW133083   3.525   1.811  14.273 -0.9086  0.6483 -2.9208
 7208SOL    HW233084   3.666   1.803  14.318  0.7976  0.2845 -0.4431
 7209SOL     OW33085   4.582   1.149   4.118 -0.1347  0.3365 -0.2726
 7209SOL    HW133086   4.540   1.067   4.093  0.7759 -0.4403  0.7634
 7209SOL    HW233087   4.600   1.120   4.208  1.0402  1.9702  0.0352
 7210SOL     OW33088   4.259   1.447   7.146  0.5598 -0.2941  0.2119
 7210SOL    HW133089   4.301   1.377   7.197  0.3922 -0.6406 -0.1284
 7210SOL    HW233090   4.315   1.525   7.146  1.0367 -0.6203  1.6874
 7211SOL     OW33091   3.611   2.871  11.074  0.0944  0.2891 -0.7530
 7211SOL    HW133092   3.605   2.921  10.992  1.7631  0.2387 -0.8980
 7211SOL    HW233093   3.524   2.857  11.112  0.3838  2.8753  0.8497
 7212SOL     OW33094   4.322   4.162  12.569  0.8136  0.1305 -0.2841
 7212SOL    HW133095   4.327   4.134  12.660  1.2528  1.3895  0.0753
 7212SOL    HW233096   4.227   4.176  12.568  0.6524 -0.9603  0.8405
 7213SOL     OW33097   3.889   1.869   0.417  0.3395 -0.0074 -0.5032
 7213SOL    HW133098   3.815   1.815   0.444 -1.4867  3.6694  1.8592
 7213SOL    HW233099   3.929   1.911   0.493  1.2636 -0.7172 -0.5935
 7214SOL     OW33100   2.608   2.687   3.023  0.0809 -0.4982  0.0008
 7214SOL    HW133101   2.611   2.750   2.951  1.0699  1.0159  1.3620
 7214SOL    HW233102   2.647   2.614   2.975  1.5875  0.0509  0.3913
 7215SOL     OW33103   1.807   1.915  13.877  0.1424  0.1124  0.3083
 7215SOL    HW133104   1.900   1.934  13.870  0.0857  0.6554  1.0259
 7215SOL    HW233105   1.764   1.974  13.815 -3.2491 -1.2950  1.3216
 7216SOL     OW33106   4.307   0.139   8.466  0.0833 -0.1313  0.7093
 7216SOL    HW133107   4.312   0.186   8.383 -0.8697 -1.4234 -0.0866
 7216SOL    HW233108   4.213   0.120   8.471 -0.3239  1.4981 -0.7359
 7217SOL     OW33109   1.758   4.690  16.795 -0.3359  0.2477  0.6458
 7217SOL    HW133110   1.775   0.062  16.798 -0.5398  0.2433  2.0920
 7217SOL    HW233111   1.832   4.654  16.843  1.3467  0.9750 -1.4078
 7218SOL     OW33112   3.723   0.249  11.104 -0.3535 -1.3462 -0.5342
 7218SOL    HW133113   3.743   0.324  11.047 -2.1652 -0.8457 -0.5359
 7218SOL    HW233114   3.668   0.289  11.171  1.7145  0.6526 -0.0582
 7219SOL     OW33115   1.532   2.822   9.250 -0.7673  0.0941  1.1204
 7219SOL    HW133116   1.523   2.845   9.343  0.4163 -0.6364  1.4278
 7219SOL    HW233117   1.466   2.753   9.242 -1.8579  1.4370 -1.0290
 7220SOL     OW33118   3.547   0.395   0.802  0.2728 -0.0797  0.0041
 7220SOL    HW133119   3.520   0.378   0.892 -0.1211 -3.5859 -0.7976
 7220SOL    HW233120   3.527   0.312   0.759 -0.4113  0.4974 -0.7924
 7221SOL     OW33121   2.875   2.016   3.845 -0.0423  0.3237 -0.4315
 7221SOL    HW133122   2.913   2.070   3.776  0.6657  1.1442  0.5909
 7221SOL    HW233123   2.934   2.035   3.918 -0.2730  0.1870 -0.2095
 7222SOL     OW33124   0.663   0.349   5.305  0.3812 -0.1874 -0.1083
 7222SOL    HW133125   0.638   0.264   5.341 -1.5449  0.5032  0.1657
 7222SOL    HW233126   0.680   0.398   5.385 -1.1827 -0.2563  0.2640
 7223SOL     OW33127   2.562   2.203  13.579  0.2169 -0.8874 -0.0476
 7223SOL    HW133128   2.529   2.240  13.496 -1.0063 -0.9776  0.3926
 7223SOL    HW233129   2.510   2.122  13.583  0.0051 -0.7592 -0.1532
 7224SOL     OW33130   3.972   0.403   0.674  0.2345 -0.2596 -0.0707
 7224SOL    HW133131   4.046   0.424   0.731  0.1310 -0.5487  0.1669
 7224SOL    HW233132   3.933   0.491   0.676 -0.7687 -0.6721 -1.3279
 7225SOL     OW33133   3.196   4.081   7.281  1.1766 -0.2789 -0.7879
 7225SOL    HW133134   3.103   4.061   7.270  1.0001 -0.2114  0.6392
 7225SOL    HW233135   3.215   4.060   7.372 -1.0186  1.9238  0.1690
 7226SOL     OW33136   0.988   4.128   6.010  0.3168  0.2579 -0.4325
 7226SOL    HW133137   0.959   4.076   6.085 -3.0108  0.6309 -1.4705
 7226SOL    HW233138   0.913   4.186   5.999  1.6012  2.1907  0.9451
 7227SOL     OW33139   0.056   0.624   5.110 -0.1763 -0.6184 -0.3660
 7227SOL    HW133140   0.012   0.603   5.028 -1.7575  0.3255  0.2345
 7227SOL    HW233141   0.024   0.713   5.127 -2.5341 -1.2821 -1.3555
 7228SOL     OW33142   0.353   4.574   3.868 -0.4754 -0.1074 -0.4780
 7228SOL    HW133143   0.439   4.567   3.828 -0.8304  0.2923 -1.3038
 7228SOL    HW233144   0.348   4.479   3.878 -1.3167 -0.2536 -2.2529
 7229SOL     OW33145   3.968   4.384   9.483  0.1766 -0.4802  0.1370
 7229SOL    HW133146   4.053   4.427   9.476 -0.2490  0.5002  1.0325
 7229SOL    HW233147   3.929   4.441   9.549  0.9541 -0.1069  0.2760
 7230SOL     OW33148   4.601   3.750   5.451 -0.1626 -0.2070  0.1734
 7230SOL    HW133149   4.526   3.791   5.409 -0.0934  1.8898  2.0727
 7230SOL    HW233150   4.630   3.821   5.509  1.7712 -0.5137 -0.4228
 7231SOL     OW33151   1.717   1.942  10.582  0.1019 -0.4423 -0.1912
 7231SOL    HW133152   1.674   2.008  10.637  1.6189  1.0047 -0.7263
 7231SOL    HW233153   1.724   1.991  10.500  2.0604 -2.6556 -1.3367
 7232SOL     OW33154   2.348   1.478   5.568  0.0568 -0.5120  1.0118
 7232SOL    HW133155   2.290   1.493   5.642  0.3758 -1.2680  1.4081
 7232SOL    HW233156   2.363   1.572   5.555 -2.4571 -0.3599 -0.8559
 7233SOL     OW33157   4.128   0.130   9.827 -0.1939 -0.1647  0.1948
 7233SOL    HW133158   4.204   0.155   9.880 -0.3788  0.9072 -0.0454
 7233SOL    HW233159   4.072   0.208   9.830  1.8418  1.3758 -2.0070
 7234SOL     OW33160   3.629   0.698   0.915 -0.9113 -0.1237 -0.3012
 7234SOL    HW133161   3.608   0.784   0.877  0.8778 -0.3384 -1.7730
 7234SOL    HW233162   3.585   0.645   0.849 -0.5401 -1.1487  0.2710
 7235SOL     OW33163   1.529   0.376   7.486 -0.5970 -0.7728  0.1587
 7235SOL    HW133164   1.517   0.290   7.526  1.8378 -1.5860 -0.8440
 7235SOL    HW233165   1.451   0.420   7.521  2.3680  3.6131  1.2305
 7236SOL     OW33166   2.685   1.343   4.473  0.1057 -0.1535  0.2072
 7236SOL    HW133167   2.641   1.428   4.480  0.7164  0.2110 -0.4471
 7236SOL    HW233168   2.606   1.293   4.451  1.4880 -1.8181 -0.9802
 7237SOL     OW33169   3.596   3.546   7.601  0.4269  0.3998  0.4331
 7237SOL    HW133170   3.596   3.639   7.624 -1.3041  0.0489  1.8556
 7237SOL    HW233171   3.506   3.523   7.624  1.0050  0.0012  2.3329
 7238SOL     OW33172   4.188   3.410   4.458 -0.1957 -0.4510  0.3781
 7238SOL    HW133173   4.220   3.429   4.370 -0.9773  2.0848  0.6193
 7238SOL    HW233174   4.185   3.315   4.463 -0.0813 -0.6347 -3.3360
 7239SOL     OW33175   4.402   1.465   4.591  0.4839  0.5023  0.4335
 7239SOL    HW133176   4.409   1.559   4.576 -0.1202  0.7331  1.6663
 7239SOL    HW233177   4.426   1.459   4.683  1.7921  1.3200  0.1508
 7240SOL     OW33178   1.236   1.647   8.854 -0.9674 -0.4010  0.1874
 7240SOL    HW133179   1.158   1.603   8.888 -0.2522 -1.2725  0.6845
 7240SOL    HW233180   1.278   1.586   8.793  0.1222  1.2494 -0.7184
 7241SOL     OW33181   2.649   4.188   6.308 -0.1996  0.1286 -0.4318
 7241SOL    HW133182   2.581   4.255   6.294 -0.0994  0.2598 -0.2899
 7241SOL    HW233183   2.716   4.211   6.244  0.2600  2.0724  0.7537
 7242SOL     OW33184   1.181   1.559   5.499 -0.1106  0.3179 -0.1276
 7242SOL    HW133185   1.128   1.639   5.490 -1.1231 -0.3592 -0.1725
 7242SOL    HW233186   1.211   1.563   5.589  1.1210 -2.6894 -0.4196
 7243SOL     OW33187   0.701   0.443  11.795  1.0043 -0.0693 -0.1052
 7243SOL    HW133188   0.693   0.388  11.717  0.6420  0.2464 -0.2863
 7243SOL    HW233189   0.794   0.442  11.818  0.9025 -2.0986  0.2514
 7244SOL     OW33190   3.735   0.111   2.196 -0.4522 -0.2361 -0.0344
 7244SOL    HW133191   3.716   0.033   2.247 -2.3578  0.3960  0.2483
 7244SOL    HW233192   3.829   0.099   2.188 -0.5002  0.8606 -2.3763
 7245SOL     OW33193   1.550   0.709   3.914  0.0521 -0.3018  0.1820
 7245SOL    HW133194   1.535   0.619   3.886  0.5017 -0.0791 -0.7765
 7245SOL    HW233195   1.526   0.710   4.007  0.6634 -1.0945  0.3472
 7246SOL     OW33196   3.420   4.692   9.133 -0.0757  0.0429 -0.0691
 7246SOL    HW133197   3.359   0.003   9.066 -2.3545 -0.1530  1.9170
 7246SOL    HW233198   3.489   4.661   9.075  0.8990  1.2781  0.4355
 7247SOL     OW33199   1.031   4.647  16.556  0.5377 -0.2696  0.0692
 7247SOL    HW133200   0.970   4.681  16.621  0.5607  0.7685 -0.4563
 7247SOL    HW233201   0.978   4.660  16.478  0.3245  0.7964  0.4037
 7248SOL     OW33202   3.233   1.204   4.815  0.0397 -0.1961  0.4775
 7248SOL    HW133203   3.311   1.175   4.766 -0.3406 -0.9486  0.3108
 7248SOL    HW233204   3.158   1.178   4.761  0.9155 -2.5213  0.3408
 7249SOL     OW33205   1.907   1.025   7.822 -0.1989 -0.2811  0.7524
 7249SOL    HW133206   1.853   1.087   7.871  1.5951  1.6090  0.3322
 7249SOL    HW233207   1.977   1.015   7.888  1.2041  1.7514 -0.4156
 7250SOL     OW33208   0.026   0.589   1.954 -0.4088 -0.2772  0.3938
 7250SOL    HW133209   0.100   0.542   1.993  1.0758  2.7422  1.2246
 7250SOL    HW233210   4.716   0.524   1.892 -0.2103  0.9965 -1.0415
 7251SOL     OW33211   3.269   1.722  13.654 -0.0343  0.4805  0.2792
 7251SOL    HW133212   3.232   1.810  13.649  1.2548  1.1056  1.8359
 7251SOL    HW233213   3.338   1.740  13.718  0.0467  1.1480 -0.0030
 7252SOL     OW33214   1.363   3.415   5.087 -0.1075 -0.0490 -0.1713
 7252SOL    HW133215   1.435   3.462   5.043  0.3243  0.0154  0.6005
 7252SOL    HW233216   1.295   3.482   5.083 -0.0195  0.0968  0.7679
 7253SOL     OW33217   1.656   3.382   1.395  0.3746  0.2315 -0.1858
 7253SOL    HW133218   1.651   3.381   1.490  2.1338 -1.5361 -0.1042
 7253SOL    HW233219   1.564   3.391   1.369 -0.1723 -2.5355  0.8050
 7254SOL     OW33220   0.507   1.075  13.830  0.1913  0.3226  0.1972
 7254SOL    HW133221   0.444   1.089  13.759 -0.3233 -0.6735  0.4434
 7254SOL    HW233222   0.449   1.024  13.887  0.6968  1.0776  1.3795
 7255SOL     OW33223   1.706   4.020   6.013  0.4122  0.2030  0.0140
 7255SOL    HW133224   1.784   4.066   5.981  0.0419 -0.2717 -1.5930
 7255SOL    HW233225   1.635   4.074   5.980 -0.1923 -0.6047 -0.0190
 7256SOL     OW33226   0.788   0.211   1.003  0.2804  0.1986  0.3729
 7256SOL    HW133227   0.747   0.297   1.012 -0.4936  0.0313 -1.4253
 7256SOL    HW233228   0.709   0.156   1.002  0.6261 -0.2993  0.4046
 7257SOL     OW33229   4.131   0.282   3.798  0.1440 -0.3573 -0.3300
 7257SOL    HW133230   4.113   0.298   3.706  0.6099 -0.1377 -0.3828
 7257SOL    HW233231   4.156   0.368   3.831 -5.0712  0.5284  1.3218
 7258SOL     OW33232   1.114   0.549   4.371  0.1748 -0.1507  0.4130
 7258SOL    HW133233   1.170   0.625   4.354  0.6288 -0.8441 -1.1626
 7258SOL    HW233234   1.101   0.520   4.281 -1.5090  3.4999 -0.5499
 7259SOL     OW33235   4.236   0.889  13.084 -0.3638 -0.1838  0.4598
 7259SOL    HW133236   4.324   0.902  13.050 -0.5805 -0.0625 -0.0700
 7259SOL    HW233237   4.218   0.795  13.094  1.2250 -0.6792 -1.3473
 7260SOL     OW33238   0.259   4.451   6.756 -0.5296 -0.2954 -0.1159
 7260SOL    HW133239   0.312   4.451   6.676 -1.3366 -1.2173 -0.6560
 7260SOL    HW233240   0.293   4.368   6.790  2.0291  1.0724  0.6484
 7261SOL     OW33241   2.151   1.517   5.864  0.3838  0.3285  0.3574
 7261SOL    HW133242   2.136   1.610   5.848  1.5892  0.1465 -1.8184
 7261SOL    HW233243   2.202   1.529   5.944 -2.1670 -0.1167  2.0544
 7262SOL     OW33244   1.960   2.234  16.520  0.6275 -0.0460 -0.1066
 7262SOL    HW133245   1.949   2.315  16.570  1.6948 -0.3225  0.5721
 7262SOL    HW233246   1.871   2.235  16.485  0.8037 -0.9095 -0.5940
 7263SOL     OW33247   1.806   0.108  10.183 -0.3129 -0.3960 -0.4426
 7263SOL    HW133248   1.800   0.094  10.277  0.4788 -0.7258 -0.4409
 7263SOL    HW233249   1.900   0.091  10.168 -0.2191 -0.3693  0.1047
 7264SOL     OW33250   3.164   3.784   3.531  0.5085  0.0040 -0.3898
 7264SOL    HW133251   3.104   3.787   3.456 -0.4766 -1.0414  0.3405
 7264SOL    HW233252   3.201   3.872   3.531  0.5087  0.0064  0.3082
 7265SOL     OW33253   4.708   0.372  11.150  0.1542  0.2664 -0.8460
 7265SOL    HW133254   4.706   0.347  11.243  1.8126  2.3177 -0.2709
 7265SOL    HW233255   0.050   0.442  11.146  0.7609 -0.2799 -0.7061
 7266SOL     OW33256   3.728   1.073  14.868  0.2174 -0.4121  0.9957
 7266SOL    HW133257   3.672   1.000  14.843 -2.3816  1.9423  0.0682
 7266SOL    HW233258   3.747   1.038  14.955  1.3353 -0.9203  0.5447
 7267SOL     OW33259   0.014   4.066   6.034 -0.5710 -0.0539 -0.4137
 7267SOL    HW133260   0.021   4.161   6.029  2.0409 -0.1883  1.2163
 7267SOL    HW233261   0.079   4.038   5.969 -1.5518 -1.3975 -0.8332
 7268SOL     OW33262   1.083   3.973   3.124 -0.6502 -0.7525  0.1529
 7268SOL    HW133263   1.072   3.920   3.204  1.4412  0.0445  0.9605
 7268SOL    HW233264   1.001   4.019   3.140 -0.5090  0.0044 -1.3277
 7269SOL     OW33265   2.471   0.427   2.814 -0.1354 -0.0651  0.2134
 7269SOL    HW133266   2.383   0.388   2.820  0.4724 -1.5673 -0.6234
 7269SOL    HW233267   2.493   0.431   2.907 -1.9698 -3.6059  0.8047
 7270SOL     OW33268   1.089   0.706   5.843  0.5670  0.5679 -0.5147
 7270SOL    HW133269   1.048   0.729   5.759  0.9478 -1.4710 -1.2706
 7270SOL    HW233270   1.089   0.611   5.832 -0.5800  0.5269 -0.1798
 7271SOL     OW33271   0.319   4.426   2.747 -0.0933 -0.2889 -0.3721
 7271SOL    HW133272   0.230   4.443   2.717 -0.2842  0.6183  0.7240
 7271SOL    HW233273   0.301   4.361   2.815 -0.6688 -0.5584 -0.7782
 7272SOL     OW33274   0.202   2.812   2.431  0.1743  0.5598 -0.7081
 7272SOL    HW133275   0.203   2.758   2.352  0.2025 -1.7564  0.8747
 7272SOL    HW233276   0.230   2.897   2.395 -3.2371  1.7097 -0.6885
 7273SOL     OW33277   2.232   0.819  14.718  0.4888  0.0849  0.4899
 7273SOL    HW133278   2.252   0.886  14.652  0.7874 -1.9122 -1.4394
 7273SOL    HW233279   2.138   0.830  14.730  0.4682  1.0336 -0.4542
 7274SOL     OW33280   2.878   1.411   5.574  0.4386 -0.0163  0.1863
 7274SOL    HW133281   2.873   1.361   5.492  0.2261  0.6684 -0.2278
 7274SOL    HW233282   2.932   1.366   5.639 -1.4847 -0.7627  1.2445
 7275SOL     OW33283   1.707   0.553   6.886 -0.2099  0.1862 -0.1026
 7275SOL    HW133284   1.619   0.591   6.889 -0.4989 -0.4126 -0.7323
 7275SOL    HW233285   1.681   0.466   6.854  2.1410 -1.0028  1.2115
 7276SOL     OW33286   3.756   1.808   8.183  0.0502 -0.3573 -0.1733
 7276SOL    HW133287   3.670   1.768   8.197 -0.1273 -0.5444 -1.7954
 7276SOL    HW233288   3.800   1.746   8.125 -0.6146 -0.8508 -0.1474
 7277SOL     OW33289   3.877   4.694   7.471  0.7161  0.4497 -1.0234
 7277SOL    HW133290   3.850   4.645   7.392 -1.3753 -0.1660  0.0643
 7277SOL    HW233291   3.949   0.021   7.431 -0.8573  1.4627 -2.6049
 7278SOL     OW33292   3.941   0.348   6.267  0.3669 -0.0503 -0.1387
 7278SOL    HW133293   4.023   0.351   6.317  1.4938  0.0873 -2.0147
 7278SOL    HW233294   3.876   0.318   6.331  0.8118 -1.3300 -0.2844
 7279SOL     OW33295   3.977   3.885   6.475  0.0485  0.1486 -0.8154
 7279SOL    HW133296   3.989   3.845   6.561 -2.2154  0.1817 -0.4785
 7279SOL    HW233297   4.050   3.945   6.470  1.7752 -1.6472  3.4039
 7280SOL     OW33298   3.647   4.574  15.934 -0.8007  0.3307  0.2691
 7280SOL    HW133299   3.670   4.496  15.884  0.2925  1.6908 -1.3667
 7280SOL    HW233300   3.554   4.561  15.953 -1.0557  0.6751 -0.7513
 7281SOL     OW33301   2.540   2.830   3.796  0.5422 -0.6243  0.3007
 7281SOL    HW133302   2.508   2.740   3.788 -0.2050 -0.2181 -1.2268
 7281SOL    HW233303   2.454   2.870   3.806  0.6140 -0.1295 -1.0529
 7282SOL     OW33304   3.855   0.924   4.110 -0.4301  0.0089  0.4393
 7282SOL    HW133305   3.914   0.880   4.049 -1.5243 -0.3352 -0.3743
 7282SOL    HW233306   3.889   0.893   4.194  1.4429  0.0311 -0.3075
 7283SOL     OW33307   4.339   3.132   0.313  0.0145 -0.3856 -0.0118
 7283SOL    HW133308   4.415   3.174   0.274  1.6702 -2.4134  1.0333
 7283SOL    HW233309   4.379   3.064   0.368 -1.7370  1.1876  3.1694
 7284SOL     OW33310   0.506   0.504   4.995 -0.0963  0.1678 -0.1150
 7284SOL    HW133311   0.579   0.550   5.036 -0.3450 -0.2082  0.7483
 7284SOL    HW233312   0.430   0.533   5.045 -0.0965  1.1711 -0.6853
 7285SOL     OW33313   1.783   3.849   8.652 -0.0046 -0.1950  0.1659
 7285SOL    HW133314   1.719   3.812   8.713 -0.7732  1.7834  0.5625
 7285SOL    HW233315   1.861   3.845   8.707 -0.0230 -2.8077  0.0054
 7286SOL     OW33316   3.906   0.448   7.542 -0.1681 -0.5166 -0.4856
 7286SOL    HW133317   3.871   0.397   7.615  1.9214 -1.2343  0.0111
 7286SOL    HW233318   3.888   0.393   7.465 -1.0480 -1.4740  0.4158
 7287SOL     OW33319   4.618   4.639   6.306  0.4797 -1.0046 -0.5069
 7287SOL    HW133320   4.661   4.598   6.381  1.1375  1.0694  0.2796
 7287SOL    HW233321   4.564   4.708   6.345  1.4578  0.1782 -1.2538
 7288SOL     OW33322   2.494   2.702   8.675  0.0179  0.7159  0.7726
 7288SOL    HW133323   2.555   2.748   8.732  1.0918 -0.7118  0.7526
 7288SOL    HW233324   2.497   2.609   8.693 -2.4909  0.8341  1.8437
 7289SOL     OW33325   2.361   0.605   3.385 -0.0197 -0.2333 -0.2121
 7289SOL    HW133326   2.278   0.565   3.409 -0.4999 -0.8200 -2.7903
 7289SOL    HW233327   2.417   0.572   3.455 -3.2451 -4.2430  0.4153
 7290SOL     OW33328   2.342   1.738   1.146  0.2646 -0.5983 -0.6877
 7290SOL    HW133329   2.307   1.650   1.135  3.1860 -1.7296 -0.9019
 7290SOL    HW233330   2.264   1.794   1.146  0.8246  0.1475 -2.8441
 7291SOL     OW33331   3.299   1.690   0.986  0.2829 -0.0026 -0.1338
 7291SOL    HW133332   3.381   1.643   0.978 -1.0047 -2.2215 -0.1741
 7291SOL    HW233333   3.274   1.698   0.894  1.0545 -1.4060 -0.4621
 7292SOL     OW33334   2.346   0.317   5.114 -0.0876  0.1565 -0.3959
 7292SOL    HW133335   2.429   0.273   5.097 -0.8949 -0.8844 -1.7309
 7292SOL    HW233336   2.325   0.289   5.204  1.2513  1.4261  0.3056
 7293SOL     OW33337   2.693   2.573   4.180 -0.2240 -0.6241  0.5243
 7293SOL    HW133338   2.755   2.567   4.108  0.6689  1.3057  1.1219
 7293SOL    HW233339   2.612   2.561   4.130 -0.9357 -0.5446  1.6638
 7294SOL     OW33340   3.805   2.017   8.380 -0.5502 -0.1890  0.2695
 7294SOL    HW133341   3.743   1.976   8.440 -1.3988 -1.3826 -1.4046
 7294SOL    HW233342   3.809   1.953   8.309 -0.8021 -0.4490  0.4917
 7295SOL     OW33343   0.623   0.095   7.016 -0.4711  0.2844  0.3223
 7295SOL    HW133344   0.544   0.079   7.068 -0.1277  3.0357  1.6810
 7295SOL    HW233345   0.684   0.103   7.089 -0.9179  0.9225  0.6301
 7296SOL     OW33346   0.820   0.757   0.609  0.1576  0.2206  0.2286
 7296SOL    HW133347   0.765   0.809   0.667  0.6921  0.8655  0.1562
 7296SOL    HW233348   0.904   0.763   0.654  1.6539 -0.6412 -2.4462
 7297SOL     OW33349   1.518   1.080   7.831 -0.1578 -0.2735  0.0776
 7297SOL    HW133350   1.574   1.124   7.895  0.3316 -1.8796  0.7630
 7297SOL    HW233351   1.574   1.100   7.756 -0.9810  0.3812 -0.3555
 7298SOL     OW33352   1.860   4.642   2.000 -0.1074  0.2031 -0.2103
 7298SOL    HW133353   1.777   4.684   1.979 -0.5961 -0.1663  1.0329
 7298SOL    HW233354   1.870   4.637   2.095 -0.6353  1.4977 -0.0917
 7299SOL     OW33355   1.897   2.215   0.762  0.1729 -0.0883  0.5176
 7299SOL    HW133356   1.853   2.165   0.693  1.6296  0.3676 -0.7369
 7299SOL    HW233357   1.922   2.141   0.818  0.9880 -0.2732 -0.0826
 7300SOL     OW33358   2.425   1.788   2.105  0.5743 -0.4507 -0.8085
 7300SOL    HW133359   2.377   1.856   2.058  1.8239  1.1519  0.2377
 7300SOL    HW233360   2.514   1.823   2.103 -0.0319  1.1515  1.0761
 7301SOL     OW33361   1.872   0.570   2.779  0.7365  0.0955 -0.1646
 7301SOL    HW133362   1.933   0.530   2.840 -1.4550  0.3420  2.1978
 7301SOL    HW233363   1.801   0.507   2.767 -1.3157  2.5023 -0.7455
 7302SOL     OW33364   2.440   2.580   3.692  0.3359 -0.3345  0.4073
 7302SOL    HW133365   2.360   2.527   3.693  0.5018 -0.6203 -1.1903
 7302SOL    HW233366   2.508   2.527   3.733  0.2483  0.3061  1.3922
 7303SOL     OW33367   1.175   3.819  11.302  0.2307 -0.4554  0.1246
 7303SOL    HW133368   1.166   3.724  11.291 -0.0058 -0.2130 -1.7544
 7303SOL    HW233369   1.143   3.846  11.217 -0.7446  0.8605  0.9155
 7304SOL     OW33370   4.462   4.417   6.960 -0.0793  0.3631  0.4851
 7304SOL    HW133371   4.490   4.504   6.986  0.6621 -0.2713  1.8036
 7304SOL    HW233372   4.504   4.362   7.026  0.5158  1.3759  0.9494
 7305SOL     OW33373   0.650   1.173   7.966  0.3778 -0.6201  0.0253
 7305SOL    HW133374   0.714   1.201   8.032 -0.2066  0.4383  0.1462
 7305SOL    HW233375   0.573   1.184   8.023  1.5121 -0.2488  1.4766
 7306SOL     OW33376   4.104   3.729   9.077  0.6848  0.3277  0.0294
 7306SOL    HW133377   4.026   3.693   9.035  1.2565  1.5484 -2.0936
 7306SOL    HW233378   4.174   3.706   9.015 -0.4834 -2.5263 -0.2232
 7307SOL     OW33379   1.056   4.287   4.826 -0.3130  0.5635  0.5423
 7307SOL    HW133380   0.991   4.217   4.835  0.0184  0.3278  1.0959
 7307SOL    HW233381   1.014   4.370   4.852 -1.6036 -0.3318  1.3298
 7308SOL     OW33382   0.187   2.956  14.429 -0.2520  0.6203  0.5306
 7308SOL    HW133383   0.177   2.956  14.524  0.6853  0.3205  0.6292
 7308SOL    HW233384   0.263   2.898  14.430  0.9588  2.1702 -0.7123
 7309SOL     OW33385   2.961   1.337   2.564  0.2779 -0.4353  0.5987
 7309SOL    HW133386   2.968   1.284   2.485  1.5200  0.8549 -0.1399
 7309SOL    HW233387   3.049   1.374   2.561 -0.2286  0.6352 -0.8393
 7310SOL     OW33388   2.117   1.346  12.653  0.2729 -0.2710 -0.0512
 7310SOL    HW133389   2.103   1.439  12.672 -1.1432 -0.7298  1.1240
 7310SOL    HW233390   2.035   1.317  12.694  0.1637 -0.6379 -0.5226
 7311SOL     OW33391   0.233   0.746   0.142  0.5587 -0.4165  0.3393
 7311SOL    HW133392   0.211   0.751   0.235 -1.8185 -1.4548 -0.1424
 7311SOL    HW233393   0.149   0.778   0.108  1.5036  2.0993  0.3817
 7312SOL     OW33394   2.866   1.472  12.962 -0.0375  0.7817 -0.0819
 7312SOL    HW133395   2.853   1.382  12.935  1.5143  1.0687 -1.7764
 7312SOL    HW233396   2.911   1.512  12.887 -0.8493  0.2133 -0.8649
 7313SOL     OW33397   4.269   1.740   6.818  0.1982  0.3558  0.0036
 7313SOL    HW133398   4.250   1.799   6.745 -0.0700 -0.0852 -0.2797
 7313SOL    HW233399   4.305   1.807   6.877  2.4200  0.3845 -1.4055
 7314SOL     OW33400   0.781   2.915   8.515 -0.3255 -0.0198  0.1602
 7314SOL    HW133401   0.771   3.010   8.510  1.7661  0.1832 -0.2386
 7314SOL    HW233402   0.711   2.879   8.460 -1.0614  0.1168  1.0132
 7315SOL     OW33403   1.759   0.760   4.533 -0.1801 -0.2026  0.0208
 7315SOL    HW133404   1.849   0.778   4.559 -0.1506  1.1791 -1.0693
 7315SOL    HW233405   1.756   0.669   4.561 -2.7455 -1.3530 -3.9274
 7316SOL     OW33406   3.116   3.916   6.520  0.5056 -0.0251 -0.0682
 7316SOL    HW133407   3.047   3.946   6.460  0.8661 -0.6788 -0.8043
 7316SOL    HW233408   3.159   3.998   6.545  1.7944 -0.8863  0.5181
 7317SOL     OW33409   1.770   3.315  12.443  0.5549  0.5039 -1.1311
 7317SOL    HW133410   1.725   3.280  12.521 -0.7075  1.8764 -1.2608
 7317SOL    HW233411   1.740   3.405  12.455 -0.2795 -0.0516  1.0667
 7318SOL     OW33412   0.103   0.036   5.122  0.1352 -0.0202  0.7141
 7318SOL    HW133413   0.159   0.108   5.094 -0.1594  0.2425  0.8050
 7318SOL    HW233414   0.023   0.084   5.141  1.4036  1.9900  1.0295
 7319SOL     OW33415   2.033   1.775   6.333 -0.1843  0.4219 -0.2994
 7319SOL    HW133416   1.952   1.725   6.331 -0.2639  0.4746  1.7645
 7319SOL    HW233417   2.004   1.843   6.272  0.0632  2.1010  1.4435
 7320SOL     OW33418   3.032   2.483   4.594  0.4142 -0.2435 -0.5778
 7320SOL    HW133419   2.971   2.556   4.585 -0.3400 -0.6787  1.0749
 7320SOL    HW233420   3.107   2.541   4.608  0.8804 -1.2341  1.0891
 7321SOL     OW33421   3.046   0.885   6.273  0.2327 -0.2467  0.2024
 7321SOL    HW133422   2.981   0.908   6.339  0.0145 -0.7485  0.1687
 7321SOL    HW233423   2.994   0.811   6.239  0.0751 -0.2005  0.3392
 7322SOL     OW33424   4.069   2.443   7.151 -0.1259 -0.1274 -0.3600
 7322SOL    HW133425   4.018   2.364   7.164 -0.3285 -0.3353 -2.3357
 7322SOL    HW233426   4.039   2.468   7.063  1.0958  0.6948 -0.5523
 7323SOL     OW33427   4.620   1.375   1.036  0.6064 -0.3231  0.5580
 7323SOL    HW133428   4.702   1.410   1.071  0.7613 -1.9864  1.8843
 7323SOL    HW233429   4.634   1.407   0.947 -3.3641 -0.2857 -0.0500
 7324SOL     OW33430   0.453   2.124   3.215  0.2300 -0.2056 -0.8709
 7324SOL    HW133431   0.438   2.071   3.137 -0.4016 -2.9428  1.1097
 7324SOL    HW233432   0.504   2.197   3.181  0.6880 -0.7685 -1.3980
 7325SOL     OW33433   4.288   4.553   0.793  0.2431 -0.6786 -0.0131
 7325SOL    HW133434   4.254   4.496   0.725 -0.6124  2.0099 -1.8245
 7325SOL    HW233435   4.378   4.522   0.808 -0.7191 -2.5794  1.8452
 7326SOL     OW33436   1.246   3.370   4.752  0.2019 -0.3011  0.1009
 7326SOL    HW133437   1.320   3.397   4.699  1.0523 -1.4117  0.7208
 7326SOL    HW233438   1.204   3.455   4.763 -0.4614 -0.4806 -1.1129
 7327SOL     OW33439   3.353   2.283   5.563 -0.1175  0.1109  0.0093
 7327SOL    HW133440   3.313   2.227   5.630  2.0545  1.5841  2.5597
 7327SOL    HW233441   3.440   2.286   5.601  0.5928  0.1787 -1.6358
 7328SOL     OW33442   1.981   2.072  17.503  0.3822  0.0564  0.5880
 7328SOL    HW133443   2.057   2.023  17.534 -0.0505 -1.2202 -0.3796
 7328SOL    HW233444   1.932   2.019  17.565 -2.7235  0.5368 -1.4827
 7329SOL     OW33445   1.886   0.543   3.762 -0.2624  0.2204  0.2326
 7329SOL    HW133446   1.963   0.488   3.777 -0.6755 -1.2141 -3.0710
 7329SOL    HW233447   1.834   0.526   3.841 -1.4365  1.8308 -0.2038
 7330SOL     OW33448   0.782   1.575   4.479  0.3407 -0.4824  0.2505
 7330SOL    HW133449   0.829   1.492   4.490 -0.8171 -0.8767  2.2889
 7330SOL    HW233450   0.818   1.612   4.560 -1.2613 -0.0486  0.7795
 7331SOL     OW33451   2.599   0.518   5.285  0.1995 -0.3921  0.2865
 7331SOL    HW133452   2.575   0.539   5.375 -1.2220 -3.6286  0.6598
 7331SOL    HW233453   2.670   0.455   5.296  1.1877  0.5091 -0.8022
 7332SOL     OW33454   1.249   3.935  15.304 -0.2555  0.7381  0.4294
 7332SOL    HW133455   1.171   3.902  15.260  0.6050  0.0609 -0.5663
 7332SOL    HW233456   1.270   3.854  15.350 -0.3039  1.5030  1.7900
 7333SOL     OW33457   0.925   2.556  17.513  0.2707 -0.4131  0.5619
 7333SOL    HW133458   0.955   2.616  17.445 -0.2275 -0.3720  0.3817
 7333SOL    HW233459   0.970   2.475  17.493 -2.1133 -0.9092 -2.6953
 7334SOL     OW33460   3.177   2.448  16.643  1.1003  0.6983  0.1146
 7334SOL    HW133461   3.229   2.445  16.724  2.4124 -1.8832 -0.8298
 7334SOL    HW233462   3.218   2.381  16.588  0.5237 -0.0848  0.6427
 7335SOL     OW33463   4.698   2.162  13.472 -0.6469 -0.2753 -0.0684
 7335SOL    HW133464   4.628   2.222  13.500 -2.1230 -1.4019 -1.3351
 7335SOL    HW233465   4.684   2.171  13.377 -0.9261  1.6262  0.1528
 7336SOL     OW33466   4.702   2.445  10.552 -0.5530  0.6331 -0.4104
 7336SOL    HW133467   0.041   2.508  10.591  0.5987  0.2843 -1.6494
 7336SOL    HW233468   0.036   2.372  10.524 -0.7418  1.5320 -3.1141
 7337SOL     OW33469   1.937   0.527  12.242 -0.3045 -0.2890  0.2546
 7337SOL    HW133470   1.991   0.461  12.286 -0.1966 -0.8384 -0.6942
 7337SOL    HW233471   1.923   0.485  12.157 -0.8789 -0.5516  0.4760
 7338SOL     OW33472   4.183   3.601   1.852 -1.1354 -0.0926  0.0022
 7338SOL    HW133473   4.248   3.534   1.873 -1.4576  0.2960  2.2139
 7338SOL    HW233474   4.101   3.552   1.861 -1.6979  0.8607  0.1104
 7339SOL     OW33475   2.785   2.417   2.905  0.0618  0.3669 -0.0465
 7339SOL    HW133476   2.879   2.427   2.920  0.2157 -0.4299 -0.4430
 7339SOL    HW233477   2.784   2.346   2.840  1.1314  2.0695 -1.9217
 7340SOL     OW33478   1.053   4.436  16.123  0.0922  0.6730  0.2448
 7340SOL    HW133479   1.117   4.403  16.060 -0.1756 -2.4846  1.6308
 7340SOL    HW233480   1.102   4.410  16.201  0.0537 -4.0432 -1.3176
 7341SOL     OW33481   0.985   1.381  13.106  0.6375 -0.3715 -0.3116
 7341SOL    HW133482   1.053   1.446  13.124  0.4109  0.3907 -2.1894
 7341SOL    HW233483   1.033   1.298  13.107 -0.2328 -0.8714 -0.5952
 7342SOL     OW33484   1.878   3.272  13.333 -0.3455 -1.3435 -0.2684
 7342SOL    HW133485   1.956   3.278  13.277 -0.5561  1.9555 -0.1824
 7342SOL    HW233486   1.922   3.277  13.418 -2.9031 -1.1821  1.0318
 7343SOL     OW33487   3.110   4.321   5.353  0.2491 -0.1269 -0.2506
 7343SOL    HW133488   3.203   4.331   5.334 -0.6053  0.1065 -4.4399
 7343SOL    HW233489   3.128   4.281   5.437  0.8156 -0.0491 -0.3377
 7344SOL     OW33490   1.740   1.878   6.639 -0.4795 -0.0860  0.3596
 7344SOL    HW133491   1.801   1.805   6.652 -1.0128 -0.3377  1.4598
 7344SOL    HW233492   1.788   1.941   6.585 -0.8455 -0.2384 -0.1455
 7345SOL     OW33493   2.893   3.207   8.252 -0.3163 -0.6130  0.2757
 7345SOL    HW133494   2.952   3.132   8.243 -0.1949 -0.8215  2.9185
 7345SOL    HW233495   2.901   3.221   8.346  1.2376  0.0313  0.0447
 7346SOL     OW33496   2.051   0.436   8.515 -0.7134 -0.5233 -0.0125
 7346SOL    HW133497   2.133   0.407   8.553 -0.3486 -0.2115 -0.5647
 7346SOL    HW233498   2.073   0.519   8.472 -0.4630 -1.1975 -1.1955
 7347SOL     OW33499   4.366   3.411   4.033 -0.0430 -0.0399 -0.5651
 7347SOL    HW133500   4.343   3.318   4.024  0.2525  0.1212 -3.0535
 7347SOL    HW233501   4.459   3.422   4.012 -0.4752  0.8140 -2.0213
 7348SOL     OW33502   3.334   4.354   3.158  0.1387  0.4153  0.0393
 7348SOL    HW133503   3.334   4.379   3.066 -2.2179  3.9996  0.9979
 7348SOL    HW233504   3.411   4.408   3.179 -2.0259  3.5228  0.0033
 7349SOL     OW33505   1.690   1.138   8.807  0.3494  0.4739  0.2231
 7349SOL    HW133506   1.781   1.162   8.822  0.5255 -0.1585  0.1553
 7349SOL    HW233507   1.633   1.155   8.882 -0.3883  2.0552 -0.6736
 7350SOL     OW33508   2.391   3.395   1.295 -0.6934 -0.1055 -0.4562
 7350SOL    HW133509   2.393   3.457   1.368 -0.9225  0.1558 -0.6729
 7350SOL    HW233510   2.354   3.444   1.222 -1.8862 -1.2999 -0.6531
 7351SOL     OW33511   0.396   0.887   8.107 -0.6444 -0.2971 -0.3238
 7351SOL    HW133512   0.385   0.882   8.202  0.3427 -0.4709 -0.2263
 7351SOL    HW233513   0.491   0.887   8.108 -0.6588  1.3514  0.5463
 7352SOL     OW33514   0.877   3.309   2.899 -0.2717  0.1313  0.1845
 7352SOL    HW133515   0.933   3.322   2.976  2.3621  0.3744 -1.7634
 7352SOL    HW233516   0.914   3.229   2.863  0.2758  0.1782  0.6445
 7353SOL     OW33517   2.752   2.423  15.734 -0.3430 -0.1864  0.0043
 7353SOL    HW133518   2.699   2.371  15.673 -1.5719  1.9732 -0.7570
 7353SOL    HW233519   2.842   2.392  15.727 -0.2682  0.7138 -3.3775
 7354SOL     OW33520   1.409   4.525   7.469  0.6171 -0.0520 -0.1219
 7354SOL    HW133521   1.327   4.503   7.425  0.2234 -0.5270  0.8611
 7354SOL    HW233522   1.373   4.557   7.552  2.0657  0.5341  0.2875
 7355SOL     OW33523   0.794   1.790  13.375  0.2569 -0.6462 -0.5071
 7355SOL    HW133524   0.770   1.735  13.450  0.1757 -1.1593 -0.9141
 7355SOL    HW233525   0.727   1.759  13.315 -0.2227 -0.5732 -0.0104
 7356SOL     OW33526   4.277   0.045   6.940  0.2004  0.6363  0.2763
 7356SOL    HW133527   4.294   0.131   6.977  0.8049  0.3958  0.5614
 7356SOL    HW233528   4.362   0.003   6.948  0.5842  0.9284 -2.1605
 7357SOL     OW33529   2.871   0.492   4.121  0.3014 -0.4740 -0.0375
 7357SOL    HW133530   2.818   0.499   4.201 -0.6652  1.7461 -0.8758
 7357SOL    HW233531   2.868   0.583   4.095  0.1757  0.2279  2.4030
 7358SOL     OW33532   3.282   4.309   9.172  0.6573  0.6374  0.2626
 7358SOL    HW133533   3.247   4.310   9.083  0.7929  0.4220  0.2086
 7358SOL    HW233534   3.279   4.217   9.196  2.4473  0.6961  0.7383
 7359SOL     OW33535   4.207   1.782   7.330 -0.1293  0.0981 -0.0784
 7359SOL    HW133536   4.248   1.748   7.409  1.0665  0.6216 -0.4866
 7359SOL    HW233537   4.272   1.843   7.296 -0.0744  1.1050  1.8735
 7360SOL     OW33538   4.626   2.584   8.059 -0.2051  0.2680 -0.2220
 7360SOL    HW133539   4.604   2.495   8.031 -0.5672 -0.0512  1.0315
 7360SOL    HW233540   4.668   2.569   8.144  1.2957  1.7271 -0.7081
 7361SOL     OW33541   3.599   1.278   9.491  0.1837  0.2112 -0.0512
 7361SOL    HW133542   3.659   1.220   9.444  0.3612  1.0483 -0.8715
 7361SOL    HW233543   3.574   1.340   9.422 -0.9465  1.1206  1.1887
 7362SOL     OW33544   4.688   0.282   5.526  0.0364 -0.2700 -0.0822
 7362SOL    HW133545   0.001   0.211   5.580 -0.1907  0.2081  0.6867
 7362SOL    HW233546   4.696   0.363   5.576 -0.2179 -1.9031  2.6090
 7363SOL     OW33547   3.660   3.501  16.173  0.4790 -0.0159  0.4096
 7363SOL    HW133548   3.654   3.424  16.230 -0.6626  0.3714  0.8179
 7363SOL    HW233549   3.687   3.572  16.232  0.5621  1.4137 -1.3527
 7364SOL     OW33550   0.950   3.474   3.103 -0.1388  0.1706  0.4133
 7364SOL    HW133551   1.031   3.514   3.133  1.5984 -1.8014 -1.6205
 7364SOL    HW233552   0.921   3.446   3.190  0.1946 -3.0839 -0.5169
 7365SOL     OW33553   2.925   0.091   8.308  0.2103 -0.2469  0.3198
 7365SOL    HW133554   2.948   0.159   8.244  0.7164 -0.1986  0.5534
 7365SOL    HW233555   2.999   0.032   8.297  2.0238  2.1105 -0.1391
 7366SOL     OW33556   3.676   3.713   7.337  0.1565  0.5279 -0.1628
 7366SOL    HW133557   3.754   3.714   7.281  1.0004  2.0597  1.0185
 7366SOL    HW233558   3.645   3.623   7.335 -0.6265  0.8047 -0.2604
 7367SOL     OW33559   0.320   0.615   9.034 -0.2842  0.0063 -0.1285
 7367SOL    HW133560   0.300   0.666   9.113 -0.3361 -1.5598  0.8790
 7367SOL    HW233561   0.232   0.581   9.018 -0.4077  0.3887 -0.2472
 7368SOL     OW33562   3.206   2.943   4.916 -0.1633 -0.3000  0.0617
 7368SOL    HW133563   3.275   2.963   4.853 -0.6729  0.5633 -0.2359
 7368SOL    HW233564   3.242   2.870   4.965 -1.4813 -0.8991  0.1520
 7369SOL     OW33565   3.364   3.986   9.644  0.5829 -0.2362  0.0463
 7369SOL    HW133566   3.303   3.954   9.710  1.8901 -2.8360  0.0204
 7369SOL    HW233567   3.435   3.922   9.647 -0.2971 -1.2234 -0.4167
 7370SOL     OW33568   4.492   2.345   5.836  0.5538  0.5530 -0.0445
 7370SOL    HW133569   4.552   2.302   5.897  1.6365  4.5713  1.6599
 7370SOL    HW233570   4.437   2.268   5.823  3.1556 -1.4125  0.5761
 7371SOL     OW33571   2.887   0.696   5.646 -1.0735  0.6865  0.2531
 7371SOL    HW133572   2.923   0.681   5.558  1.7335 -0.2823  1.5532
 7371SOL    HW233573   2.946   0.641   5.698 -0.1806  3.4775  2.1746
 7372SOL     OW33574   2.471   3.001   9.410 -0.1582 -0.0249  0.0054
 7372SOL    HW133575   2.479   3.086   9.366 -2.0290  1.7546  3.0622
 7372SOL    HW233576   2.474   2.953   9.328 -1.2863 -0.5480  0.2650
 7373SOL     OW33577   2.966   1.769   6.822 -0.1982 -0.1696  0.0285
 7373SOL    HW133578   2.947   1.705   6.891 -0.8223 -0.2097 -0.1888
 7373SOL    HW233579   3.030   1.815   6.876  0.0743 -2.2089  1.4515
 7374SOL     OW33580   0.049   3.842   3.019 -0.4058  0.3282  0.7025
 7374SOL    HW133581   4.684   3.811   3.042 -0.3969 -0.6161 -0.5526
 7374SOL    HW233582   0.089   3.755   3.017  1.5490  1.1839  2.0107
 7375SOL     OW33583   2.229   4.343   4.245  0.2849  0.4394  0.3421
 7375SOL    HW133584   2.150   4.351   4.299 -0.2218 -2.8825  0.1185
 7375SOL    HW233585   2.197   4.278   4.182 -1.1601  0.8380  0.6647
 7376SOL     OW33586   0.248   1.021   5.834 -0.0611  0.2145  0.5064
 7376SOL    HW133587   0.157   1.049   5.823  0.3132  0.4937 -1.9240
 7376SOL    HW233588   0.288   1.079   5.769 -0.5030 -0.7807 -0.6543
 7377SOL     OW33589   3.383   3.060  14.428 -0.0787 -0.3018 -0.4193
 7377SOL    HW133590   3.456   3.088  14.483  0.1124 -2.1887  0.2968
 7377SOL    HW233591   3.365   3.130  14.366  0.8439 -0.4051 -0.7986
 7378SOL     OW33592   0.327   3.169   2.686  0.5435  0.1770 -0.1089
 7378SOL    HW133593   0.384   3.122   2.626 -1.4271  0.0348 -1.8621
 7378SOL    HW233594   0.320   3.102   2.754  0.4836  1.0851  0.7814
 7379SOL     OW33595   4.375   0.097   9.216 -0.2975  0.0196  0.2098
 7379SOL    HW133596   4.306   0.034   9.194 -0.7164 -0.2762  2.3854
 7379SOL    HW233597   4.404   0.063   9.300  0.0929 -0.7131 -0.2220
 7380SOL     OW33598   2.855   0.768  13.495 -0.2962  0.1530 -0.3290
 7380SOL    HW133599   2.784   0.761  13.432  0.2572  2.4832 -1.2311
 7380SOL    HW233600   2.930   0.729  13.451  0.0268  0.0642  0.2999
 7381SOL     OW33601   2.244   1.096  16.620 -1.0306  0.0203  0.0481
 7381SOL    HW133602   2.225   1.042  16.697  0.0564 -0.1170  0.2166
 7381SOL    HW233603   2.325   1.060  16.584 -1.0254 -0.8199  0.9051
 7382SOL     OW33604   2.107   3.585   7.328  0.7620 -0.2233  0.0073
 7382SOL    HW133605   2.064   3.586   7.242  1.7772 -0.3238 -0.5074
 7382SOL    HW233606   2.179   3.646   7.312 -0.0905  0.8545  0.2903
 7383SOL     OW33607   3.170   0.114   0.073 -0.2876 -0.0746  0.2448
 7383SOL    HW133608   3.125   0.108   0.157 -2.2308 -3.2737 -0.9985
 7383SOL    HW233609   3.258   0.087   0.099 -0.6943 -1.8060 -0.1412
 7384SOL     OW33610   0.905   2.438  11.638  0.2305  0.3363 -0.4443
 7384SOL    HW133611   0.968   2.499  11.678 -1.0051  1.2218  0.1509
 7384SOL    HW233612   0.839   2.421  11.705 -0.7518 -0.9538 -1.7577
 7385SOL     OW33613   2.710   2.472  16.258  0.3500  0.0901 -0.3512
 7385SOL    HW133614   2.718   2.377  16.264 -1.8376 -0.0677  0.2310
 7385SOL    HW233615   2.669   2.480  16.172  0.8672  1.4336 -0.4769
 7386SOL     OW33616   3.306   0.552   2.129 -0.4426  0.0017 -0.4449
 7386SOL    HW133617   3.373   0.493   2.097  0.0469  0.9240 -1.1355
 7386SOL    HW233618   3.305   0.527   2.221 -0.8891  1.6573  0.0142
 7387SOL     OW33619   2.139   3.325   4.844 -0.1474 -0.2381 -0.5433
 7387SOL    HW133620   2.117   3.233   4.856  0.0665 -0.6857 -3.5408
 7387SOL    HW233621   2.210   3.330   4.780 -2.3824 -0.0704 -3.0509
 7388SOL     OW33622   2.217   3.721   5.791 -0.3030  0.6702 -0.1659
 7388SOL    HW133623   2.124   3.729   5.768 -0.4746  0.0780  0.3255
 7388SOL    HW233624   2.208   3.659   5.863 -0.1884 -0.1254 -0.8451
 7389SOL     OW33625   1.594   2.076   4.846 -0.0105  0.0012 -0.1497
 7389SOL    HW133626   1.506   2.107   4.865 -0.0256  0.5183 -1.0317
 7389SOL    HW233627   1.642   2.138   4.900 -0.8115  0.5765 -0.0990
 7390SOL     OW33628   1.220   0.485   7.020 -0.0117 -0.6086  0.5945
 7390SOL    HW133629   1.285   0.485   7.090 -0.8587  0.2717  1.3871
 7390SOL    HW233630   1.247   0.418   6.958 -0.5313  1.2340 -1.6099
 7391SOL     OW33631   4.003   4.599  13.617 -0.6330 -0.2506  0.2837
 7391SOL    HW133632   4.064   4.637  13.681  0.3612 -0.8294 -0.3224
 7391SOL    HW233633   3.976   4.672  13.563 -3.1470 -0.8334  0.7243
 7392SOL     OW33634   4.571   3.336   3.311 -0.7596 -0.6380  0.0816
 7392SOL    HW133635   4.572   3.376   3.398 -1.5343  0.0479 -0.2292
 7392SOL    HW233636   4.600   3.408   3.257 -0.0097 -1.6541 -0.8688
 7393SOL     OW33637   2.119   0.705   0.501 -0.3271  0.1681  0.5928
 7393SOL    HW133638   2.166   0.766   0.445 -2.8688  0.8888 -0.7633
 7393SOL    HW233639   2.187   0.667   0.557  1.0230  0.5984 -0.7409
 7394SOL     OW33640   0.232   3.522   5.237 -0.6167  0.1250  0.0707
 7394SOL    HW133641   0.300   3.483   5.181 -0.0087 -0.0752  0.9520
 7394SOL    HW233642   0.160   3.464   5.214  0.1896 -1.2242  0.9745
 7395SOL     OW33643   0.002   2.319  16.714 -0.2128  0.1990  0.3348
 7395SOL    HW133644   4.699   2.288  16.801 -0.2210  0.2627  0.3555
 7395SOL    HW233645   0.053   2.396  16.739  1.9972 -0.8703 -0.8149
 7396SOL     OW33646   0.119   1.109   5.282  0.0748  0.3913 -0.2543
 7396SOL    HW133647   0.206   1.137   5.254  0.0256  0.1132 -0.6832
 7396SOL    HW233648   0.091   1.192   5.319 -1.2869  0.0051 -0.4194
 7397SOL     OW33649   3.988   3.919   8.900 -1.0365  0.2481 -0.4019
 7397SOL    HW133650   3.914   3.941   8.843 -1.2476 -3.1297 -1.3895
 7397SOL    HW233651   3.944   3.844   8.941  0.9277  0.1954  1.5823
 7398SOL     OW33652   1.087   2.592   0.113 -0.0782  0.0483 -0.3195
 7398SOL    HW133653   1.100   2.600   0.018 -1.2713 -0.5602 -0.5246
 7398SOL    HW233654   1.041   2.674   0.131 -0.8633 -0.2984 -0.7480
 7399SOL     OW33655   3.527   0.983   5.628 -0.2071  0.0401 -0.0646
 7399SOL    HW133656   3.489   0.916   5.571  1.4003 -0.5253 -0.4838
 7399SOL    HW233657   3.459   1.048   5.613 -1.3488 -1.1860 -0.1689
 7400SOL     OW33658   2.143   2.064   1.707 -0.2373  0.2130  0.0664
 7400SOL    HW133659   2.085   2.007   1.757 -0.1793  0.2623  0.1898
 7400SOL    HW233660   2.074   2.104   1.654  3.2518  3.6942 -1.8230
 7401SOL     OW33661   4.518   3.999   5.130 -0.3189 -0.1781  0.3581
 7401SOL    HW133662   4.473   3.945   5.194 -0.6182 -1.3168 -0.8166
 7401SOL    HW233663   4.511   3.932   5.062  1.8942  0.6494 -0.6949
 7402SOL     OW33664   3.723   1.545   8.390 -0.2738 -0.0225  0.7096
 7402SOL    HW133665   3.663   1.593   8.447  0.4288  2.5581 -0.7323
 7402SOL    HW233666   3.658   1.490   8.348 -2.6755  2.8597  0.6559
 7403SOL     OW33667   2.453   0.292   8.077  0.5205 -0.2970  0.2703
 7403SOL    HW133668   2.526   0.272   8.134  2.9876  0.7505 -2.5270
 7403SOL    HW233669   2.429   0.201   8.058 -0.1065 -0.1918  0.5416
 7404SOL     OW33670   3.727   1.621   3.535  0.0228 -0.5303 -0.2174
 7404SOL    HW133671   3.763   1.566   3.605  0.9818 -0.8556 -0.9611
 7404SOL    HW233672   3.638   1.600   3.561 -0.4159  1.2384 -0.2617
 7405SOL     OW33673   1.496   4.218   6.442 -0.1536 -0.0322  0.1735
 7405SOL    HW133674   1.588   4.235   6.462  0.3049 -1.0330 -1.0496
 7405SOL    HW233675   1.496   4.218   6.346 -0.4992 -0.1962  0.1711
 7406SOL     OW33676   2.114   0.161   5.802 -0.4649  0.0946 -0.5718
 7406SOL    HW133677   2.179   0.188   5.867 -0.0147 -1.4958 -0.3427
 7406SOL    HW233678   2.123   0.244   5.756 -2.1709  1.2432  1.1773
 7407SOL     OW33679   2.199   1.578   6.783 -0.0690  0.3115 -0.6426
 7407SOL    HW133680   2.232   1.490   6.765 -0.5774 -0.3775  1.8910
 7407SOL    HW233681   2.248   1.594   6.864 -0.0939  0.5536 -0.6761
 7408SOL     OW33682   3.252   1.950  17.397 -0.1328  0.5913  0.6929
 7408SOL    HW133683   3.276   1.900  17.319  1.0207  2.8363 -0.4028
 7408SOL    HW233684   3.294   2.034  17.378 -1.2021  0.7862 -0.8020
 7409SOL     OW33685   4.517   4.514   9.126  0.2747  0.1980 -0.6940
 7409SOL    HW133686   4.566   4.533   9.206  0.5276  1.4439 -1.1431
 7409SOL    HW233687   4.590   4.502   9.066  1.2454 -1.0775  0.7370
 7410SOL     OW33688   3.368   0.682   8.672 -0.2590 -0.2347  0.2784
 7410SOL    HW133689   3.332   0.752   8.617 -1.1048 -1.1403 -0.3317
 7410SOL    HW233690   3.327   0.690   8.758  0.4482  0.4951  0.5392
 7411SOL     OW33691   2.696   3.665  13.606  0.4400 -0.6647  0.0748
 7411SOL    HW133692   2.734   3.671  13.519 -2.6432  0.9132 -1.1557
 7411SOL    HW233693   2.604   3.663  13.581  0.2505 -1.5956  0.8152
 7412SOL     OW33694   3.455   1.811   0.052  0.7598  0.0044  0.2552
 7412SOL    HW133695   3.530   1.821   0.112  1.0815  1.6548 -0.4247
 7412SOL    HW233696   3.483   1.738  17.689  0.0904  0.1957 -0.3313
 7413SOL     OW33697   3.125   1.099   7.253 -0.1090  0.1372 -0.0044
 7413SOL    HW133698   3.112   1.009   7.224 -1.0848  0.3531 -0.2556
 7413SOL    HW233699   3.113   1.142   7.168 -0.5958  1.2826  0.6452
 7414SOL     OW33700   0.771   4.320   3.321  0.2676  0.7340 -0.1455
 7414SOL    HW133701   0.843   4.378   3.297  1.1765 -0.5160 -0.4558
 7414SOL    HW233702   0.712   4.372   3.374  2.4675  2.3120  0.7611
 7415SOL     OW33703   1.162   3.697  12.065 -0.5537  0.7930 -0.4524
 7415SOL    HW133704   1.093   3.634  12.086 -0.1797  1.0990  1.7398
 7415SOL    HW233705   1.195   3.663  11.982 -3.6855 -1.7975 -0.6405
 7416SOL     OW33706   1.843   3.964   4.128  0.1417  0.0489  0.2410
 7416SOL    HW133707   1.891   4.000   4.202 -1.7297  1.6219  0.6846
 7416SOL    HW233708   1.795   3.900   4.179 -0.2141 -1.0431 -1.4441
 7417SOL     OW33709   2.431   4.636   6.041  0.2164  0.1934  0.4411
 7417SOL    HW133710   2.525   4.642   6.062  0.3194  0.1341  0.0066
 7417SOL    HW233711   2.439   4.581   5.963 -1.8551 -0.2282  0.5334
 7418SOL     OW33712   2.049   4.332   3.435  0.3388 -0.7888  0.3115
 7418SOL    HW133713   2.113   4.350   3.367  1.3606 -1.9650  0.9589
 7418SOL    HW233714   2.103   4.260   3.468  0.9185  0.0082  1.0812
 7419SOL     OW33715   1.890   1.391   5.996 -0.2559  0.5061 -0.4345
 7419SOL    HW133716   1.942   1.311   6.004 -0.4709  0.4305  0.2049
 7419SOL    HW233717   1.936   1.435   5.924 -1.2814  0.2492 -1.2386
 7420SOL     OW33718   0.859   0.890   4.732  0.0949 -0.1570 -0.0461
 7420SOL    HW133719   0.855   0.842   4.649  0.7498 -0.0756 -0.1244
 7420SOL    HW233720   0.816   0.834   4.798  0.0582  1.2067  1.0883
 7421SOL     OW33721   1.057   0.243   1.046  0.4234 -0.2293  0.1831
 7421SOL    HW133722   1.060   0.274   1.136  0.3183  0.1903  0.0411
 7421SOL    HW233723   0.965   0.256   1.022  1.1004  0.4339 -2.0647
 7422SOL     OW33724   0.166   0.863   4.934  0.3416 -0.2368 -0.0792
 7422SOL    HW133725   0.170   0.821   5.020  0.7734  1.0407  0.5175
 7422SOL    HW233726   0.071   0.867   4.920  0.2577  3.2682  1.3910
 7423SOL     OW33727   1.161   2.833   3.763  0.1419  0.1527  0.4973
 7423SOL    HW133728   1.213   2.819   3.842  1.5725  1.4380 -0.2112
 7423SOL    HW233729   1.092   2.767   3.762  0.0533  0.2316  1.2530
 7424SOL     OW33730   1.496   3.139   8.561  0.2584 -0.1212  0.3048
 7424SOL    HW133731   1.515   3.094   8.478  1.1813 -0.0198  0.4618
 7424SOL    HW233732   1.401   3.145   8.560  0.1823 -1.7089 -1.6622
 7425SOL     OW33733   1.806   2.438   4.490 -0.3404  0.0569 -0.5787
 7425SOL    HW133734   1.726   2.385   4.486  0.3213 -1.0711  1.3764
 7425SOL    HW233735   1.845   2.388   4.562 -0.2124 -0.2099 -0.8338
 7426SOL     OW33736   1.280   4.045   1.082 -0.4824  0.2693  0.3858
 7426SOL    HW133737   1.254   4.031   0.991 -1.0706 -1.4468  0.8117
 7426SOL    HW233738   1.318   3.960   1.104 -0.0530  0.2814 -0.3248
 7427SOL     OW33739   3.651   1.428   5.006  0.0323 -0.2591  0.6871
 7427SOL    HW133740   3.646   1.420   4.911 -0.5677 -2.9630  0.9242
 7427SOL    HW233741   3.567   1.388   5.031 -0.2607  0.4237  0.7774
 7428SOL     OW33742   2.109   3.876   4.977 -0.3779  0.1470 -0.2255
 7428SOL    HW133743   2.172   3.806   4.998  0.4208  1.1157  0.5967
 7428SOL    HW233744   2.146   3.949   5.027  0.3242 -1.4809  1.6624
 7429SOL     OW33745   2.886   0.259   7.794 -0.0385 -0.0887  0.4338
 7429SOL    HW133746   2.816   0.197   7.774 -2.6297  2.9325  0.2922
 7429SOL    HW233747   2.916   0.282   7.706 -1.2735  1.6654  0.4780
 7430SOL     OW33748   0.745   4.291   2.499 -0.2593 -0.1902 -0.5906
 7430SOL    HW133749   0.715   4.331   2.417  0.0122 -2.2579 -1.6926
 7430SOL    HW233750   0.784   4.207   2.472  0.1635 -0.5086  1.0353
 7431SOL     OW33751   3.680   2.635   0.718  0.7043 -0.6045  0.0911
 7431SOL    HW133752   3.667   2.711   0.663  2.2607 -0.3682  0.0551
 7431SOL    HW233753   3.630   2.569   0.670 -1.5047  1.9735 -1.0813
 7432SOL     OW33754   4.059   4.192  12.573  0.2738 -0.1695  0.2597
 7432SOL    HW133755   3.984   4.145  12.536  1.8492 -1.7733 -0.9101
 7432SOL    HW233756   4.016   4.267  12.615 -0.6569 -1.2615  1.2467
 7433SOL     OW33757   0.984   1.656   2.153 -0.0747 -0.5575 -0.1428
 7433SOL    HW133758   1.025   1.653   2.067 -0.1263 -3.9814 -0.0269
 7433SOL    HW233759   0.892   1.639   2.131 -0.1205  1.9980 -2.0054
 7434SOL     OW33760   1.731   2.661  11.858  0.1822  0.4486  0.5040
 7434SOL    HW133761   1.712   2.702  11.773 -0.4638 -3.7847 -1.3813
 7434SOL    HW233762   1.814   2.701  11.883  0.0496  0.8733  0.2642
 7435SOL     OW33763   1.888   3.046  10.961  0.2597 -0.0713  0.2868
 7435SOL    HW133764   1.947   3.049  10.885  0.5602 -0.4509  0.5016
 7435SOL    HW233765   1.910   3.132  10.996  2.9002  0.5017 -2.7739
 7436SOL     OW33766   4.052   3.078  16.319 -0.2273  0.5586  0.9123
 7436SOL    HW133767   4.065   3.162  16.363  0.3477  0.3910  1.0674
 7436SOL    HW233768   3.969   3.097  16.277  0.0443 -1.4024 -0.4877
 7437SOL     OW33769   1.636   1.958   7.076  0.1144 -0.8168 -0.0967
 7437SOL    HW133770   1.666   1.868   7.064  0.0532 -1.2253  3.0030
 7437SOL    HW233771   1.635   1.985   6.984  0.3789  0.1555  0.1970
 7438SOL     OW33772   4.482   0.489  11.504 -0.2907  0.3011 -0.1751
 7438SOL    HW133773   4.459   0.568  11.553 -2.7943 -1.0107  0.7703
 7438SOL    HW233774   4.443   0.520  11.422  0.0359 -0.4880 -0.6271
 7439SOL     OW33775   1.754   0.532   7.229  0.2055  0.1646  0.1566
 7439SOL    HW133776   1.836   0.485   7.241 -0.1452 -0.6659 -0.6893
 7439SOL    HW233777   1.700   0.465   7.186  0.4908  0.8156 -1.2186
 7440SOL     OW33778   3.050   2.409   2.126  0.6011  0.1771 -0.1929
 7440SOL    HW133779   3.104   2.355   2.184 -2.1208 -1.0981  1.1653
 7440SOL    HW233780   3.124   2.467   2.106  0.8367 -0.6146 -1.6268
 7441SOL     OW33781   4.476   2.077  10.214  0.1985  0.0811  0.5450
 7441SOL    HW133782   4.570   2.097  10.224  0.6822 -0.9016 -2.1281
 7441SOL    HW233783   4.453   2.042  10.300 -3.3853 -3.3733 -1.8388
 7442SOL     OW33784   0.950   0.666  13.786  0.5864  0.1052  0.0758
 7442SOL    HW133785   0.950   0.694  13.695 -1.3568  1.0343  0.3629
 7442SOL    HW233786   0.982   0.581  13.756 -0.9500 -0.7373  0.8230
 7443SOL     OW33787   4.532   2.534  15.320  0.3920  0.1647  1.0094
 7443SOL    HW133788   4.527   2.440  15.306  1.9170  0.3401 -0.6632
 7443SOL    HW233789   4.547   2.530  15.415 -2.4931 -0.7010  1.4328
 7444SOL     OW33790   1.008   3.178   3.387  0.2358  0.5419 -0.4813
 7444SOL    HW133791   1.002   3.205   3.479 -0.4579  0.5316 -0.5230
 7444SOL    HW233792   0.964   3.254   3.347  0.1599  0.9533  0.3917
 7445SOL     OW33793   2.055   2.239   2.639  0.0905 -0.8299 -0.4406
 7445SOL    HW133794   2.073   2.300   2.710 -0.0246 -0.7402 -0.4879
 7445SOL    HW233795   2.139   2.231   2.594 -0.0526  0.7265 -0.9698
 7446SOL     OW33796   2.892   4.212   8.382  0.3892 -0.0094 -0.1411
 7446SOL    HW133797   2.936   4.293   8.355  1.4025 -1.3622 -2.5691
 7446SOL    HW233798   2.813   4.250   8.419 -1.0389 -0.8986 -2.2434
 7447SOL     OW33799   0.337   1.359  12.406 -0.2598  0.5971 -0.3826
 7447SOL    HW133800   0.389   1.319  12.337 -0.0548  0.9562 -0.4334
 7447SOL    HW233801   0.385   1.438  12.426  0.6157 -0.3393  1.1972
 7448SOL     OW33802   3.388   2.185  16.182  0.6501 -0.0193  0.2352
 7448SOL    HW133803   3.466   2.136  16.156 -0.9685 -1.6325 -1.6209
 7448SOL    HW233804   3.366   2.142  16.265 -4.3497  0.8355 -0.6190
 7449SOL     OW33805   4.573   4.596   4.271 -0.4704 -0.4813  0.2160
 7449SOL    HW133806   4.584   4.502   4.291 -0.2834 -0.2939  1.0118
 7449SOL    HW233807   4.650   4.612   4.217  0.8020  0.8272  2.4068
 7450SOL     OW33808   2.861   0.277  13.313  0.6250 -0.1166  0.7901
 7450SOL    HW133809   2.877   0.187  13.283  0.6122  0.3934 -0.7421
 7450SOL    HW233810   2.766   0.278  13.326  0.3408 -0.8174 -1.1498
 7451SOL     OW33811   1.807   4.339   3.553  0.1996 -0.3015  0.4249
 7451SOL    HW133812   1.775   4.424   3.522  1.3447 -0.3895 -1.0310
 7451SOL    HW233813   1.900   4.353   3.532  0.0972  1.4843  1.1179
 7452SOL     OW33814   1.264   4.613   6.888 -0.4562 -0.0444  0.1031
 7452SOL    HW133815   1.355   4.611   6.915  0.4989  0.9607 -3.0101
 7452SOL    HW233816   1.231   4.651   6.970  1.0018 -0.2614  0.7819
 7453SOL     OW33817   2.661   1.301  13.192  0.0387 -0.1678  0.6730
 7453SOL    HW133818   2.703   1.260  13.117  1.3005 -0.1695  1.3697
 7453SOL    HW233819   2.582   1.247  13.198 -0.4338  0.6893  2.2993
 7454SOL     OW33820   0.917   1.356   7.573  0.2456  0.1032  0.3827
 7454SOL    HW133821   0.919   1.269   7.615 -0.0791 -0.4672 -0.7821
 7454SOL    HW233822   0.876   1.349   7.487  1.9597 -1.2167 -0.3302
 7455SOL     OW33823   4.226   4.517   9.152  0.5353  0.4884 -0.0550
 7455SOL    HW133824   4.312   4.553   9.130  1.0721 -1.6678 -1.5169
 7455SOL    HW233825   4.187   4.591   9.198  1.2473 -0.3608  1.9093
 7456SOL     OW33826   3.082   2.900   7.618 -0.0722 -0.0595 -0.1296
 7456SOL    HW133827   3.038   2.944   7.546 -1.2884  0.3616  0.8815
 7456SOL    HW233828   3.082   2.979   7.673  0.8621  0.6336 -1.1095
 7457SOL     OW33829   4.496   1.879   2.873 -0.4623 -0.2299 -0.1597
 7457SOL    HW133830   4.473   1.926   2.793  2.6976  2.8145  0.7094
 7457SOL    HW233831   4.408   1.851   2.900 -0.3460 -1.8799 -1.5249
 7458SOL     OW33832   1.436   3.303  14.983  0.3179  0.2810 -0.1610
 7458SOL    HW133833   1.510   3.341  14.936 -1.7660  2.1796 -1.9741
 7458SOL    HW233834   1.477   3.243  15.045  0.5515  0.2666 -0.3306
 7459SOL     OW33835   0.349   2.112   5.868  0.1206  0.1637  0.3627
 7459SOL    HW133836   0.382   2.195   5.901 -0.6279 -0.4488  2.7226
 7459SOL    HW233837   0.277   2.105   5.931 -1.1102 -1.0611 -1.1856
 7460SOL     OW33838   0.264   3.759   3.374  0.2359 -0.0702 -0.5871
 7460SOL    HW133839   0.323   3.737   3.446  0.0161 -1.0414 -0.7162
 7460SOL    HW233840   0.278   3.854   3.377  0.9650 -0.1911 -0.1201
 7461SOL     OW33841   4.367   2.200  11.918  0.1118  0.2520 -0.5064
 7461SOL    HW133842   4.342   2.119  11.874  1.9751 -1.3658  1.3645
 7461SOL    HW233843   4.461   2.194  11.900  0.5824  1.0128  1.6817
 7462SOL     OW33844   0.564   0.682   7.484  0.0834  0.1280 -0.2408
 7462SOL    HW133845   0.648   0.652   7.451  0.7809  1.0735  0.6732
 7462SOL    HW233846   0.504   0.651   7.417  0.0389  1.0579 -0.6396
 7463SOL     OW33847   4.505   4.634   3.714  0.0272 -0.2263  0.0868
 7463SOL    HW133848   4.508   4.606   3.805  1.0830 -2.5389 -0.6711
 7463SOL    HW233849   4.597   4.624   3.691  0.1685 -1.4340  1.1964
 7464SOL     OW33850   2.008   1.827   2.257 -0.3100  0.0478 -0.6845
 7464SOL    HW133851   2.029   1.870   2.339  2.9432 -1.5851 -0.6474
 7464SOL    HW233852   2.032   1.903   2.205  1.7699  0.7741  1.3573
 7465SOL     OW33853   1.673   3.215   4.317  0.2780 -0.4903 -0.0492
 7465SOL    HW133854   1.605   3.249   4.259 -1.3790 -1.5401  1.2945
 7465SOL    HW233855   1.624   3.147   4.363 -0.2803  0.4303  0.7131
 7466SOL     OW33856   0.865   1.117   4.380  0.5768  0.4091 -0.2044
 7466SOL    HW133857   0.835   1.106   4.290  0.9890 -1.6847 -0.0770
 7466SOL    HW233858   0.833   1.207   4.388  1.1913  0.4443  1.8183
 7467SOL     OW33859   1.964   2.619  10.724 -0.1545 -0.1545  0.4652
 7467SOL    HW133860   2.050   2.661  10.728  0.2347 -0.9589  0.4007
 7467SOL    HW233861   1.962   2.601  10.630  0.0897 -1.0051  0.6231
 7468SOL     OW33862   4.270   0.269   2.211  0.3299 -0.0969 -0.1596
 7468SOL    HW133863   4.345   0.288   2.156  0.3185 -0.0231 -0.1486
 7468SOL    HW233864   4.246   0.359   2.232 -1.5231 -0.4761 -0.5823
 7469SOL     OW33865   3.357   1.842   4.269 -0.2939  0.0554 -0.1704
 7469SOL    HW133866   3.310   1.824   4.350 -0.1921  0.8433  0.0688
 7469SOL    HW233867   3.442   1.868   4.304 -0.2118 -0.6596  0.1660
 7470SOL     OW33868   1.278   1.798   6.094  0.2006 -0.0425  0.0008
 7470SOL    HW133869   1.261   1.754   6.178 -0.5259 -2.8933 -1.6352
 7470SOL    HW233870   1.187   1.808   6.066  0.4505  0.9535 -0.4426
 7471SOL     OW33871   0.258   4.058   6.549 -0.0926  0.0170  0.3026
 7471SOL    HW133872   0.211   4.057   6.466  0.3054 -0.9900  0.0883
 7471SOL    HW233873   0.351   4.039   6.531 -0.0925  1.1570 -0.8539
 7472SOL     OW33874   2.959   3.642  14.819 -0.3325 -0.3807  0.3546
 7472SOL    HW133875   2.917   3.693  14.750 -0.4037 -0.2809  0.4722
 7472SOL    HW233876   2.896   3.646  14.891 -0.0276 -0.5531  0.6310
 7473SOL     OW33877   2.826   2.989   5.896  0.0808 -0.0042  0.5872
 7473SOL    HW133878   2.847   3.002   5.804 -0.8053  0.9103  0.5081
 7473SOL    HW233879   2.861   3.070   5.933  2.9508 -1.4456  1.0397
 7474SOL     OW33880   3.390   2.564  15.313 -0.5742  0.3837  0.2579
 7474SOL    HW133881   3.366   2.636  15.370  0.3793  1.1413 -0.2998
 7474SOL    HW233882   3.425   2.610  15.237 -1.5237  2.0046  0.8067
 7475SOL     OW33883   1.543   4.710   7.250  0.5805  0.1955  0.2300
 7475SOL    HW133884   1.614   4.686   7.310 -1.4423  0.1302  2.5939
 7475SOL    HW233885   1.467   4.694   7.306 -0.3135 -0.2609 -1.0995
 7476SOL     OW33886   0.468   3.884   9.153  0.1302  0.0610 -0.1476
 7476SOL    HW133887   0.539   3.844   9.102  2.1535  0.7956  2.0825
 7476SOL    HW233888   0.469   3.962   9.097 -1.0520  1.7857  2.2050
 7477SOL     OW33889   1.357   4.092  14.991  0.4653  0.2067 -0.1586
 7477SOL    HW133890   1.407   4.019  15.029  0.4703  0.0192 -0.5190
 7477SOL    HW233891   1.418   4.164  15.003  0.9575 -0.3576  0.7516
 7478SOL     OW33892   4.267   4.316   2.512  0.1827 -0.2347  0.0739
 7478SOL    HW133893   4.173   4.302   2.499 -0.0183 -0.6861  1.9483
 7478SOL    HW233894   4.278   4.256   2.586 -0.5564  2.4262  2.3264
 7479SOL     OW33895   4.579   1.006  12.258 -0.0450  0.3811 -0.0530
 7479SOL    HW133896   4.587   1.076  12.193  1.7351  0.3318  0.1079
 7479SOL    HW233897   4.663   0.962  12.244 -0.1124 -0.8316  3.3225
 7480SOL     OW33898   3.706   2.595  16.196 -0.0714  0.3632 -0.1483
 7480SOL    HW133899   3.706   2.527  16.129 -1.0993  1.0172 -0.8104
 7480SOL    HW233900   3.665   2.669  16.152 -0.7308 -0.3632 -0.7464
 7481SOL     OW33901   3.900   2.777  17.448  0.3781  0.2405 -0.1333
 7481SOL    HW133902   3.978   2.790  17.394  0.0994  0.3578 -0.5012
 7481SOL    HW233903   3.830   2.757  17.387  1.7490 -0.0884 -1.5834
 7482SOL     OW33904   3.075   0.169   4.942  0.5430 -0.0175 -0.9809
 7482SOL    HW133905   3.164   0.190   4.971  0.2565  0.0490 -0.1308
 7482SOL    HW233906   3.048   0.246   4.894 -2.3690  1.8227  3.5996
 7483SOL     OW33907   1.910   2.414  17.345  0.1832 -0.0325 -0.2676
 7483SOL    HW133908   1.936   2.322  17.335  0.5673  0.2002 -1.4086
 7483SOL    HW233909   1.966   2.445  17.416  0.3281 -1.7181  0.3599
 7484SOL     OW33910   2.165   1.780  12.601  0.3807  0.2297 -0.3128
 7484SOL    HW133911   2.255   1.803  12.624 -0.4862  3.3561 -0.0368
 7484SOL    HW233912   2.171   1.710  12.537  0.6435  2.0596 -2.2888
 7485SOL     OW33913   3.237   0.888   8.100 -0.0808 -0.3604  0.1765
 7485SOL    HW133914   3.321   0.908   8.142  0.5540 -0.7543 -0.8959
 7485SOL    HW233915   3.198   0.830   8.166 -0.5803 -0.9546 -0.6338
 7486SOL     OW33916   0.384   2.845   6.412 -0.1700 -0.3900 -0.4698
 7486SOL    HW133917   0.336   2.770   6.378  2.8680 -2.4098 -0.2695
 7486SOL    HW233918   0.474   2.818   6.393  0.2069 -0.7634  1.8770
 7487SOL     OW33919   1.267   2.017  15.416 -0.6025 -0.1292  0.2436
 7487SOL    HW133920   1.275   2.111  15.431 -0.8935  0.0727 -0.8183
 7487SOL    HW233921   1.335   1.975  15.467  1.3866  0.4008 -1.9526
 7488SOL     OW33922   3.982   0.860  11.511 -0.4990  0.2725 -0.0413
 7488SOL    HW133923   4.043   0.842  11.439  0.8196 -0.8314  1.3436
 7488SOL    HW233924   4.023   0.832  11.593  1.2041 -0.2340 -1.0675
 7489SOL     OW33925   3.133   3.825   5.033  0.0046  0.2334  0.0347
 7489SOL    HW133926   3.223   3.855   5.048 -0.7483  0.9429  3.1047
 7489SOL    HW233927   3.112   3.768   5.106  1.1535  0.0616  0.2306
 7490SOL     OW33928   0.832   2.229  14.116 -0.3725 -0.0336  0.3020
 7490SOL    HW133929   0.759   2.208  14.174 -0.6908 -1.9682 -0.8240
 7490SOL    HW233930   0.884   2.149  14.121  0.4454  0.5280  0.9830
 7491SOL     OW33931   2.333   2.797  17.292  0.3221  0.2179 -0.6393
 7491SOL    HW133932   2.238   2.795  17.297  0.5075 -0.9851  2.6466
 7491SOL    HW233933   2.366   2.744  17.365 -1.0856 -0.1842 -0.2912
 7492SOL     OW33934   1.775   2.255  11.015  0.6722  0.4130 -0.0485
 7492SOL    HW133935   1.838   2.230  11.082  1.0741  0.7726 -0.2906
 7492SOL    HW233936   1.697   2.270  11.067 -0.6047  0.7620 -2.0628
 7493SOL     OW33937   0.668   4.696   8.807 -0.7907 -1.2275  0.2537
 7493SOL    HW133938   0.669   0.036   8.880 -0.1657  0.7907 -1.4762
 7493SOL    HW233939   0.748   4.650   8.829  0.1363  0.0278 -0.5138
 7494SOL     OW33940   0.064   0.097   9.342 -0.1320  0.1278  0.4316
 7494SOL    HW133941   4.699   0.081   9.306 -1.0516 -0.0675  2.7684
 7494SOL    HW233942   0.047   0.089   9.436  1.8255  0.4874  0.8198
 7495SOL     OW33943   3.140   3.765   9.132 -0.8823  0.0406 -0.6957
 7495SOL    HW133944   3.163   3.676   9.157 -1.3217  0.4904  1.3145
 7495SOL    HW233945   3.060   3.770   9.184 -1.6928 -1.7099 -1.7759
 7496SOL     OW33946   4.578   0.996  15.268 -0.2711 -0.3260 -0.2432
 7496SOL    HW133947   4.545   0.928  15.210  0.9704 -0.2463 -1.0413
 7496SOL    HW233948   4.671   0.991  15.245 -0.1183  0.3825  0.2123
 7497SOL     OW33949   0.620   2.466   9.521 -0.0408  0.2306 -0.2525
 7497SOL    HW133950   0.645   2.551   9.558  0.0654 -0.2961  0.8866
 7497SOL    HW233951   0.642   2.483   9.429 -1.6116  3.5410 -0.0053
 7498SOL     OW33952   1.649   1.964   8.628 -0.2135 -0.2478 -0.2759
 7498SOL    HW133953   1.614   2.033   8.685  0.1489  1.6483 -2.3775
 7498SOL    HW233954   1.654   2.013   8.546  2.1275 -2.2420 -1.3096
 7499SOL     OW33955   4.230   3.846   8.071  0.0606  0.0530 -0.3447
 7499SOL    HW133956   4.156   3.905   8.083 -0.0704 -0.1531 -0.1525
 7499SOL    HW233957   4.308   3.902   8.067 -0.2649  0.5314 -0.0601
 7500SOL     OW33958   3.457   1.491   6.085 -0.2161  0.0801  0.1549
 7500SOL    HW133959   3.432   1.423   6.147 -3.1106 -0.1517 -1.2717
 7500SOL    HW233960   3.482   1.433   6.013 -2.5079 -1.4180  0.5662
 7501SOL     OW33961   3.443   4.644   3.860  0.1863  0.4842  0.5846
 7501SOL    HW133962   3.386   4.567   3.856  1.5413 -0.4445 -1.1320
 7501SOL    HW233963   3.467   4.639   3.952  0.3010 -2.8720  0.3927
 7502SOL     OW33964   4.268   3.143   4.051  0.2792 -0.0737  0.5124
 7502SOL    HW133965   4.302   3.054   4.047  1.5957  0.4461  0.0515
 7502SOL    HW233966   4.189   3.130   4.103 -0.2360  0.1353 -0.2208
 7503SOL     OW33967   2.345   1.197   5.601 -0.5050 -0.5870  0.3119
 7503SOL    HW133968   2.255   1.227   5.618 -1.0930 -0.9554 -2.2341
 7503SOL    HW233969   2.391   1.269   5.557 -1.1300  1.2340  2.5968
 7504SOL     OW33970   0.799   3.432   8.144  1.1160 -0.1595 -0.1028
 7504SOL    HW133971   0.817   3.453   8.052 -0.8343 -2.6799 -1.0487
 7504SOL    HW233972   0.864   3.490   8.184  2.0870 -0.4401 -1.2401
 7505SOL     OW33973   2.475   0.662   7.531  0.1718  0.2535  0.7326
 7505SOL    HW133974   2.516   0.578   7.552 -0.9282 -0.4834 -0.0427
 7505SOL    HW233975   2.395   0.632   7.487  0.8748 -0.7434  0.1222
 7506SOL     OW33976   1.355   4.318  16.673 -0.4402  0.0643  1.0019
 7506SOL    HW133977   1.438   4.286  16.639 -0.0726 -0.2596  2.2238
 7506SOL    HW233978   1.375   4.411  16.683  1.1937 -0.0842 -1.0613
 7507SOL     OW33979   4.686   1.038   5.810 -0.0987 -0.0963  0.6604
 7507SOL    HW133980   4.692   1.127   5.775  0.0482 -0.5586 -0.5050
 7507SOL    HW233981   4.628   0.990   5.750  0.1745  2.1072 -1.3355
 7508SOL     OW33982   1.224   1.659  15.952 -0.3011 -0.0984  0.0882
 7508SOL    HW133983   1.185   1.584  15.906  0.1974  0.1493 -0.7411
 7508SOL    HW233984   1.318   1.641  15.952 -0.0763  1.1115  2.1693
 7509SOL     OW33985   4.630   4.107  13.379 -0.1044 -0.0056 -0.2939
 7509SOL    HW133986   4.675   4.188  13.355 -1.4210  0.6019 -0.7581
 7509SOL    HW233987   4.628   4.119  13.474 -1.9295 -1.3145 -0.1524
 7510SOL     OW33988   2.693   3.307  17.547 -0.0324  0.4213  0.2922
 7510SOL    HW133989   2.741   3.305  17.465 -0.6735  4.6683 -0.2013
 7510SOL    HW233990   2.695   3.403  17.553 -0.5142  0.4821 -0.5944
 7511SOL     OW33991   2.300   1.830  17.494 -0.1351  0.0837  0.0431
 7511SOL    HW133992   2.391   1.817  17.468  0.0013 -0.1657  0.6646
 7511SOL    HW233993   2.315   1.810  17.586  1.5788  1.1865  0.0152
 7512SOL     OW33994   4.534   1.191  15.063 -0.1365  0.2912  0.3865
 7512SOL    HW133995   4.567   1.143  15.139 -0.6656 -1.0939 -0.2579
 7512SOL    HW233996   4.621   1.182  15.024 -0.3093 -1.5018  0.4199
 7513SOL     OW33997   3.329   2.687  15.944 -0.1377 -0.3560 -0.1488
 7513SOL    HW133998   3.364   2.722  15.862  0.0431 -1.1301 -0.3995
 7513SOL    HW233999   3.323   2.595  15.920 -1.8352  0.0480 -1.3015
 7514SOL     OW34000   2.196   0.904   9.184 -0.2153 -0.3314 -0.0068
 7514SOL    HW134001   2.144   0.829   9.154 -0.4974  0.2068 -0.8567
 7514SOL    HW234002   2.284   0.881   9.153 -0.5070 -0.2099 -0.9279
 7515SOL     OW34003   0.460   3.721   6.419 -0.5832  0.6282  0.0129
 7515SOL    HW134004   0.510   3.667   6.480  0.6774 -0.4403 -1.9653
 7515SOL    HW234005   0.512   3.799   6.440 -0.0125  0.6842 -1.5929
 7516SOL     OW34006   0.946   1.814   6.073  0.1633  0.3842 -0.2113
 7516SOL    HW134007   0.944   1.719   6.063  0.5175  0.3338  0.2005
 7516SOL    HW234008   0.880   1.824   6.142 -1.6420 -0.9070 -1.7804
 7517SOL     OW34009   3.134   1.244   3.748  0.3081 -0.1295  0.4675
 7517SOL    HW134010   3.115   1.335   3.770 -0.5790 -0.0285 -0.6927
 7517SOL    HW234011   3.163   1.247   3.656 -0.5291  0.4229  0.2226
 7518SOL     OW34012   4.405   2.680  13.811  0.0930  0.5009  0.2813
 7518SOL    HW134013   4.420   2.619  13.740 -3.5913 -0.3095  0.2395
 7518SOL    HW234014   4.310   2.689  13.801 -0.1431 -0.5024  1.6257
 7519SOL     OW34015   1.545   1.663   0.632  0.0614  0.5584 -0.2876
 7519SOL    HW134016   1.503   1.590   0.678  0.5609 -0.8554 -2.0729
 7519SOL    HW234017   1.528   1.642   0.540  1.8978  0.3788 -0.5871
 7520SOL     OW34018   3.370   3.553   7.996 -0.0602 -0.3949  0.1916
 7520SOL    HW134019   3.457   3.534   8.029 -0.5505  0.4964  2.0188
 7520SOL    HW234020   3.366   3.647   8.015 -1.6976 -0.7526  1.6486
 7521SOL     OW34021   0.508   1.592  16.632  0.2473 -0.3314 -0.9754
 7521SOL    HW134022   0.471   1.665  16.582  0.9118  0.7031  0.0454
 7521SOL    HW234023   0.487   1.509  16.589  2.9420 -0.7163 -1.5423
 7522SOL     OW34024   2.357   2.107   3.359  0.2188  0.1976  0.4093
 7522SOL    HW134025   2.350   2.171   3.288 -1.5542  0.0894  0.4887
 7522SOL    HW234026   2.425   2.047   3.329 -0.0392  0.1164 -0.0193
 7523SOL     OW34027   0.119   0.369   5.825 -0.6215  0.2773  0.1442
 7523SOL    HW134028   0.064   0.445   5.844  0.8048  1.8820 -2.2050
 7523SOL    HW234029   0.108   0.318   5.906 -1.3926  1.0928  0.5540
 7524SOL     OW34030   1.631   4.590   8.157  0.3756  0.2632  0.5326
 7524SOL    HW134031   1.591   4.621   8.239  0.2245  2.1460 -0.2409
 7524SOL    HW234032   1.709   4.645   8.155  3.2604 -3.9091  0.6351
 7525SOL     OW34033   2.191   2.175   5.769  0.2230 -0.1423 -0.2930
 7525SOL    HW134034   2.105   2.217   5.781  1.7900  2.0256  3.4257
 7525SOL    HW234035   2.211   2.196   5.678  1.0368 -0.0974 -0.1006
 7526SOL     OW34036   3.305   2.302  13.504 -0.6808 -0.1195 -0.6876
 7526SOL    HW134037   3.322   2.224  13.558  2.1104  0.0548 -1.3065
 7526SOL    HW234038   3.294   2.266  13.416 -2.9309 -0.0054 -0.4493
 7527SOL     OW34039   4.466   3.863   3.612  0.3930 -0.7833  0.1346
 7527SOL    HW134040   4.432   3.787   3.566 -2.5317  0.5127  0.1467
 7527SOL    HW234041   4.485   3.918   3.536 -2.3767 -1.9155 -1.3838
 7528SOL     OW34042   4.051   2.300  11.252 -0.1637 -0.4342 -0.2425
 7528SOL    HW134043   4.139   2.278  11.282 -0.0398 -0.3634 -0.5550
 7528SOL    HW234044   4.049   2.389  11.289  0.8312  0.1010 -1.4492
 7529SOL     OW34045   1.078   0.032   6.129 -0.5813  0.1703  0.2866
 7529SOL    HW134046   1.165   0.055   6.098 -0.2741 -2.7456 -1.0654
 7529SOL    HW234047   1.042   4.711   6.051  1.4512 -0.7703 -0.1124
 7530SOL     OW34048   1.309   2.001   6.872 -0.6807 -0.1899 -0.4085
 7530SOL    HW134049   1.403   1.984   6.869 -0.7576 -0.7344  0.4213
 7530SOL    HW234050   1.304   2.035   6.961  1.8956  0.7324 -0.6222
 7531SOL     OW34051   4.677   1.820   2.287  0.6376 -0.4898 -0.1416
 7531SOL    HW134052   0.041   1.859   2.300 -0.1933  0.2366  3.2650
 7531SOL    HW234053   4.653   1.789   2.375  0.9090  1.1490  0.5188
 7532SOL     OW34054   2.967   2.146   4.087  0.1374 -0.3345 -0.5665
 7532SOL    HW134055   3.007   2.178   4.168 -1.4274  0.1235  0.0364
 7532SOL    HW234056   2.963   2.227   4.037  0.6987  0.4290  0.6173
 7533SOL     OW34057   3.428   0.694   3.594 -0.0890 -0.1943  0.3645
 7533SOL    HW134058   3.474   0.611   3.580  0.7681  0.4262 -0.4911
 7533SOL    HW234059   3.338   0.666   3.576 -0.4505  0.7421  0.6961
 7534SOL     OW34060   3.182   0.028   4.001 -0.2734 -0.1802 -0.4402
 7534SOL    HW134061   3.138   0.108   4.030  0.8334  1.0252 -2.1023
 7534SOL    HW234062   3.139   4.674   4.041 -0.1423 -0.7921 -1.4845
 7535SOL     OW34063   3.882   2.721   4.255  0.0924  0.2584  0.4520
 7535SOL    HW134064   3.851   2.779   4.324 -1.9063  0.0588 -0.2844
 7535SOL    HW234065   3.818   2.650   4.253  0.7626 -0.3357 -0.4461
 7536SOL     OW34066   0.906   4.569   7.337 -0.1041  0.2430 -0.4923
 7536SOL    HW134067   0.898   4.535   7.426  2.2816 -0.6024 -0.5974
 7536SOL    HW234068   0.883   4.660   7.355 -1.6708 -0.5272  1.4154
 7537SOL     OW34069   3.133   0.039  17.348 -0.0122 -0.5080  0.0449
 7537SOL    HW134070   3.087   0.005  17.271  0.1711  1.5886 -0.9919
 7537SOL    HW234071   3.106   4.700  17.416 -1.4988  1.1497  0.9558
 7538SOL     OW34072   2.843   0.328   3.433  0.2552 -0.2808 -0.7311
 7538SOL    HW134073   2.895   0.370   3.364 -0.2712  0.2163 -0.8232
 7538SOL    HW234074   2.808   0.251   3.387 -1.0401 -0.2281  0.1748
 7539SOL     OW34075   1.211   2.493   4.448  0.0462 -0.5459 -0.4310
 7539SOL    HW134076   1.285   2.447   4.408  0.5091 -1.6504  1.7087
 7539SOL    HW234077   1.267   2.564   4.480 -0.8234 -1.1100  2.2817
 7540SOL     OW34078   4.564   2.735  12.541 -0.0303 -0.3701  0.2093
 7540SOL    HW134079   4.637   2.786  12.577  0.5636  0.5077 -2.1876
 7540SOL    HW234080   4.601   2.647  12.544  0.4907 -0.2043 -1.2054
 7541SOL     OW34081   0.304   2.493   2.859  0.1770 -0.1254  0.2454
 7541SOL    HW134082   0.281   2.550   2.786  0.2944 -0.3930 -0.0029
 7541SOL    HW234083   0.290   2.553   2.933  1.0242 -0.8503  1.0011
 7542SOL     OW34084   3.870   2.248   4.188 -0.3291 -0.1112  0.0947
 7542SOL    HW134085   3.916   2.220   4.268  2.8423  0.9873 -1.3363
 7542SOL    HW234086   3.932   2.227   4.118  2.6078  0.2812  2.5667
 7543SOL     OW34087   4.449   4.618  12.629 -0.0581  0.3305  0.1385
 7543SOL    HW134088   4.443   4.675  12.553 -1.8189  0.2662  0.2221
 7543SOL    HW234089   4.540   4.636  12.653 -0.1953  1.6720 -0.3844
 7544SOL     OW34090   4.244   4.363   6.798 -0.6833 -0.0140  0.1231
 7544SOL    HW134091   4.304   4.351   6.725  1.4635  2.2288  1.5094
 7544SOL    HW234092   4.306   4.385   6.867 -0.4671  0.3781 -0.1943
 7545SOL     OW34093   3.395   3.933   6.425 -0.2121 -0.1027 -0.1451
 7545SOL    HW134094   3.343   3.943   6.504 -1.3828  0.3210 -0.9620
 7545SOL    HW234095   3.484   3.934   6.460 -0.2410 -0.5154 -0.0595
 7546SOL     OW34096   2.666   3.087   4.416 -0.1945 -0.1071 -0.1473
 7546SOL    HW134097   2.642   3.179   4.410 -2.5584 -0.7024  0.3359
 7546SOL    HW234098   2.759   3.098   4.438 -1.0944  2.7304  2.1167
 7547SOL     OW34099   0.945   3.230   4.862 -0.3464 -0.5453  0.2276
 7547SOL    HW134100   1.028   3.232   4.909  0.0042  3.2805 -0.5366
 7547SOL    HW234101   0.964   3.284   4.785 -2.6787  1.4330  1.0161
 7548SOL     OW34102   3.869   2.440   3.702  0.8146 -0.0986 -0.2601
 7548SOL    HW134103   3.911   2.479   3.779 -0.9193  3.9894 -1.3986
 7548SOL    HW234104   3.858   2.348   3.726  2.2097 -0.3888 -0.7423
 7549SOL     OW34105   0.278   3.351   8.202 -0.0737 -0.7528 -0.0417
 7549SOL    HW134106   0.261   3.268   8.156  2.0184 -1.4727  0.5220
 7549SOL    HW234107   0.197   3.398   8.179  1.1825 -0.2471 -3.4127
 7550SOL     OW34108   1.575   2.538   2.273 -0.9111 -0.4228  0.1568
 7550SOL    HW134109   1.481   2.537   2.255 -1.0559  0.8898  0.8394
 7550SOL    HW234110   1.575   2.489   2.356  0.1950 -0.6827  0.0052
 7551SOL     OW34111   2.366   1.651   3.271  0.3800 -0.6151  0.4564
 7551SOL    HW134112   2.445   1.597   3.271  1.5152  1.0283  0.3465
 7551SOL    HW234113   2.341   1.649   3.179  0.5094 -0.3399  0.4133
 7552SOL     OW34114   2.855   1.003   6.410 -0.0408  0.1964  0.4402
 7552SOL    HW134115   2.814   1.079   6.451  0.6029  0.2233  1.0268
 7552SOL    HW234116   2.808   0.971   6.333 -0.3052 -1.4643  1.2980
 7553SOL     OW34117   3.225   0.151   5.602  0.0567 -0.4377  0.6189
 7553SOL    HW134118   3.191   0.063   5.589 -1.3383  0.2424 -0.4319
 7553SOL    HW234119   3.232   0.166   5.507  0.4056 -1.1234  0.5366
 7554SOL     OW34120   3.282   2.356   3.637 -0.0093 -0.0282  0.1040
 7554SOL    HW134121   3.357   2.298   3.644 -0.0438 -0.1295 -0.3767
 7554SOL    HW234122   3.294   2.392   3.549  2.2228 -3.3696 -0.9570
 7555SOL     OW34123   3.811   3.169  16.207  0.2832 -0.3045  0.2300
 7555SOL    HW134124   3.763   3.086  16.206  0.1706 -0.2140 -1.0647
 7555SOL    HW234125   3.750   3.209  16.269 -1.8778 -2.8797 -0.2274
 7556SOL     OW34126   4.372   0.902   2.842 -0.2058  0.0507 -0.4774
 7556SOL    HW134127   4.454   0.853   2.838 -0.1564  0.0908  0.1176
 7556SOL    HW234128   4.375   0.961   2.766  0.4242  1.7986  0.8977
 7557SOL     OW34129   0.247   0.404   5.581  0.2835  0.2685 -0.3893
 7557SOL    HW134130   0.208   0.491   5.582  0.7034  0.4825 -2.5565
 7557SOL    HW234131   0.220   0.377   5.669  0.1584 -0.8587 -0.7724
 7558SOL     OW34132   2.938   4.716  16.529 -0.5820 -0.4591 -0.3422
 7558SOL    HW134133   2.961   0.084  16.551  2.5583 -0.6285 -2.9842
 7558SOL    HW234134   3.024   4.686  16.501 -1.1907 -1.9407 -0.6114
 7559SOL     OW34135   3.494   2.945   8.550 -0.3594  0.3142 -0.1996
 7559SOL    HW134136   3.517   3.037   8.559  0.8464 -0.0890  0.7380
 7559SOL    HW234137   3.440   2.954   8.471  0.7170  0.8025 -0.8796
 7560SOL     OW34138   2.100   0.944  15.994  0.0751 -0.0350 -0.1933
 7560SOL    HW134139   2.098   0.949  15.899 -1.1144  0.9254 -0.1127
 7560SOL    HW234140   2.058   0.863  16.024 -0.3555  0.6215  0.9747
 7561SOL     OW34141   4.438   2.412   9.120 -0.2389 -0.0667  0.3568
 7561SOL    HW134142   4.420   2.501   9.150 -1.8212  0.3265 -1.8060
 7561SOL    HW234143   4.477   2.429   9.035 -1.4427 -0.2945 -0.2480
 7562SOL     OW34144   1.349   2.941  13.212 -0.3181  0.5503  0.2284
 7562SOL    HW134145   1.320   2.977  13.129  0.1355  1.6800  0.5668
 7562SOL    HW234146   1.443   2.936  13.195 -0.7416 -1.8633 -1.4820
 7563SOL     OW34147   1.299   2.285   0.128  0.3053  0.5263  0.4536
 7563SOL    HW134148   1.338   2.366   0.160 -2.4823  1.9634  0.2391
 7563SOL    HW234149   1.222   2.263   0.181  0.2506 -0.7430 -0.1447
 7564SOL     OW34150   2.572   0.909   8.836  0.4260 -0.0093  0.7331
 7564SOL    HW134151   2.574   0.989   8.889  0.4818  0.4516  0.0346
 7564SOL    HW234152   2.663   0.879   8.837 -0.5122 -2.8309 -0.8680
 7565SOL     OW34153   1.096   4.389   8.761 -0.6072 -0.0104 -0.1268
 7565SOL    HW134154   1.076   4.333   8.836 -0.8036  0.1186 -0.0824
 7565SOL    HW234155   1.023   4.451   8.768 -0.2398  0.3270  0.7259
 7566SOL     OW34156   3.900   3.247   5.698 -0.5961  0.3152  0.4424
 7566SOL    HW134157   3.938   3.335   5.703  0.2644  0.0383 -1.3402
 7566SOL    HW234158   3.945   3.201   5.769  2.3181  0.5641 -1.2296
 7567SOL     OW34159   4.699   3.677   7.507  0.1690  0.0055 -0.7041
 7567SOL    HW134160   4.641   3.710   7.439 -0.5910 -1.7690 -0.9244
 7567SOL    HW234161   0.019   3.603   7.465  1.6926 -0.4166  1.6026
 7568SOL     OW34162   4.293   2.131  14.508 -0.4848 -0.1154  0.4069
 7568SOL    HW134163   4.235   2.111  14.582 -1.1732 -1.3836 -0.4819
 7568SOL    HW234164   4.378   2.091  14.528  0.1970  1.2048  0.1304
 7569SOL     OW34165   3.556   1.997   0.721 -0.0842 -0.5314 -0.3846
 7569SOL    HW134166   3.469   2.016   0.757  0.0167  0.3898 -0.6377
 7569SOL    HW234167   3.562   1.904   0.699  1.9105 -0.8301  1.3529
 7570SOL     OW34168   3.392   0.692   4.542 -0.4365  0.6915 -0.3065
 7570SOL    HW134169   3.341   0.642   4.478  0.8189  0.5404 -1.1852
 7570SOL    HW234170   3.448   0.623   4.576 -1.7104  0.0909  0.5551
 7571SOL     OW34171   0.272   1.715   4.758 -0.8600  0.0421 -0.1822
 7571SOL    HW134172   0.265   1.726   4.853  1.3052 -3.2559  0.3817
 7571SOL    HW234173   0.364   1.724   4.734 -1.1487  2.1715 -0.4716
 7572SOL     OW34174   0.711   2.797   4.746  0.7393  0.4571  0.1861
 7572SOL    HW134175   0.660   2.866   4.790 -0.5362  0.9527 -2.0840
 7572SOL    HW234176   0.667   2.793   4.662 -2.2911  1.7912  1.6929
 7573SOL     OW34177   0.233   0.989   7.922 -0.2588  0.4960 -0.7367
 7573SOL    HW134178   0.261   0.913   7.872  3.4746  1.1707  0.3413
 7573SOL    HW234179   0.293   0.979   7.996 -0.0573  0.3668 -0.9195
 7574SOL     OW34180   0.902   3.395   4.598  0.0818  0.3274 -0.0246
 7574SOL    HW134181   0.943   3.438   4.522  2.7241  0.5971  1.5539
 7574SOL    HW234182   0.847   3.339   4.544  1.0456  0.2791 -0.9646
 7575SOL     OW34183   0.758   0.788  17.192 -0.0175  0.4032 -0.4604
 7575SOL    HW134184   0.781   0.811  17.283 -1.1366 -0.6999  0.0927
 7575SOL    HW234185   0.676   0.837  17.192 -0.2116  0.0697 -1.1246
 7576SOL     OW34186   1.670   2.550  12.252 -0.0708 -0.3254  0.1168
 7576SOL    HW134187   1.736   2.498  12.206 -0.2540  0.6512 -1.2360
 7576SOL    HW234188   1.599   2.563  12.190  0.9548 -2.0397 -1.4017
 7577SOL     OW34189   2.340   3.467  14.574  0.6424 -0.2309  0.0335
 7577SOL    HW134190   2.399   3.411  14.524 -0.4663  0.0088 -1.5477
 7577SOL    HW234191   2.383   3.552  14.564  0.6966 -0.3919 -1.1351
 7578SOL     OW34192   2.095   1.855   1.145  0.1856  0.1589 -0.6321
 7578SOL    HW134193   2.089   1.900   1.229 -2.2489 -0.2860 -0.5901
 7578SOL    HW234194   2.021   1.795   1.149  0.9242 -0.8130 -1.4454
 7579SOL     OW34195   1.841   2.779  11.184  0.1004 -0.0037 -0.5541
 7579SOL    HW134196   1.841   2.776  11.280 -3.0166  2.2351 -0.4976
 7579SOL    HW234197   1.799   2.699  11.154  1.0904  0.3370 -2.8418
 7580SOL     OW34198   0.623   1.582   8.527 -0.3697  0.6850 -0.2542
 7580SOL    HW134199   0.613   1.584   8.432 -2.3305  3.2264 -0.0016
 7580SOL    HW234200   0.657   1.494   8.541  0.1809  0.8758 -0.4159
 7581SOL     OW34201   0.404   4.168   7.771  0.0904  0.1032  0.1824
 7581SOL    HW134202   0.440   4.190   7.856  0.1525 -0.3254  0.2696
 7581SOL    HW234203   0.362   4.249   7.741 -1.6721 -0.7822  0.2320
 7582SOL     OW34204   2.019   2.809   1.281  0.0112  0.4834 -0.8530
 7582SOL    HW134205   2.039   2.893   1.322  0.0014 -0.4754  1.1305
 7582SOL    HW234206   1.939   2.789   1.330 -0.6827  0.5395 -1.9497
 7583SOL     OW34207   1.988   3.733   6.396  0.3192  0.1258 -0.3251
 7583SOL    HW134208   1.934   3.752   6.473  1.2193  1.2259  0.0215
 7583SOL    HW234209   2.027   3.649   6.422  0.3457 -0.2274 -1.5196
 7584SOL     OW34210   1.043   0.854  16.125 -0.0714 -0.2241 -0.6801
 7584SOL    HW134211   1.088   0.771  16.142 -1.2929 -0.9715 -1.1040
 7584SOL    HW234212   1.108   0.919  16.150 -1.2006  1.3048 -1.7357
 7585SOL     OW34213   2.528   2.350  15.246  0.0176  0.1625 -0.4929
 7585SOL    HW134214   2.526   2.378  15.337 -2.0409  0.4492 -0.6383
 7585SOL    HW234215   2.485   2.423  15.200 -1.2044  0.1222  0.5829
 7586SOL     OW34216   4.399   3.510   6.029  0.9045 -0.2835  0.7015
 7586SOL    HW134217   4.435   3.596   6.049  1.1133  0.1431 -1.4629
 7586SOL    HW234218   4.397   3.517   5.933 -2.4515  0.5965  0.8236
 7587SOL     OW34219   2.992   2.204   8.027 -0.4394 -0.0357 -0.2370
 7587SOL    HW134220   3.028   2.174   7.944  0.2785  1.1713 -0.3662
 7587SOL    HW234221   3.072   2.247   8.058 -0.4326  0.2985 -0.7100
 7588SOL     OW34222   4.426   0.653   4.708 -0.1535  0.5736  0.4808
 7588SOL    HW134223   4.407   0.666   4.801  0.4030 -0.5471  0.7514
 7588SOL    HW234224   4.519   0.635   4.702 -0.4179  0.7408 -4.1390
 7589SOL     OW34225   3.748   1.433  17.617 -0.1140  0.4178 -0.8340
 7589SOL    HW134226   3.698   1.414   0.005 -1.0295  1.4097 -1.1778
 7589SOL    HW234227   3.745   1.350  17.569 -3.0888 -1.3659  2.3826
 7590SOL     OW34228   1.110   4.708   2.546 -0.0078  0.3609 -0.1315
 7590SOL    HW134229   1.075   4.661   2.621  1.0115  2.5828  1.7167
 7590SOL    HW234230   1.027   0.014   2.507 -0.4474 -0.6821  0.0348
 7591SOL     OW34231   4.036   2.201   8.378  0.4266 -0.0810  0.2689
 7591SOL    HW134232   3.974   2.130   8.365 -0.9869  1.3992 -1.0686
 7591SOL    HW234233   3.983   2.258   8.434 -1.6696  0.0128 -1.8138
 7592SOL     OW34234   1.664   4.371   2.816 -0.0919  0.2322  0.3017
 7592SOL    HW134235   1.578   4.401   2.845  0.0160 -0.2584  1.1355
 7592SOL    HW234236   1.721   4.448   2.814  0.7428 -0.4309 -1.2540
 7593SOL     OW34237   3.003   1.854   7.492 -0.4703  0.7435  0.0230
 7593SOL    HW134238   3.072   1.914   7.521 -0.2571  0.8570 -0.7149
 7593SOL    HW234239   2.984   1.805   7.572 -1.6471  0.3661 -0.4917
 7594SOL     OW34240   3.804   1.233   5.567  0.7327  0.4329  0.1071
 7594SOL    HW134241   3.876   1.243   5.505  2.6294 -0.9053  2.0670
 7594SOL    HW234242   3.777   1.141   5.554  2.0777  0.6400 -4.1889
 7595SOL     OW34243   0.703   0.551   6.106 -0.3150  0.2270  0.2516
 7595SOL    HW134244   0.693   0.458   6.129  1.9353 -0.5022 -1.7367
 7595SOL    HW234245   0.645   0.564   6.030  0.4629 -0.5443 -0.4814
 7596SOL     OW34246   3.437   4.044   9.221  0.2248  0.1782 -0.1137
 7596SOL    HW134247   3.455   3.951   9.206  0.0680  0.2056 -0.4763
 7596SOL    HW234248   3.495   4.093   9.163 -0.1427  1.8469  0.9414
 7597SOL     OW34249   4.537   0.458  12.766  0.1250  0.1213 -0.1619
 7597SOL    HW134250   4.593   0.404  12.710 -0.5766  1.3886 -2.0658
 7597SOL    HW234251   4.605   0.515  12.801  0.6452  0.1888 -1.2838
 7598SOL     OW34252   1.135   1.387   0.731 -0.2730 -0.1942  0.2207
 7598SOL    HW134253   1.103   1.400   0.820 -1.0550 -0.4685 -0.0247
 7598SOL    HW234254   1.055   1.361   0.686 -0.3807 -0.2517  0.4497
 7599SOL     OW34255   0.369   4.429   0.397  0.4263  0.0526  0.4594
 7599SOL    HW134256   0.371   4.334   0.404  0.7792 -0.0684 -1.2877
 7599SOL    HW234257   0.369   4.446   0.302 -1.1005  0.9460  0.6316
 7600SOL     OW34258   3.285   0.463   6.778  0.2028  1.3229  0.3291
 7600SOL    HW134259   3.288   0.540   6.836  0.8314  0.8361  0.9430
 7600SOL    HW234260   3.217   0.499   6.722  2.7978  0.4012 -3.4164
 7601SOL     OW34261   2.793   4.457   0.598  0.3437 -0.3401  0.0398
 7601SOL    HW134262   2.856   4.498   0.657  0.3037 -0.4383  0.1497
 7601SOL    HW234263   2.848   4.391   0.557  2.1538 -0.3983  2.5715
 7602SOL     OW34264   1.554   1.858   8.065  0.6060  0.7051  0.0421
 7602SOL    HW134265   1.545   1.794   8.136  0.5558 -0.3073 -0.8661
 7602SOL    HW234266   1.525   1.934   8.115 -0.7623  0.4452 -0.3275
 7603SOL     OW34267   2.995   1.262  15.475  0.5509  0.0956 -0.1499
 7603SOL    HW134268   2.925   1.324  15.454 -0.7576 -0.8229  1.4960
 7603SOL    HW234269   3.051   1.315  15.532 -1.4053  0.0924  1.7972
 7604SOL     OW34270   1.813   2.804   4.319 -0.3076  0.6495 -0.5637
 7604SOL    HW134271   1.848   2.883   4.360 -1.6958 -0.0532  1.9233
 7604SOL    HW234272   1.864   2.804   4.238  0.6139  0.8642  0.0140
 7605SOL     OW34273   0.865   0.841  10.109  0.1347  0.1333  0.0172
 7605SOL    HW134274   0.910   0.837  10.025 -1.5674  1.2205 -0.9435
 7605SOL    HW234275   0.779   0.809  10.083 -0.5047  0.8153  1.2860
 7606SOL     OW34276   1.324   2.884  14.958 -0.2506  0.0009  0.3873
 7606SOL    HW134277   1.288   2.859  15.044  1.3722  2.3796  1.7703
 7606SOL    HW234278   1.296   2.812  14.902  0.0222  2.1904 -2.5555
 7607SOL     OW34279   1.197   0.348  12.006  0.0620 -0.3077 -0.3010
 7607SOL    HW134280   1.177   0.389  12.090  1.6510 -1.7851  0.7983
 7607SOL    HW234281   1.247   0.268  12.026 -0.4266 -0.0549  1.9808
 7608SOL     OW34282   2.252   0.801   5.590 -0.0668  0.1157 -0.5122
 7608SOL    HW134283   2.207   0.858   5.528 -0.1695 -0.1376 -0.6705
 7608SOL    HW234284   2.239   0.848   5.672 -1.4432 -2.3043  0.6739
 7609SOL     OW34285   4.457   0.060   0.632 -0.2321  0.2009 -0.4884
 7609SOL    HW134286   4.439   4.689   0.638  2.7972 -0.3860 -0.7901
 7609SOL    HW234287   4.373   0.097   0.604 -0.2908 -1.9114 -3.0453
 7610SOL     OW34288   1.129   1.649  12.041 -0.6635  0.3278 -0.0332
 7610SOL    HW134289   1.215   1.678  12.008  0.1361 -0.9607  0.8902
 7610SOL    HW234290   1.078   1.725  12.012 -0.9381  0.6314  1.2672
 7611SOL     OW34291   0.483   0.144  16.058 -0.5253 -0.3820  0.2192
 7611SOL    HW134292   0.418   0.090  16.102 -1.0246 -0.8628 -1.0835
 7611SOL    HW234293   0.557   0.084  16.057  1.3254  1.8809  0.5099
 7612SOL     OW34294   1.889   1.315   6.848  0.3986  0.0159  0.9422
 7612SOL    HW134295   1.941   1.276   6.778 -2.5576 -1.4561 -0.4629
 7612SOL    HW234296   1.915   1.265   6.925 -2.2414 -2.1695  0.4448
 7613SOL     OW34297   3.126   1.974   6.739 -0.6199 -0.0323  0.5429
 7613SOL    HW134298   3.116   1.902   6.677  1.0806 -1.2707  1.7065
 7613SOL    HW234299   3.221   1.985   6.741 -0.4777 -1.0218 -1.4818
 7614SOL     OW34300   3.129   3.940   7.939  0.4059  0.4505 -0.3701
 7614SOL    HW134301   3.071   3.864   7.947  3.6271 -1.9618  0.1718
 7614SOL    HW234302   3.215   3.911   7.970 -0.1743 -1.4414 -0.4709
 7615SOL     OW34303   3.819   0.345   1.980  0.5568 -0.6464  0.0279
 7615SOL    HW134304   3.864   0.260   1.975  0.6983 -0.6422  1.2119
 7615SOL    HW234305   3.867   0.384   2.053  1.2745 -1.3290 -0.0687
 7616SOL     OW34306   2.504   0.409   3.938 -0.3754 -0.4596  0.0424
 7616SOL    HW134307   2.494   0.360   3.856 -0.6703 -0.7557  0.2560
 7616SOL    HW234308   2.540   0.351   4.005 -0.8269 -1.6138 -0.7134
 7617SOL     OW34309   3.849   0.956   7.146  0.3678 -0.2147 -0.0471
 7617SOL    HW134310   3.932   0.911   7.133  0.7651 -0.1979  2.3154
 7617SOL    HW234311   3.880   1.039   7.183  1.3213 -0.7908  0.4436
 7618SOL     OW34312   0.482   2.015   7.980  0.0213 -0.4363 -0.4457
 7618SOL    HW134313   0.442   1.996   7.895 -1.0004  2.1510 -0.5366
 7618SOL    HW234314   0.576   2.016   7.958  0.4079 -0.8128  1.2240
 7619SOL     OW34315   2.065   1.334   1.533 -0.2316  0.1050 -0.1910
 7619SOL    HW134316   2.007   1.272   1.488 -1.0771  0.7482 -0.0016
 7619SOL    HW234317   2.140   1.278   1.554  0.3107  1.6522  1.9586
 7620SOL     OW34318   0.214   2.023   7.066 -0.0553  0.1861  0.3947
 7620SOL    HW134319   0.285   1.971   7.030  0.5444  1.3142 -0.0736
 7620SOL    HW234320   0.150   1.952   7.061  1.6767 -1.2520 -1.3451
 7621SOL     OW34321   2.214   2.339   4.636 -0.1181  0.2001  0.3483
 7621SOL    HW134322   2.126   2.306   4.618  1.9279 -3.0101 -3.7781
 7621SOL    HW234323   2.252   2.270   4.691  0.8233 -0.2952 -0.9156
 7622SOL     OW34324   2.114   2.365   2.094 -0.0541 -0.3107 -0.3644
 7622SOL    HW134325   2.095   2.441   2.148 -0.8474 -1.1822  0.5824
 7622SOL    HW234326   2.210   2.365   2.092 -0.0345 -1.4768  0.8824
 7623SOL     OW34327   1.466   3.115   4.773  0.5706  0.3581 -0.4864
 7623SOL    HW134328   1.380   3.074   4.767  2.1866 -3.1004 -0.2708
 7623SOL    HW234329   1.523   3.042   4.800 -0.9747 -0.5762  0.2241
 7624SOL     OW34330   0.095   2.500   1.285 -0.0582  0.3080 -0.0706
 7624SOL    HW134331   0.163   2.532   1.344 -1.0660  0.5660  0.9586
 7624SOL    HW234332   0.022   2.535   1.337  1.2028  1.6480  0.7750
 7625SOL     OW34333   0.415   3.928   9.417 -0.3605 -0.2865  0.4919
 7625SOL    HW134334   0.437   3.917   9.325 -0.0189 -1.1477  0.6810
 7625SOL    HW234335   0.482   3.991   9.444 -0.4429 -0.9908  2.3320
 7626SOL     OW34336   0.089   1.214  15.233  0.5493 -0.2385 -0.4060
 7626SOL    HW134337   0.155   1.282  15.247 -0.6891  1.1920 -1.5213
 7626SOL    HW234338   0.099   1.192  15.140 -0.1775 -2.7410  0.1062
 7627SOL     OW34339   3.583   3.738  10.440  0.5821 -0.5783  0.6752
 7627SOL    HW134340   3.625   3.818  10.409 -0.9674  0.8336  2.2302
 7627SOL    HW234341   3.496   3.757  10.404  1.1470 -2.0509 -1.4900
 7628SOL     OW34342   2.032   1.241   0.034  0.2257 -0.3221 -0.1003
 7628SOL    HW134343   2.055   1.201  17.642  0.5579  0.6439 -0.4728
 7628SOL    HW234344   2.046   1.331   0.003  0.9789 -0.7859 -1.1048
 7629SOL     OW34345   2.413   4.340   7.897 -0.8006 -0.1691 -0.2220
 7629SOL    HW134346   2.484   4.399   7.871  0.8398 -0.7254  3.0073
 7629SOL    HW234347   2.391   4.282   7.824 -2.3435 -0.5469  0.5548
 7630SOL     OW34348   1.620   2.133  10.763  0.3978 -0.2091 -0.4439
 7630SOL    HW134349   1.576   2.096  10.840  3.0349 -0.3840  0.9492
 7630SOL    HW234350   1.574   2.216  10.752  0.9000  0.0865 -0.3125
 7631SOL     OW34351   3.125   2.737  16.466  0.1242  0.1979  0.0041
 7631SOL    HW134352   3.218   2.736  16.443  0.2545  0.8251  0.4908
 7631SOL    HW234353   3.110   2.676  16.395 -3.5747 -0.6984  1.5503
 7632SOL     OW34354   1.277   4.166   6.560  0.3711  0.0821 -0.4380
 7632SOL    HW134355   1.363   4.170   6.518  1.3839 -2.1590  1.4607
 7632SOL    HW234356   1.267   4.253   6.599 -1.2122  1.0542 -2.9766
 7633SOL     OW34357   4.571   1.470  13.176 -0.4581  0.2502 -0.0136
 7633SOL    HW134358   4.657   1.506  13.197 -0.9319  1.6835 -0.5601
 7633SOL    HW234359   4.571   1.469  13.080 -1.5424 -1.4356 -0.0082
 7634SOL     OW34360   2.537   2.805   5.021  0.2713 -0.8036 -0.7352
 7634SOL    HW134361   2.492   2.869   5.077  0.2320 -0.6341 -0.9598
 7634SOL    HW234362   2.468   2.741   5.003 -1.4269  0.9176 -0.3452
 7635SOL     OW34363   2.722   3.196   4.096  0.4560 -0.0091  0.1147
 7635SOL    HW134364   2.673   3.277   4.113 -0.2805 -0.2103 -1.0687
 7635SOL    HW234365   2.657   3.130   4.070  1.0448 -0.1065 -1.1081
 7636SOL     OW34366   0.861   0.655  11.953  0.0977  0.4718 -0.2853
 7636SOL    HW134367   0.770   0.683  11.967  0.3599  0.8473  0.6482
 7636SOL    HW234368   0.913   0.717  12.004  1.5281 -1.1900  0.2799
 7637SOL     OW34369   2.056   2.691   6.700  0.0519 -0.6213 -0.0714
 7637SOL    HW134370   2.118   2.619   6.704  2.0085  0.9896 -1.0389
 7637SOL    HW234371   1.992   2.660   6.763  0.7268 -0.2665  0.7892
 7638SOL     OW34372   2.643   1.717   6.365  0.6108 -0.6158  0.1404
 7638SOL    HW134373   2.675   1.808   6.362 -0.8997 -0.1476 -1.8049
 7638SOL    HW234374   2.663   1.692   6.275 -1.3720 -1.9574  0.0857
 7639SOL     OW34375   3.580   2.185   8.365 -0.3129  0.2217  0.2585
 7639SOL    HW134376   3.662   2.144   8.390  0.8603  1.6658 -1.1915
 7639SOL    HW234377   3.558   2.242   8.439 -1.9513 -0.1003  0.0202
 7640SOL     OW34378   1.782   2.376   7.172 -0.2083 -0.2593  0.5458
 7640SOL    HW134379   1.697   2.367   7.215 -0.1550  1.8137  1.1005
 7640SOL    HW234380   1.758   2.407   7.084 -3.4634  2.1368  2.2681
 7641SOL     OW34381   4.060   4.067   1.320 -0.3179  0.0919 -0.4636
 7641SOL    HW134382   4.106   4.096   1.241 -0.7881  1.8036 -0.1027
 7641SOL    HW234383   4.001   4.005   1.278 -1.0265  0.9105 -0.6768
 7642SOL     OW34384   2.713   4.130   3.701  0.4886  0.5671  0.4622
 7642SOL    HW134385   2.801   4.140   3.739  0.1443  1.9612  0.9053
 7642SOL    HW234386   2.654   4.104   3.772  0.2713 -1.5276 -0.5072
 7643SOL     OW34387   4.112   1.246   7.663  0.3551 -0.1519 -0.1276
 7643SOL    HW134388   4.119   1.268   7.757  0.4739 -0.5125 -0.0545
 7643SOL    HW234389   4.025   1.277   7.638  0.1691 -0.2666  0.3629
 7644SOL     OW34390   4.358   3.411   7.483  0.3920 -0.4126 -0.7034
 7644SOL    HW134391   4.311   3.328   7.487 -0.4516 -0.0525 -3.1432
 7644SOL    HW234392   4.439   3.372   7.448  0.7754  3.2643 -3.8775
 7645SOL     OW34393   3.786   0.681  14.574 -0.0267 -0.2767 -0.6068
 7645SOL    HW134394   3.739   0.704  14.494 -2.7857  2.2864  1.7577
 7645SOL    HW234395   3.786   0.765  14.619  1.7720 -0.1341 -0.8607
 7646SOL     OW34396   0.465   3.475   1.938  0.6764 -0.0379  0.3570
 7646SOL    HW134397   0.463   3.382   1.959 -0.7881 -0.2547 -0.7902
 7646SOL    HW234398   0.409   3.484   1.862  0.8556 -1.2580  0.0785
 7647SOL     OW34399   4.227   0.957   2.391 -0.4324 -0.2265  0.2279
 7647SOL    HW134400   4.260   0.995   2.309 -0.0064  1.0926  1.0119
 7647SOL    HW234401   4.149   1.009   2.414 -0.6303 -0.6484  0.4919
 7648SOL     OW34402   2.462   3.180  17.509  0.6215 -0.1045  0.1582
 7648SOL    HW134403   2.459   3.199  17.416 -0.7221 -1.2024 -0.0354
 7648SOL    HW234404   2.531   3.243  17.528  1.2101 -0.2207 -1.5947
 7649SOL     OW34405   0.742   2.161   5.778 -0.1190 -0.1114 -0.0327
 7649SOL    HW134406   0.668   2.190   5.725 -0.0906 -1.2755 -0.7177
 7649SOL    HW234407   0.692   2.095   5.826 -0.4072  1.0769  1.2659
 7650SOL     OW34408   4.183   1.137   5.694  0.8541 -0.0702  0.0384
 7650SOL    HW134409   4.163   1.044   5.683  2.2750 -0.4187  0.4900
 7650SOL    HW234410   4.174   1.166   5.604 -0.5459  3.8196  1.4351
 7651SOL     OW34411   2.553   0.800  16.724 -0.3083 -0.1230 -0.0490
 7651SOL    HW134412   2.532   0.707  16.736  0.5567 -0.5063 -1.4936
 7651SOL    HW234413   2.474   0.837  16.763 -0.8358 -0.6355 -0.6272
 7652SOL     OW34414   3.643   2.934  16.272  0.5819 -0.6952 -0.0083
 7652SOL    HW134415   3.595   2.875  16.214 -0.7889 -0.1253  0.5668
 7652SOL    HW234416   3.628   2.892  16.357  0.3026 -1.3661 -0.3838
 7653SOL     OW34417   3.258   3.514   8.525 -0.7238  0.4424 -0.0374
 7653SOL    HW134418   3.286   3.426   8.549 -1.3065  0.1049 -0.6037
 7653SOL    HW234419   3.238   3.548   8.613  1.0868  1.9312 -0.1999
 7654SOL     OW34420   3.268   2.283  17.154  0.2155 -0.4103  0.1115
 7654SOL    HW134421   3.290   2.372  17.180 -2.5611  0.4206 -0.4055
 7654SOL    HW234422   3.292   2.236  17.234  0.3411 -0.1688  0.2186
 7655SOL     OW34423   1.858   4.452   5.743  0.1996  0.0101 -0.0390
 7655SOL    HW134424   1.836   4.380   5.683  2.1053 -1.3784  0.9234
 7655SOL    HW234425   1.942   4.472   5.703  0.8173 -0.1259  1.1807
 7656SOL     OW34426   0.638   2.254  10.499  0.4627 -0.1479  0.2837
 7656SOL    HW134427   0.692   2.186  10.540  2.6836  0.7140 -1.2234
 7656SOL    HW234428   0.606   2.303  10.575 -1.1839 -0.4472 -0.2200
 7657SOL     OW34429   3.186   1.492   7.504 -0.0153 -0.0615 -0.2951
 7657SOL    HW134430   3.212   1.525   7.590 -0.3410 -1.1686  0.2343
 7657SOL    HW234431   3.239   1.412   7.504 -1.2207 -0.8637 -2.6030
 7658SOL     OW34432   3.182   1.229  12.981 -0.9570 -1.0205 -0.9114
 7658SOL    HW134433   3.229   1.151  13.011  1.2781 -0.7760 -3.7912
 7658SOL    HW234434   3.252   1.282  12.941 -1.8759  0.8689 -0.0348
 7659SOL     OW34435   0.849   4.388   7.559  0.2617 -0.2014  0.2032
 7659SOL    HW134436   0.767   4.438   7.561  0.9170  0.9494 -1.0545
 7659SOL    HW234437   0.821   4.297   7.563  1.7596 -0.6961 -0.6634
 7660SOL     OW34438   2.504   0.066   9.190  0.3813 -0.0642  0.1549
 7660SOL    HW134439   2.569   4.718   9.181  2.5560  2.0941 -1.0096
 7660SOL    HW234440   2.431   0.007   9.205  0.2385 -0.2701 -1.3500
 7661SOL     OW34441   3.714   2.695  13.594  0.4018 -0.2728 -0.3585
 7661SOL    HW134442   3.664   2.718  13.515  0.7801  0.7305 -0.3151
 7661SOL    HW234443   3.783   2.639  13.559  0.7840  1.3226 -2.2286
 7662SOL     OW34444   1.495   2.703  14.390  0.3530  0.1642  0.4545
 7662SOL    HW134445   1.511   2.795  14.369  0.6004  0.0208  0.0143
 7662SOL    HW234446   1.410   2.707  14.433 -0.5882  0.3468 -1.4211
 7663SOL     OW34447   3.423   4.185   5.158  0.6126 -0.4962 -0.4484
 7663SOL    HW134448   3.419   4.266   5.108  0.4765 -1.0621 -1.3386
 7663SOL    HW234449   3.337   4.144   5.148  0.4964 -0.4667  0.3692
 7664SOL     OW34450   2.111   4.537   0.611  0.3871  0.1458  0.0422
 7664SOL    HW134451   2.139   4.538   0.702  1.2186  1.6422 -0.2356
 7664SOL    HW234452   2.019   4.511   0.617  0.7842 -0.7416  2.1436
 7665SOL     OW34453   3.118   3.528   9.455  0.0279 -0.2111  0.1147
 7665SOL    HW134454   3.199   3.558   9.496  0.5605 -2.1035  0.4523
 7665SOL    HW234455   3.144   3.527   9.363  1.3320  2.2759  0.4449
 7666SOL     OW34456   3.621   3.301  16.342 -0.0986 -0.1735 -0.5068
 7666SOL    HW134457   3.591   3.355  16.415  1.8848 -0.8036  0.7788
 7666SOL    HW234458   3.581   3.221  16.377  0.8415  0.7216  2.6723
 7667SOL     OW34459   1.086   0.147   4.834  0.1844  0.3341 -0.0907
 7667SOL    HW134460   1.089   0.232   4.791  1.6127  0.1780 -0.2791
 7667SOL    HW234461   1.157   0.157   4.897 -0.0677 -0.4719  0.3217
 7668SOL     OW34462   1.376   4.388  16.038 -0.1833 -0.0652 -0.3359
 7668SOL    HW134463   1.352   4.297  16.025 -0.8746 -0.1824  1.7843
 7668SOL    HW234464   1.343   4.423  15.955  2.1853  2.7678 -0.0997
 7669SOL     OW34465   0.946   0.774   9.133 -0.5137  0.6948 -0.3122
 7669SOL    HW134466   0.995   0.840   9.182 -0.1801 -1.7778  2.7185
 7669SOL    HW234467   0.950   0.694   9.186  3.5015  1.7892  1.0243
 7670SOL     OW34468   0.130   2.586  16.224 -0.2933 -0.0610  0.1366
 7670SOL    HW134469   0.169   2.662  16.181 -1.1979  1.0259  1.2199
 7670SOL    HW234470   0.119   2.525  16.152  0.6202 -1.0938  0.8722
 7671SOL     OW34471   1.222   3.267   2.856 -0.3071  0.0991  0.1930
 7671SOL    HW134472   1.211   3.354   2.895 -2.3616  0.3437 -0.9032
 7671SOL    HW234473   1.214   3.289   2.763 -1.5176 -1.2895 -0.0449
 7672SOL     OW34474   1.366   1.703  11.952 -0.0180  0.3564 -0.1786
 7672SOL    HW134475   1.411   1.694  12.035  1.6987 -1.3348 -1.2884
 7672SOL    HW234476   1.418   1.776  11.919  0.6929 -0.9675 -2.0486
 7673SOL     OW34477   1.230   3.779   2.870 -0.1171 -0.0715 -0.0967
 7673SOL    HW134478   1.179   3.824   2.937  1.5323 -0.3756  1.3626
 7673SOL    HW234479   1.179   3.698   2.868  0.0684 -0.1964  0.2749
 7674SOL     OW34480   1.568   1.683   2.761 -0.5609 -0.3381  0.3762
 7674SOL    HW134481   1.556   1.674   2.856  0.3860  2.0081  0.7337
 7674SOL    HW234482   1.620   1.763   2.759  0.7577 -1.2543 -1.9167
 7675SOL     OW34483   4.002   3.544   8.582 -0.3272  0.4983 -0.8733
 7675SOL    HW134484   4.080   3.548   8.638 -1.3904 -1.9394  0.8127
 7675SOL    HW234485   4.007   3.635   8.554 -2.9262  0.2556 -2.1514
 7676SOL     OW34486   2.000   3.985  10.223 -0.4369  0.5422  0.0599
 7676SOL    HW134487   2.048   4.049  10.275  1.7019 -0.7211 -0.3314
 7676SOL    HW234488   2.016   3.916  10.288 -1.4331 -0.8440 -1.1783
 7677SOL     OW34489   2.490   4.038   6.746  0.6416 -0.6434 -0.2218
 7677SOL    HW134490   2.514   4.065   6.657 -1.2239 -0.9777 -0.8398
 7677SOL    HW234491   2.573   4.001   6.776 -0.3128 -1.5947  1.2265
 7678SOL     OW34492   1.700   3.891  16.882  0.5924 -0.0922  0.2394
 7678SOL    HW134493   1.604   3.882  16.879  0.6096 -0.1834 -0.0954
 7678SOL    HW234494   1.720   3.846  16.799  0.2966 -1.9235  1.1720
 7679SOL     OW34495   0.515   2.213  14.408  0.2141 -0.5678  0.0269
 7679SOL    HW134496   0.599   2.169  14.423  1.2716  0.8749 -1.7640
 7679SOL    HW234497   0.481   2.222  14.497 -2.0941  0.0563 -0.9256
 7680SOL     OW34498   3.111   3.827   4.455 -0.3193  0.6119  0.5421
 7680SOL    HW134499   3.084   3.737   4.440 -0.5210  0.4504  1.8680
 7680SOL    HW234500   3.145   3.829   4.544  0.2899  0.7468  0.3076
 7681SOL     OW34501   3.584   4.464  12.622  0.3789 -0.1307 -0.2580
 7681SOL    HW134502   3.579   4.472  12.527  1.3112  1.1844 -0.1996
 7681SOL    HW234503   3.610   4.550  12.657 -1.2406  1.2799 -2.5022
 7682SOL     OW34504   1.638   0.297   4.299 -0.4077 -0.0864 -0.4230
 7682SOL    HW134505   1.587   0.355   4.242  0.4678  1.8441  0.7470
 7682SOL    HW234506   1.622   0.217   4.250  0.7165 -1.6330  1.7218
 7683SOL     OW34507   0.198   3.288   5.546 -0.1919 -0.2411 -0.3486
 7683SOL    HW134508   0.184   3.382   5.546  0.1634 -0.1939 -0.9668
 7683SOL    HW234509   0.288   3.277   5.514 -0.7106 -1.3239 -1.4216
 7684SOL     OW34510   0.783   1.181  17.058  0.0801  0.2939 -0.0210
 7684SOL    HW134511   0.725   1.105  17.066  0.0418  0.2523 -0.6554
 7684SOL    HW234512   0.727   1.237  17.003  0.8177  0.0660 -1.0074
 7685SOL     OW34513   1.981   4.057   8.998  0.7656  0.5409 -0.1510
 7685SOL    HW134514   1.958   3.968   8.970  2.7621  0.0322 -0.1378
 7685SOL    HW234515   2.076   4.056   9.005  0.7045 -1.8018  0.4808
 7686SOL     OW34516   1.046   0.730   3.747  0.3052 -0.3138  0.0653
 7686SOL    HW134517   1.017   0.757   3.660 -1.9894  1.3376  1.3624
 7686SOL    HW234518   1.139   0.753   3.736 -0.3650  1.5787 -1.4860
 7687SOL     OW34519   4.439   1.936  10.926 -0.1899  0.5293 -0.4523
 7687SOL    HW134520   4.369   1.873  10.943  0.6509 -0.6980 -1.5342
 7687SOL    HW234521   4.426   2.001  10.995 -2.9036  0.1476 -0.6124
 7688SOL     OW34522   4.269   3.115   4.706  0.3133  0.0435  0.1732
 7688SOL    HW134523   4.226   3.066   4.636 -0.1340 -0.7419  1.0001
 7688SOL    HW234524   4.360   3.131   4.682  0.2340 -1.1678 -0.9274
 7689SOL     OW34525   0.810   0.485   3.304 -0.1347 -0.2945 -0.4667
 7689SOL    HW134526   0.877   0.427   3.268  1.2516  1.8713 -1.4193
 7689SOL    HW234527   0.775   0.511   3.219  0.8755 -0.5187 -0.9522
 7690SOL     OW34528   1.307   3.693  12.309  0.0954 -0.7535 -0.6787
 7690SOL    HW134529   1.255   3.723  12.234  0.3138  2.1898  0.3652
 7690SOL    HW234530   1.371   3.640  12.262  3.5194  1.6835  1.2907
 7691SOL     OW34531   3.883   0.223   4.038  0.5241  0.2223 -0.3658
 7691SOL    HW134532   3.814   0.157   4.029  0.0261  0.8741 -1.1936
 7691SOL    HW234533   3.846   0.288   4.098  0.7765 -0.0973  0.1385
 7692SOL     OW34534   1.579   1.811   4.923 -0.2496 -0.3334 -0.3431
 7692SOL    HW134535   1.511   1.802   4.857 -0.8511  0.9365  0.1029
 7692SOL    HW234536   1.593   1.906   4.921  3.2127 -0.8605 -2.3481
 7693SOL     OW34537   3.899   1.578  12.429 -0.3806 -0.1346  0.5549
 7693SOL    HW134538   3.914   1.657  12.481 -0.2573  0.2271 -0.0376
 7693SOL    HW234539   3.951   1.509  12.469  2.8406  1.3532 -1.1033
 7694SOL     OW34540   3.982   1.935   8.747 -0.0643 -0.0425  0.1674
 7694SOL    HW134541   3.959   2.024   8.773 -2.4269 -0.4448 -0.5422
 7694SOL    HW234542   3.904   1.887   8.774  0.3012 -0.6723  0.0904
 7695SOL     OW34543   3.781   3.512   6.003  0.2134 -0.1623  0.3542
 7695SOL    HW134544   3.813   3.563   5.930  3.9913  0.1660  2.2657
 7695SOL    HW234545   3.844   3.538   6.070 -0.5702 -0.7334  1.3107
 7696SOL     OW34546   3.158   1.994   1.533 -0.0677  0.0609 -0.4016
 7696SOL    HW134547   3.118   1.915   1.496  0.1887 -0.2639  0.0120
 7696SOL    HW234548   3.237   1.994   1.478  1.4198  0.2106  1.6978
 7697SOL     OW34549   2.407   2.505  12.101 -0.0632  0.8475 -0.1732
 7697SOL    HW134550   2.473   2.436  12.093 -1.3622 -0.3253 -0.7900
 7697SOL    HW234551   2.454   2.567  12.157  1.4416 -0.6272  0.1678
 7698SOL     OW34552   4.377   4.193   2.866  0.1836  0.0407 -0.2914
 7698SOL    HW134553   4.396   4.256   2.936  1.5432  0.1573 -0.7675
 7698SOL    HW234554   4.312   4.141   2.912  0.9779 -1.2983 -0.6904
 7699SOL     OW34555   0.005   3.506   6.006  0.2355 -0.2551  0.0072
 7699SOL    HW134556   0.069   3.543   6.067 -2.4670  2.3054  1.3078
 7699SOL    HW234557   4.688   3.580   5.961  0.0806  0.6449  1.5957
 7700SOL     OW34558   1.433   1.306   0.310 -0.5192 -0.4259  0.3914
 7700SOL    HW134559   1.386   1.230   0.345  0.4085 -0.0765  2.4145
 7700SOL    HW234560   1.525   1.282   0.327 -0.7240 -0.2434  1.7515
 7701SOL     OW34561   0.190   4.657  15.559 -0.1068  0.1128 -0.1432
 7701SOL    HW134562   0.279   4.691  15.555 -0.1335  0.3675  1.5315
 7701SOL    HW234563   0.182   4.592  15.628 -2.8892  2.2461  1.5383
 7702SOL     OW34564   1.923   3.763  10.697  0.1360 -0.4719  0.1198
 7702SOL    HW134565   1.867   3.697  10.654 -1.1107  0.2803  0.5870
 7702SOL    HW234566   1.886   3.780  10.783 -2.3195  0.0917 -1.0411
 7703SOL     OW34567   3.484   4.605   4.163  0.2662  0.0631 -0.5347
 7703SOL    HW134568   3.416   4.659   4.202  2.1233  1.1306  1.2031
 7703SOL    HW234569   3.487   4.533   4.226  0.2025  0.3861 -0.1635
 7704SOL     OW34570   4.127   1.112  12.606  0.1880  0.5975  0.0817
 7704SOL    HW134571   4.148   1.065  12.525  1.0583 -0.4500  0.9077
 7704SOL    HW234572   4.047   1.067  12.632  0.1464  0.5943 -0.0485
 7705SOL     OW34573   2.038   4.399   6.385  0.2020  0.3815 -0.1373
 7705SOL    HW134574   2.031   4.463   6.455 -1.3207 -0.9141  0.8961
 7705SOL    HW234575   2.092   4.450   6.325 -0.0485 -0.4443 -1.0584
 7706SOL     OW34576   3.285   2.494  15.647  0.5680 -0.4329  0.6186
 7706SOL    HW134577   3.307   2.474  15.556 -1.1436  0.1083  0.0891
 7706SOL    HW234578   3.194   2.466  15.656 -0.1619  1.3654 -1.1826
 7707SOL     OW34579   1.994   4.334   7.677  0.6700  0.4401 -0.3282
 7707SOL    HW134580   2.069   4.317   7.620 -0.2847 -0.6603 -1.2453
 7707SOL    HW234581   1.964   4.251   7.713 -0.2588  1.2626  0.8105
 7708SOL     OW34582   1.616   2.666   7.433 -0.6165  0.3802  0.0468
 7708SOL    HW134583   1.645   2.585   7.475  2.4509  2.7875  2.5290
 7708SOL    HW234584   1.520   2.666   7.432 -0.6530 -3.1080  1.4408
 7709SOL     OW34585   0.570   4.117  12.228 -0.5872  0.1447 -0.1672
 7709SOL    HW134586   0.595   4.028  12.253  2.0205  1.2462  1.1122
 7709SOL    HW234587   0.494   4.083  12.180 -1.7508 -0.5950  2.2229
 7710SOL     OW34588   3.647   2.397   8.577 -0.4820 -0.1565  0.4343
 7710SOL    HW134589   3.658   2.486   8.544 -1.3684  0.5408  2.0865
 7710SOL    HW234590   3.558   2.406   8.610 -0.6123  2.8352 -0.7567
 7711SOL     OW34591   4.476   2.693   6.699  0.0966  0.2094  0.6367
 7711SOL    HW134592   4.482   2.682   6.604  0.6419  0.2756  0.6664
 7711SOL    HW234593   4.387   2.667   6.722  0.5769 -0.2085  2.0001
 7712SOL     OW34594   3.989   2.157   3.981 -0.3115 -0.0251 -0.0082
 7712SOL    HW134595   3.950   2.152   3.894  1.9788  0.5139 -1.0486
 7712SOL    HW234596   4.062   2.096   3.984 -1.3508 -1.3124 -0.6295
 7713SOL     OW34597   2.173   2.412   6.789 -0.1918  0.9697 -0.5226
 7713SOL    HW134598   2.260   2.375   6.775 -0.3381 -0.4106  2.2775
 7713SOL    HW234599   2.177   2.474   6.862 -3.3082 -0.0349  0.5373
 7714SOL     OW34600   4.459   1.346   4.355  0.2148 -0.3057  0.0831
 7714SOL    HW134601   4.463   1.403   4.432 -0.3570 -0.7394  0.4383
 7714SOL    HW234602   4.494   1.264   4.391 -0.8646 -0.9228 -0.2727
 7715SOL     OW34603   4.247   2.560   8.238 -0.3514 -0.1821  0.0929
 7715SOL    HW134604   4.313   2.495   8.263 -0.3726 -0.9620 -1.8182
 7715SOL    HW234605   4.178   2.551   8.304 -0.1781  1.6070  0.4908
 7716SOL     OW34606   2.035   3.001   7.887  0.4164  0.3126 -0.7420
 7716SOL    HW134607   2.017   3.059   7.813 -3.1026 -2.0262 -1.7270
 7716SOL    HW234608   1.959   2.943   7.882  0.2808  0.4039  0.2646
 7717SOL     OW34609   3.431   1.009  15.563 -0.4377  0.8951 -0.1303
 7717SOL    HW134610   3.490   1.084  15.566  2.3577 -1.3724  1.6339
 7717SOL    HW234611   3.351   1.033  15.610  0.0132  0.0913  1.0472
 7718SOL     OW34612   3.189   4.549  13.199 -0.5970  0.7021  0.1435
 7718SOL    HW134613   3.279   4.517  13.190 -0.9270 -0.3734  0.6924
 7718SOL    HW234614   3.147   4.507  13.124  4.1243 -1.3896 -1.2975
 7719SOL     OW34615   1.709   3.068   6.962  0.3716  0.5502  1.3380
 7719SOL    HW134616   1.716   2.973   6.977 -0.7818  0.5367  1.8362
 7719SOL    HW234617   1.753   3.073   6.878 -2.2612  2.4150  0.0748
 7720SOL     OW34618   4.395   4.534   2.572 -0.4827 -0.1438  0.1688
 7720SOL    HW134619   4.461   4.464   2.570 -1.3743 -0.9934  0.2619
 7720SOL    HW234620   4.317   4.480   2.559  1.1984 -2.0381 -2.1020
 7721SOL     OW34621   4.286   0.396  12.831  0.1055  0.0534  0.2359
 7721SOL    HW134622   4.276   0.320  12.773 -1.4794  0.9606 -0.6853
 7721SOL    HW234623   4.378   0.417  12.820  0.4036 -1.2009  0.3470
 7722SOL     OW34624   2.237   3.038  15.839  0.0701 -0.3669 -0.4376
 7722SOL    HW134625   2.228   3.133  15.833  1.3975 -0.1615  0.5651
 7722SOL    HW234626   2.158   3.008  15.884  0.2796 -0.1662  0.0747
 7723SOL     OW34627   4.577   3.263   7.412  0.3155  0.3264 -0.2038
 7723SOL    HW134628   4.601   3.175   7.382  1.3843  0.8007 -0.7048
 7723SOL    HW234629   4.662   3.288   7.447 -1.3952  4.3371  1.0800
 7724SOL     OW34630   4.513   1.552   2.678 -0.3155  0.1034  0.1784
 7724SOL    HW134631   4.425   1.549   2.640  0.2043 -0.9423 -0.9548
 7724SOL    HW234632   4.502   1.513   2.765 -0.8565 -2.6241 -1.1298
 7725SOL     OW34633   3.366   4.066   0.438 -0.4313 -0.4294 -0.2463
 7725SOL    HW134634   3.427   3.994   0.452  1.0830  0.3545 -2.8980
 7725SOL    HW234635   3.310   4.034   0.367 -0.2850  0.8271 -0.9180
 7726SOL     OW34636   1.608   0.262   4.611 -0.3982 -0.2910  0.2567
 7726SOL    HW134637   1.545   0.266   4.539 -1.2055 -0.2616  0.9667
 7726SOL    HW234638   1.571   0.198   4.672 -0.7686  0.4978  0.8628
 7727SOL     OW34639   4.206   0.110   2.453  0.3014 -0.0073  0.4398
 7727SOL    HW134640   4.212   0.036   2.393 -1.7939  0.6848 -0.5796
 7727SOL    HW234641   4.227   0.180   2.391  1.2576  0.1875  0.9732
 7728SOL     OW34642   4.527   3.748   2.202  0.2876  0.2105 -0.3502
 7728SOL    HW134643   4.514   3.749   2.297 -0.0571 -0.4333 -0.3885
 7728SOL    HW234644   4.459   3.806   2.167  1.9356  2.0904 -0.3954
 7729SOL     OW34645   1.144   2.791  13.757  0.2451 -0.0347  0.3910
 7729SOL    HW134646   1.198   2.858  13.801  1.1257  1.4989 -3.0648
 7729SOL    HW234647   1.207   2.740  13.706  3.3246  2.6790  1.4471
 7730SOL     OW34648   3.331   2.077   7.976  0.0717  0.5267 -0.0880
 7730SOL    HW134649   3.272   2.081   7.900  0.0366 -1.2315 -0.1405
 7730SOL    HW234650   3.395   2.144   7.951  1.1288 -0.2237  0.6353
 7731SOL     OW34651   0.688   1.616   0.825 -0.0438 -0.0111  0.1906
 7731SOL    HW134652   0.614   1.669   0.798  1.7016  2.3913  0.0967
 7731SOL    HW234653   0.669   1.623   0.918  0.3334  5.4354 -0.1444
 7732SOL     OW34654   0.697   1.320   3.407  0.4777  0.4471 -0.0675
 7732SOL    HW134655   0.740   1.324   3.322 -0.9238 -0.1786 -0.8010
 7732SOL    HW234656   0.700   1.228   3.431  1.0502  0.2283 -1.0016
 7733SOL     OW34657   0.223   3.534  14.288  0.3272 -0.3740 -0.2584
 7733SOL    HW134658   0.269   3.564  14.210  0.0531 -1.2226 -0.7421
 7733SOL    HW234659   0.217   3.619  14.332 -2.4611  0.6424 -2.6352
 7734SOL     OW34660   1.543   0.274   2.955 -0.1815 -0.0039 -0.0055
 7734SOL    HW134661   1.533   0.367   2.974  1.3638  0.0202  0.7124
 7734SOL    HW234662   1.601   0.275   2.879 -1.2639  0.4966 -0.8281
 7735SOL     OW34663   4.464   2.099   5.579  0.1616  0.1208 -0.2181
 7735SOL    HW134664   4.538   2.085   5.638 -0.2469 -1.1211 -0.0082
 7735SOL    HW234665   4.458   2.195   5.574  0.6078  0.1869  0.5594
 7736SOL     OW34666   0.485   3.179   9.160  0.2002  0.1519  0.3121
 7736SOL    HW134667   0.513   3.144   9.076  0.4997  1.8515 -0.2954
 7736SOL    HW234668   0.481   3.271   9.134 -0.3929 -0.5944 -2.1944
 7737SOL     OW34669   1.229   1.047  10.689  0.0542 -0.1690 -0.0976
 7737SOL    HW134670   1.158   1.089  10.737 -1.5052 -0.7180 -1.9469
 7737SOL    HW234671   1.191   1.048  10.602 -0.9008  2.7612  0.3293
 7738SOL     OW34672   2.787   2.913  15.889  0.1145  0.2971 -0.0971
 7738SOL    HW134673   2.692   2.919  15.883  0.2240  0.0775 -2.0517
 7738SOL    HW234674   2.806   2.988  15.945 -0.0071 -0.0020  0.3483
 7739SOL     OW34675   0.300   1.600   8.496 -0.1575  0.1578  0.1705
 7739SOL    HW134676   0.206   1.581   8.496 -0.2810  0.7466  1.5631
 7739SOL    HW234677   0.303   1.644   8.581 -1.3140  0.7460 -0.0896
 7740SOL     OW34678   3.551   2.786  16.066 -0.7067  0.2691  0.0091
 7740SOL    HW134679   3.473   2.751  16.022  0.4826  0.0907 -1.9639
 7740SOL    HW234680   3.608   2.769  15.991 -0.2017  0.1451  0.4238
 7741SOL     OW34681   0.996   0.752  14.132 -0.3871  0.7585 -0.4928
 7741SOL    HW134682   0.953   0.785  14.210 -1.7857  1.5596 -1.5994
 7741SOL    HW234683   1.082   0.726  14.166 -0.1921  1.0529 -0.7531
 7742SOL     OW34684   3.400   1.412   7.223  0.4096 -0.1152 -0.5012
 7742SOL    HW134685   3.370   1.367   7.301 -0.0509  0.6060 -0.2620
 7742SOL    HW234686   3.437   1.335   7.180  1.3424  1.1174 -1.9181
 7743SOL     OW34687   1.290   2.150  12.836  0.1596  0.2480 -0.2974
 7743SOL    HW134688   1.211   2.136  12.785  0.1775  0.1646 -0.3016
 7743SOL    HW234689   1.363   2.108  12.790  0.3665 -1.3783  1.5102
 7744SOL     OW34690   0.858   2.597   0.679  0.3000  0.5653 -0.1956
 7744SOL    HW134691   0.791   2.535   0.649  1.2206  0.1371 -1.3241
 7744SOL    HW234692   0.919   2.612   0.607  0.6706  0.1904  0.0405
 7745SOL     OW34693   0.156   3.282   4.340  0.2532 -0.2730  0.1183
 7745SOL    HW134694   0.151   3.378   4.334  2.0434 -0.2569 -1.1741
 7745SOL    HW234695   0.177   3.268   4.248  1.5601  0.7080  0.2606
 7746SOL     OW34696   3.620   0.601  17.187  0.6490 -0.0719  0.3479
 7746SOL    HW134697   3.603   0.695  17.194 -0.3604 -0.4223  2.5990
 7746SOL    HW234698   3.555   0.565  17.247 -0.8160  1.2663 -0.4225
 7747SOL     OW34699   1.897   0.254   7.264  0.0069 -0.5180 -0.0023
 7747SOL    HW134700   1.971   0.314   7.262 -0.7089  0.3244 -0.7101
 7747SOL    HW234701   1.876   0.243   7.357 -0.0516  1.1899  0.1766
 7748SOL     OW34702   0.586   1.514  12.317  0.0185 -0.3316  0.3063
 7748SOL    HW134703   0.529   1.540  12.245  1.4899  0.9589 -0.4050
 7748SOL    HW234704   0.667   1.551  12.281 -0.5262  2.2871  1.7236
 7749SOL     OW34705   1.617   2.185   3.479  0.0141  0.3304 -0.6117
 7749SOL    HW134706   1.662   2.101   3.491  0.6810  0.7822  0.0734
 7749SOL    HW234707   1.564   2.170   3.401  2.1453  2.3716 -2.4373
 7750SOL     OW34708   4.024   3.215   2.799  0.3144  0.2064 -0.7680
 7750SOL    HW134709   4.091   3.149   2.818 -0.6206 -0.5306 -0.0334
 7750SOL    HW234710   4.073   3.298   2.802  0.1125  0.2799  0.5937
 7751SOL     OW34711   2.831   2.750   4.860  0.1407 -0.1271  0.1111
 7751SOL    HW134712   2.794   2.703   4.935 -3.2685  0.5648 -1.1306
 7751SOL    HW234713   2.915   2.704   4.864 -0.9822 -2.0264  1.9695
 7752SOL     OW34714   1.175   1.031  16.876 -0.4642 -0.0232  0.0165
 7752SOL    HW134715   1.240   1.012  16.943 -0.4483  0.1596  0.0517
 7752SOL    HW234716   1.093   0.987  16.901 -1.2238  1.1521 -0.4226
 7753SOL     OW34717   0.825   4.722   3.835 -0.1008  0.0964 -0.4421
 7753SOL    HW134718   0.790   0.076   3.788  0.0255 -0.1928 -1.0046
 7753SOL    HW234719   0.872   4.681   3.763 -0.8945 -1.5423 -0.0271
 7754SOL     OW34720   0.127   0.961  13.278 -0.3726 -0.5092  0.2499
 7754SOL    HW134721   0.222   0.947  13.277  0.2691  4.0568 -1.4416
 7754SOL    HW234722   0.113   0.948  13.371 -0.0658  1.2760  0.5463
 7755SOL     OW34723   3.748   0.755   6.969  0.1815  0.2922  0.4252
 7755SOL    HW134724   3.703   0.795   6.894  0.5378  0.0067  0.0553
 7755SOL    HW234725   3.772   0.832   7.019  0.3532  0.1736  0.5235
 7756SOL     OW34726   4.613   0.043   7.876 -0.5149  0.6917  0.0766
 7756SOL    HW134727   4.533   4.713   7.871 -1.4194  2.1142 -0.4145
 7756SOL    HW234728   4.587   0.126   7.916  2.5219  1.0454  1.3094
 7757SOL     OW34729   3.227   3.038   5.563 -0.0972  0.0418 -0.3925
 7757SOL    HW134730   3.256   3.129   5.552 -1.1468  0.0277 -3.2215
 7757SOL    HW234731   3.254   2.996   5.482 -0.6179  0.6822 -0.8978
 7758SOL     OW34732   4.391   0.291   6.986 -0.0542  0.2737  0.0362
 7758SOL    HW134733   4.471   0.258   6.945 -1.3645 -0.0049 -2.3153
 7758SOL    HW234734   4.428   0.361   7.040 -0.0372  1.2090 -1.1736
 7759SOL     OW34735   4.331   4.121   9.110  0.4910  0.2298  0.2318
 7759SOL    HW134736   4.374   4.142   9.193 -0.5062 -1.3266  1.1432
 7759SOL    HW234737   4.242   4.107   9.143 -0.0240 -1.7487 -1.8748
 7760SOL     OW34738   4.458   3.372   3.568  0.3022  0.0474 -0.2606
 7760SOL    HW134739   4.407   3.311   3.621  2.2650  1.3478  3.1377
 7760SOL    HW234740   4.509   3.420   3.634  0.5987 -1.3027  0.4955
 7761SOL     OW34741   3.789   1.540   5.982  0.4981 -0.0491  0.7896
 7761SOL    HW134742   3.801   1.474   5.914  2.4431  1.4629 -0.3406
 7761SOL    HW234743   3.742   1.605   5.931 -0.1537 -0.8698  0.3429
 7762SOL     OW34744   0.740   2.318  17.306  0.3373  0.4791  0.1964
 7762SOL    HW134745   0.760   2.280  17.392 -0.4141 -3.6081 -1.4154
 7762SOL    HW234746   0.827   2.315  17.266 -0.4773 -2.5171 -1.3768
 7763SOL     OW34747   2.332   4.105   9.065  0.0737  0.2088 -0.8910
 7763SOL    HW134748   2.424   4.100   9.092 -0.8987 -1.8553  1.9463
 7763SOL    HW234749   2.300   4.178   9.118 -1.9638 -0.1718 -1.6105
 7764SOL     OW34750   4.515   1.580   7.213 -0.0322  0.0574 -0.0600
 7764SOL    HW134751   4.512   1.658   7.268 -0.7486  0.8304 -1.2169
 7764SOL    HW234752   4.593   1.540   7.252 -0.7013  0.1999  1.4017
 7765SOL     OW34753   4.128   2.202   5.592  0.3266  0.4877  0.1797
 7765SOL    HW134754   4.068   2.169   5.659  0.4505  1.9954  1.0459
 7765SOL    HW234755   4.187   2.127   5.591 -1.5351 -0.9768  0.6000
 7766SOL     OW34756   4.079   3.161   8.647  0.0393 -0.5410 -0.3088
 7766SOL    HW134757   4.072   3.065   8.649  0.1675 -0.5503 -0.3154
 7766SOL    HW234758   4.174   3.160   8.633 -0.2372  0.7707 -2.2496
 7767SOL     OW34759   1.986   4.417  15.129 -0.5035  0.0918  0.8659
 7767SOL    HW134760   2.065   4.393  15.080 -0.1444  2.2803  0.3901
 7767SOL    HW234761   1.998   4.511  15.121  0.4765 -0.0670  0.4935
 7768SOL     OW34762   0.802   0.142   7.206  0.1915 -0.3019  0.0007
 7768SOL    HW134763   0.885   0.188   7.194  0.0403  0.7700  2.9013
 7768SOL    HW234764   0.808   0.123   7.300  2.6802 -0.9637 -0.2950
 7769SOL     OW34765   2.734   2.217  15.484  0.0383 -0.4382 -0.1783
 7769SOL    HW134766   2.778   2.286  15.435  0.5709  0.1004  1.0562
 7769SOL    HW234767   2.671   2.192  15.416 -0.9409  0.8974  0.2182
 7770SOL     OW34768   0.349   0.549  16.678 -0.5473 -0.3948 -0.4473
 7770SOL    HW134769   0.395   0.474  16.714  1.0043  0.5296 -0.5227
 7770SOL    HW234770   0.367   0.616  16.744  0.5201  1.8917 -3.0676
 7771SOL     OW34771   3.437   2.950   6.279  0.3274 -0.4232  0.2981
 7771SOL    HW134772   3.418   3.035   6.319  0.1293  0.1156 -0.9611
 7771SOL    HW234773   3.455   2.971   6.188  2.4404 -0.0560  0.7906
 7772SOL     OW34774   3.672   3.623   9.472  0.2845 -0.4303  0.1428
 7772SOL    HW134775   3.655   3.618   9.566  2.7249 -0.9320  0.5696
 7772SOL    HW234776   3.736   3.694   9.468  0.2036 -0.3833 -0.4320
 7773SOL     OW34777   1.106   1.453  13.481 -0.7571 -0.3504  0.0687
 7773SOL    HW134778   1.102   1.467  13.576  0.3310 -0.7334  0.1671
 7773SOL    HW234779   1.021   1.414  13.461 -0.9857 -0.0969  0.5581
 7774SOL     OW34780   0.741   3.055  13.726 -0.1316 -0.2321  0.8747
 7774SOL    HW134781   0.648   3.074  13.737 -0.2478 -0.6067  0.5468
 7774SOL    HW234782   0.734   2.973  13.676  0.2816  0.4656 -0.3405
 7775SOL     OW34783   0.820   2.011   2.491 -0.4688 -0.2965 -0.2067
 7775SOL    HW134784   0.899   2.060   2.468 -0.6510 -0.4724 -1.1767
 7775SOL    HW234785   0.749   2.075   2.483  0.4199  0.6533 -0.4555
 7776SOL     OW34786   3.645   2.006   4.862  0.1270  0.5040 -0.2548
 7776SOL    HW134787   3.632   2.006   4.767  0.8446 -0.9656 -0.3612
 7776SOL    HW234788   3.720   2.064   4.873  1.8331 -2.0589  1.8766
 7777SOL     OW34789   0.099   3.784  10.405  0.3068  0.6885 -0.3969
 7777SOL    HW134790   0.138   3.705  10.366 -0.0512  0.5220 -0.4174
 7777SOL    HW234791   0.007   3.757  10.399  0.4759  0.1397 -0.6204
 7778SOL     OW34792   0.994   3.060  13.147  0.5506 -0.7323  0.2642
 7778SOL    HW134793   1.089   3.075  13.144  0.2137  1.3729 -0.0520
 7778SOL    HW234794   0.977   3.142  13.193 -0.1390 -0.3416 -0.6785
 7779SOL     OW34795   1.844   0.051   8.206  0.0830  0.1213 -0.1457
 7779SOL    HW134796   1.933   0.057   8.169  1.4522 -0.2132  3.0709
 7779SOL    HW234797   1.826   0.144   8.220 -0.2548  0.1856 -0.9926
 7780SOL     OW34798   4.060   0.715   3.291 -0.0988 -0.0483  0.0641
 7780SOL    HW134799   4.003   0.748   3.221  0.7659  0.7136 -0.2799
 7780SOL    HW234800   4.015   0.635   3.320 -0.6655 -0.3859 -1.7132
 7781SOL     OW34801   2.973   0.240   8.044 -0.4246 -0.7508 -0.5872
 7781SOL    HW134802   2.923   0.273   7.969  0.0753  1.1769 -0.0844
 7781SOL    HW234803   3.047   0.194   8.004  0.4337 -0.3483  0.5402
 7782SOL     OW34804   1.386   4.218   8.134 -0.2297 -0.0532  0.3394
 7782SOL    HW134805   1.430   4.140   8.168 -1.0361 -0.2257  0.9954
 7782SOL    HW234806   1.332   4.173   8.069 -1.2523  1.3738  0.2039
 7783SOL     OW34807   3.309   2.912   3.636  0.5120 -0.8240  0.2567
 7783SOL    HW134808   3.299   2.829   3.588 -3.1702  0.6724 -1.5548
 7783SOL    HW234809   3.225   2.955   3.625  0.5009 -0.8951  0.0542
 7784SOL     OW34810   2.465   4.649   9.835 -0.3664  0.0445 -0.2467
 7784SOL    HW134811   2.437   4.561   9.809 -1.2592 -0.8136  3.5888
 7784SOL    HW234812   2.420   4.660   9.919  0.3502  0.1751  0.1203
 7785SOL     OW34813   0.704   0.187   9.001  0.0919 -0.1758 -0.2665
 7785SOL    HW134814   0.645   0.186   9.076  0.2889  1.1155 -0.0870
 7785SOL    HW234815   0.733   0.279   9.005  0.8875 -0.3505 -1.7756
 7786SOL     OW34816   4.684   2.123   3.209 -0.5843 -0.3014  0.2050
 7786SOL    HW134817   0.054   2.096   3.209 -0.0953  1.3125 -1.6647
 7786SOL    HW234818   4.694   2.190   3.276  0.2258 -0.7112  0.4961
 7787SOL     OW34819   2.428   3.762   5.278 -0.2594  0.0046 -0.3069
 7787SOL    HW134820   2.428   3.857   5.288  0.1171  0.0535 -0.7460
 7787SOL    HW234821   2.521   3.742   5.265  0.1149  0.0868  2.3178
 7788SOL     OW34822   1.375   0.963   3.399  0.4161 -0.2762  0.1127
 7788SOL    HW134823   1.450   1.022   3.407  0.5233 -0.4071  0.0627
 7788SOL    HW234824   1.394   0.899   3.467 -1.3925 -2.4283 -1.4154
 7789SOL     OW34825   4.086   1.838  16.229  0.4943  0.3364  0.0170
 7789SOL    HW134826   4.048   1.916  16.190  1.2361  0.7223  0.0770
 7789SOL    HW234827   4.011   1.816  16.284  0.8414  0.3499  0.4928
 7790SOL     OW34828   0.282   3.758   9.885 -1.1662 -0.5322 -0.0367
 7790SOL    HW134829   0.266   3.795   9.797 -1.0414 -1.6313 -0.5142
 7790SOL    HW234830   0.194   3.740   9.919 -0.0884 -1.6870  2.1168
 7791SOL     OW34831   2.961   0.335  10.604 -0.2274  0.1324 -0.7804
 7791SOL    HW134832   2.935   0.414  10.652  0.1527  0.6609 -1.4360
 7791SOL    HW234833   2.905   0.343  10.527 -1.0998 -0.3660 -0.1933
 7792SOL     OW34834   3.558   1.838   2.733 -0.3917  0.0892 -0.2745
 7792SOL    HW134835   3.648   1.865   2.712  0.0597 -0.6188  0.7305
 7792SOL    HW234836   3.553   1.744   2.714  0.2677 -0.2911  1.4070
 7793SOL     OW34837   0.194   2.302   7.761  0.2369  0.0278 -0.2594
 7793SOL    HW134838   0.113   2.351   7.776 -0.2220 -1.0054  0.6333
 7793SOL    HW234839   0.183   2.302   7.666  0.7333  0.6630 -0.3156
 7794SOL     OW34840   1.397   0.000   2.548  0.3495 -0.5195  0.6584
 7794SOL    HW134841   1.396   4.713   2.453 -1.3644 -0.0496  0.6150
 7794SOL    HW234842   1.304   4.698   2.552  0.5502 -1.1438  1.3732
 7795SOL     OW34843   4.111   0.715  11.721  0.0331  0.7412 -0.0554
 7795SOL    HW134844   4.178   0.709  11.789 -0.1933 -1.1829  0.0131
 7795SOL    HW234845   4.116   0.624  11.691 -1.9122  0.6633 -0.1408
 7796SOL     OW34846   1.918   1.619   6.756  0.2905  0.2006  0.7770
 7796SOL    HW134847   2.003   1.636   6.717 -0.5783  0.4520 -1.0480
 7796SOL    HW234848   1.936   1.530   6.786 -1.1957 -0.2589  0.3207
 7797SOL     OW34849   3.446   3.591  12.753  1.0699 -0.0855 -0.5376
 7797SOL    HW134850   3.405   3.515  12.710  0.2285  0.0377  0.0396
 7797SOL    HW234851   3.411   3.658  12.694  0.0503 -1.3529 -1.3889
 7798SOL     OW34852   4.528   0.849  13.286  0.0297 -0.1236 -0.1885
 7798SOL    HW134853   4.494   0.761  13.302 -2.1636  0.7449  0.0025
 7798SOL    HW234854   4.480   0.895  13.355  2.4465 -0.5836  1.8082
 7799SOL     OW34855   0.003   3.922  15.266 -0.7368 -0.4756 -0.5605
 7799SOL    HW134856   0.083   3.904  15.316  0.0586 -1.3989 -2.1870
 7799SOL    HW234857   4.667   3.952  15.336 -1.1283 -1.4318 -0.4834
 7800SOL     OW34858   0.941   3.546   0.547  0.1273  0.4550 -0.9954
 7800SOL    HW134859   0.889   3.564   0.468 -0.5090  1.4520 -0.3490
 7800SOL    HW234860   0.959   3.452   0.541  1.8839  0.6794  0.8536
 7801SOL     OW34861   3.809   1.495   4.162  0.0541  0.2996  0.5196
 7801SOL    HW134862   3.895   1.483   4.122 -1.3634 -1.3931 -2.0171
 7801SOL    HW234863   3.840   1.495   4.253 -0.4940 -3.3142  0.6996
 7802SOL     OW34864   3.085   0.748  17.430  0.0071 -0.7399  0.2379
 7802SOL    HW134865   3.006   0.783  17.389 -0.2402 -1.9221 -0.2967
 7802SOL    HW234866   3.060   0.661  17.462 -2.3138 -0.9105 -2.1063
 7803SOL     OW34867   3.380   2.006   1.381 -0.5610  0.1832  0.2395
 7803SOL    HW134868   3.370   1.957   1.299  2.2109  0.2361 -0.1181
 7803SOL    HW234869   3.463   2.051   1.368 -0.9232  0.7112 -0.2844
 7804SOL     OW34870   0.152   1.715   8.755  0.2183  0.7729 -0.1175
 7804SOL    HW134871   0.082   1.676   8.807  3.6213  0.1425  3.8884
 7804SOL    HW234872   0.096   1.746   8.683  2.3390 -0.4950 -2.3220
 7805SOL     OW34873   2.410   4.507   8.653  0.1527 -0.2347 -0.6438
 7805SOL    HW134874   2.373   4.427   8.615 -0.0241 -0.4124 -0.1097
 7805SOL    HW234875   2.330   4.554   8.677  1.0733  0.6013  0.7707
 7806SOL     OW34876   2.399   4.428   6.307  0.3847  0.1617  0.0482
 7806SOL    HW134877   2.373   4.503   6.254 -1.1110 -1.1102 -1.0352
 7806SOL    HW234878   2.428   4.477   6.383  0.2346 -0.3574  0.4441
 7807SOL     OW34879   3.895   1.546  15.399  0.6805 -0.6486  0.2136
 7807SOL    HW134880   3.987   1.523  15.411  1.4267  2.8854  1.2165
 7807SOL    HW234881   3.892   1.597  15.319  1.1399 -0.2935  0.4247
 7808SOL     OW34882   2.499   4.442   5.845 -0.1943 -0.3196 -0.0147
 7808SOL    HW134883   2.444   4.382   5.895 -1.3208 -0.8367 -1.8602
 7808SOL    HW234884   2.510   4.394   5.763 -2.8906 -0.2779 -0.4033
 7809SOL     OW34885   0.946   0.331   8.803  0.0261  0.6618 -0.6888
 7809SOL    HW134886   0.944   0.283   8.886  5.1155  1.3086 -0.1864
 7809SOL    HW234887   1.023   0.388   8.813  2.0041 -1.8924 -1.3513
 7810SOL     OW34888   3.829   1.458   8.919 -0.1671 -0.1749 -0.2360
 7810SOL    HW134889   3.897   1.511   8.960  0.2451 -1.7499  1.1074
 7810SOL    HW234890   3.781   1.516   8.859 -0.6079  0.7850  1.0496
 7811SOL     OW34891   3.104   0.750  13.301 -0.3950  0.4651 -0.6417
 7811SOL    HW134892   3.032   0.759  13.238  0.2173 -0.6111 -1.4859
 7811SOL    HW234893   3.099   0.659  13.329  0.6698  0.3322 -0.9194
 7812SOL     OW34894   0.592   4.485   9.476 -0.9759  0.6915 -0.0508
 7812SOL    HW134895   0.558   4.537   9.403 -0.9528  0.5110 -0.1927
 7812SOL    HW234896   0.527   4.502   9.545 -0.5352  0.2912  0.4640
 7813SOL     OW34897   3.215   1.354  14.454  0.3454 -0.0111  0.1168
 7813SOL    HW134898   3.252   1.343  14.541 -1.8551  3.0458  1.4537
 7813SOL    HW234899   3.287   1.410  14.428 -1.7053  2.4953 -0.1409
 7814SOL     OW34900   4.171   3.751   5.830  0.3827  0.6113  0.6153
 7814SOL    HW134901   4.233   3.691   5.788 -1.0296 -0.2355 -0.2289
 7814SOL    HW234902   4.229   3.825   5.848 -1.2262  1.7959  0.8955
 7815SOL     OW34903   4.588   2.148   5.026  0.1526  0.3164  0.3192
 7815SOL    HW134904   4.596   2.139   5.121 -2.2710 -0.3895  0.4700
 7815SOL    HW234905   4.516   2.210   5.019 -0.7023 -0.4865  1.9691
 7816SOL     OW34906   4.041   4.411   7.922  0.0184 -0.1687 -0.1276
 7816SOL    HW134907   4.035   4.486   7.981  1.6929  0.9661 -1.3806
 7816SOL    HW234908   4.053   4.465   7.843 -0.8752  0.4345  0.1533
 7817SOL     OW34909   0.762   3.250   4.172 -0.2899 -0.2826  0.6505
 7817SOL    HW134910   0.817   3.173   4.161 -0.3105 -0.2872  0.5823
 7817SOL    HW234911   0.793   3.312   4.105 -1.5568 -0.3594 -0.0085
 7818SOL     OW34912   0.464   3.069  10.654  0.0548  0.1674 -0.2211
 7818SOL    HW134913   0.474   3.148  10.602  1.5456  1.0885  1.4438
 7818SOL    HW234914   0.532   3.088  10.719  0.7147 -0.3864 -0.7519
 7819SOL     OW34915   2.360   3.427  12.227  0.5379  0.1402 -0.3905
 7819SOL    HW134916   2.343   3.359  12.293  0.8908  1.8519  1.4516
 7819SOL    HW234917   2.310   3.381  12.160  0.6906 -0.7659  0.1127
 7820SOL     OW34918   3.178   4.033   9.374 -0.8318 -0.1590  0.1621
 7820SOL    HW134919   3.162   3.981   9.452 -0.8910  1.8670  1.5216
 7820SOL    HW234920   3.274   4.028   9.366 -0.8549 -3.1758  2.0662
 7821SOL     OW34921   0.504   4.679   5.162  0.2551  0.4686  0.3118
 7821SOL    HW134922   0.446   0.017   5.116  1.0543 -0.5651 -2.0245
 7821SOL    HW234923   0.512   0.008   5.242  0.8258  2.2780 -0.9159
 7822SOL     OW34924   2.456   1.100   5.270 -0.0363  0.1848 -0.0508
 7822SOL    HW134925   2.386   1.041   5.241  0.5788 -0.7129  0.2868
 7822SOL    HW234926   2.513   1.043   5.323 -1.2062 -1.8926 -1.0165
 7823SOL     OW34927   2.443   1.800  12.645  0.7069  0.0960 -0.1264
 7823SOL    HW134928   2.500   1.775  12.572  0.8506 -1.3118  0.4748
 7823SOL    HW234929   2.434   1.894  12.628 -1.8225 -0.3071 -0.9292
 7824SOL     OW34930   3.210   0.147   5.905  0.2045 -0.0387  0.1546
 7824SOL    HW134931   3.251   0.158   5.820 -1.1174 -3.5406 -0.9518
 7824SOL    HW234932   3.247   0.062   5.929 -0.6922 -0.4931 -0.0588
 7825SOL     OW34933   0.115   4.110   3.089  0.1154 -0.1306  0.0885
 7825SOL    HW134934   0.070   4.118   3.173 -1.5799 -1.4351 -0.7050
 7825SOL    HW234935   0.101   4.016   3.075 -3.0768  0.1464  1.4016
 7826SOL     OW34936   3.109   3.036   9.324  0.0398 -0.7398  0.6168
 7826SOL    HW134937   3.109   3.090   9.403 -2.8448  1.0663 -0.5877
 7826SOL    HW234938   3.095   2.946   9.354 -1.1489 -0.5448  0.6677
 7827SOL     OW34939   1.582   3.759   8.810 -0.1130  0.0546 -0.0081
 7827SOL    HW134940   1.491   3.743   8.786  0.2768 -0.7880 -0.9361
 7827SOL    HW234941   1.582   3.721   8.898  2.5877 -1.3402 -0.6117
 7828SOL     OW34942   1.638   3.497   3.647 -0.0451  0.0139  0.7000
 7828SOL    HW134943   1.709   3.434   3.661  0.6003  0.6543  0.2989
 7828SOL    HW234944   1.617   3.477   3.556  0.0404  0.0702  0.6690
 7829SOL     OW34945   2.454   1.309   6.021 -0.0481  0.0713  0.1945
 7829SOL    HW134946   2.443   1.400   6.051  0.1505  0.0891  0.2147
 7829SOL    HW234947   2.538   1.297   6.066 -0.7234  0.3167  1.5239
 7830SOL     OW34948   2.576   1.411   5.328  0.1325 -0.0001  0.0172
 7830SOL    HW134949   2.580   1.477   5.397  2.3090 -0.1605  0.0555
 7830SOL    HW234950   2.482   1.400   5.316 -0.1711  1.2681  1.3155
 7831SOL     OW34951   2.159   1.544   0.868 -0.2594  0.0226  0.6098
 7831SOL    HW134952   2.152   1.638   0.855  0.8757  0.4824  3.3965
 7831SOL    HW234953   2.123   1.505   0.788  1.4035 -0.5795  0.1469
 7832SOL     OW34954   0.242   4.009   4.295  0.1571 -0.6121  0.0516
 7832SOL    HW134955   0.163   4.014   4.348 -0.7545 -2.4933 -1.1268
 7832SOL    HW234956   0.196   3.978   4.217 -2.5238  1.8630  0.6371
 7833SOL     OW34957   2.626   1.514   2.069  0.0180  0.0845  0.3523
 7833SOL    HW134958   2.532   1.528   2.062  0.1465  1.1923  0.8844
 7833SOL    HW234959   2.646   1.447   2.004 -0.7675 -0.2851  0.4922
 7834SOL     OW34960   0.523   0.046   2.936 -0.4490 -0.0450  0.2308
 7834SOL    HW134961   0.543   0.061   2.844  0.8321  1.7572  0.7982
 7834SOL    HW234962   0.596   0.079   2.988 -0.1531  0.9748 -0.8272
 7835SOL     OW34963   0.327   4.455   3.220  0.0756  0.1325  0.1005
 7835SOL    HW134964   0.352   4.521   3.285 -0.8373  1.2394 -0.6689
 7835SOL    HW234965   0.388   4.472   3.148 -0.5134  0.1567 -0.3982
 7836SOL     OW34966   0.255   3.664   4.602 -0.4045  0.3197  0.1197
 7836SOL    HW134967   0.284   3.728   4.537  2.1271 -1.6799 -0.7459
 7836SOL    HW234968   0.218   3.723   4.667  0.0178  0.7510 -0.0316
 7837SOL     OW34969   3.528   1.589   2.660 -0.3810  0.0215 -0.4260
 7837SOL    HW134970   3.530   1.517   2.723 -1.0494  2.7519  2.6895
 7837SOL    HW234971   3.464   1.562   2.595 -2.2212  1.6130  0.7488
 7838SOL     OW34972   4.468   1.455   3.662  0.1081  0.0161 -0.2811
 7838SOL    HW134973   4.400   1.388   3.656  0.3109 -0.2354  0.2635
 7838SOL    HW234974   4.517   1.418   3.735  1.0526  0.5823 -0.6282
 7839SOL     OW34975   4.071   1.395  15.551  0.2907 -0.7909 -0.4603
 7839SOL    HW134976   4.110   1.319  15.507  0.0351 -0.4289 -1.3200
 7839SOL    HW234977   4.148   1.421  15.602 -0.2350 -1.4558  0.6717
 7840SOL     OW34978   3.854   4.268  11.196 -0.2090  0.3354  0.0724
 7840SOL    HW134979   3.838   4.221  11.114  0.6308  0.0244  0.0861
 7840SOL    HW234980   3.798   4.219  11.256 -0.5056  0.0448 -0.4381
 7841SOL     OW34981   2.493   3.099  11.670  0.0648  0.2127 -0.0755
 7841SOL    HW134982   2.501   3.024  11.611  1.6624  0.0607  0.3230
 7841SOL    HW234983   2.474   3.067  11.758 -0.2129 -0.5590 -0.4203
 7842SOL     OW34984   0.019   0.302   6.727  0.1035 -0.3005  0.9152
 7842SOL    HW134985   4.648   0.294   6.746  0.1531 -2.6662  0.1069
 7842SOL    HW234986   0.054   0.344   6.805  3.1184  1.1754 -1.2598
 7843SOL     OW34987   2.298   4.235   8.807 -0.7113  0.1354 -0.0917
 7843SOL    HW134988   2.259   4.310   8.853 -1.9898 -0.0331 -0.9002
 7843SOL    HW234989   2.337   4.178   8.874 -0.3263  1.0166  0.4250
 7844SOL     OW34990   4.589   3.557  13.280 -0.2499 -0.5941 -0.4946
 7844SOL    HW134991   4.526   3.551  13.352 -0.3558 -1.3932 -0.6559
 7844SOL    HW234992   4.634   3.641  13.291  1.4525 -1.6292  0.5034
 7845SOL     OW34993   0.028   4.156   9.340  0.1153 -0.1766 -0.9084
 7845SOL    HW134994   4.673   4.105   9.315  0.4637 -0.4514 -1.4270
 7845SOL    HW234995   0.056   4.110   9.419 -0.7395  1.7712  0.5212
 7846SOL     OW34996   0.974   4.277   2.192 -0.7031  0.2247  0.2174
 7846SOL    HW134997   0.890   4.237   2.173  1.0078 -1.8662 -3.0082
 7846SOL    HW234998   0.977   4.352   2.133 -0.0539 -0.3090 -0.4445
 7847SOL     OW34999   0.189   1.370   7.485 -0.3200  0.2917  0.0439
 7847SOL    HW135000   0.168   1.282   7.517  0.6161 -0.6724 -1.9139
 7847SOL    HW235001   0.103   1.393   7.451  0.3906  0.2149 -1.8526
 7848SOL     OW35002   2.761   1.568   6.951 -0.3606 -0.6861  1.0363
 7848SOL    HW135003   2.843   1.546   6.994 -0.4464 -2.0793  0.4634
 7848SOL    HW235004   2.731   1.478   6.941 -2.0649 -0.1238  1.0049
 7849SOL     OW35005   2.697   3.658   5.613 -0.5200 -0.6218  0.5075
 7849SOL    HW135006   2.642   3.706   5.675 -1.1488  0.2439 -0.7205
 7849SOL    HW235007   2.638   3.589   5.584  0.3485 -0.2171 -2.2800
 7850SOL     OW35008   0.682   3.752   7.390  0.1073  0.1557 -0.3063
 7850SOL    HW135009   0.763   3.744   7.340 -0.2856  2.2941 -1.2951
 7850SOL    HW235010   0.666   3.846   7.383  2.1296  0.3896 -1.7497
 7851SOL     OW35011   0.565   0.556   6.646 -0.6030 -0.4524 -0.1215
 7851SOL    HW135012   0.520   0.537   6.563  1.2354  1.3812 -1.5458
 7851SOL    HW235013   0.505   0.624   6.678 -2.7321 -2.0204 -0.7511
 7852SOL     OW35014   1.233   0.882   2.739  0.0421 -0.0428  0.0160
 7852SOL    HW135015   1.247   0.946   2.809 -0.0530  0.3625 -0.3335
 7852SOL    HW235016   1.256   0.935   2.662 -1.8497 -0.5548 -0.8875
 7853SOL     OW35017   1.000   1.164   7.821  0.3655  0.3036  0.1751
 7853SOL    HW135018   1.003   1.245   7.871  0.1726 -1.8827  3.7312
 7853SOL    HW235019   1.086   1.124   7.833  1.8084  2.5078 -2.7531
 7854SOL     OW35020   3.009   0.988   0.739  0.0896 -0.4588  0.1241
 7854SOL    HW135021   3.012   0.975   0.834  0.7255 -1.3216 -0.0102
 7854SOL    HW235022   2.940   1.052   0.724 -0.8992 -1.4452  0.4675
 7855SOL     OW35023   0.447   4.581   5.548  0.1399  0.3898  0.3649
 7855SOL    HW135024   0.492   4.657   5.585  2.0098 -0.1378 -0.7871
 7855SOL    HW235025   0.513   4.511   5.545  0.6385  0.8384  0.9850
 7856SOL     OW35026   1.698   3.232   3.716 -0.2968  0.1058  0.0798
 7856SOL    HW135027   1.770   3.169   3.712 -1.1086 -0.8158 -0.1134
 7856SOL    HW235028   1.659   3.230   3.629  2.8584 -1.7002 -1.2855
 7857SOL     OW35029   0.427   0.219  13.607  0.4027 -0.1569 -0.0921
 7857SOL    HW135030   0.421   0.231  13.513 -1.2869 -0.7280 -0.0396
 7857SOL    HW235031   0.336   0.193  13.618  0.2051  0.7485  0.4658
 7858SOL     OW35032   0.864   2.987   1.832  0.9101 -0.2180 -0.6346
 7858SOL    HW135033   0.846   2.927   1.759  1.3021 -0.2475 -0.7077
 7858SOL    HW235034   0.838   2.933   1.907  0.1948  0.0380 -0.6981
 7859SOL     OW35035   3.064   4.630  17.604  0.2856  0.2721 -0.8317
 7859SOL    HW135036   3.123   4.681  17.660  0.5794 -0.1597 -0.7427
 7859SOL    HW235037   2.976   4.660  17.627  0.8833  0.3220  1.3915
 7860SOL     OW35038   4.408   1.459  13.375  0.3987  0.2393  0.4816
 7860SOL    HW135039   4.432   1.548  13.401 -1.1971  0.8027  0.0764
 7860SOL    HW235040   4.449   1.463  13.289 -0.8545  1.9422 -0.0619
 7861SOL     OW35041   3.397   0.439   8.982  0.2615 -0.0124  0.1115
 7861SOL    HW135042   3.324   0.381   9.003 -0.6813  1.5510  1.1230
 7861SOL    HW235043   3.465   0.381   9.017  0.8180  0.7076  0.2237
 7862SOL     OW35044   0.102   3.320   7.497  0.2223 -0.2029 -0.5088
 7862SOL    HW135045   0.139   3.393   7.448 -0.6561  0.8407  0.3861
 7862SOL    HW235046   0.092   3.353   7.587  0.5348 -1.8216  0.1188
 7863SOL     OW35047   1.843   2.843   6.962  0.0587 -0.1522  0.1012
 7863SOL    HW135048   1.840   2.747   6.958 -0.3029 -0.1112 -0.5592
 7863SOL    HW235049   1.906   2.842   7.034 -0.4388 -2.6145  0.5157
 7864SOL     OW35050   3.340   1.235   3.917 -0.1558  0.1257  0.5102
 7864SOL    HW135051   3.278   1.218   3.845 -0.5274 -0.0838  0.8831
 7864SOL    HW235052   3.359   1.325   3.892 -1.4010 -0.7207 -3.6126
 7865SOL     OW35053   2.120   1.603   0.544 -0.7100 -0.2511 -0.0945
 7865SOL    HW135054   2.196   1.658   0.523 -2.9833  2.8251 -0.2770
 7865SOL    HW235055   2.155   1.531   0.491 -1.1873 -0.3826 -0.2272
 7866SOL     OW35056   4.116   4.385  15.035 -0.1801  0.2449  0.7723
 7866SOL    HW135057   4.057   4.377  15.110 -0.9824  0.3329  0.1395
 7866SOL    HW235058   4.064   4.437  14.975  0.8206  2.7362  2.0570
 7867SOL     OW35059   4.067   1.496   7.970  0.0888  0.6447 -0.4336
 7867SOL    HW135060   4.095   1.541   7.891 -1.3579  3.2866  0.5529
 7867SOL    HW235061   4.124   1.420   7.963 -1.0590 -0.3034  0.6252
 7868SOL     OW35062   3.342   3.935   0.023  0.4389 -0.1673  0.7671
 7868SOL    HW135063   3.407   3.969  17.654 -0.2479  0.7107  0.5343
 7868SOL    HW235064   3.402   3.870   0.062  1.6582  0.5817  0.1409
 7869SOL     OW35065   4.042   0.832   5.085 -0.2816  0.2841 -0.1357
 7869SOL    HW135066   4.015   0.895   5.018 -3.2112 -1.3123 -0.4845
 7869SOL    HW235067   3.973   0.826   5.151 -0.2281  1.9938  0.0604
 7870SOL     OW35068   1.721   0.977   3.145 -0.0691  0.2868 -0.2676
 7870SOL    HW135069   1.665   1.048   3.177 -2.6492 -0.8656 -2.2352
 7870SOL    HW235070   1.779   1.022   3.084  0.1702  1.2925  0.7026
 7871SOL     OW35071   0.442   1.567  12.574 -0.9785  0.0508 -0.2099
 7871SOL    HW135072   0.392   1.648  12.568  2.0192  1.9802  0.8223
 7871SOL    HW235073   0.521   1.586  12.524 -2.2239  0.5504 -1.9919
 7872SOL     OW35074   1.167   4.294   7.432 -0.1854  0.1281  0.1674
 7872SOL    HW135075   1.255   4.257   7.418 -1.1236 -1.2736 -2.0089
 7872SOL    HW235076   1.172   4.376   7.383 -2.3060 -0.2472 -0.6579
 7873SOL     OW35077   4.510   0.256   5.989  0.2007  0.0483 -0.0188
 7873SOL    HW135078   4.439   0.279   6.049  0.4527 -1.5733  0.8793
 7873SOL    HW235079   4.546   0.342   5.966 -0.1615 -0.1076 -1.1761
 7874SOL     OW35080   4.088   3.221   6.226  0.4355 -0.1435 -0.1497
 7874SOL    HW135081   4.123   3.306   6.200  1.1441  0.1098  1.6254
 7874SOL    HW235082   4.009   3.232   6.173 -0.1773 -1.6280  0.4702
 7875SOL     OW35083   4.315   4.489  11.846 -0.4236 -0.4111  0.2634
 7875SOL    HW135084   4.353   4.549  11.911 -0.4767 -0.0408 -0.0441
 7875SOL    HW235085   4.369   4.411  11.859  0.5492  0.3901  1.0523
 7876SOL     OW35086   1.513   2.282  15.821 -0.5442  0.3372  0.1172
 7876SOL    HW135087   1.491   2.368  15.787 -0.9271  1.4423  3.1324
 7876SOL    HW235088   1.588   2.266  15.764  0.4734  0.1833  1.4965
 7877SOL     OW35089   0.915   1.996  16.411  0.2626 -0.0813  0.4380
 7877SOL    HW135090   0.951   2.075  16.451 -1.1122  0.4433  0.6422
 7877SOL    HW235091   0.926   2.020  16.320 -0.5415 -0.8748  0.1281
 7878SOL     OW35092   4.568   3.731   2.477 -0.0266  0.6081  0.3271
 7878SOL    HW135093   4.538   3.808   2.527 -1.4855  0.2328  0.0350
 7878SOL    HW235094   4.526   3.669   2.537  2.4901 -0.7859  0.6096
 7879SOL     OW35095   2.810   4.678   6.840 -0.5911 -0.0459 -0.5538
 7879SOL    HW135096   2.862   0.006   6.902  1.0131 -1.0553 -1.0755
 7879SOL    HW235097   2.810   4.595   6.888  1.4952 -0.3938 -1.1440
 7880SOL     OW35098   0.840   1.300   1.929 -0.0042  0.3537 -0.1394
 7880SOL    HW135099   0.794   1.326   2.009  1.1569 -0.6642  0.8510
 7880SOL    HW235100   0.927   1.322   1.964  0.4189 -1.7116  0.1020
 7881SOL     OW35101   2.960   3.271  14.780 -0.0433 -0.3537  0.1619
 7881SOL    HW135102   2.882   3.324  14.761 -1.6054 -2.1067  1.6540
 7881SOL    HW235103   2.960   3.269  14.876 -0.0826 -0.7201  0.1518
 7882SOL     OW35104   0.234   2.613   6.655  0.7916  0.0964  0.1153
 7882SOL    HW135105   0.174   2.678   6.691 -1.3464 -0.7826 -1.8880
 7882SOL    HW235106   0.175   2.577   6.589 -1.4003 -0.1593  2.2301
 7883SOL     OW35107   0.811   1.183   8.209 -0.0412 -0.0862  0.2178
 7883SOL    HW135108   0.893   1.231   8.217  1.2728 -2.3538  0.5787
 7883SOL    HW235109   0.806   1.168   8.304 -0.3008 -0.0507  0.2080
 7884SOL     OW35110   4.540   3.093   5.374  0.1273 -0.3427 -0.0523
 7884SOL    HW135111   4.617   3.104   5.319  0.9564 -0.2997  1.1429
 7884SOL    HW235112   4.554   3.161   5.439 -1.9236 -0.0174  0.0596
 7885SOL     OW35113   0.436   3.823   6.153 -0.0483 -0.2396  0.6276
 7885SOL    HW135114   0.473   3.752   6.099 -0.5251  0.7717 -1.0362
 7885SOL    HW235115   0.470   3.791   6.236 -0.3043 -0.2680  0.7213
 7886SOL     OW35116   0.152   1.904  13.309 -0.1307  0.2657 -0.1881
 7886SOL    HW135117   0.114   1.979  13.263  0.0169  0.9845  0.8668
 7886SOL    HW235118   0.103   1.895  13.391 -0.6388 -3.4325 -0.8713
 7887SOL     OW35119   4.258   0.360  16.658  0.0563  0.4339  0.2503
 7887SOL    HW135120   4.205   0.308  16.597 -1.6650  2.2635  0.1841
 7887SOL    HW235121   4.252   0.298  16.730 -0.4282  0.3147  0.1133
 7888SOL     OW35122   0.527   0.198   3.837 -0.4872 -0.2319  0.1772
 7888SOL    HW135123   0.533   0.148   3.918  5.2558  1.3476  0.7219
 7888SOL    HW235124   0.616   0.228   3.820 -0.5375  1.3823  2.8696
 7889SOL     OW35125   3.397   1.545  14.377 -0.3459  0.9883 -0.5812
 7889SOL    HW135126   3.463   1.554  14.446  1.1289  2.3508 -2.1842
 7889SOL    HW235127   3.386   1.635  14.346 -0.4734  0.4504 -2.1080
 7890SOL     OW35128   4.066   2.346   4.447  0.4749  0.1229  0.0917
 7890SOL    HW135129   4.073   2.268   4.501  1.8218  0.8797  0.9908
 7890SOL    HW235130   4.138   2.400   4.479  0.5377  0.1658 -0.1198
 7891SOL     OW35131   3.585   4.108   8.814  0.0623  0.0243 -0.0014
 7891SOL    HW135132   3.555   4.160   8.889 -0.3974 -2.0778  1.2827
 7891SOL    HW235133   3.519   4.126   8.747  0.6753  2.0402 -0.0656
 7892SOL     OW35134   4.016   4.330  10.664 -0.2827  0.0036 -0.1681
 7892SOL    HW135135   4.045   4.264  10.602 -0.5845  0.6281 -0.9693
 7892SOL    HW235136   3.961   4.379  10.603  0.9440  1.8936  0.2574
 7893SOL     OW35137   4.609   3.836   3.842  1.0484 -0.5385 -0.2411
 7893SOL    HW135138   4.578   3.828   3.752  1.8147 -0.4614 -0.5133
 7893SOL    HW235139   4.609   3.744   3.866  1.5456 -0.4437  0.1130
 7894SOL     OW35140   2.325   4.027   4.501 -0.0531  0.0345  0.3275
 7894SOL    HW135141   2.259   4.042   4.568 -1.9153  1.4099 -1.7875
 7894SOL    HW235142   2.361   4.112   4.476  0.8849 -0.7381 -0.9883
 7895SOL     OW35143   2.251   0.559  14.679  0.7037 -0.0354  0.3703
 7895SOL    HW135144   2.260   0.650  14.710  0.3057  0.0733  0.1692
 7895SOL    HW235145   2.267   0.567  14.585  1.5661 -0.4917  0.4810
 7896SOL     OW35146   4.112   0.864   5.639  0.1729 -0.0617 -0.2147
 7896SOL    HW135147   4.159   0.809   5.577  0.4961 -1.2841  1.1068
 7896SOL    HW235148   4.062   0.800   5.690  2.2950  0.2775  2.3517
 7897SOL     OW35149   1.978   4.707  11.319  0.1147 -0.3916  0.5144
 7897SOL    HW135150   1.971   4.663  11.403 -2.4464 -0.0940  0.4613
 7897SOL    HW235151   2.033   0.061  11.334  0.8418 -0.9066  0.4965
 7898SOL     OW35152   1.461   2.701   5.349  0.3076 -0.2580  0.1399
 7898SOL    HW135153   1.389   2.741   5.299 -0.7392 -2.1294  0.1426
 7898SOL    HW235154   1.481   2.771   5.411  2.7976 -1.2673  0.4557
 7899SOL     OW35155   4.511   3.194   9.218  0.4111 -0.8474  0.4191
 7899SOL    HW135156   4.553   3.127   9.164 -0.2228  0.2686 -1.4728
 7899SOL    HW235157   4.566   3.265   9.187 -0.4436 -0.2205  0.3422
 7900SOL     OW35158   2.410   4.091   8.322  0.3367 -0.2002 -0.5941
 7900SOL    HW135159   2.325   4.097   8.278 -1.6502 -1.9601  3.0180
 7900SOL    HW235160   2.469   4.113   8.250  0.0573 -1.0535 -1.0819
 7901SOL     OW35161   1.243   0.605   4.947 -0.3313  0.7665  0.3348
 7901SOL    HW135162   1.215   0.655   4.871  0.8759 -1.4993 -1.6101
 7901SOL    HW235163   1.325   0.572   4.912 -0.5213  0.9288 -0.2581
 7902SOL     OW35164   4.682   2.824   4.303 -0.3258  0.2126 -0.4991
 7902SOL    HW135165   0.032   2.764   4.288 -0.2847 -0.1911  1.3633
 7902SOL    HW235166   4.603   2.783   4.266  0.0734  0.1062 -1.2325
 7903SOL     OW35167   1.546   0.512  10.496 -0.3542 -0.0225  0.0662
 7903SOL    HW135168   1.562   0.593  10.545  1.7161 -0.9485  0.9166
 7903SOL    HW235169   1.620   0.518  10.434  0.1636 -0.3634  0.6494
 7904SOL     OW35170   1.617   3.413  11.640  0.4706  0.2760  0.9555
 7904SOL    HW135171   1.604   3.323  11.609  1.1794  0.8704 -1.0739
 7904SOL    HW235172   1.652   3.400  11.728 -1.1038 -0.5035  1.4715
 7905SOL     OW35173   4.232   2.847   4.397  0.4285  0.6038 -0.4300
 7905SOL    HW135174   4.187   2.763   4.398  0.1455  0.7416 -1.1752
 7905SOL    HW235175   4.309   2.835   4.452  0.7891  1.5188 -0.7358
 7906SOL     OW35176   0.021   4.289   8.346 -0.1744  0.3304 -0.5607
 7906SOL    HW135177   0.077   4.359   8.312  1.9569 -0.5672  1.1092
 7906SOL    HW235178   4.709   4.332   8.425 -1.5812 -0.5885 -0.6873
 7907SOL     OW35179   3.801   3.142  10.186 -0.1484  0.2915 -0.0161
 7907SOL    HW135180   3.880   3.104  10.225 -0.2363  1.7440  1.5808
 7907SOL    HW235181   3.773   3.186  10.267 -0.0418  1.7733 -0.7835
 7908SOL     OW35182   0.074   4.054   7.855  0.4025  0.3761  0.6431
 7908SOL    HW135183   0.005   4.034   7.792  0.8832 -2.1037  0.9107
 7908SOL    HW235184   0.136   3.981   7.853  1.6169  1.3211  3.5018
 7909SOL     OW35185   2.912   3.943   8.264  0.1179 -0.4358 -0.4634
 7909SOL    HW135186   2.948   3.857   8.288  1.7496  0.4958  0.4363
 7909SOL    HW235187   2.990   3.991   8.236 -1.9012  2.2558 -1.4428
 7910SOL     OW35188   0.625   2.650   6.937 -0.2339  0.7250 -0.5680
 7910SOL    HW135189   0.627   2.723   7.000 -2.0890  1.8389 -1.8098
 7910SOL    HW235190   0.589   2.688   6.857  0.4158  3.9334  0.6517
 7911SOL     OW35191   2.280   1.010  16.183 -0.2814 -0.4952  0.5714
 7911SOL    HW135192   2.225   1.027  16.259 -0.4573  0.9171  0.1163
 7911SOL    HW235193   2.208   0.983  16.126  3.1960 -0.3871 -3.9022
 7912SOL     OW35194   1.688   0.717  15.664 -0.5585  0.2793  0.2686
 7912SOL    HW135195   1.674   0.812  15.667  0.2122  0.4215 -0.5290
 7912SOL    HW235196   1.659   0.706  15.573 -1.0064 -1.7780  0.6656
 7913SOL     OW35197   3.556   4.234   9.072  0.0873  0.1982  0.0350
 7913SOL    HW135198   3.629   4.277   9.116 -0.5738  1.0935  0.2571
 7913SOL    HW235199   3.478   4.274   9.110 -0.8527 -1.1612 -0.4842
 7914SOL     OW35200   0.751   1.813   3.531 -0.4705  0.2509  0.2361
 7914SOL    HW135201   0.814   1.854   3.472  0.4872 -3.0456 -1.0761
 7914SOL    HW235202   0.692   1.886   3.552 -1.9749 -1.4330  1.8860
 7915SOL     OW35203   2.633   2.978   8.266 -0.6665 -0.0954  0.2103
 7915SOL    HW135204   2.596   3.063   8.241  0.6110  0.4915  0.3160
 7915SOL    HW235205   2.723   3.008   8.278  0.2501 -2.3893 -0.9215
 7916SOL     OW35206   3.185   1.502   4.927 -0.0745 -0.9847  0.7159
 7916SOL    HW135207   3.236   1.428   4.959 -0.0799 -0.1929  2.5554
 7916SOL    HW235208   3.107   1.452   4.901 -0.8363  1.0024 -0.8028
 7917SOL     OW35209   1.995   3.304   3.339  0.6219 -0.2063 -0.1668
 7917SOL    HW135210   2.013   3.212   3.353  3.1182  0.4225  0.7168
 7917SOL    HW235211   2.032   3.311   3.251  1.6863  0.9828  0.3797
 7918SOL     OW35212   3.085   0.586   8.681 -0.2203  0.2600 -0.3839
 7918SOL    HW135213   3.088   0.680   8.701  3.1569 -0.0897  0.7819
 7918SOL    HW235214   3.054   0.559   8.768  0.7871 -2.3132 -0.8124
 7919SOL     OW35215   1.405   3.639   0.199  0.2723 -0.7174 -0.0498
 7919SOL    HW135216   1.397   3.544   0.202 -0.1703 -0.7198 -1.0457
 7919SOL    HW235217   1.489   3.651   0.155 -0.0360  2.6463  0.2329
 7920SOL     OW35218   2.817   3.931   9.021  0.2423 -0.5024 -0.7476
 7920SOL    HW135219   2.848   3.949   9.109  0.7734 -1.8031 -0.6678
 7920SOL    HW235220   2.897   3.946   8.972 -0.1356  0.4457 -1.0864
 7921SOL     OW35221   4.102   2.710  11.830 -0.8660  0.1160  0.6037
 7921SOL    HW135222   4.076   2.665  11.911 -0.6713  2.9287  2.2366
 7921SOL    HW235223   4.169   2.775  11.850 -1.3172  1.2223 -1.5470
 7922SOL     OW35224   0.989   1.980   3.187 -0.3928 -0.3463 -0.5228
 7922SOL    HW135225   0.922   2.047   3.181  0.7843  0.7338 -1.4925
 7922SOL    HW235226   0.951   1.897   3.156 -2.4890 -0.6333  2.7965
 7923SOL     OW35227   4.063   0.071   2.705  0.0896  0.3863 -0.2392
 7923SOL    HW135228   4.111   0.096   2.626 -0.0153 -0.0128 -0.4329
 7923SOL    HW235229   4.074   0.150   2.758 -1.2427 -1.8036  3.3522
 7924SOL     OW35230   4.126   0.144  16.516 -0.0172  0.3206  0.6669
 7924SOL    HW135231   4.135   0.126  16.422 -2.5023  2.1577  0.0576
 7924SOL    HW235232   4.109   0.062  16.562 -1.6656 -0.5574 -1.4919
 7925SOL     OW35233   2.698   3.215   6.552 -0.2777  0.3120  0.2228
 7925SOL    HW135234   2.740   3.147   6.605 -1.4470 -0.5781  0.0038
 7925SOL    HW235235   2.711   3.188   6.461 -0.1134  5.0349 -1.1179
 7926SOL     OW35236   0.959   2.894   4.256 -0.1221  0.2426  0.1377
 7926SOL    HW135237   0.988   2.945   4.331  0.6500  1.6562 -1.1273
 7926SOL    HW235238   0.874   2.861   4.287  1.1069 -1.3433  1.8469
 7927SOL     OW35239   1.769   0.198   3.678  0.3799  0.2995  0.2319
 7927SOL    HW135240   1.723   0.269   3.722 -1.9958 -0.4558 -1.0501
 7927SOL    HW235241   1.806   0.246   3.604 -1.3962  0.9946 -0.2063
 7928SOL     OW35242   1.399   1.888   0.664 -0.0282  0.6772  0.4867
 7928SOL    HW135243   1.336   1.864   0.732  0.6111 -1.3539  0.3342
 7928SOL    HW235244   1.462   1.818   0.648  0.7566  1.4822  0.0617
 7929SOL     OW35245   4.079   1.032   0.339 -0.6022 -0.1599  0.0651
 7929SOL    HW135246   4.083   1.096   0.410 -0.3962 -2.1191  1.8290
 7929SOL    HW235247   4.018   1.080   0.283  1.1138 -1.0549 -2.5962
 7930SOL     OW35248   4.436   3.042   2.042 -0.1595  0.5499 -0.0858
 7930SOL    HW135249   4.359   3.098   2.040  0.2740  1.2747  2.8349
 7930SOL    HW235250   4.431   2.997   2.127 -0.7399 -0.1263 -0.4734
 7931SOL     OW35251   1.564   2.841   1.846 -0.1042 -0.1877 -0.0961
 7931SOL    HW135252   1.636   2.846   1.784 -0.8631  1.3261 -0.8536
 7931SOL    HW235253   1.545   2.750   1.866  1.7230 -0.5448  0.0342
 7932SOL     OW35254   1.964   4.024   2.372 -0.0668 -0.0518 -0.0662
 7932SOL    HW135255   1.972   3.943   2.323 -1.6766  0.3504 -0.9781
 7932SOL    HW235256   1.889   4.064   2.329  1.0577  1.5859 -0.5251
 7933SOL     OW35257   2.989   1.458   7.097  0.1173 -0.1050  0.5727
 7933SOL    HW135258   2.967   1.446   7.189 -1.3952  0.8687  0.3414
 7933SOL    HW235259   3.034   1.540   7.116  0.2762  0.0726 -0.5659
 7934SOL     OW35260   3.005   3.225  11.999  0.0924 -0.0472  0.0305
 7934SOL    HW135261   3.090   3.253  12.033  0.1361  0.7850 -0.7668
 7934SOL    HW235262   2.960   3.204  12.081  0.7013  1.1939  0.6889
 7935SOL     OW35263   0.181   1.988   3.086  0.5571 -0.2350  0.3944
 7935SOL    HW135264   0.169   1.997   2.991  0.2648  2.9592  0.7116
 7935SOL    HW235265   0.205   1.897   3.101 -0.4187 -0.3773  1.1367
 7936SOL     OW35266   4.647   3.259  13.943  0.3495 -0.1383  0.1229
 7936SOL    HW135267   4.710   3.197  13.981  2.0535  1.9194  0.6323
 7936SOL    HW235268   4.685   3.337  13.984 -1.7997  0.4068  1.0942
 7937SOL     OW35269   3.095   1.451  13.476  0.6436 -0.4007  0.2770
 7937SOL    HW135270   3.085   1.522  13.539 -1.1658  1.5019 -2.2141
 7937SOL    HW235271   3.086   1.376  13.535 -0.3437 -0.7555 -0.3319
 7938SOL     OW35272   3.413   3.641  12.310 -0.6703 -0.0395 -0.1467
 7938SOL    HW135273   3.434   3.682  12.394  1.9369 -0.1825 -0.7321
 7938SOL    HW235274   3.336   3.687  12.276 -0.1997 -0.9640 -2.4828
 7939SOL     OW35275   0.574   3.693   3.514  0.0465 -0.5416  0.4974
 7939SOL    HW135276   0.669   3.692   3.522  0.1131 -3.3926 -0.5046
 7939SOL    HW235277   0.570   3.696   3.419  1.0417  2.2036  0.5540
 7940SOL     OW35278   0.162   1.168   6.913  0.0786  0.3311  0.2510
 7940SOL    HW135279   0.196   1.101   6.854  2.1147  2.0022 -0.4605
 7940SOL    HW235280   0.163   1.124   6.998  1.0889  1.0744  0.6198
 7941SOL     OW35281   2.694   4.383   7.483 -0.0083 -0.0267  0.3135
 7941SOL    HW135282   2.618   4.419   7.438 -0.6044 -0.5131  0.9291
 7941SOL    HW235283   2.670   4.290   7.481 -1.6618  0.4466 -1.4290
 7942SOL     OW35284   1.902   1.134   1.091 -0.3337 -0.5736 -0.0701
 7942SOL    HW135285   1.929   1.044   1.074 -1.4825 -1.1394  1.1498
 7942SOL    HW235286   1.815   1.152   1.055 -0.2092  2.0393  0.9610
 7943SOL     OW35287   0.204   2.645   3.364 -0.0998 -0.2037 -0.8701
 7943SOL    HW135288   0.214   2.731   3.405 -2.9980  0.6670 -1.9922
 7943SOL    HW235289   0.178   2.584   3.433  0.1775  0.7564  0.0649
 7944SOL     OW35290   4.187   3.064   2.617  0.5168  0.3623 -0.0198
 7944SOL    HW135291   4.195   3.137   2.555 -1.1420 -0.1951 -0.8828
 7944SOL    HW235292   4.277   3.032   2.620  1.1021  1.9375 -1.1440
 7945SOL     OW35293   0.324   3.098   4.469  0.2464 -0.4662  0.1571
 7945SOL    HW135294   0.298   3.164   4.405  2.2886 -1.2100 -1.4627
 7945SOL    HW235295   0.241   3.055   4.491 -0.0611 -0.2140 -0.5194
 7946SOL     OW35296   2.733   0.293   6.670  0.0514  0.3246  0.0868
 7946SOL    HW135297   2.764   0.352   6.601  2.2546 -1.5506 -0.5175
 7946SOL    HW235298   2.800   0.308   6.737  0.6491  0.2144 -0.4873
 7947SOL     OW35299   3.332   2.532  17.230  0.0396 -0.4477 -0.7556
 7947SOL    HW135300   3.277   2.573  17.297  0.7942 -2.2146  0.9356
 7947SOL    HW235301   3.396   2.602  17.220  0.2253 -0.2772  1.6510
 7948SOL     OW35302   2.408   1.131  17.003  0.7304 -0.0818 -0.2323
 7948SOL    HW135303   2.416   1.128  17.099  3.2717  3.1215 -0.3522
 7948SOL    HW235304   2.375   1.219  16.988 -0.5299 -0.4372  0.4391
 7949SOL     OW35305   0.305   1.448  16.104  0.4980  0.1485 -0.0743
 7949SOL    HW135306   0.377   1.445  16.042  1.6135  0.1110  1.2350
 7949SOL    HW235307   0.272   1.358  16.095  0.3457  0.0902  1.0439
 7950SOL     OW35308   4.143   2.016  15.105 -0.3436 -0.4858  0.1934
 7950SOL    HW135309   4.219   2.050  15.152  0.0659  1.1283 -1.6107
 7950SOL    HW235310   4.162   1.923  15.093 -0.9436 -0.4185 -1.3282
 7951SOL     OW35311   4.082   1.390  12.843 -0.3037 -0.1874  0.1320
 7951SOL    HW135312   4.156   1.447  12.821  0.0420 -0.6062  0.1986
 7951SOL    HW235313   4.115   1.362  12.928  1.4160  0.0642 -0.4332
 7952SOL     OW35314   4.210   1.261  13.369 -0.4309  0.6008  0.1441
 7952SOL    HW135315   4.140   1.280  13.432 -0.9084  0.0220 -0.2042
 7952SOL    HW235316   4.276   1.328  13.384 -1.8444  1.3645  2.9306
 7953SOL     OW35317   2.429   3.587   8.088 -0.4879  0.1209 -0.0550
 7953SOL    HW135318   2.383   3.637   8.155  1.5570  1.5264  0.2962
 7953SOL    HW235319   2.475   3.520   8.138 -0.9933 -0.3785 -0.2578
 7954SOL     OW35320   3.553   3.612   2.669  0.2367  0.2751  0.3911
 7954SOL    HW135321   3.484   3.679   2.665 -0.7601 -0.9385 -3.1955
 7954SOL    HW235322   3.594   3.646   2.749 -2.2164  3.5446  0.2740
 7955SOL     OW35323   4.526   1.132   1.222  0.1318 -0.1933 -0.2521
 7955SOL    HW135324   4.473   1.081   1.284  0.7898  3.3448  3.2288
 7955SOL    HW235325   4.590   1.065   1.196 -1.2999 -0.2243 -3.7373
 7956SOL     OW35326   0.427   1.349  12.750 -0.2971  0.2302 -0.3722
 7956SOL    HW135327   0.459   1.404  12.678 -0.9076 -1.3327 -1.8570
 7956SOL    HW235328   0.382   1.416  12.801  0.7317  0.6083  0.0365
 7957SOL     OW35329   0.425   0.360  16.855  0.2366  0.3086  0.0503
 7957SOL    HW135330   0.468   0.369  16.940 -1.0588  0.2104  0.7100
 7957SOL    HW235331   0.334   0.354  16.886 -0.2496  0.9268 -1.2836
 7958SOL     OW35332   1.575   1.831  11.800  0.3336 -0.5628  0.2918
 7958SOL    HW135333   1.652   1.806  11.749 -0.7029  0.4686 -1.7654
 7958SOL    HW235334   1.603   1.915  11.836 -0.8322  0.7245 -1.8046
 7959SOL     OW35335   3.760   0.701   2.770 -0.2954  0.3891  0.1379
 7959SOL    HW135336   3.727   0.784   2.737  0.7842  0.3883 -0.9777
 7959SOL    HW235337   3.831   0.727   2.829  3.0132 -2.1372 -2.7274
 7960SOL     OW35338   0.859   1.037   3.526 -0.1858  0.3469  0.7971
 7960SOL    HW135339   0.897   1.030   3.439  0.8576  0.7213  1.2165
 7960SOL    HW235340   0.854   0.944   3.548  0.2781  0.6300  2.1289
 7961SOL     OW35341   1.621   1.506  15.002  0.5547  0.1462  0.2649
 7961SOL    HW135342   1.558   1.534  14.935 -1.0771  0.3572  1.9037
 7961SOL    HW235343   1.578   1.430  15.040  0.5455 -0.0031 -0.0478
 7962SOL     OW35344   2.667   3.064  13.345  0.0503 -0.2065  0.3788
 7962SOL    HW135345   2.711   3.082  13.262  0.7668 -0.8994  0.6195
 7962SOL    HW235346   2.723   3.114  13.403 -0.8913  0.7501  0.4715
 7963SOL     OW35347   2.553   1.953   8.909 -0.7769 -0.3320  0.3194
 7963SOL    HW135348   2.545   1.902   8.828  1.2909  1.0419 -0.7683
 7963SOL    HW235349   2.521   2.037   8.877 -0.6572 -0.9925 -1.5636
 7964SOL     OW35350   4.649   2.575   1.462 -0.3612  0.1692  0.1153
 7964SOL    HW135351   4.621   2.663   1.485 -2.0865  0.2375 -2.2820
 7964SOL    HW235352   4.615   2.534   1.542  1.8333  1.1045  1.5412
 7965SOL     OW35353   1.717   4.626   4.091  0.0151 -0.7875  0.0170
 7965SOL    HW135354   1.770   4.702   4.070 -0.8959 -0.2290 -0.2602
 7965SOL    HW235355   1.646   4.663   4.144 -0.9087  2.4206 -3.5304
 7966SOL     OW35356   3.015   3.417   8.842  0.6471 -0.1502  0.4949
 7966SOL    HW135357   3.067   3.491   8.812  1.2392 -1.3599 -1.4702
 7966SOL    HW235358   3.071   3.383   8.912 -0.0266 -0.0122  1.1107
 7967SOL     OW35359   1.729   1.434   7.757 -0.6647 -0.2503  0.4202
 7967SOL    HW135360   1.813   1.465   7.791 -0.0822 -0.1995 -1.0502
 7967SOL    HW235361   1.680   1.516   7.768  1.6219  1.1393  0.3162
 7968SOL     OW35362   3.492   0.440   8.656 -0.5234 -0.1851  0.1858
 7968SOL    HW135363   3.449   0.523   8.673  2.4280  1.0854  1.5041
 7968SOL    HW235364   3.521   0.460   8.567 -4.4431 -3.7747 -1.8941
 7969SOL     OW35365   0.141   2.904   9.997  0.3956 -0.2312  0.3840
 7969SOL    HW135366   0.117   2.967  10.065  0.7549 -0.1202  0.4066
 7969SOL    HW235367   0.052   2.869   9.991  0.5637 -0.4093 -1.0805
 7970SOL     OW35368   4.221   2.603   4.843  0.0842  0.8767  0.0637
 7970SOL    HW135369   4.266   2.686   4.860  2.0904 -0.7714  2.7373
 7970SOL    HW235370   4.151   2.638   4.787 -0.4935 -3.1687 -1.7254
 7971SOL     OW35371   3.460   3.084   3.468 -0.3997 -0.0493  0.2832
 7971SOL    HW135372   3.385   3.144   3.470  0.3773  0.9300 -0.1783
 7971SOL    HW235373   3.428   3.030   3.540 -1.7210  0.7176  0.2702
 7972SOL     OW35374   0.430   2.262  14.657  0.1705  0.3477 -0.1765
 7972SOL    HW135375   0.460   2.347  14.689 -0.0822  0.2641  0.2813
 7972SOL    HW235376   0.334   2.269  14.662  0.2001  0.8161 -0.2156
 7973SOL     OW35377   1.507   0.376  11.211  0.2246  0.5257  0.1659
 7973SOL    HW135378   1.566   0.327  11.269  1.6355  0.2570 -1.4921
 7973SOL    HW235379   1.428   0.365  11.263  0.9080  0.6413  1.2404
 7974SOL     OW35380   1.162   3.773   7.155  0.3236  0.1977  0.1434
 7974SOL    HW135381   1.155   3.682   7.124  1.8211  0.5887 -1.3475
 7974SOL    HW235382   1.246   3.763   7.200 -0.0868 -0.7155  0.7178
 7975SOL     OW35383   0.758   2.893   3.016  0.0781  0.5450  0.1585
 7975SOL    HW135384   0.668   2.864   3.031 -0.0928  0.8764 -0.2154
 7975SOL    HW235385   0.808   2.820   3.052  0.4261  0.4713 -0.4738
 7976SOL     OW35386   1.999   0.781   5.337  0.3517  0.0752 -0.4738
 7976SOL    HW135387   2.024   0.862   5.381  1.0558  0.0495 -0.8210
 7976SOL    HW235388   1.904   0.792   5.341  0.4185  0.5148 -0.0218
 7977SOL     OW35389   0.527   4.267   7.117  0.6725  0.6620  0.1041
 7977SOL    HW135390   0.483   4.332   7.172  1.5344  2.5617 -1.4768
 7977SOL    HW235391   0.618   4.289   7.137  1.2166  0.7145 -2.4965
 7978SOL     OW35392   1.913   2.444   1.490 -0.2987  0.0264  0.8665
 7978SOL    HW135393   1.996   2.476   1.453  0.3985 -0.3653  2.0935
 7978SOL    HW235394   1.848   2.454   1.421 -0.1588 -0.9295  0.5996
 7979SOL     OW35395   2.159   0.549   8.834 -0.3507  0.0430 -0.3697
 7979SOL    HW135396   2.204   0.501   8.764  0.0839  0.3639 -0.3145
 7979SOL    HW235397   2.236   0.574   8.885  0.3287  1.7520 -2.2243
 7980SOL     OW35398   3.894   1.753   2.766  0.2519 -0.2870 -0.2192
 7980SOL    HW135399   3.988   1.772   2.762  0.0850  0.5632 -0.1636
 7980SOL    HW235400   3.867   1.806   2.691  0.4803 -1.4201 -1.1030
 7981SOL     OW35401   1.859   3.638  11.595 -0.1058 -0.6836 -0.2577
 7981SOL    HW135402   1.902   3.553  11.594 -1.2839 -1.2951  1.5731
 7981SOL    HW235403   1.931   3.700  11.601 -0.5996 -0.2873  1.7736
 7982SOL     OW35404   3.825   0.114   1.530  0.0113 -0.5288  0.3166
 7982SOL    HW135405   3.849   0.086   1.442 -0.7735 -1.1641  0.3039
 7982SOL    HW235406   3.760   0.047   1.551  0.1640 -0.9024 -0.3995
 7983SOL     OW35407   0.571   4.421  15.139  0.0442  0.3089 -0.2959
 7983SOL    HW135408   0.487   4.409  15.094  0.7728 -0.4100 -1.4709
 7983SOL    HW235409   0.538   4.452  15.223 -2.2420  1.6956 -1.7211
 7984SOL     OW35410   2.478   3.388  14.345 -0.0773 -0.1193 -0.4402
 7984SOL    HW135411   2.421   3.325  14.301 -0.2871  1.2178 -2.0949
 7984SOL    HW235412   2.462   3.462  14.286 -0.3002  0.1945  0.0085
 7985SOL     OW35413   3.924   3.163   4.785  0.5427 -0.5703 -0.1728
 7985SOL    HW135414   3.891   3.128   4.867 -2.6207  0.9314 -0.7997
 7985SOL    HW235415   4.018   3.168   4.801  0.4306  1.2308 -0.0650
 7986SOL     OW35416   1.239   4.052   6.269 -0.2396  0.0148 -0.6423
 7986SOL    HW135417   1.199   4.125   6.315 -0.3632 -0.9011  0.7113
 7986SOL    HW235418   1.167   3.995   6.243 -0.7065  0.7335 -0.9098
 7987SOL     OW35419   2.791   1.063   4.313 -0.2749  0.3783  0.2824
 7987SOL    HW135420   2.855   1.132   4.334 -0.2806  0.5968 -0.4403
 7987SOL    HW235421   2.764   1.088   4.225  0.0633  1.1848  0.4020
 7988SOL     OW35422   0.297   4.658   6.950 -0.2738 -0.7201 -0.0716
 7988SOL    HW135423   0.330   4.704   6.873 -2.4889 -1.4466 -1.4743
 7988SOL    HW235424   0.283   4.571   6.911 -0.3931  0.0785 -1.7999
 7989SOL     OW35425   2.064   0.220   8.935 -0.0154  0.0127 -0.0722
 7989SOL    HW135426   2.156   0.236   8.959  0.3555 -3.6641  1.0168
 7989SOL    HW235427   2.050   0.138   8.981  0.8430 -1.2262 -2.0165
 7990SOL     OW35428   2.384   0.634   6.067  0.5890 -0.6413  0.4460
 7990SOL    HW135429   2.368   0.686   6.146  0.0437 -0.5139  0.2506
 7990SOL    HW235430   2.317   0.566   6.076  1.3151 -1.4816 -0.5927
 7991SOL     OW35431   0.814   0.584   7.418  0.1586  0.0111  0.4298
 7991SOL    HW135432   0.900   0.572   7.378 -0.2392 -0.1035 -0.3767
 7991SOL    HW235433   0.842   0.633   7.496  1.3661  1.1914 -0.7308
 7992SOL     OW35434   3.928   1.596   5.696 -0.3054  0.5910  0.0599
 7992SOL    HW135435   3.889   1.678   5.665  0.0434  1.5609  2.2227
 7992SOL    HW235436   3.978   1.625   5.772  0.5862 -1.0931  0.1040
 7993SOL     OW35437   2.572   0.018   5.782 -0.1204 -0.4912 -0.1091
 7993SOL    HW135438   2.547   4.648   5.771  0.2349 -0.6253  0.2220
 7993SOL    HW235439   2.658   0.017   5.823  0.0905  3.0320 -0.4782
 7994SOL     OW35440   3.973   0.988   4.879 -0.2497  0.0087  0.4700
 7994SOL    HW135441   3.972   1.083   4.868 -1.3379  0.0603  0.9277
 7994SOL    HW235442   3.893   0.959   4.835  0.6111 -0.9201 -0.4788
 7995SOL     OW35443   1.120   4.455   3.996 -0.0962 -0.0620  0.2037
 7995SOL    HW135444   1.063   4.532   4.005  0.5184  0.5261 -0.9598
 7995SOL    HW235445   1.109   4.417   4.084  2.2486  1.4794  1.1759
 7996SOL     OW35446   2.909   0.179  13.551 -0.0991  0.1538 -0.9032
 7996SOL    HW135447   2.894   0.223  13.467  2.4565 -0.1827 -1.5228
 7996SOL    HW235448   2.826   0.206  13.590  0.1300 -1.1007  0.4216
 7997SOL     OW35449   2.559   0.897   4.379  0.4913  0.2680  0.2342
 7997SOL    HW135450   2.608   0.973   4.347 -0.6783  0.0399 -2.0699
 7997SOL    HW235451   2.490   0.882   4.314  0.0543  3.4797 -0.0729
 7998SOL     OW35452   0.747   3.143   3.577 -0.6348  0.0980  0.6492
 7998SOL    HW135453   0.669   3.111   3.622 -0.9991 -0.2070 -0.2057
 7998SOL    HW235454   0.786   3.192   3.649 -2.1842 -0.8268  2.1311
 7999SOL     OW35455   0.764   1.329   8.689  0.2902 -0.4493 -0.3829
 7999SOL    HW135456   0.697   1.284   8.741  1.1382  1.0118  1.9539
 7999SOL    HW235457   0.791   1.388   8.759  0.9034  1.2410 -2.0410
 8000SOL     OW35458   0.793   2.757   6.252  0.2265  0.1401 -0.3337
 8000SOL    HW135459   0.838   2.779   6.170 -0.3580  1.0461 -0.4147
 8000SOL    HW235460   0.702   2.777   6.232 -0.3703 -1.9978  0.2914
 8001SOL     OW35461   0.371   0.311   9.104  0.0131 -0.4414 -0.2303
 8001SOL    HW135462   0.321   0.380   9.149  0.3371  0.5778 -1.4354
 8001SOL    HW235463   0.409   0.363   9.033 -0.5200 -0.7217 -0.7108
 8002SOL     OW35464   4.137   2.802  13.264 -0.3787  0.4713  0.1597
 8002SOL    HW135465   4.066   2.825  13.203  1.7531 -2.3890 -3.4358
 8002SOL    HW235466   4.134   2.879  13.321 -0.4969  0.1001  0.6525
 8003SOL     OW35467   4.327   4.583   7.572  0.0669  0.1334  0.3651
 8003SOL    HW135468   4.231   4.585   7.574  0.0442 -1.1063  0.2450
 8003SOL    HW235469   4.340   4.524   7.498 -2.9142 -1.9129  1.4615
 8004SOL     OW35470   3.027   3.357   6.478  0.1456  0.0985  0.0591
 8004SOL    HW135471   2.979   3.426   6.524  0.5694  0.5958 -0.2458
 8004SOL    HW235472   3.101   3.336   6.535  0.1874 -1.0465 -0.4327
 8005SOL     OW35473   1.475   0.063   3.116  0.0301 -0.0529  0.3484
 8005SOL    HW135474   1.461   0.103   3.202 -1.7760  0.0492  0.0174
 8005SOL    HW235475   1.492   0.139   3.060 -2.0347 -1.7060 -2.5517
 8006SOL     OW35476   4.137   3.164   3.200 -0.4704 -0.4155 -0.5639
 8006SOL    HW135477   4.065   3.225   3.217 -1.4353 -1.9283  0.8128
 8006SOL    HW235478   4.149   3.099   3.269 -2.3866 -0.3316 -0.1601
 8007SOL     OW35479   1.291   2.114   3.410 -1.0922 -0.1629 -0.0518
 8007SOL    HW135480   1.301   2.108   3.315  2.1915  2.1954  0.1581
 8007SOL    HW235481   1.325   2.030   3.440 -1.4760 -0.1933  0.2973
 8008SOL     OW35482   4.277   4.085   9.963 -0.1493 -0.0960  0.5423
 8008SOL    HW135483   4.241   4.029   9.894 -0.7543  0.9447  0.0210
 8008SOL    HW235484   4.275   4.172   9.923  1.5771 -0.3817 -0.1820
 8009SOL     OW35485   4.706   4.331   4.920  0.0154 -0.0612 -0.3905
 8009SOL    HW135486   4.612   4.327   4.934  0.2123  1.0401  1.2491
 8009SOL    HW235487   4.722   4.422   4.894 -4.0749  0.9567  0.6970
 8010SOL     OW35488   4.404   1.909   3.824  0.2569 -0.1180  0.3168
 8010SOL    HW135489   4.406   1.841   3.757  1.0100  1.5641 -1.3873
 8010SOL    HW235490   4.400   1.857   3.904  0.2745 -0.7891 -0.1260
 8011SOL     OW35491   1.678   2.233   5.436  0.4316 -0.2825 -0.2924
 8011SOL    HW135492   1.735   2.298   5.478  0.9116 -2.2041  2.0683
 8011SOL    HW235493   1.592   2.273   5.451  0.0884 -1.5269  1.0402
 8012SOL     OW35494   2.072   2.530   2.301  0.5577 -0.0304  0.4122
 8012SOL    HW135495   2.055   2.556   2.392  1.8523 -0.3372  0.7403
 8012SOL    HW235496   2.121   2.605   2.268 -0.6861  0.5030 -0.2170
 8013SOL     OW35497   2.120   1.685  10.971 -0.8306  0.4571  0.5893
 8013SOL    HW135498   2.095   1.756  10.913 -2.6298 -0.4309  0.2679
 8013SOL    HW235499   2.051   1.691  11.038 -0.0099 -0.2882  1.5051
 8014SOL     OW35500   1.367   1.659   3.668  0.5500  0.1086  0.5511
 8014SOL    HW135501   1.347   1.583   3.723 -1.4260  0.6902  0.6303
 8014SOL    HW235502   1.355   1.729   3.731  1.2118 -0.8574  1.7495
 8015SOL     OW35503   0.489   1.531   4.483 -0.1727  0.4643 -0.0404
 8015SOL    HW135504   0.504   1.514   4.576  0.5727 -2.0286 -0.6027
 8015SOL    HW235505   0.395   1.519   4.477  0.1479 -1.4777 -1.4751
 8016SOL     OW35506   1.320   1.353   8.711  0.1821 -0.7560 -0.0971
 8016SOL    HW135507   1.305   1.259   8.700 -0.5213 -0.6456 -0.1028
 8016SOL    HW235508   1.292   1.376   8.622  0.1776  2.1156  0.6747
 8017SOL     OW35509   4.269   3.211   2.394  0.2488  0.8096  0.2866
 8017SOL    HW135510   4.199   3.208   2.329 -1.9864 -0.6166  2.7565
 8017SOL    HW235511   4.312   3.296   2.387 -0.1183  0.9810  0.1433
 8018SOL     OW35512   3.465   2.774  17.181  0.2498  0.5252  0.3046
 8018SOL    HW135513   3.409   2.852  17.182  0.2050  0.5024 -0.1973
 8018SOL    HW235514   3.554   2.808  17.192  0.3108  0.2804  0.5524
 8019SOL     OW35515   3.295   1.421   1.091 -0.2551 -0.3578 -0.2805
 8019SOL    HW135516   3.230   1.490   1.074 -0.0455  0.0976  0.7568
 8019SOL    HW235517   3.365   1.482   1.115  0.8390 -2.1464  1.0759
 8020SOL     OW35518   4.315   2.735  15.834  0.2464  0.3288  0.4749
 8020SOL    HW135519   4.249   2.792  15.795  0.0820 -1.4308 -1.8563
 8020SOL    HW235520   4.270   2.651  15.849 -0.3301  0.5085 -0.2288
 8021SOL     OW35521   0.923   2.092   6.021 -0.4627 -0.2257  0.4292
 8021SOL    HW135522   0.942   1.999   6.035  1.7580 -0.0206 -1.3665
 8021SOL    HW235523   0.885   2.095   5.933 -1.2204 -2.7647  0.6653
 8022SOL     OW35524   3.635   0.052   7.848 -0.2651  0.6232  0.6052
 8022SOL    HW135525   3.588   0.132   7.872 -2.0779  1.0414 -4.4507
 8022SOL    HW235526   3.679   0.079   7.768  0.5320  0.2185  0.9073
 8023SOL     OW35527   4.302   1.236   8.406  0.3325  0.0451 -0.4385
 8023SOL    HW135528   4.206   1.231   8.398  0.3350 -0.7672  0.0996
 8023SOL    HW235529   4.329   1.145   8.417 -1.6491 -0.4564  0.2846
 8024SOL     OW35530   2.903   1.902  16.672  0.6521 -0.1130  0.0750
 8024SOL    HW135531   2.877   1.930  16.760 -2.4707 -0.6151 -0.6722
 8024SOL    HW235532   2.989   1.944  16.675 -0.3992  2.1033 -0.7649
 8025SOL     OW35533   3.754   3.111  11.250  0.2814  0.1349  0.2653
 8025SOL    HW135534   3.701   3.109  11.170 -1.1379 -1.1422  1.2336
 8025SOL    HW235535   3.730   3.031  11.298 -2.5263  0.3988 -0.6966
 8026SOL     OW35536   4.248   3.319   9.342  0.0633 -0.1982 -0.2362
 8026SOL    HW135537   4.328   3.274   9.368  0.1798 -0.0819 -0.3899
 8026SOL    HW235538   4.247   3.384   9.413  0.0537 -0.2630 -0.1778
 8027SOL     OW35539   1.920   2.257   5.852 -0.5518  0.4807  0.0512
 8027SOL    HW135540   1.841   2.255   5.907 -0.6459  4.1449  0.0672
 8027SOL    HW235541   1.897   2.180   5.801 -2.6067  0.7679  0.5381
 8028SOL     OW35542   0.915   2.862   7.234 -0.0281 -0.0837  0.5189
 8028SOL    HW135543   0.975   2.794   7.203  0.7076  1.1185 -0.6958
 8028SOL    HW235544   0.934   2.935   7.176  0.3726  0.0194  0.7823
 8029SOL     OW35545   3.867   1.942   2.972  0.5999  0.6928 -0.3757
 8029SOL    HW135546   3.873   1.871   2.909  3.5416  0.4158  0.2151
 8029SOL    HW235547   3.957   1.939   3.005  0.3528 -0.5010  0.2099
 8030SOL     OW35548   1.962   0.718  15.695 -0.3279  0.7556  0.1051
 8030SOL    HW135549   1.867   0.713  15.688 -0.0789 -3.5423 -0.7123
 8030SOL    HW235550   1.997   0.633  15.723 -1.8206 -0.3602 -1.4533
 8031SOL     OW35551   4.398   3.384   1.916  0.2487  0.0124  0.1820
 8031SOL    HW135552   4.485   3.405   1.881  0.4193 -0.3581  0.3880
 8031SOL    HW235553   4.414   3.403   2.009 -1.5465  0.7622  0.3271
 8032SOL     OW35554   1.927   2.282   4.675 -0.4427 -0.1409  0.2733
 8032SOL    HW135555   1.907   2.192   4.650  1.2927 -1.0883  2.2857
 8032SOL    HW235556   1.944   2.279   4.769  2.9972  0.3874 -0.3548
 8033SOL     OW35557   1.083   2.168   2.944  0.2057  0.2890 -0.5421
 8033SOL    HW135558   1.102   2.081   2.908  0.9334  0.3320 -0.2654
 8033SOL    HW235559   1.096   2.219   2.863  2.2885  1.5153  0.5664
 8034SOL     OW35560   1.558   4.366   4.003 -0.2124 -0.0274 -0.2627
 8034SOL    HW135561   1.523   4.283   3.970  0.0317 -0.2046 -0.0762
 8034SOL    HW235562   1.608   4.335   4.079 -2.9836 -1.4122  0.9884
 8035SOL     OW35563   0.965   1.963   2.197 -0.1786 -0.3134 -0.0759
 8035SOL    HW135564   1.021   2.006   2.133  1.0794 -1.7742  0.0536
 8035SOL    HW235565   0.945   1.877   2.159 -0.5891  0.3229 -1.2937
 8036SOL     OW35566   4.357   0.560  10.881  0.2312  0.1775 -0.7304
 8036SOL    HW135567   4.354   0.516  10.796  1.6502 -0.8687 -0.2347
 8036SOL    HW235568   4.319   0.647  10.868  0.6487  0.5018  0.1757
 8037SOL     OW35569   3.082   1.896   4.753  0.1165 -0.1044  0.2437
 8037SOL    HW135570   3.056   1.844   4.829  1.5716 -1.1350  0.0448
 8037SOL    HW235571   3.000   1.899   4.704  0.3380  0.5457 -0.0897
 8038SOL     OW35572   4.376   3.163   0.907  0.2100 -0.3350 -0.0179
 8038SOL    HW135573   4.328   3.140   0.987 -0.6549 -1.1157 -0.7576
 8038SOL    HW235574   4.398   3.075   0.876  2.6821 -0.6728  2.6782
 8039SOL     OW35575   2.104   3.122  13.802 -0.0732  0.0355  0.6247
 8039SOL    HW135576   2.134   3.148  13.889 -0.8509  1.0452  0.5905
 8039SOL    HW235577   2.049   3.049  13.833 -1.4496  0.3733 -1.0059
 8040SOL     OW35578   4.677   1.176  10.769 -0.5829 -0.3271 -0.2684
 8040SOL    HW135579   4.715   1.134  10.692 -0.5591 -1.5975  0.4508
 8040SOL    HW235580   0.006   1.257  10.768  0.2946 -0.8899 -0.8478
 8041SOL     OW35581   2.551   4.519   4.916  0.0172  0.2828  0.5617
 8041SOL    HW135582   2.604   4.481   4.987  0.0288 -1.7917 -0.5512
 8041SOL    HW235583   2.608   4.508   4.840  1.6850  1.9234  1.5857
 8042SOL     OW35584   0.364   1.832   7.584 -0.2891 -0.1304  0.0802
 8042SOL    HW135585   0.333   1.909   7.630 -2.4063 -0.3375 -1.0205
 8042SOL    HW235586   0.289   1.772   7.588  1.3072 -1.8574  3.6991
 8043SOL     OW35587   3.754   2.460  15.059  0.2652  0.4171  0.4656
 8043SOL    HW135588   3.786   2.490  14.974  0.3525 -1.2306 -0.0852
 8043SOL    HW235589   3.666   2.498  15.058  0.3649  0.6985  1.8396
 8044SOL     OW35590   1.031   1.771   9.905 -0.1515 -0.2302 -0.5329
 8044SOL    HW135591   1.040   1.675   9.911  1.3416 -0.1775 -1.7954
 8044SOL    HW235592   0.969   1.777   9.833 -1.0048  0.6424  0.2861
 8045SOL     OW35593   0.589   0.885   4.424 -0.2624 -0.2187 -0.4665
 8045SOL    HW135594   0.573   0.979   4.411  0.4585 -0.0552 -0.1262
 8045SOL    HW235595   0.681   0.880   4.401 -0.6897 -0.5661 -2.1190
 8046SOL     OW35596   1.980   2.412   8.400  0.1200 -0.4377  0.3306
 8046SOL    HW135597   2.031   2.389   8.322  0.0980  1.0333 -0.1274
 8046SOL    HW235598   2.035   2.476   8.446  0.0692  0.8922 -1.4429
 8047SOL     OW35599   1.315   0.935   4.929 -0.2345  0.0723 -0.4847
 8047SOL    HW135600   1.311   0.875   4.855  1.2089  0.3233 -0.7568
 8047SOL    HW235601   1.313   1.020   4.884 -0.4339  0.4755  0.2820
 8048SOL     OW35602   3.441   1.703  11.923 -0.3040  0.0537  0.6420
 8048SOL    HW135603   3.466   1.738  12.008 -0.9631  2.3619 -0.1129
 8048SOL    HW235604   3.503   1.727  11.854  0.9754 -0.9427  1.4544
 8049SOL     OW35605   4.343   2.050   5.166 -0.0146  0.0368 -0.4051
 8049SOL    HW135606   4.343   2.123   5.103  1.2033  1.3638  1.1366
 8049SOL    HW235607   4.318   1.980   5.105 -0.2833 -1.4346  1.4199
 8050SOL     OW35608   4.429   2.230   4.731  0.0833 -0.2674 -0.0138
 8050SOL    HW135609   4.335   2.224   4.749 -0.1563  1.7870 -0.5722
 8050SOL    HW235610   4.445   2.324   4.735  0.5174 -0.3923  1.1715
 8051SOL     OW35611   2.398   2.616  16.667  0.3872 -0.2779  0.6498
 8051SOL    HW135612   2.450   2.547  16.624  2.2615  1.0693  0.7351
 8051SOL    HW235613   2.395   2.579  16.755 -0.2544 -2.7401 -0.4099
 8052SOL     OW35614   1.721   3.113   6.488  0.2494 -0.2523 -0.0497
 8052SOL    HW135615   1.739   3.041   6.549  0.7102  0.9740  1.2795
 8052SOL    HW235616   1.766   3.187   6.529 -0.4511 -0.9950  2.0585
 8053SOL     OW35617   3.625   3.929   6.556  0.6695  0.3430 -0.1786
 8053SOL    HW135618   3.642   3.962   6.645  3.5198  1.5022 -1.1661
 8053SOL    HW235619   3.680   3.850   6.561  0.3665  0.0390 -1.7011
 8054SOL     OW35620   4.306   2.769   3.276 -0.1705  0.1107 -0.3167
 8054SOL    HW135621   4.309   2.695   3.337 -1.3625  0.3482  0.0174
 8054SOL    HW235622   4.242   2.828   3.314 -0.2239  0.1609 -0.4859
 8055SOL     OW35623   4.710   0.532   0.113 -0.6320  0.1812  0.0904
 8055SOL    HW135624   4.634   0.508   0.166 -0.8750 -2.3564 -1.4178
 8055SOL    HW235625   0.058   0.500   0.169 -0.5804 -0.7986 -0.5303
 8056SOL     OW35626   1.084   0.629   5.182 -0.0213  0.0487  0.0406
 8056SOL    HW135627   1.132   0.599   5.105  1.0594 -2.2227  1.6074
 8056SOL    HW235628   1.091   0.724   5.172 -0.0159  0.2049  1.5304
 8057SOL     OW35629   4.033   1.074  13.055 -0.2895  0.3692 -0.0909
 8057SOL    HW135630   4.104   1.010  13.049 -0.7869 -0.1403 -0.5984
 8057SOL    HW235631   3.994   1.038  13.135  0.4029 -1.2961 -0.5120
 8058SOL     OW35632   1.565   0.503   8.882 -0.0417 -0.1327 -1.0597
 8058SOL    HW135633   1.654   0.469   8.877 -0.6319 -2.1838  2.5866
 8058SOL    HW235634   1.518   0.458   8.811  0.0419  0.1956 -1.3237
 8059SOL     OW35635   0.116   4.596   2.583  0.0618 -0.6722 -0.1908
 8059SOL    HW135636   0.198   4.632   2.617  1.0795 -1.1567 -2.1191
 8059SOL    HW235637   0.147   4.529   2.523  0.9412 -1.5042  1.2079
 8060SOL     OW35638   2.688   4.684   3.745 -0.0694 -0.5096  0.3931
 8060SOL    HW135639   2.663   0.049   3.715  0.1299 -1.1300 -1.6331
 8060SOL    HW235640   2.776   4.706   3.775  0.2285 -0.4792 -0.4850
 8061SOL     OW35641   1.132   4.117   5.164  0.8756  0.4844 -0.2151
 8061SOL    HW135642   1.072   4.155   5.227 -2.0094 -1.0559 -2.0293
 8061SOL    HW235643   1.076   4.083   5.094  0.7574 -0.1520  0.1873
 8062SOL     OW35644   0.055   1.676  11.197  0.1371  0.2001 -0.6823
 8062SOL    HW135645   0.072   1.679  11.103  0.5002 -1.1106 -0.6520
 8062SOL    HW235646   0.104   1.757  11.214  0.5945 -0.0635 -0.7544
 8063SOL     OW35647   1.462   0.318   6.137 -0.1148  0.4528 -0.6087
 8063SOL    HW135648   1.455   0.394   6.195 -1.8480  0.5755 -0.9702
 8063SOL    HW235649   1.470   0.358   6.050 -0.6147 -0.2575 -0.9823
 8064SOL     OW35650   1.559   1.251   7.145 -0.5949  0.8893 -0.6101
 8064SOL    HW135651   1.597   1.338   7.160 -0.4786  0.8224 -0.5265
 8064SOL    HW235652   1.465   1.264   7.132 -0.4793  0.0306 -2.4165
 8065SOL     OW35653   1.606   3.491   2.670  0.0759 -0.2083  0.1745
 8065SOL    HW135654   1.662   3.502   2.593 -1.1434 -2.3341 -1.0341
 8065SOL    HW235655   1.525   3.466   2.625 -0.6312  0.3427  1.1401
 8066SOL     OW35656   0.007   0.761   2.158 -0.4481  0.2044  0.2728
 8066SOL    HW135657   4.707   0.692   2.221 -3.0116  1.2280  0.4523
 8066SOL    HW235658   4.721   0.712   2.077 -0.9611 -0.7186  0.8869
 8067SOL     OW35659   4.236   3.702   6.581  0.4115 -0.0627  0.2631
 8067SOL    HW135660   4.310   3.761   6.595  1.2494 -0.3776 -2.9237
 8067SOL    HW235661   4.180   3.749   6.644  0.6171 -0.0390  0.4279
 8068SOL     OW35662   1.486   0.777   5.579 -0.0197  0.3443 -0.3146
 8068SOL    HW135663   1.454   0.864   5.603 -0.5843  0.0403  0.0379
 8068SOL    HW235664   1.466   0.733   5.661  2.0841  1.1718  0.6196
 8069SOL     OW35665   2.122   4.485   5.492  0.6465 -0.1427 -0.5302
 8069SOL    HW135666   2.132   4.408   5.548 -1.7568 -0.7289 -0.9040
 8069SOL    HW235667   2.097   4.554   5.553  0.4152  1.0162 -1.9462
 8070SOL     OW35668   0.935   3.531  12.066 -0.2289 -0.0870 -0.0873
 8070SOL    HW135669   0.853   3.538  12.018  0.3969 -0.9877 -1.3020
 8070SOL    HW235670   0.924   3.450  12.116  1.5623  0.1442  0.6708
 8071SOL     OW35671   3.080   4.266  13.359  0.5470 -0.3298  0.5228
 8071SOL    HW135672   3.016   4.195  13.354 -0.7696  0.8826  0.0844
 8071SOL    HW235673   3.037   4.338  13.311 -0.0908  0.3618  2.1308
 8072SOL     OW35674   3.083   4.640   3.451 -0.8894 -0.6063  0.5088
 8072SOL    HW135675   3.172   4.631   3.417  0.3519  0.9984  3.3585
 8072SOL    HW235676   3.091   4.660   3.544 -2.5977  1.3144  0.2281
 8073SOL     OW35677   4.027   4.015   2.325 -0.1447 -0.0514 -0.7985
 8073SOL    HW135678   3.989   4.093   2.364 -1.0722 -1.1015  0.4053
 8073SOL    HW235679   4.115   4.048   2.309 -0.4097  1.2754  0.5037
 8074SOL     OW35680   4.644   1.973  10.549 -0.5617 -0.3455  0.2088
 8074SOL    HW135681   4.649   1.901  10.611  0.0352 -1.0637 -0.6818
 8074SOL    HW235682   4.559   1.958  10.507  0.7612  0.1032 -2.6424
 8075SOL     OW35683   2.382   0.093   4.439  0.3532  0.4703 -0.4219
 8075SOL    HW135684   2.413   0.130   4.522 -4.0312  1.2959  0.8495
 8075SOL    HW235685   2.294   0.062   4.458  0.7568 -0.5777 -0.2339
 8076SOL     OW35686   2.054   2.096   2.172 -0.3796 -0.2870  0.3807
 8076SOL    HW135687   2.074   2.180   2.132  0.2639 -0.9449 -0.6728
 8076SOL    HW235688   1.959   2.101   2.182 -0.2520  2.9507  0.0125
 8077SOL     OW35689   1.620   1.469   6.440  0.0320  0.1075 -0.0808
 8077SOL    HW135690   1.651   1.393   6.391  1.3631  0.6980 -0.1735
 8077SOL    HW235691   1.627   1.444   6.532  0.7118  0.8724  0.0761
 8078SOL     OW35692   3.735   2.556   2.691 -0.2187 -0.1016  0.7939
 8078SOL    HW135693   3.827   2.578   2.677  0.1395 -1.5805  0.8122
 8078SOL    HW235694   3.744   2.552   2.787  0.6720 -0.1727  0.7147
 8079SOL     OW35695   0.121   4.006   9.118 -0.1447  0.4021  0.0858
 8079SOL    HW135696   0.118   4.041   9.207 -0.0350  1.0052 -0.1520
 8079SOL    HW235697   0.105   4.083   9.063 -0.4534  1.5451  1.7753
 8080SOL     OW35698   2.297   3.138   1.256 -0.2854 -0.2806  0.1739
 8080SOL    HW135699   2.316   3.228   1.282  0.7274 -0.7852  1.1723
 8080SOL    HW235700   2.206   3.142   1.287 -0.5425 -0.1818 -0.5998
 8081SOL     OW35701   0.992   0.993   8.643  0.2017 -0.3501 -0.4568
 8081SOL    HW135702   1.032   0.928   8.700  1.7572  1.5982  0.6858
 8081SOL    HW235703   0.905   0.956   8.626 -1.6021  3.0529  1.1945
 8082SOL     OW35704   3.401   3.216   7.792 -0.3225  0.4713 -0.3547
 8082SOL    HW135705   3.322   3.165   7.773  0.3039 -0.5821 -0.1784
 8082SOL    HW235706   3.473   3.152   7.787 -0.0318  0.8152 -0.5821
 8083SOL     OW35707   0.994   1.744   4.308  0.8005  0.2770 -0.1441
 8083SOL    HW135708   0.968   1.777   4.394 -0.5609 -0.1217 -0.4030
 8083SOL    HW235709   1.082   1.781   4.296  0.1413  1.6453 -0.7085
 8084SOL     OW35710   1.705   3.932   8.236 -0.0806  0.0195  0.4305
 8084SOL    HW135711   1.719   3.846   8.196 -1.3897 -0.3124  0.6778
 8084SOL    HW235712   1.766   3.935   8.310 -0.3823 -0.7734  0.7155
 8085SOL     OW35713   3.907   1.210  12.794 -0.5216 -0.5084  0.0455
 8085SOL    HW135714   3.969   1.280  12.775 -0.9308  0.1036  0.9529
 8085SOL    HW235715   3.930   1.192  12.885  0.8324 -2.5020 -0.6972
 8086SOL     OW35716   4.237   1.759  16.509 -0.1559 -0.1624  0.0393
 8086SOL    HW135717   4.271   1.825  16.448  1.3379  0.6795  1.7932
 8086SOL    HW235718   4.147   1.789  16.494  0.2374  1.9288  1.8417
 8087SOL     OW35719   0.734   3.873  16.382  0.4719  0.0366  0.0508
 8087SOL    HW135720   0.692   3.789  16.361  1.1005  0.2028 -1.8198
 8087SOL    HW235721   0.660   3.925  16.413  0.9131 -0.1965  1.4803
 8088SOL     OW35722   3.013   2.519   7.397 -0.9259 -0.1329  0.5219
 8088SOL    HW135723   3.088   2.527   7.338 -1.1914  1.6218  0.4174
 8088SOL    HW235724   3.060   2.472   7.466  0.1082 -0.3128 -0.2978
 8089SOL     OW35725   2.952   2.851   3.308  0.3340  0.7957  0.3195
 8089SOL    HW135726   2.878   2.799   3.338  0.7785  0.3151  0.5868
 8089SOL    HW235727   3.015   2.783   3.283 -1.0001 -0.3605  0.1398
 8090SOL     OW35728   2.874   0.465   0.597 -0.0039 -0.6861  0.5449
 8090SOL    HW135729   2.855   0.458   0.691 -2.9713  1.9770  0.1327
 8090SOL    HW235730   2.795   0.512   0.573 -0.8171 -1.4331  1.7696
 8091SOL     OW35731   3.373   2.858   7.297  0.0436 -0.3110  0.5021
 8091SOL    HW135732   3.447   2.836   7.239 -0.1748  1.2798 -0.3945
 8091SOL    HW235733   3.301   2.847   7.235  0.8372 -0.9622 -0.3146
 8092SOL     OW35734   4.134   4.344   4.658 -0.0904 -0.4980 -0.0852
 8092SOL    HW135735   4.203   4.329   4.723  0.0504 -0.6599 -0.2721
 8092SOL    HW235736   4.167   4.295   4.582  3.1246 -0.2544  1.1339
 8093SOL     OW35737   1.989   0.761   2.638  0.2024  0.1600  0.0845
 8093SOL    HW135738   1.938   0.829   2.682 -0.5079 -1.0724  1.1887
 8093SOL    HW235739   1.952   0.684   2.683 -1.5741 -0.4297 -2.4151
 8094SOL     OW35740   4.185   1.712   4.120 -0.1015 -0.1954  0.3202
 8094SOL    HW135741   4.143   1.646   4.065  0.6620  0.5491 -1.1673
 8094SOL    HW235742   4.173   1.668   4.204  4.6371 -0.2889  0.9023
 8095SOL     OW35743   1.883   4.620   4.405 -0.3503  0.2228  0.2906
 8095SOL    HW135744   1.870   4.703   4.452  0.8384  0.2741  0.5086
 8095SOL    HW235745   1.795   4.582   4.401  1.2833 -3.3382 -1.7286
 8096SOL     OW35746   2.278   3.994   8.580  0.2889 -0.1876  0.0545
 8096SOL    HW135747   2.367   3.974   8.552 -0.7698 -3.7901 -0.6409
 8096SOL    HW235748   2.231   3.973   8.499 -1.4633  1.2162  0.6994
 8097SOL     OW35749   0.368   3.267  10.005 -0.6246 -0.3093 -0.5312
 8097SOL    HW135750   0.314   3.210   9.949 -1.0837 -2.1652  1.8156
 8097SOL    HW235751   0.370   3.351   9.960  3.3744 -1.3829 -2.4198
 8098SOL     OW35752   1.591   1.930   4.422  0.1780  0.2951 -0.2271
 8098SOL    HW135753   1.517   1.989   4.430  0.2648  0.2171  1.0862
 8098SOL    HW235754   1.621   1.954   4.335  3.5080 -0.5142  0.7132
 8099SOL     OW35755   0.127   4.693   2.209  0.1649 -0.3669  0.0464
 8099SOL    HW135756   0.120   4.647   2.126  2.7097 -1.7824  0.6432
 8099SOL    HW235757   0.207   0.013   2.180 -0.8687  1.0534 -0.7491
 8100SOL     OW35758   3.945   3.347  16.053 -0.2695 -0.0419 -0.2106
 8100SOL    HW135759   3.919   3.302  15.973  0.3820 -0.4344 -0.1980
 8100SOL    HW235760   3.887   3.304  16.115 -0.9218  1.6933  0.3760
 8101SOL     OW35761   0.082   0.540  14.881 -0.0376  0.6736  0.2664
 8101SOL    HW135762   4.710   0.547  14.886  0.1365  1.8485  1.7934
 8101SOL    HW235763   0.110   0.630  14.897 -2.6569  0.9129  3.5918
 8102SOL     OW35764   3.621   0.392   7.642  0.2040  0.1231  0.4535
 8102SOL    HW135765   3.712   0.361   7.644 -0.1769 -1.0504 -0.7049
 8102SOL    HW235766   3.590   0.361   7.558  2.1571 -1.7461  0.4080
 8103SOL     OW35767   4.131   3.785   5.224  0.1600 -0.6018  0.3569
 8103SOL    HW135768   4.123   3.791   5.129  0.1570 -1.2338  0.3192
 8103SOL    HW235769   4.076   3.859   5.249  1.1633  0.1360  0.4108
 8104SOL     OW35770   3.800   3.911   8.251  0.2232  0.1388  0.0124
 8104SOL    HW135771   3.786   3.867   8.168 -0.5323 -1.0883  0.7836
 8104SOL    HW235772   3.861   3.979   8.223 -0.4154  0.5324 -0.4138
 8105SOL     OW35773   1.056   3.904   8.828 -0.0115 -0.0205  0.3108
 8105SOL    HW135774   1.084   3.813   8.834 -1.9935 -0.5504  1.4496
 8105SOL    HW235775   1.116   3.950   8.887  0.7100  1.2545 -1.3961
 8106SOL     OW35776   4.601   4.110  14.891 -0.1059 -0.2079 -0.5052
 8106SOL    HW135777   4.667   4.117  14.822  1.1289 -1.9702  0.5233
 8106SOL    HW235778   4.527   4.068  14.847 -0.1840  0.5854 -1.1425
 8107SOL     OW35779   3.423   1.047   3.175 -0.3500 -0.6988  0.1174
 8107SOL    HW135780   3.403   0.973   3.232  1.6067 -0.2199  1.4068
 8107SOL    HW235781   3.345   1.100   3.187  0.4986  1.0191 -2.0845
 8108SOL     OW35782   2.497   0.021  17.206 -0.2846 -0.1490  0.7539
 8108SOL    HW135783   2.477   4.670  17.148 -0.8266 -0.0250  0.7821
 8108SOL    HW235784   2.476   0.091  17.145 -1.1421 -0.2824  0.9038
 8109SOL     OW35785   2.571   3.622   7.032  0.5688 -0.2548 -0.5081
 8109SOL    HW135786   2.577   3.685   7.104 -1.5564 -0.4207 -0.1787
 8109SOL    HW235787   2.476   3.622   7.020  0.3393  0.0226  1.2808
 8110SOL     OW35788   3.122   0.256  12.309  0.2175 -0.7136 -0.0744
 8110SOL    HW135789   3.110   0.161  12.320 -1.4805 -0.7104 -2.0694
 8110SOL    HW235790   3.117   0.282  12.401  0.7667  1.7704 -0.7600
 8111SOL     OW35791   1.766   1.168   1.876 -0.5911 -0.1053 -0.5020
 8111SOL    HW135792   1.761   1.168   1.781 -1.0637  0.4608 -0.4792
 8111SOL    HW235793   1.711   1.095   1.903 -2.1724  0.5712 -1.9098
 8112SOL     OW35794   3.423   3.370   1.899  0.6565 -0.0875 -0.2411
 8112SOL    HW135795   3.359   3.327   1.843 -0.7159 -0.0369  1.2884
 8112SOL    HW235796   3.376   3.415   1.969  1.2745  0.6564 -0.2981
 8113SOL     OW35797   0.193   3.680   8.373 -0.2210 -0.3655 -0.4252
 8113SOL    HW135798   0.108   3.704   8.409  0.0921  1.2309 -0.7441
 8113SOL    HW235799   0.191   3.710   8.282 -4.7328  0.8529  0.1022
 8114SOL     OW35800   3.333   2.666  16.276 -0.1616 -0.3068 -0.3048
 8114SOL    HW135801   3.344   2.761  16.266  0.1249 -0.3452 -0.3577
 8114SOL    HW235802   3.340   2.630  16.187  0.3892  1.4222 -0.9824
 8115SOL     OW35803   1.795   1.514  15.592 -0.0656 -0.4332  1.1212
 8115SOL    HW135804   1.756   1.509  15.679 -0.1368 -1.1085  1.0488
 8115SOL    HW235805   1.885   1.522  15.623  0.7894 -0.8179 -1.2216
 8116SOL     OW35806   1.535   1.695   8.697  0.2592 -0.0253 -0.4697
 8116SOL    HW135807   1.511   1.744   8.618  0.3197  1.1026  0.2064
 8116SOL    HW235808   1.476   1.728   8.764  0.4461  1.6577 -1.1220
 8117SOL     OW35809   3.294   4.600   5.958  0.2787  0.3341 -0.1180
 8117SOL    HW135810   3.355   4.536   5.921  1.5348  1.5947 -0.2095
 8117SOL    HW235811   3.229   4.546   6.003  1.9084 -1.0680  0.5499
 8118SOL     OW35812   2.541   0.559  10.135 -0.5254 -0.2303  0.1331
 8118SOL    HW135813   2.541   0.477  10.086 -0.9819 -0.7687  1.0398
 8118SOL    HW235814   2.469   0.537  10.193  0.1617 -0.9330  0.7093
 8119SOL     OW35815   4.458   2.825   8.097  0.0882 -0.2748  0.6004
 8119SOL    HW135816   4.504   2.742   8.090  0.0330 -0.4280  2.0168
 8119SOL    HW235817   4.449   2.835   8.003  0.9865 -2.3755  0.2951
 8120SOL     OW35818   4.321   2.849   7.309 -0.2582 -0.5658 -0.0795
 8120SOL    HW135819   4.382   2.776   7.299 -0.4059 -0.5964 -0.7412
 8120SOL    HW235820   4.240   2.802   7.326  0.2130 -2.0553 -1.8804
 8121SOL     OW35821   2.601   3.336   4.512 -0.1962 -0.2743 -0.5576
 8121SOL    HW135822   2.597   3.291   4.596 -0.1960 -0.2055 -0.5204
 8121SOL    HW235823   2.684   3.384   4.511  0.4118 -1.3195  1.3793
 8122SOL     OW35824   0.630   2.225  11.443  0.3621 -0.4786  0.5271
 8122SOL    HW135825   0.687   2.152  11.466  1.8434  1.1056  1.8740
 8122SOL    HW235826   0.695   2.273  11.391  0.3183  1.0134  1.8599
 8123SOL     OW35827   1.410   3.749   1.078 -0.4853 -0.5132 -0.1699
 8123SOL    HW135828   1.477   3.750   1.010 -0.4522 -2.0045 -0.1408
 8123SOL    HW235829   1.338   3.718   1.025 -0.3566 -1.7824  0.4070
 8124SOL     OW35830   1.299   2.583   2.183 -0.3392 -0.0141  0.3259
 8124SOL    HW135831   1.262   2.495   2.182 -1.3106  0.3968 -0.3896
 8124SOL    HW235832   1.261   2.600   2.097  0.6185  0.8721  0.0789
 8125SOL     OW35833   2.938   0.832   4.238 -0.2064 -0.0699  0.3126
 8125SOL    HW135834   2.924   0.927   4.236  0.6347  0.0295 -0.5957
 8125SOL    HW235835   2.887   0.789   4.171 -0.4359  1.2819 -0.3796
 8126SOL     OW35836   1.210   3.258  15.194  0.2065 -0.4786  0.0519
 8126SOL    HW135837   1.212   3.189  15.260 -1.7884  1.0331  1.6983
 8126SOL    HW235838   1.147   3.316  15.237 -2.9989 -3.5364 -0.5775
 8127SOL     OW35839   1.487   3.255   5.278 -0.2043  0.0222  0.2760
 8127SOL    HW135840   1.443   3.291   5.201  2.2852 -0.1278 -1.1868
 8127SOL    HW235841   1.529   3.180   5.237 -1.8677 -1.3336  1.0480
 8128SOL     OW35842   0.167   1.985   4.795 -0.6660 -0.0147 -0.3178
 8128SOL    HW135843   0.254   1.981   4.755 -0.5636  0.6902 -0.1539
 8128SOL    HW235844   0.162   1.892   4.819  0.4134 -0.0325 -0.1631
 8129SOL     OW35845   0.050   0.670   7.526 -0.2780 -0.0199  0.1683
 8129SOL    HW135846   4.706   0.683   7.594  1.3050 -1.5090  1.9928
 8129SOL    HW235847   0.118   0.726   7.565  0.4807 -1.8794  1.4991
 8130SOL     OW35848   1.551   3.072   2.748 -0.0660  0.4474 -0.1319
 8130SOL    HW135849   1.551   3.141   2.681 -0.4812 -0.3073 -0.9062
 8130SOL    HW235850   1.573   2.994   2.698 -1.8231  0.6562 -1.2582
 8131SOL     OW35851   3.891   1.182   3.041  0.4797 -0.0868 -0.0924
 8131SOL    HW135852   3.984   1.203   3.037  0.7387 -1.5477 -1.7939
 8131SOL    HW235853   3.865   1.229   2.962 -0.1656 -0.1097  0.1040
 8132SOL     OW35854   4.173   0.525   3.952  0.0928  0.1382  0.3906
 8132SOL    HW135855   4.156   0.613   3.984 -1.4689  0.3856 -1.1855
 8132SOL    HW235856   4.191   0.487   4.039 -1.6028  2.9076  1.9243
 8133SOL     OW35857   3.005   1.014  12.800  0.1875 -0.0403 -0.0336
 8133SOL    HW135858   3.003   1.109  12.787  0.8802  0.1514  1.2075
 8133SOL    HW235859   3.072   0.992  12.736 -0.5153 -1.6603 -0.2132
 8134SOL     OW35860   3.465   1.335   6.492 -0.8412  0.2679  0.1596
 8134SOL    HW135861   3.557   1.349   6.472 -0.4958 -1.6350  0.3795
 8134SOL    HW235862   3.453   1.389   6.570 -0.9879 -0.3914  0.5918
 8135SOL     OW35863   1.038   4.170   7.679 -0.3794 -0.0111 -0.2591
 8135SOL    HW135864   1.105   4.205   7.737  1.7248 -0.6371 -2.3110
 8135SOL    HW235865   1.077   4.198   7.596 -1.9848  0.1736 -0.9447
 8136SOL     OW35866   1.911   4.379   4.765  0.4102  0.0211 -0.6367
 8136SOL    HW135867   1.931   4.311   4.701  1.3194  0.8215 -1.2080
 8136SOL    HW235868   1.993   4.403   4.810 -0.7634  0.4426  1.2884
 8137SOL     OW35869   3.105   0.360  12.565 -0.1245  0.2889  0.5571
 8137SOL    HW135870   3.103   0.452  12.538  1.8888  0.5812  1.4013
 8137SOL    HW235871   3.118   0.372  12.659 -1.8792 -3.3099  1.2735
 8138SOL     OW35872   1.063   1.207   3.105 -0.0500  0.2200  0.3342
 8138SOL    HW135873   1.060   1.177   3.196 -0.4453  0.7848  0.5056
 8138SOL    HW235874   0.973   1.223   3.077  0.6133  2.3754 -0.5653
 8139SOL     OW35875   3.144   1.826   8.518 -0.2666  0.2152 -0.1697
 8139SOL    HW135876   3.181   1.806   8.604  0.2432  0.3757 -0.3536
 8139SOL    HW235877   3.064   1.875   8.540  1.3234  2.6232  0.2610
 8140SOL     OW35878   3.538   3.838   0.486 -0.3664 -0.5678 -0.4550
 8140SOL    HW135879   3.613   3.799   0.531  0.8818 -1.4241 -3.3208
 8140SOL    HW235880   3.485   3.768   0.448 -0.6826 -0.4979 -0.1422
 8141SOL     OW35881   4.613   0.233  15.438 -0.5225  0.2059 -0.3788
 8141SOL    HW135882   4.612   0.148  15.394  1.0984 -0.5138  0.9716
 8141SOL    HW235883   4.653   0.209  15.522  0.6418  1.4570 -0.5727
 8142SOL     OW35884   4.292   0.459   6.137 -0.2419 -0.7840  0.1644
 8142SOL    HW135885   4.337   0.448   6.221  1.1663 -0.4376 -0.5303
 8142SOL    HW235886   4.269   0.551   6.147 -0.3749 -0.8613  0.5405
 8143SOL     OW35887   1.110   0.952   4.417 -0.3917  0.3954  0.3136
 8143SOL    HW135888   1.133   1.024   4.476 -2.3766 -0.3286  1.9864
 8143SOL    HW235889   1.045   0.989   4.357 -0.6322 -0.3263  0.1274
 8144SOL     OW35890   4.287   3.075  12.641 -0.1587  0.0941 -0.5592
 8144SOL    HW135891   4.296   3.093  12.547 -0.1801  2.8471 -0.0191
 8144SOL    HW235892   4.334   3.148  12.681  0.1152  0.4693 -1.5459
 8145SOL     OW35893   3.449   1.496   6.703  0.3975  0.5092 -0.2564
 8145SOL    HW135894   3.540   1.468   6.716  1.5072  3.7203 -1.2389
 8145SOL    HW235895   3.428   1.538   6.787  1.2869 -0.5469  0.4988
 8146SOL     OW35896   1.874   2.077   3.863  0.3474 -0.3155  0.1618
 8146SOL    HW135897   1.885   2.070   3.768  1.3333 -3.9432  0.5722
 8146SOL    HW235898   1.952   2.032   3.893  0.4047  0.5258  1.2473
 8147SOL     OW35899   0.467   3.003   2.510 -0.1498 -0.5420  0.4963
 8147SOL    HW135900   0.456   2.920   2.464  0.8360 -0.9487  0.9853
 8147SOL    HW235901   0.557   3.023   2.483 -1.0734  2.3166 -0.4793
 8148SOL     OW35902   4.475   4.091  13.088 -0.3851  0.4620 -0.0030
 8148SOL    HW135903   4.507   4.130  13.169 -1.7759  0.6194  0.4575
 8148SOL    HW235904   4.391   4.137  13.093  0.6854  2.4748 -0.6663
 8149SOL     OW35905   1.387   0.502  13.502  0.8178  0.1946  0.0707
 8149SOL    HW135906   1.364   0.438  13.569 -1.7744 -0.1177 -1.1229
 8149SOL    HW235907   1.473   0.522  13.537  0.9844  0.1417 -0.3067
 8150SOL     OW35908   3.624   2.360   5.600  0.5109 -0.5651 -0.0960
 8150SOL    HW135909   3.585   2.415   5.532 -0.1269 -1.9697 -0.8716
 8150SOL    HW235910   3.699   2.416   5.622 -0.4709  0.6132  0.2349
 8151SOL     OW35911   1.003   0.840   8.868  0.0815 -0.3740 -0.1604
 8151SOL    HW135912   1.093   0.871   8.883  0.2096 -0.4430 -0.8069
 8151SOL    HW235913   0.968   0.819   8.955 -0.3623 -1.1703 -0.5365
 8152SOL     OW35914   1.707   0.993   6.737 -0.2723  0.3357  0.4991
 8152SOL    HW135915   1.774   0.955   6.793 -0.7703 -1.1194  0.1180
 8152SOL    HW235916   1.653   1.039   6.800 -1.0887  3.2720 -2.3257
 8153SOL     OW35917   1.727   1.989  17.609 -0.6295 -0.0210  0.4631
 8153SOL    HW135918   1.632   1.991  17.600 -0.8110 -1.5078  1.9017
 8153SOL    HW235919   1.748   2.005  17.517 -0.7334  0.8938  0.6022
 8154SOL     OW35920   3.565   0.745   4.001  0.6259 -0.8777  0.1332
 8154SOL    HW135921   3.513   0.677   3.958 -0.9794 -0.0254  0.7296
 8154SOL    HW235922   3.595   0.801   3.930 -0.0402 -0.5427  0.1254
 8155SOL     OW35923   2.320   1.152   6.650  0.1293 -0.1088  0.5980
 8155SOL    HW135924   2.226   1.167   6.639 -0.1075 -0.9477  1.4713
 8155SOL    HW235925   2.348   1.225   6.706 -1.2902  1.5001 -0.8029
 8156SOL     OW35926   3.200   3.010   4.186  0.4386 -0.7794 -0.2063
 8156SOL    HW135927   3.182   2.938   4.247  1.6891 -0.9057  0.0137
 8156SOL    HW235928   3.111   3.042   4.168 -0.5077 -1.6428  2.8530
 8157SOL     OW35929   4.515   0.889   3.244  0.0327 -0.0652  0.3989
 8157SOL    HW135930   4.440   0.834   3.220 -0.9313  1.4627 -0.0878
 8157SOL    HW235931   4.518   0.887   3.340  1.1100  2.6090  0.4229
 8158SOL     OW35932   1.214   4.656   3.469  0.0913  0.1965 -0.6648
 8158SOL    HW135933   1.178   4.674   3.383 -1.2580 -0.7319 -0.2874
 8158SOL    HW235934   1.288   4.599   3.448  0.6085  0.9819 -0.9764
 8159SOL     OW35935   4.225   3.405  13.944 -0.1373  0.0965  0.4599
 8159SOL    HW135936   4.286   3.390  13.871 -0.0795  1.1354  0.2940
 8159SOL    HW235937   4.236   3.331  14.004 -0.7323  1.0476  1.7304
 8160SOL     OW35938   4.208   1.058   5.044 -0.1844 -0.7064 -0.5984
 8160SOL    HW135939   4.135   1.054   4.982  0.0674  0.4190 -0.9569
 8160SOL    HW235940   4.278   1.079   4.982  0.6519 -2.3324 -0.2214
 8161SOL     OW35941   0.606   1.434   1.499 -0.3095 -0.5452 -0.0967
 8161SOL    HW135942   0.672   1.462   1.563 -0.8093  0.1908  0.0995
 8161SOL    HW235943   0.563   1.363   1.548  1.3811 -0.6390  1.2444
 8162SOL     OW35944   2.746   1.120   7.988 -0.1864 -0.5491 -0.0335
 8162SOL    HW135945   2.753   1.024   7.988  1.0224 -0.4572  0.4476
 8162SOL    HW235946   2.672   1.125   8.048 -1.0469  0.4832 -1.1895
 8163SOL     OW35947   2.045   4.617  11.603 -0.2094  0.1634  0.1951
 8163SOL    HW135948   2.083   4.539  11.562  0.8483  1.6126 -1.5449
 8163SOL    HW235949   1.975   4.584  11.659 -0.5548  1.1843  0.3636
 8164SOL     OW35950   4.447   0.663   7.504 -0.4530 -0.0931 -0.3360
 8164SOL    HW135951   4.507   0.588   7.508  1.2266  1.3292  1.1200
 8164SOL    HW235952   4.477   0.715   7.579 -0.2115 -0.0182 -0.4854
 8165SOL     OW35953   3.893   0.596   7.290 -0.0147 -0.0037 -0.1757
 8165SOL    HW135954   3.869   0.684   7.319  0.1750 -0.8430  2.5574
 8165SOL    HW235955   3.926   0.554   7.370  2.4502  4.1057  0.9448
 8166SOL     OW35956   4.333   1.275   3.381  0.2819 -0.2259  0.3661
 8166SOL    HW135957   4.278   1.197   3.382  2.3288 -1.6385  2.2795
 8166SOL    HW235958   4.353   1.278   3.474 -1.7124  3.2700  0.6866
 8167SOL     OW35959   3.693   1.773   7.466 -0.6342 -0.8351 -0.5380
 8167SOL    HW135960   3.717   1.735   7.381  0.2066 -1.0241 -0.2087
 8167SOL    HW235961   3.598   1.764   7.468 -0.5257 -1.7439  0.3075
 8168SOL     OW35962   1.704   3.608   5.087  0.1957 -0.1440 -0.1223
 8168SOL    HW135963   1.704   3.636   5.179  2.0110  0.9091 -0.4316
 8168SOL    HW235964   1.738   3.683   5.039  1.6465 -0.8865 -0.2419
 8169SOL     OW35965   2.308   1.320   3.435 -0.5480  0.1537 -0.8014
 8169SOL    HW135966   2.264   1.320   3.350 -0.7405 -3.1316 -0.7047
 8169SOL    HW235967   2.326   1.226   3.443 -0.1090  0.0914 -2.6347
 8170SOL     OW35968   1.677   2.860   7.646  0.0780 -0.2859  0.5489
 8170SOL    HW135969   1.586   2.890   7.638  0.2764  0.1774 -0.0004
 8170SOL    HW235970   1.689   2.799   7.573  0.6764 -0.4389  0.7738
 8171SOL     OW35971   4.278   2.318   7.701  0.0528  0.0037 -0.0101
 8171SOL    HW135972   4.248   2.405   7.728 -0.0946  0.1153 -0.5293
 8171SOL    HW235973   4.242   2.315   7.612 -1.2228  0.1170  0.5068
 8172SOL     OW35974   2.570   0.332   6.911 -0.4750  0.2353 -0.0048
 8172SOL    HW135975   2.652   0.306   6.870 -1.1231 -0.5181 -0.8204
 8172SOL    HW235976   2.592   0.387   6.985 -4.0654  2.2991 -0.4474
 8173SOL     OW35977   1.795   1.584   8.506 -0.4381 -0.0425 -0.5529
 8173SOL    HW135978   1.821   1.493   8.499  0.8509  0.2629  0.1947
 8173SOL    HW235979   1.851   1.636   8.448  0.6409  1.4066  1.7649
 8174SOL     OW35980   1.087   0.282   7.451  0.1093  0.8485 -0.0285
 8174SOL    HW135981   1.084   0.366   7.404 -1.9320  1.1367  0.6075
 8174SOL    HW235982   1.145   0.292   7.527 -0.4422 -5.6051  1.2287
 8175SOL     OW35983   4.115   2.278  16.223 -0.0977  0.3225  0.4849
 8175SOL    HW135984   4.205   2.311  16.222  0.0288 -0.0329 -1.2196
 8175SOL    HW235985   4.091   2.305  16.311 -1.1236 -1.1374  0.6311
 8176SOL     OW35986   1.624   3.219  12.665 -0.3912 -0.1992 -0.0829
 8176SOL    HW135987   1.561   3.263  12.723  0.6857  1.4986 -0.2160
 8176SOL    HW235988   1.632   3.135  12.712  0.0428 -0.2651 -0.2760
 8177SOL     OW35989   2.410   1.812   6.848 -0.3965 -0.0844  0.2515
 8177SOL    HW135990   2.457   1.740   6.806 -1.4681 -0.4551 -0.3158
 8177SOL    HW235991   2.460   1.835   6.926 -0.5854  0.3612  0.2457
 8178SOL     OW35992   0.117   3.542  10.213 -0.0914 -0.1184 -0.6505
 8178SOL    HW135993   0.039   3.493  10.237  2.0368 -3.2369 -0.0670
 8178SOL    HW235994   0.181   3.475  10.190 -0.7670 -0.7946 -0.5256
 8179SOL     OW35995   2.638   0.955   5.970  1.0693 -0.3047  0.0142
 8179SOL    HW135996   2.615   0.870   5.932  0.2052  0.6289 -1.5577
 8179SOL    HW235997   2.627   1.019   5.899 -1.2732 -0.7055 -0.0037
 8180SOL     OW35998   3.718   4.716  11.213  0.2353 -0.2177  0.0199
 8180SOL    HW135999   3.807   4.682  11.221  0.1366 -0.7470 -1.1038
 8180SOL    HW236000   3.728   0.088  11.203  1.2415 -0.2267  0.9171
 8181SOL     OW36001   0.489   1.595   8.265 -0.2879  0.3460  0.1741
 8181SOL    HW136002   0.427   1.601   8.337 -2.4607 -1.0679 -1.5620
 8181SOL    HW236003   0.456   1.667   8.211  1.7886  1.4648  0.4115
 8182SOL     OW36004   0.147   1.216   1.758 -0.3543 -0.1662 -0.0669
 8182SOL    HW136005   0.115   1.233   1.847  2.4127  1.7332  0.5672
 8182SOL    HW236006   0.176   1.125   1.756  0.2000  0.0452 -1.4538
 8183SOL     OW36007   3.943   3.578   6.226 -0.4322 -0.4212  0.3550
 8183SOL    HW136008   3.984   3.540   6.304  0.1543  0.8425  0.6653
 8183SOL    HW236009   4.005   3.538   6.164 -1.5451  1.4274 -1.9567
 8184SOL     OW36010   0.458   2.721  10.196 -0.0543  0.7510  0.3712
 8184SOL    HW136011   0.445   2.815  10.183 -1.9819  0.5563  0.8426
 8184SOL    HW236012   0.370   2.690  10.218  0.3934 -1.8262 -1.5473
 8185SOL     OW36013   4.693   3.931   5.645 -0.1760 -0.5770  0.1043
 8185SOL    HW136014   4.681   4.017   5.686  0.3826 -0.3940 -0.1192
 8185SOL    HW236015   0.049   3.959   5.598  0.0941  0.9757  1.4977
 8186SOL     OW36016   2.202   4.189   8.041  0.7284 -0.1908 -0.6979
 8186SOL    HW136017   2.175   4.109   7.996 -1.1812 -0.5945  1.1703
 8186SOL    HW236018   2.250   4.237   7.974  2.1414 -0.6226  0.0031
 8187SOL     OW36019   0.017   0.978   6.490 -0.5308 -0.0239  0.0804
 8187SOL    HW136020   4.678   1.016   6.553  0.7141  2.4381 -0.1874
 8187SOL    HW236021   0.090   0.943   6.541 -0.0407  2.9884  1.4493
 8188SOL     OW36022   2.331   0.852   6.276  0.8745  0.5938  0.0298
 8188SOL    HW136023   2.355   0.818   6.362 -0.6251 -1.1611 -0.2228
 8188SOL    HW236024   2.285   0.934   6.295 -0.1420  0.5773 -2.4096
 8189SOL     OW36025   2.160   1.804   5.821  0.0787 -0.7594  0.0539
 8189SOL    HW136026   2.071   1.840   5.822  0.7838  1.0396 -0.8061
 8189SOL    HW236027   2.204   1.845   5.747 -0.4653  1.1780  0.7971
 8190SOL     OW36028   0.415   0.894  13.530  0.5533  0.0833 -0.1249
 8190SOL    HW136029   0.403   0.905  13.435  0.7274  3.0030  0.1890
 8190SOL    HW236030   0.332   0.921  13.569  0.6695 -1.9836  1.5869
 8191SOL     OW36031   1.019   0.083   2.961  0.2872 -0.4688 -0.6591
 8191SOL    HW136032   1.079   0.147   2.923 -1.0569  0.5507 -1.0573
 8191SOL    HW236033   1.032   0.004   2.908  0.7614  0.5307 -2.0375
 8192SOL     OW36034   4.442   3.175   9.488  0.2841  0.3563  0.2861
 8192SOL    HW136035   4.501   3.211   9.555 -0.3308  0.6682  0.6600
 8192SOL    HW236036   4.496   3.184   9.410  0.4008  0.6618  0.4020
 8193SOL     OW36037   4.609   0.404   3.044  0.0323  0.0533  0.9568
 8193SOL    HW136038   4.704   0.391   3.047 -0.1159 -0.9648  1.4966
 8193SOL    HW236039   4.581   0.325   3.090 -1.6751  0.3832  0.4804
 8194SOL     OW36040   0.149   1.047   4.388 -0.1208  0.3469  0.5916
 8194SOL    HW136041   0.140   0.992   4.466 -0.7568  0.5166  0.6349
 8194SOL    HW236042   0.115   0.985   4.323  2.6417 -1.1602  0.5480
 8195SOL     OW36043   3.501   0.942   4.465  0.2593  0.0614 -0.1337
 8195SOL    HW136044   3.497   0.857   4.510  0.9499 -0.4727 -1.0763
 8195SOL    HW236045   3.508   0.920   4.372  1.8573 -1.1528  0.2639
 8196SOL     OW36046   1.096   0.138  15.647 -0.0428  0.0682  0.0950
 8196SOL    HW136047   1.185   0.103  15.646 -0.4161 -0.8281 -1.6901
 8196SOL    HW236048   1.089   0.166  15.555  1.2815 -0.1755 -0.0827
 8197SOL     OW36049   0.647   4.571   7.548 -0.5683 -0.1222  0.1974
 8197SOL    HW136050   0.564   4.578   7.595  0.5379  1.8050  1.9466
 8197SOL    HW236051   0.696   4.647   7.582 -2.3818  1.0313  0.2486
 8198SOL     OW36052   1.605   2.416  17.277  0.7814 -0.0690 -0.3632
 8198SOL    HW136053   1.696   2.427  17.305  0.5197  0.9911  0.0434
 8198SOL    HW236054   1.617   2.343  17.216  0.2682  1.1761 -1.9414
 8199SOL     OW36055   1.787   3.517   7.489  0.4530  0.1866 -0.1314
 8199SOL    HW136056   1.723   3.447   7.477 -1.0884  1.2772  1.7735
 8199SOL    HW236057   1.864   3.460   7.483  0.5344  0.2706  0.1340
 8200SOL     OW36058   2.433   4.579   3.719  0.3384  0.2200 -0.1542
 8200SOL    HW136059   2.515   4.610   3.759 -0.8404  1.9918  0.9073
 8200SOL    HW236060   2.372   4.615   3.784  0.6975 -0.7939  0.7432
 8201SOL     OW36061   4.139   4.170   1.549 -0.0532 -0.1876  0.1593
 8201SOL    HW136062   4.119   4.143   1.460 -0.1404  0.4127  0.0008
 8201SOL    HW236063   4.121   4.089   1.598 -1.0584  0.8841  1.5549
 8202SOL     OW36064   3.460   3.023   2.879  0.0824  0.4394 -0.0958
 8202SOL    HW136065   3.448   3.099   2.935  3.4965  0.4598  0.6163
 8202SOL    HW236066   3.395   3.039   2.810 -1.4752  0.2995  1.3599
 8203SOL     OW36067   2.576   2.566   0.162 -0.8637 -0.1289  0.0302
 8203SOL    HW136068   2.643   2.572   0.094 -0.4576 -1.8378  0.2765
 8203SOL    HW236069   2.542   2.655   0.156  0.5134  0.3925 -0.1553
 8204SOL     OW36070   3.817   1.228   4.591 -0.3545  0.1940 -0.4659
 8204SOL    HW136071   3.829   1.195   4.502  1.7683 -1.2506  0.3533
 8204SOL    HW236072   3.906   1.218   4.624 -0.9293 -1.3027  0.5910
 8205SOL     OW36073   0.490   0.794   6.492  0.0785 -0.7324  0.1898
 8205SOL    HW136074   0.568   0.754   6.456  0.6200  1.4335 -1.0667
 8205SOL    HW236075   0.513   0.886   6.477  0.1801 -0.8218 -0.2035
 8206SOL     OW36076   0.292   3.594   3.628  0.0668  0.6103 -0.2132
 8206SOL    HW136077   0.377   3.634   3.643 -0.5024  1.4882  0.6851
 8206SOL    HW236078   0.298   3.534   3.554  1.3922 -0.5810  0.8761
 8207SOL     OW36079   2.805   0.369   4.517 -0.0357 -0.1907  0.1775
 8207SOL    HW136080   2.873   0.426   4.481 -0.0673  0.5657  1.2836
 8207SOL    HW236081   2.738   0.363   4.450  0.3452 -1.1638 -0.1209
 8208SOL     OW36082   4.553   4.259  15.618 -0.0075 -0.0989  0.1352
 8208SOL    HW136083   4.577   4.346  15.650 -3.3122  0.0472  2.2138
 8208SOL    HW236084   4.457   4.262  15.617 -0.0288 -0.1627  2.3256
 8209SOL     OW36085   1.931   4.629  16.981  0.4605  0.1728  0.4498
 8209SOL    HW136086   2.026   4.634  16.980  0.4190  0.4677 -1.8545
 8209SOL    HW236087   1.921   4.712  17.028  1.8801  0.7458 -0.2660
 8210SOL     OW36088   2.536   0.592  14.271  0.1120  0.1998 -0.2224
 8210SOL    HW136089   2.623   0.564  14.242  0.4180  0.7834  0.1402
 8210SOL    HW236090   2.488   0.619  14.193  0.1958 -1.5916 -0.9036
 8211SOL     OW36091   1.244   1.149   7.507 -0.5768  0.3404 -0.1244
 8211SOL    HW136092   1.296   1.127   7.429 -0.1013  1.0605 -0.0122
 8211SOL    HW236093   1.223   1.239   7.483 -0.6056  0.4570  0.3404
 8212SOL     OW36094   2.277   1.137   8.447 -0.2605 -0.1318  0.0016
 8212SOL    HW136095   2.192   1.094   8.446 -1.0227  1.4142 -1.4350
 8212SOL    HW236096   2.320   1.077   8.508 -0.2660 -1.2260 -1.0557
 8213SOL     OW36097   3.568   2.654   1.742 -0.4506 -0.8299  0.4013
 8213SOL    HW136098   3.500   2.589   1.759 -0.5050 -1.8563 -3.7356
 8213SOL    HW236099   3.544   2.683   1.654 -1.1929  1.3091  1.2957
 8214SOL     OW36100   2.399   0.280   6.716 -0.7104 -0.0144 -0.4766
 8214SOL    HW136101   2.430   0.189   6.718 -0.8176 -0.0145  1.1278
 8214SOL    HW236102   2.454   0.321   6.782 -1.0792 -1.8069  0.9403
 8215SOL     OW36103   2.766   4.132   8.099 -0.2177 -0.1914 -0.3945
 8215SOL    HW136104   2.740   4.049   8.059 -2.4242  0.0229  0.5566
 8215SOL    HW236105   2.826   4.097   8.165  3.1213  1.4655 -2.5771
 8216SOL     OW36106   0.253   4.104  16.559 -0.0716 -0.1504  0.2465
 8216SOL    HW136107   0.222   4.170  16.496 -3.3315 -0.7925  1.1564
 8216SOL    HW236108   0.220   4.139  16.642 -1.3671  0.8761 -0.6959
 8217SOL     OW36109   2.982   1.948   5.321  0.5346 -0.0116  0.4020
 8217SOL    HW136110   3.010   2.032   5.286  0.7098 -1.0042 -1.8251
 8217SOL    HW236111   3.066   1.919   5.355  0.9450  0.1937 -0.4316
 8218SOL     OW36112   1.537   2.894   4.163  0.4517 -0.2108 -0.4215
 8218SOL    HW136113   1.524   2.926   4.252 -0.0738  1.7170 -1.1721
 8218SOL    HW236114   1.605   2.953   4.132  0.3518 -0.6137 -1.4077
 8219SOL     OW36115   3.009   2.063  14.410 -0.1174 -0.0604  0.3691
 8219SOL    HW136116   2.929   2.025  14.373  0.3844 -0.7679  0.0251
 8219SOL    HW236117   3.043   1.983  14.450  0.8887  0.0752 -0.2361
 8220SOL     OW36118   1.892   0.964  10.396 -0.4488 -0.1736  0.1940
 8220SOL    HW136119   1.820   1.025  10.415  2.1285  2.2970  1.9577
 8220SOL    HW236120   1.928   0.999  10.315  0.3628  0.0110  0.6327
 8221SOL     OW36121   0.966   2.292   1.056 -0.7952  0.0906  0.1808
 8221SOL    HW136122   0.943   2.308   1.148  0.8747  1.8518  0.2969
 8221SOL    HW236123   0.891   2.251   1.014  1.3368 -1.0549 -2.5121
 8222SOL     OW36124   0.480   0.801   3.846  0.5537 -0.3326  0.7312
 8222SOL    HW136125   0.452   0.856   3.918 -0.0738  0.6973 -0.3070
 8222SOL    HW236126   0.433   0.841   3.773  1.7322 -2.0909 -1.0213
 8223SOL     OW36127   1.367   3.946   3.244 -0.1709 -0.4922 -0.3555
 8223SOL    HW136128   1.377   3.864   3.197 -0.8118  0.0676 -1.4589
 8223SOL    HW236129   1.285   3.978   3.205 -0.5058  1.9529  2.3318
 8224SOL     OW36130   1.468   3.156   1.216 -0.3099  0.3180 -0.0058
 8224SOL    HW136131   1.435   3.084   1.268  0.2635  0.2879  0.3190
 8224SOL    HW236132   1.445   3.230   1.272 -2.5717 -0.7305  0.4176
 8225SOL     OW36133   4.543   2.016   9.707  0.7414  0.1345  0.0069
 8225SOL    HW136134   4.527   1.966   9.626  0.6956 -1.3898  0.9519
 8225SOL    HW236135   4.484   2.085   9.678 -1.3796 -1.1601  1.2423
 8226SOL     OW36136   3.844   1.825   5.540 -0.5540 -0.0957  0.2798
 8226SOL    HW136137   3.776   1.775   5.493  1.8332 -1.6238 -1.5207
 8226SOL    HW236138   3.914   1.834   5.475 -1.2790 -1.8426 -0.7398
 8227SOL     OW36139   4.113   0.860  15.833  0.4388  0.1817 -0.2638
 8227SOL    HW136140   4.149   0.898  15.753  0.4200  0.7771  0.0161
 8227SOL    HW236141   4.066   0.936  15.864  1.0142 -0.1644  1.4558
 8228SOL     OW36142   2.003   1.931  11.420 -0.5551 -0.3443 -0.6990
 8228SOL    HW136143   1.988   1.919  11.514  2.2296 -0.9867 -0.3259
 8228SOL    HW236144   2.096   1.954  11.420 -0.4929 -0.5612  0.8960
 8229SOL     OW36145   2.369   0.714   7.845  0.2295  0.1337 -0.9150
 8229SOL    HW136146   2.396   0.803   7.865 -1.6448  0.1201  1.7285
 8229SOL    HW236147   2.451   0.665   7.840 -0.4373 -1.2566  1.5928
 8230SOL     OW36148   1.121   1.869  11.818 -0.5472  0.2574  0.5496
 8230SOL    HW136149   1.185   1.910  11.760  1.1467  0.3892  2.5562
 8230SOL    HW236150   1.155   1.780  11.818 -1.4135 -0.0822 -1.4239
 8231SOL     OW36151   0.410   4.122   6.093 -0.5818  0.0790 -0.0217
 8231SOL    HW136152   0.428   4.029   6.107  1.8148  0.1045 -2.7943
 8231SOL    HW236153   0.338   4.121   6.029 -1.0339  0.8818  0.4768
 8232SOL     OW36154   1.933   3.359   8.936  0.1254  0.7372  0.2320
 8232SOL    HW136155   1.850   3.312   8.946  0.0815  0.1634 -2.8024
 8232SOL    HW236156   1.994   3.293   8.902 -0.1954  0.1795  0.7650
 8233SOL     OW36157   4.119   1.221   5.428 -0.1270 -0.2582  0.0923
 8233SOL    HW136158   4.179   1.149   5.411 -2.3470 -1.8752 -0.7976
 8233SOL    HW236159   4.120   1.267   5.344 -2.6338  1.6533  1.1164
 8234SOL     OW36160   3.601   2.648   2.290 -0.3354 -0.9390  0.0773
 8234SOL    HW136161   3.628   2.583   2.354  0.0417 -0.7353  0.1201
 8234SOL    HW236162   3.673   2.644   2.228  0.4558  0.9722  0.8790
 8235SOL     OW36163   1.360   1.151   5.956 -0.0012 -0.1234 -0.6459
 8235SOL    HW136164   1.444   1.167   6.001 -0.4742  1.6602 -0.3966
 8235SOL    HW236165   1.338   1.072   6.005 -2.5049  1.1691  0.2659
 8236SOL     OW36166   3.152   2.650   1.097 -0.0636  0.2894 -0.1802
 8236SOL    HW136167   3.061   2.620   1.092  0.0918 -0.2356  0.1804
 8236SOL    HW236168   3.145   2.740   1.063  1.8575  0.0765 -1.0990
 8237SOL     OW36169   3.734   1.935   0.175 -0.5997  0.1033 -0.0264
 8237SOL    HW136170   3.816   1.914   0.221  0.1109 -1.2063 -1.8699
 8237SOL    HW236171   3.775   1.971   0.097 -0.8958  0.5218  0.0119
 8238SOL     OW36172   0.415   2.013   8.536 -0.1169 -0.3719  0.2796
 8238SOL    HW136173   0.476   1.945   8.562 -0.8325 -0.8551  0.6906
 8238SOL    HW236174   0.378   2.056   8.613 -1.0391  1.3446 -1.0929
 8239SOL     OW36175   4.391   0.993   8.434 -0.0633  0.0216  0.0449
 8239SOL    HW136176   4.362   0.911   8.395  1.9406 -0.6203 -0.0618
 8239SOL    HW236177   4.432   0.967   8.516  1.7480  0.6837 -0.6608
 8240SOL     OW36178   4.476   0.948   3.495  0.1025  0.1343 -0.0935
 8240SOL    HW136179   4.477   1.023   3.555 -1.0468  0.3789 -0.3656
 8240SOL    HW236180   4.383   0.946   3.472  0.2505 -1.1041 -0.5981
 8241SOL     OW36181   0.112   1.798   8.252 -0.2257  0.4383 -0.2577
 8241SOL    HW136182   0.180   1.859   8.280  0.0877  0.0788 -0.2338
 8241SOL    HW236183   0.125   1.738   8.325 -0.4108  0.7079 -0.0049
 8242SOL     OW36184   2.324   4.615  12.868 -0.0702 -0.0365 -0.1696
 8242SOL    HW136185   2.247   4.628  12.924  0.6651 -0.5125  0.9573
 8242SOL    HW236186   2.298   4.543  12.811  0.9989  0.2595 -1.0399
 8243SOL     OW36187   0.627   4.575   6.852 -0.2024  0.0253 -0.7400
 8243SOL    HW136188   0.690   4.538   6.914  1.0956  0.9722 -1.5171
 8243SOL    HW236189   0.612   4.659   6.895 -0.6616 -1.3074  1.6875
 8244SOL     OW36190   1.363   0.423   4.466 -0.4670  0.3914  0.4507
 8244SOL    HW136191   1.278   0.462   4.446  0.3523  2.2016  0.5366
 8244SOL    HW236192   1.399   0.414   4.377  0.6689  2.7036  0.6672
 8245SOL     OW36193   3.829   3.831   6.938  0.5220  0.1279 -1.0248
 8245SOL    HW136194   3.838   3.896   7.008  1.6197 -0.3645 -0.7124
 8245SOL    HW236195   3.805   3.755   6.991  0.7607  1.0144  0.3457
 8246SOL     OW36196   4.360   1.088   5.350 -0.4382  0.4779 -0.2635
 8246SOL    HW136197   4.336   1.015   5.292 -1.2733  1.2542 -0.8789
 8246SOL    HW236198   4.453   1.092   5.327 -0.2248  1.1882  0.7250
 8247SOL     OW36199   3.065   1.178   8.341  0.1120 -0.2954 -0.3342
 8247SOL    HW136200   3.140   1.206   8.289 -0.2257 -1.1426 -1.2880
 8247SOL    HW236201   3.117   1.117   8.393  2.6924  0.9765 -1.4693
 8248SOL     OW36202   4.425   0.884   4.560  0.2847 -0.3720 -0.3546
 8248SOL    HW136203   4.457   0.800   4.594  0.2959  0.1206  0.8402
 8248SOL    HW236204   4.335   0.887   4.592 -0.3332  0.1051 -2.1634
 8249SOL     OW36205   4.043   1.511   5.438 -0.3920 -0.1186 -0.7017
 8249SOL    HW136206   4.043   1.563   5.518 -0.9621  0.8715 -1.3296
 8249SOL    HW236207   4.053   1.426   5.479 -0.0986 -0.2351 -1.0145
 8250SOL     OW36208   1.646   0.121   8.897  0.2811  0.2315  0.4164
 8250SOL    HW136209   1.706   0.196   8.898 -0.0291  0.5066 -1.6987
 8250SOL    HW236210   1.705   0.046   8.888  0.0575  0.1141 -0.1100
 8251SOL     OW36211   1.603   2.810   6.258 -0.4998  0.3194 -0.4573
 8251SOL    HW136212   1.673   2.871   6.237  0.5040 -0.1295  1.6217
 8251SOL    HW236213   1.646   2.757   6.325 -0.2519 -0.8037 -1.4976
 8252SOL     OW36214   3.583   0.193  13.145  0.3914  0.2106 -0.3600
 8252SOL    HW136215   3.496   0.221  13.117  1.0752 -0.8854 -3.5354
 8252SOL    HW236216   3.635   0.271  13.125 -0.6724  1.8388  3.1742
 8253SOL     OW36217   3.894   4.486   0.851 -0.0962 -0.0284 -0.6893
 8253SOL    HW136218   3.866   4.491   0.760  0.7304 -0.4514 -0.9739
 8253SOL    HW236219   3.839   4.542   0.906 -1.2936 -1.7809 -0.1003
 8254SOL     OW36220   0.950   4.555   4.860 -0.1568  0.7605 -0.2625
 8254SOL    HW136221   0.947   4.543   4.955  0.2017 -0.7098 -0.4345
 8254SOL    HW236222   0.994   4.640   4.852  0.4696  0.5881  1.4341
 8255SOL     OW36223   1.089   0.901  13.896 -0.0224 -0.0395 -0.0927
 8255SOL    HW136224   1.148   0.829  13.874  1.2615  0.6603  0.9929
 8255SOL    HW236225   1.152   0.974  13.892  0.2525 -0.2699  0.0080
 8256SOL     OW36226   4.198   3.405  12.296  0.3680  0.2324  0.3236
 8256SOL    HW136227   4.204   3.347  12.220 -2.6816  1.9522 -1.2155
 8256SOL    HW236228   4.274   3.388  12.351  0.6570  1.2238  0.2165
 8257SOL     OW36229   2.246   1.370   8.645  0.1480  0.7417 -0.4174
 8257SOL    HW136230   2.325   1.369   8.699  0.5488  1.4905 -0.9959
 8257SOL    HW236231   2.267   1.290   8.597 -1.6002  0.6357 -0.9846
 8258SOL     OW36232   1.216   3.929   0.837  0.4486  0.3457 -0.1459
 8258SOL    HW136233   1.160   3.995   0.797 -1.1617  0.1032  1.7498
 8258SOL    HW236234   1.153   3.858   0.850  1.1212 -0.2747 -0.2907
 8259SOL     OW36235   0.996   0.685  10.765  0.5135  0.1462  0.7130
 8259SOL    HW136236   0.902   0.697  10.778  0.1315 -1.9952 -0.0934
 8259SOL    HW236237   1.003   0.590  10.756 -0.7327 -0.0149  1.4247
 8260SOL     OW36238   0.689   4.556   5.910  0.4143 -0.1891 -0.2781
 8260SOL    HW136239   0.663   4.517   5.993 -2.2724 -1.7412 -1.8779
 8260SOL    HW236240   0.660   4.645   5.929 -0.1811 -0.2795 -0.7593
 8261SOL     OW36241   3.698   2.121   2.838 -0.0909 -0.0881  0.1183
 8261SOL    HW136242   3.726   2.097   2.750 -0.9558 -0.3570 -0.0901
 8261SOL    HW236243   3.747   2.062   2.895 -2.8544 -1.0059  1.5575
 8262SOL     OW36244   3.339   0.372  14.079 -0.1190 -0.0669 -0.5298
 8262SOL    HW136245   3.355   0.454  14.034  1.6918 -1.0457 -1.6549
 8262SOL    HW236246   3.428   0.337  14.074 -0.0425  0.4651 -2.7678
 8263SOL     OW36247   2.056   3.326   7.885 -0.1590 -0.4580  0.1544
 8263SOL    HW136248   2.105   3.247   7.866  4.4993  2.4826 -0.0599
 8263SOL    HW236249   1.966   3.294   7.894  1.1044 -4.0244  0.0935
 8264SOL     OW36250   1.217   0.437   2.189 -0.0594  0.3183  0.1178
 8264SOL    HW136251   1.131   0.396   2.193  0.6965 -1.3020 -0.2685
 8264SOL    HW236252   1.216   0.483   2.273  1.4364  0.7892 -0.1103
 8265SOL     OW36253   2.037   1.111  14.638 -0.1435  0.4362  0.3145
 8265SOL    HW136254   2.098   1.185  14.648 -1.3367  1.4238  0.2640
 8265SOL    HW236255   1.956   1.149  14.604 -0.3432 -0.0529  0.2459
 8266SOL     OW36256   0.828   4.533  12.896 -0.1593  0.3946  0.3312
 8266SOL    HW136257   0.785   4.448  12.898 -0.2244  0.4356  0.7360
 8266SOL    HW236258   0.795   4.567  12.980  0.9471  1.8914  0.1605
 8267SOL     OW36259   0.650   3.233   8.914  0.1670  0.5510  0.1011
 8267SOL    HW136260   0.679   3.293   8.846  0.4432  0.5326  0.2037
 8267SOL    HW236261   0.558   3.259   8.924 -0.7478 -1.9972 -1.7523
 8268SOL     OW36262   1.767   3.093   4.096 -0.0671  0.0111 -0.5171
 8268SOL    HW136263   1.750   3.172   4.045 -3.4388 -0.3295  0.0765
 8268SOL    HW236264   1.781   3.125   4.185 -0.8381 -0.6999 -0.1339
 8269SOL     OW36265   3.325   1.053  13.111  0.4975  0.0738  0.2130
 8269SOL    HW136266   3.416   1.071  13.133 -0.1039  1.7808  1.2457
 8269SOL    HW236267   3.277   1.065  13.193  0.8743  0.7710  0.3296
 8270SOL     OW36268   0.063   1.976   3.942 -0.2895  0.3002  0.9539
 8270SOL    HW136269   0.016   1.912   3.996 -0.3508  1.0699  1.8121
 8270SOL    HW236270   0.126   2.013   4.003  1.0270  1.7117 -1.2570
 8271SOL     OW36271   0.059   3.567  12.293  0.0196  0.2684  0.1189
 8271SOL    HW136272   0.054   3.498  12.359 -0.2524  0.4471  0.2824
 8271SOL    HW236273   4.697   3.550  12.253 -0.9918  0.2336  2.2898
 8272SOL     OW36274   3.122   3.809   0.776 -0.3787  0.3004  0.3446
 8272SOL    HW136275   3.049   3.769   0.825 -0.7629 -2.8963 -2.8128
 8272SOL    HW236276   3.188   3.741   0.791 -1.4203 -1.1137 -1.4339
 8273SOL     OW36277   2.391   3.145   2.860 -0.0724 -0.6058 -0.3456
 8273SOL    HW136278   2.314   3.147   2.802  0.4562 -1.8048 -1.0772
 8273SOL    HW236279   2.461   3.171   2.800 -0.8306 -1.8352 -1.7769
 8274SOL     OW36280   0.554   4.292   5.741  0.2210 -0.1725  0.7874
 8274SOL    HW136281   0.550   4.378   5.782 -1.0036 -0.4719  1.3001
 8274SOL    HW236282   0.470   4.249   5.760 -0.6310  1.4180  0.6147
 8275SOL     OW36283   4.661   2.052   1.271  0.0863  0.0023  0.5122
 8275SOL    HW136284   4.625   2.080   1.188 -1.6728  2.0700  1.9895
 8275SOL    HW236285   0.008   2.118   1.278  0.7259 -0.8174  2.1298
 8276SOL     OW36286   2.512   0.251   3.732  0.0689  0.4141 -0.1811
 8276SOL    HW136287   2.607   0.249   3.721  0.1500  0.0229  0.6572
 8276SOL    HW236288   2.490   0.240   3.639  0.2332 -0.0622 -0.1627
 8277SOL     OW36289   1.248   0.439  15.447  0.1399 -0.3662 -0.1853
 8277SOL    HW136290   1.312   0.499  15.409  0.5934 -1.0135 -0.4531
 8277SOL    HW236291   1.257   0.366  15.385 -0.8080  0.4922 -1.3442
 8278SOL     OW36292   2.924   1.430   4.808 -0.6477  0.2376 -0.1727
 8278SOL    HW136293   2.931   1.374   4.731 -0.8358 -2.0703  1.4852
 8278SOL    HW236294   2.861   1.499   4.790  0.1501  1.3828  1.4377
 8279SOL     OW36295   2.034   1.959   8.983 -0.2426  0.2092 -0.2715
 8279SOL    HW136296   2.055   1.934   9.073 -0.5506  1.2501  0.0853
 8279SOL    HW236297   1.943   1.986   8.991 -0.5117 -0.3705 -1.3244
 8280SOL     OW36298   2.745   4.013   4.275  0.4818  0.2238 -0.0627
 8280SOL    HW136299   2.803   4.047   4.206  0.8915  0.9809  0.6600
 8280SOL    HW236300   2.803   3.961   4.330  0.5821  0.7259  0.3052
 8281SOL     OW36301   1.695   0.877   1.918  0.2054  0.1137  0.9316
 8281SOL    HW136302   1.790   0.888   1.928  0.1404  1.1044  0.5174
 8281SOL    HW236303   1.689   0.787   1.948  1.8125 -0.1925  0.3251
 8282SOL     OW36304   0.030   3.344   5.164  0.0954  0.1063 -0.3240
 8282SOL    HW136305   4.719   3.290   5.092 -1.0339 -0.1936  0.4146
 8282SOL    HW236306   4.673   3.395   5.178 -0.6085 -1.3140  0.8680
 8283SOL     OW36307   2.919   1.498   4.342 -0.7024 -0.2931  0.3470
 8283SOL    HW136308   2.836   1.457   4.317  0.9080 -2.1597 -1.9030
 8283SOL    HW236309   2.902   1.579   4.295  2.3365  0.0128 -0.2163
 8284SOL     OW36310   2.205   4.056   1.589  0.2324 -0.7906 -0.0664
 8284SOL    HW136311   2.270   4.119   1.619  0.5884 -0.8464 -0.7261
 8284SOL    HW236312   2.209   4.001   1.667 -1.4237 -0.7390  0.0546
 8285SOL     OW36313   3.466   1.540   3.612 -0.3070  0.1633  0.3374
 8285SOL    HW136314   3.474   1.471   3.546  2.5591  1.1044 -0.2882
 8285SOL    HW236315   3.389   1.512   3.662 -0.4436 -0.4948 -0.2324
 8286SOL     OW36316   0.886   3.557  13.378  0.0505 -0.4314  0.2159
 8286SOL    HW136317   0.947   3.582  13.309 -0.2303  1.1492  0.5500
 8286SOL    HW236318   0.910   3.616  13.449 -0.8721 -1.4755  1.4024
 8287SOL     OW36319   4.293   0.795  11.091  1.1278  0.5094  0.3469
 8287SOL    HW136320   4.242   0.865  11.050  1.3717  1.8820  2.4365
 8287SOL    HW236321   4.272   0.817  11.182  0.4308  1.9749 -0.1695
 8288SOL     OW36322   2.221   4.443  11.539 -0.5555 -0.4552 -0.2718
 8288SOL    HW136323   2.302   4.424  11.586 -0.4773  2.7368  0.8925
 8288SOL    HW236324   2.235   4.411  11.450  0.4920 -0.4334 -0.1167
 8289SOL     OW36325   4.433   3.133   8.047  0.3679  0.9181  0.1278
 8289SOL    HW136326   4.450   3.064   8.110  1.4032  0.0781 -1.0623
 8289SOL    HW236327   4.432   3.075   7.971  5.6195 -0.8373  1.4190
 8290SOL     OW36328   2.656   2.056   4.336  0.0052 -0.5083 -0.0052
 8290SOL    HW136329   2.562   2.047   4.350 -0.0503 -0.8922 -0.5837
 8290SOL    HW236330   2.660   2.148   4.311  2.8871 -0.2366  1.4819
 8291SOL     OW36331   4.282   1.704   5.974  0.2437 -0.0356 -0.3280
 8291SOL    HW136332   4.295   1.673   5.884  1.4807 -2.4254  0.6898
 8291SOL    HW236333   4.187   1.717   5.971  0.1473 -0.5841  0.6639
 8292SOL     OW36334   4.188   4.001   7.761 -0.4548  0.2738  0.0479
 8292SOL    HW136335   4.187   4.055   7.839 -0.3956  0.5108 -0.1160
 8292SOL    HW236336   4.097   3.969   7.762 -0.9434  1.5960 -1.1659
 8293SOL     OW36337   3.570   0.120   9.540  0.3844 -0.1375 -0.0314
 8293SOL    HW136338   3.608   0.206   9.556 -1.4204  0.4417  1.1861
 8293SOL    HW236339   3.512   0.134   9.466  1.1018  0.7864 -0.4223
 8294SOL     OW36340   4.333   0.261   5.410 -0.4243 -0.1770  0.1371
 8294SOL    HW136341   4.378   0.186   5.448 -2.0374 -0.9684  0.5000
 8294SOL    HW236342   4.286   0.292   5.487 -0.0749  0.6065  0.0231
 8295SOL     OW36343   3.878   4.386   1.348  0.0043 -0.5189 -0.1470
 8295SOL    HW136344   3.942   4.442   1.305 -2.6177  1.9110 -0.8815
 8295SOL    HW236345   3.796   4.431   1.326 -0.3867 -0.4118  1.5252
 8296SOL     OW36346   2.584   0.071   6.722  0.0544 -0.2302 -0.4592
 8296SOL    HW136347   2.638   4.720   6.752 -1.1208 -0.8393  0.1825
 8296SOL    HW236348   2.643   0.131   6.676 -0.5739 -0.5797 -1.7113
 8297SOL     OW36349   4.627   3.953   4.810  0.0537 -0.3614  0.2147
 8297SOL    HW136350   4.644   3.893   4.883 -1.9211 -0.5483  0.5184
 8297SOL    HW236351   4.613   3.889   4.740  3.0729  0.0361 -0.7544
 8298SOL     OW36352   2.576   1.736  12.953  0.0137 -0.4549  0.2524
 8298SOL    HW136353   2.613   1.696  13.032  1.3814  0.8695  0.2814
 8298SOL    HW236354   2.655   1.727  12.899 -0.8987  0.0265 -1.1708
 8299SOL     OW36355   2.476   1.959   5.717 -0.4561  0.1658  0.2459
 8299SOL    HW136356   2.393   1.919   5.693 -1.0326  1.1740  0.5760
 8299SOL    HW236357   2.460   2.054   5.711 -3.2960 -0.2679  1.3433
 8300SOL     OW36358   0.245   4.002   5.894  0.1406  0.4204  0.3200
 8300SOL    HW136359   0.265   3.912   5.868 -1.6857  0.7738 -2.2951
 8300SOL    HW236360   0.273   4.046   5.814 -1.0056 -0.2218 -0.4365
 8301SOL     OW36361   2.232   4.040  11.720  0.2760 -0.3969 -0.6033
 8301SOL    HW136362   2.261   3.986  11.794 -1.2430 -0.2899  0.0600
 8301SOL    HW236363   2.304   4.103  11.733  1.2171 -1.8444  1.2249
 8302SOL     OW36364   0.688   4.201   4.290  0.4911 -1.0023 -0.2390
 8302SOL    HW136365   0.605   4.187   4.244 -0.7579  0.1702  1.7051
 8302SOL    HW236366   0.682   4.290   4.325 -0.0270 -0.1388 -2.5367
 8303SOL     OW36367   0.039   0.097   7.102  0.2712 -0.2097  0.0449
 8303SOL    HW136368   0.102   0.088   7.031  1.6919  2.7318  0.9370
 8303SOL    HW236369   0.103   0.109   7.172  1.3168 -0.5161 -0.8499
 8304SOL     OW36370   1.036   3.511   7.605  0.3278  0.4305 -0.9539
 8304SOL    HW136371   1.062   3.475   7.520 -0.5012 -0.4795 -0.8181
 8304SOL    HW236372   0.989   3.588   7.573  1.6238  2.1801  1.3883
 8305SOL     OW36373   1.417   1.704   1.011 -1.0880  0.1544 -0.4424
 8305SOL    HW136374   1.356   1.686   0.940 -1.5564  0.4042 -0.1024
 8305SOL    HW236375   1.398   1.797   1.028 -0.0582  0.1418  0.7750
 8306SOL     OW36376   0.365   1.820  11.536 -0.1296 -0.2614  0.4482
 8306SOL    HW136377   0.270   1.820  11.529 -0.2390  0.4397  1.8740
 8306SOL    HW236378   0.364   1.784  11.447 -2.3289  2.6152 -0.6899
 8307SOL     OW36379   2.436   0.507   3.112  0.2272 -0.5400 -1.2389
 8307SOL    HW136380   2.395   0.505   3.199 -0.4827  1.6330 -1.5351
 8307SOL    HW236381   2.530   0.518   3.129 -0.2126 -0.5663  1.1930
 8308SOL     OW36382   0.050   3.918   6.849  0.5027  0.3235 -0.4817
 8308SOL    HW136383   0.002   3.954   6.774 -1.9877 -2.0808 -0.0595
 8308SOL    HW236384   0.119   3.862   6.813 -0.3410 -1.1152  0.1264
 8309SOL     OW36385   0.272   3.969   7.440  0.0559 -0.5154 -0.1080
 8309SOL    HW136386   0.254   3.880   7.469 -1.8334  0.1234  0.7341
 8309SOL    HW236387   0.283   3.947   7.347 -1.1498  1.9826 -0.8719
 8310SOL     OW36388   2.637   2.317   4.310  0.0958 -0.1031 -0.0663
 8310SOL    HW136389   2.609   2.323   4.401  3.9500  1.1067  1.0049
 8310SOL    HW236390   2.653   2.409   4.290 -0.1212 -0.2111 -0.7566
 8311SOL     OW36391   2.741   1.864  15.299  0.5192  0.2250 -0.0912
 8311SOL    HW136392   2.717   1.800  15.233 -1.7121 -1.0565  1.9731
 8311SOL    HW236393   2.834   1.842  15.296  0.0418 -2.2649  3.0775
 8312SOL     OW36394   3.512   3.558  15.949 -0.4323  0.3227 -0.1914
 8312SOL    HW136395   3.524   3.652  15.937  0.8367 -0.1109 -2.2408
 8312SOL    HW236396   3.568   3.527  16.021  1.3784  0.6428 -1.4747
 8313SOL     OW36397   2.945   3.096   3.175  0.2239  0.0856 -0.4367
 8313SOL    HW136398   3.039   3.080   3.166  0.3103 -0.2215  0.9898
 8313SOL    HW236399   2.914   3.014   3.213  1.0906 -0.0255  0.0230
 8314SOL     OW36400   2.575   0.464   7.147 -0.1753 -0.1169 -0.1471
 8314SOL    HW136401   2.615   0.450   7.232  1.6584 -2.9391 -1.4816
 8314SOL    HW236402   2.495   0.413   7.157 -1.1236  1.8930  2.4462
 8315SOL     OW36403   2.145   2.766   7.548  0.6191  0.7287 -0.2337
 8315SOL    HW136404   2.228   2.778   7.594 -1.3271  0.0388  3.4968
 8315SOL    HW236405   2.180   2.734   7.465 -1.8101 -1.8808 -0.2443
 8316SOL     OW36406   4.144   4.254  10.160  0.2414 -0.4468  0.3911
 8316SOL    HW136407   4.192   4.331  10.127 -1.9347  1.1011  0.8208
 8316SOL    HW236408   4.190   4.185  10.113  1.0539 -1.4006  2.5979
 8317SOL     OW36409   2.438   0.299   1.054 -0.2429  0.8054 -0.2120
 8317SOL    HW136410   2.522   0.253   1.057 -0.9088 -0.3201  1.1162
 8317SOL    HW236411   2.383   0.220   1.050 -0.6048  0.9970  1.2058
 8318SOL     OW36412   3.230   4.602   7.413 -0.2730 -0.7243  0.0829
 8318SOL    HW136413   3.261   4.573   7.499 -0.7978 -2.7298 -0.3997
 8318SOL    HW236414   3.267   4.539   7.351  0.3935  0.0082 -0.2713
 8319SOL     OW36415   4.496   2.381   2.644 -0.3929  0.2583  0.0815
 8319SOL    HW136416   4.454   2.357   2.727 -1.1611 -0.0040 -0.3773
 8319SOL    HW236417   4.426   2.340   2.592 -0.9906  0.0453  1.0555
 8320SOL     OW36418   0.921   2.326   9.466  0.0123  0.1556 -0.5520
 8320SOL    HW136419   1.003   2.293   9.429  1.1835  1.3164  0.9762
 8320SOL    HW236420   0.946   2.385   9.538 -3.9852 -0.6562  1.5229
 8321SOL     OW36421   4.598   2.825   9.969  0.0467  0.5151 -0.1450
 8321SOL    HW136422   4.550   2.745   9.948 -0.1265  0.9303 -1.3275
 8321SOL    HW236423   4.528   2.868  10.017 -0.1580  1.7443 -1.5334
 8322SOL     OW36424   2.759   2.434  17.569  0.1940  0.1781  0.5932
 8322SOL    HW136425   2.781   2.524  17.590  0.4072  0.7710 -2.1852
 8322SOL    HW236426   2.773   2.389  17.653  0.2853  1.9233  1.4949
 8323SOL     OW36427   2.460   3.927   4.170  0.3978  0.5420 -0.4250
 8323SOL    HW136428   2.548   3.943   4.204 -0.2137  0.3695  1.2143
 8323SOL    HW236429   2.450   3.832   4.179 -1.6688  1.0814  3.1061
 8324SOL     OW36430   3.678   3.277   1.872  0.0111 -0.1015  0.2471
 8324SOL    HW136431   3.591   3.316   1.861  1.1178  1.7681 -1.7236
 8324SOL    HW236432   3.726   3.341   1.924  1.6696 -0.3934 -0.9362
 8325SOL     OW36433   3.036   2.092  16.113  0.6775 -0.2758  0.4427
 8325SOL    HW136434   3.061   2.160  16.175 -0.4566 -1.1400  1.8556
 8325SOL    HW236435   3.047   2.011  16.164  0.9517 -1.0632 -0.8650
 8326SOL     OW36436   3.618   1.497  14.563 -0.2461 -0.0149  0.1208
 8326SOL    HW136437   3.653   1.558  14.628  1.0505  1.6136 -2.1233
 8326SOL    HW236438   3.650   1.412  14.596  0.6721 -0.3120 -1.5544
 8327SOL     OW36439   2.595   2.370   6.260 -0.9253  0.2228 -0.2488
 8327SOL    HW136440   2.644   2.295   6.293 -1.0295 -0.7700 -2.3670
 8327SOL    HW236441   2.617   2.441   6.321  1.0849 -1.9767  1.5739
 8328SOL     OW36442   1.956   1.109  10.168  0.4678  0.0674 -0.4080
 8328SOL    HW136443   1.898   1.146  10.102 -0.9128  1.2502  1.4847
 8328SOL    HW236444   2.005   1.189  10.186 -0.9085  0.6971  0.4753
 8329SOL     OW36445   2.127   1.549  16.351  0.0240  0.0414 -0.2447
 8329SOL    HW136446   2.066   1.576  16.420 -0.0872 -0.2133 -0.2454
 8329SOL    HW236447   2.182   1.489  16.401 -2.5556 -0.8833  1.4484
 8330SOL     OW36448   4.688   2.668   3.243 -0.3589  0.0219 -0.2660
 8330SOL    HW136449   4.662   2.752   3.280  0.7479  1.1513 -2.0781
 8330SOL    HW236450   0.038   2.652   3.303 -1.5542  1.4161  1.5554
 8331SOL     OW36451   3.553   0.291   2.299 -0.1478  0.2750  0.3490
 8331SOL    HW136452   3.608   0.220   2.266 -2.1972 -0.8827 -0.5575
 8331SOL    HW236453   3.556   0.343   2.219 -3.3078  0.4625  0.3737
 8332SOL     OW36454   1.382   1.521   9.473  0.3420 -0.3170 -0.1048
 8332SOL    HW136455   1.404   1.547   9.384 -2.1087 -0.9309 -0.9087
 8332SOL    HW236456   1.404   1.607   9.508 -0.1833 -0.9034  1.6817
 8333SOL     OW36457   4.588   3.463   1.466 -0.0939  0.2325 -0.7692
 8333SOL    HW136458   4.608   3.398   1.398 -1.1554 -0.7119 -0.1850
 8333SOL    HW236459   4.574   3.412   1.546  0.8508  1.2828  0.0633
 8334SOL     OW36460   2.557   0.088   7.652 -0.3437 -0.0155 -0.4423
 8334SOL    HW136461   2.595   0.074   7.739  1.8080 -1.5938 -1.6231
 8334SOL    HW236462   2.637   0.089   7.599 -0.9639  0.5057 -1.3635
 8335SOL     OW36463   1.644   3.924   6.253 -0.1209  0.0485  0.3864
 8335SOL    HW136464   1.717   3.968   6.297 -0.6706  1.0013  0.3436
 8335SOL    HW236465   1.650   3.966   6.167  0.2089 -2.2512 -0.7228
 8336SOL     OW36466   2.636   2.347   5.383 -0.4841  0.3025  0.2760
 8336SOL    HW136467   2.713   2.371   5.434  1.9659 -0.1071 -3.2428
 8336SOL    HW236468   2.623   2.254   5.405  1.3007  0.4528  1.9791
 8337SOL     OW36469   2.234   3.511   5.590  0.5240  0.7338  0.2554
 8337SOL    HW136470   2.258   3.569   5.662  1.3060 -1.8222  2.0498
 8337SOL    HW236471   2.175   3.453   5.638  0.3035 -1.2978 -2.4615
 8338SOL     OW36472   1.819   3.151  16.977  0.5659 -0.3252 -0.6247
 8338SOL    HW136473   1.877   3.081  16.946  0.9677  0.1342 -0.9156
 8338SOL    HW236474   1.879   3.196  17.036 -1.7771  0.8689  0.8428
 8339SOL     OW36475   1.291   3.135   2.534  0.0049  0.3436  0.7467
 8339SOL    HW136476   1.305   3.055   2.584 -2.1163 -1.2760 -1.2363
 8339SOL    HW236477   1.198   3.124   2.517 -0.5242  3.4727  1.5773
 8340SOL     OW36478   2.757   0.105   7.448 -0.0001 -0.4592 -0.0945
 8340SOL    HW136479   2.838   0.059   7.427  0.0764  0.5565 -2.0268
 8340SOL    HW236480   2.696   0.052   7.397  0.9415 -1.5103 -0.1440
 8341SOL     OW36481   1.848   0.682   0.238  0.4162 -0.3081  0.5009
 8341SOL    HW136482   1.931   0.700   0.193  0.4565  0.5731  0.9272
 8341SOL    HW236483   1.789   0.691   0.164  1.5915 -0.5831 -0.4620
 8342SOL     OW36484   4.412   2.855   6.365  0.3187 -0.1241  0.3550
 8342SOL    HW136485   4.337   2.892   6.319  1.8121 -1.7607 -3.4317
 8342SOL    HW236486   4.427   2.914   6.439 -2.4543  0.2819  0.5976
 8343SOL     OW36487   4.256   3.717  10.598  0.2205 -0.5576 -0.2695
 8343SOL    HW136488   4.178   3.718  10.542  0.3031 -1.5449 -0.4030
 8343SOL    HW236489   4.301   3.800  10.583 -1.7797  0.4444 -0.7868
 8344SOL     OW36490   0.113   1.400  10.885  0.1363 -0.2859 -0.2326
 8344SOL    HW136491   0.188   1.345  10.908  0.9867  0.2351 -1.7430
 8344SOL    HW236492   0.158   1.458  10.824 -0.1967 -0.5323 -0.7154
 8345SOL     OW36493   0.397   1.004   1.963  0.3742  0.1292 -0.0894
 8345SOL    HW136494   0.419   0.914   1.940 -0.4764 -0.4633  1.4090
 8345SOL    HW236495   0.440   1.049   1.891  0.1206  0.2957 -0.1356
 8346SOL     OW36496   3.032   1.049   7.963 -0.4366 -0.2457  0.3543
 8346SOL    HW136497   2.942   1.015   7.969 -0.1873 -1.0196 -0.2337
 8346SOL    HW236498   3.082   1.005   8.032  0.5054  0.2684  0.0015
 8347SOL     OW36499   1.984   0.276   6.508 -0.2306 -0.5595  0.2212
 8347SOL    HW136500   2.026   0.327   6.577 -1.2452 -1.3715  1.4423
 8347SOL    HW236501   1.906   0.326   6.485  0.3418  0.7674  1.1511
 8348SOL     OW36502   3.377   2.775   7.563  0.6480 -0.9902  0.2598
 8348SOL    HW136503   3.293   2.814   7.588  2.6351  1.5735  2.9182
 8348SOL    HW236504   3.364   2.794   7.470  3.3729  1.2393  0.3514
 8349SOL     OW36505   3.318   1.252   7.426 -0.1570  0.2654  0.3953
 8349SOL    HW136506   3.339   1.193   7.498  0.9236  0.7310  0.4698
 8349SOL    HW236507   3.262   1.186   7.386 -0.4830  1.7735 -1.6215
 8350SOL     OW36508   3.645   2.431   6.936 -0.1323  0.1275  0.0530
 8350SOL    HW136509   3.691   2.483   6.870  1.7677 -2.1686 -0.4457
 8350SOL    HW236510   3.706   2.424   7.009 -2.0439  1.7251  1.7854
 8351SOL     OW36511   0.841   2.181   2.172  0.2855  0.5730  0.2514
 8351SOL    HW136512   0.862   2.216   2.258  2.0313 -2.0153  0.8764
 8351SOL    HW236513   0.877   2.092   2.182  2.3726  1.4097  0.1642
 8352SOL     OW36514   2.555   3.225   2.646 -0.3136 -0.4648  0.2938
 8352SOL    HW136515   2.514   3.230   2.560  1.0030  0.5802 -0.2715
 8352SOL    HW236516   2.628   3.286   2.651 -0.9354  0.3660 -0.8297
 8353SOL     OW36517   3.648   0.027   8.972 -0.8055 -0.0653  0.0396
 8353SOL    HW136518   3.598   0.064   8.899  3.1916  0.8645 -2.2148
 8353SOL    HW236519   3.670   4.667   8.929  0.0091  1.1390 -1.8579
 8354SOL     OW36520   4.606   4.481   2.851 -0.8631  0.1495  0.3312
 8354SOL    HW136521   4.591   4.576   2.850  0.4830  0.3746  1.8279
 8354SOL    HW236522   4.535   4.445   2.904 -1.9012 -0.1094 -1.2263
 8355SOL     OW36523   1.751   2.724   2.259  0.2607 -0.3773  0.6664
 8355SOL    HW136524   1.702   2.642   2.254  0.9182 -0.6425 -1.5960
 8355SOL    HW236525   1.785   2.738   2.171  4.0360  1.6380  2.4622
 8356SOL     OW36526   3.242   1.375   2.183  0.4164 -0.5127  0.1691
 8356SOL    HW136527   3.178   1.357   2.252  0.1357 -0.1662  0.0018
 8356SOL    HW236528   3.227   1.466   2.157  1.1058 -0.6836 -0.8134
 8357SOL     OW36529   4.408   0.366   9.112  0.4548 -0.1250  0.1472
 8357SOL    HW136530   4.314   0.382   9.115  0.6748  1.0034  1.1099
 8357SOL    HW236531   4.399   0.273   9.129  0.9393  0.1164  1.6786
 8358SOL     OW36532   1.257   4.053  11.460 -0.1765 -0.5199  0.2637
 8358SOL    HW136533   1.234   3.981  11.402 -0.0563 -0.9628  0.7686
 8358SOL    HW236534   1.261   4.002  11.541  2.4096  1.8875  1.6532
 8359SOL     OW36535   4.638   3.729   6.304  0.2791 -0.0021 -0.0146
 8359SOL    HW136536   4.592   3.810   6.283 -0.2295 -0.0119  1.0494
 8359SOL    HW236537   4.674   3.703   6.219 -0.4338 -1.3024  0.0740
 8360SOL     OW36538   2.921   1.496   5.952 -0.0975 -0.0287  0.6146
 8360SOL    HW136539   3.005   1.514   5.994 -0.6098  1.2721  1.0807
 8360SOL    HW236540   2.946   1.446   5.874 -1.2221  0.8271 -0.2851
 8361SOL     OW36541   2.976   0.193   5.733  0.6856 -1.1633  0.0972
 8361SOL    HW136542   2.957   0.284   5.712  1.6447 -0.6178  1.6013
 8361SOL    HW236543   3.061   0.176   5.694  1.1024  0.7848  0.1608
 8362SOL     OW36544   2.313   3.974   1.812 -0.2608  0.0878  0.1797
 8362SOL    HW136545   2.312   4.002   1.903  0.1186  2.7049 -0.6250
 8362SOL    HW236546   2.317   3.880   1.830 -2.7744 -0.3138 -1.2946
 8363SOL     OW36547   1.802   2.038   1.331  0.3020  0.5607 -0.1615
 8363SOL    HW136548   1.836   1.949   1.320 -3.0207 -0.4216 -2.4197
 8363SOL    HW236549   1.856   2.070   1.403  1.7181 -2.7948  0.2819
 8364SOL     OW36550   2.237   2.900   6.933  0.0689 -0.0551  0.2429
 8364SOL    HW136551   2.201   2.963   6.870 -0.0160  1.0429  1.3746
 8364SOL    HW236552   2.182   2.899   7.011  1.9737  1.2335  1.6167
 8365SOL     OW36553   1.207   1.840   8.259 -0.0585 -0.6467 -0.0260
 8365SOL    HW136554   1.171   1.771   8.203  2.7599 -1.2091 -1.1197
 8365SOL    HW236555   1.124   1.865   8.300  0.5561  1.8808 -0.2995
 8366SOL     OW36556   1.793   2.030   3.047  0.1408 -0.0426  0.4309
 8366SOL    HW136557   1.727   2.090   3.014  0.3872 -0.5212 -0.9046
 8366SOL    HW236558   1.862   2.091   3.072 -1.3215  1.6593  0.2755
 8367SOL     OW36559   2.933   2.084  14.102 -0.0556  0.0986  0.1316
 8367SOL    HW136560   2.951   2.162  14.050  1.1811 -1.8903 -2.4058
 8367SOL    HW236561   2.875   2.035  14.044 -0.0863  0.6317 -0.2924
 8368SOL     OW36562   2.205   1.365  12.196 -0.1066  0.1226 -0.5632
 8368SOL    HW136563   2.225   1.426  12.125  1.1786  2.4169  1.7758
 8368SOL    HW236564   2.255   1.286  12.177 -0.5596 -0.2767 -0.1120
 8369SOL     OW36565   1.859   2.395  12.124 -0.3069  0.4567  0.3236
 8369SOL    HW136566   1.866   2.300  12.113 -1.5003  0.3886  0.2478
 8369SOL    HW236567   1.949   2.420  12.102 -0.5763  1.0137 -0.1345
 8370SOL     OW36568   3.773   2.582   5.022  0.4783 -0.2983  0.1685
 8370SOL    HW136569   3.728   2.663   5.045  3.6044  1.4071  0.3034
 8370SOL    HW236570   3.800   2.549   5.107  0.5854  0.6854  0.5133
 8371SOL     OW36571   2.438   1.008   8.192  0.2783 -0.1712 -0.7911
 8371SOL    HW136572   2.491   0.987   8.269 -0.8852 -0.4811 -0.0892
 8371SOL    HW236573   2.410   1.096   8.214 -3.0003 -1.7287  1.1696
 8372SOL     OW36574   0.599   1.588   3.421  0.3624  0.1026 -0.0973
 8372SOL    HW136575   0.630   1.659   3.477 -0.5233  0.6082 -0.2411
 8372SOL    HW236576   0.644   1.517   3.467 -1.9700 -1.1759  0.2249
 8373SOL     OW36577   1.499   2.577  11.937  0.0773  0.0760 -0.0506
 8373SOL    HW136578   1.588   2.594  11.906  0.5870  0.8361  1.8231
 8373SOL    HW236579   1.498   2.481  11.939  0.4486  0.0761  0.2008
 8374SOL     OW36580   4.321   4.160   5.651  0.2983  0.0253  0.0926
 8374SOL    HW136581   4.277   4.088   5.606  1.4545  0.3663 -1.5534
 8374SOL    HW236582   4.253   4.227   5.660  0.9368  0.4221  1.9629
 8375SOL     OW36583   0.474   0.185   1.784 -0.9355  0.4133 -0.0804
 8375SOL    HW136584   0.543   0.215   1.725 -2.6176  1.2610 -1.6165
 8375SOL    HW236585   0.479   0.090   1.778 -0.0493  0.5264 -0.9598
 8376SOL     OW36586   3.792   1.761  14.453 -0.3533  0.3924  0.7585
 8376SOL    HW136587   3.771   1.723  14.538 -2.4893  0.4936  0.2618
 8376SOL    HW236588   3.853   1.699  14.412 -0.8906 -0.3119  1.0262
 8377SOL     OW36589   0.746   0.788   3.320 -0.2908 -0.4681  1.0122
 8377SOL    HW136590   0.658   0.753   3.306 -0.8862  1.1160  0.7745
 8377SOL    HW236591   0.807   0.745   3.260 -1.4480 -0.6705 -0.0056
 8378SOL     OW36592   4.634   2.349   7.802  0.1285  0.2256 -0.7521
 8378SOL    HW136593   4.619   2.314   7.889  1.3325  0.6006 -0.3924
 8378SOL    HW236594   4.560   2.411   7.797  0.5176  0.7144 -0.4506
 8379SOL     OW36595   4.669   1.486   7.451  0.1492  0.5264  0.0664
 8379SOL    HW136596   4.663   1.552   7.519  0.5655  1.2477 -0.6012
 8379SOL    HW236597   4.593   1.434   7.479 -1.2452  3.2694  1.3129
 8380SOL     OW36598   2.871   2.690   8.270 -0.2969  0.4689  0.1448
 8380SOL    HW136599   2.795   2.666   8.217  1.7080 -3.4727 -0.9558
 8380SOL    HW236600   2.822   2.730   8.342 -1.4026  2.4235 -1.6895
 8381SOL     OW36601   2.249   2.400  17.252  0.6349 -0.5800 -0.1672
 8381SOL    HW136602   2.338   2.435  17.263 -0.1365  1.5609 -0.9316
 8381SOL    HW236603   2.261   2.312  17.288  1.1394 -1.2396 -1.9469
 8382SOL     OW36604   2.379   4.190   3.842  0.1814  0.0054 -0.2985
 8382SOL    HW136605   2.328   4.163   3.918 -1.2860  0.3150 -1.1597
 8382SOL    HW236606   2.461   4.142   3.851  1.4751  2.1328 -0.8396
 8383SOL     OW36607   2.151   3.286   7.062 -0.5078 -0.3451 -0.2634
 8383SOL    HW136608   2.186   3.267   7.149 -1.2169  1.1829  0.3556
 8383SOL    HW236609   2.077   3.226   7.067 -0.7600  0.1650  2.0959
 8384SOL     OW36610   4.046   2.094  16.593  0.3122  0.0859 -0.0102
 8384SOL    HW136611   4.110   2.116  16.660  1.6319  1.0919 -1.5774
 8384SOL    HW236612   4.047   2.168  16.531 -1.3093  1.0369  1.0875
 8385SOL     OW36613   1.515   1.521   2.359  0.3455  0.1113 -0.4111
 8385SOL    HW136614   1.567   1.501   2.281  0.0957  0.5890 -0.7033
 8385SOL    HW236615   1.574   1.490   2.427  0.9181  4.0437  0.9088
 8386SOL     OW36616   1.822   4.477   0.843 -0.1857  0.1518  0.2911
 8386SOL    HW136617   1.819   4.461   0.748  3.0373  0.6943  0.1107
 8386SOL    HW236618   1.865   4.402   0.883 -1.2516  0.0759  1.2867
 8387SOL     OW36619   2.033   1.886   4.727  0.8770  0.0168  0.6924
 8387SOL    HW136620   1.954   1.926   4.690 -0.3613 -3.5192 -0.4963
 8387SOL    HW236621   2.008   1.799   4.758  1.4278  0.5352  2.6032
 8388SOL     OW36622   0.111   1.845  11.490 -0.2308 -0.2965  0.1638
 8388SOL    HW136623   0.057   1.874  11.564  1.6145 -0.8577  1.7383
 8388SOL    HW236624   0.085   1.910  11.425  1.7733  0.2225 -0.1219
 8389SOL     OW36625   4.466   2.461  10.429 -0.1231  0.3518 -0.3218
 8389SOL    HW136626   4.440   2.553  10.431 -2.1885 -0.2471  0.5437
 8389SOL    HW236627   4.541   2.462  10.489  0.2470 -1.2044 -0.7603
 8390SOL     OW36628   1.635   0.866  15.364  0.2223  0.4928  0.1074
 8390SOL    HW136629   1.542   0.886  15.373  0.7036  1.5997  2.6626
 8390SOL    HW236630   1.649   0.888  15.272 -1.1947 -1.1064 -0.4776
 8391SOL     OW36631   0.850   2.581  15.235  0.1751 -0.1901  0.3385
 8391SOL    HW136632   0.865   2.672  15.209 -0.2394 -0.3950 -0.5939
 8391SOL    HW236633   0.874   2.593  15.327  1.6748 -0.2606 -0.0410
 8392SOL     OW36634   0.703   2.605  10.621 -0.1690  0.0480 -0.2017
 8392SOL    HW136635   0.670   2.527  10.667 -0.1282  0.4639  0.5288
 8392SOL    HW236636   0.636   2.605  10.552  0.3519  0.8533 -0.7082
 8393SOL     OW36637   2.066   0.359  14.128 -0.0445  0.1665  0.5971
 8393SOL    HW136638   2.016   0.325  14.053 -1.1233  1.4279  0.7478
 8393SOL    HW236639   2.114   0.436  14.097 -0.7043 -0.2928 -1.5657
 8394SOL     OW36640   3.825   1.638  15.970 -0.2310 -0.2694 -0.3243
 8394SOL    HW136641   3.919   1.644  15.987 -0.3476 -3.9195  1.6976
 8394SOL    HW236642   3.812   1.607  15.881 -1.6339  1.0355 -0.5788
 8395SOL     OW36643   0.186   2.547   4.484  0.8464  0.2650  0.2491
 8395SOL    HW136644   0.153   2.600   4.411 -1.4404 -0.9106  0.4172
 8395SOL    HW236645   0.159   2.456   4.475  0.1189  0.6663 -1.5590
 8396SOL     OW36646   1.377   2.240   5.570 -0.1838  0.4908  0.0206
 8396SOL    HW136647   1.386   2.152   5.536  1.3141  0.4808  0.4642
 8396SOL    HW236648   1.424   2.240   5.654  1.1053 -1.5727 -0.7304
 8397SOL     OW36649   2.219   4.696   4.207  0.0489 -0.1159  0.5122
 8397SOL    HW136650   2.233   0.004   4.296  2.3545 -0.3945  0.2354
 8397SOL    HW236651   2.134   4.650   4.208  0.1674 -0.3225  1.3632
 8398SOL     OW36652   2.759   4.107  13.702  0.3095 -0.0165  0.1890
 8398SOL    HW136653   2.801   4.039  13.754  0.3186 -1.6754 -1.9686
 8398SOL    HW236654   2.732   4.057  13.625 -1.0646  0.1961  0.5344
 8399SOL     OW36655   2.798   3.672  13.374 -0.6862 -0.0974  0.4594
 8399SOL    HW136656   2.892   3.654  13.374 -0.7240 -0.3492 -1.3623
 8399SOL    HW236657   2.764   3.598  13.322  1.0046  0.4381 -1.4210
 8400SOL     OW36658   3.346   0.931   7.040  0.2029 -0.0741  0.1534
 8400SOL    HW136659   3.372   0.839   7.040  1.5032  0.2841 -1.5046
 8400SOL    HW236660   3.251   0.930   7.048  0.2050  3.1041  0.3921
 8401SOL     OW36661   2.498   1.353  17.385  0.7407  0.1038 -0.7269
 8401SOL    HW136662   2.441   1.348  17.308 -0.4579  0.7304  0.1202
 8401SOL    HW236663   2.492   1.448  17.396  0.4807 -0.3254  2.7547
 8402SOL     OW36664   0.014   1.274   4.550  0.3085  0.2212  0.0163
 8402SOL    HW136665   0.084   1.251   4.489  0.9304  1.1808  0.3709
 8402SOL    HW236666   0.023   1.365   4.522  2.0718  0.1902  0.4778
 8403SOL     OW36667   0.175   4.469   5.782  1.3037  0.2015  0.6460
 8403SOL    HW136668   0.238   4.500   5.847  1.3631  0.0363  0.6698
 8403SOL    HW236669   0.216   4.494   5.700 -0.1649  0.0049 -0.1480
 8404SOL     OW36670   3.414   4.445   5.347  0.1517 -0.1548  0.6110
 8404SOL    HW136671   3.458   4.383   5.288  1.9964  1.2587  0.4908
 8404SOL    HW236672   3.489   4.468   5.402 -0.6409  1.5301  1.0022
 8405SOL     OW36673   0.734   4.122   7.557 -0.2057 -0.3641 -0.2927
 8405SOL    HW136674   0.644   4.096   7.539 -0.3824 -0.8591  1.2476
 8405SOL    HW236675   0.785   4.100   7.479  0.3388 -1.8679  0.4656
 8406SOL     OW36676   1.152   4.520   7.290  0.3611 -0.2630  0.6005
 8406SOL    HW136677   1.057   4.529   7.282  0.5501 -0.3060 -1.6196
 8406SOL    HW236678   1.182   4.598   7.244  0.6201 -0.8163 -0.1756
 8407SOL     OW36679   4.431   3.732  10.281  0.4999 -0.0873 -0.0341
 8407SOL    HW136680   4.358   3.766  10.229  1.1348  0.5046 -0.5437
 8407SOL    HW236681   4.452   3.811  10.332 -0.3318 -0.3145  0.6443
 8408SOL     OW36682   1.713   3.206   8.915 -0.6272 -0.4950  0.3836
 8408SOL    HW136683   1.701   3.114   8.891 -1.8943  0.5267 -2.9535
 8408SOL    HW236684   1.711   3.247   8.828 -2.5291  1.6301  1.4504
 8409SOL     OW36685   2.337   2.774  15.543 -0.2562 -0.0099 -0.5814
 8409SOL    HW136686   2.320   2.836  15.614 -0.1924  0.4181 -0.9447
 8409SOL    HW236687   2.424   2.744  15.569 -1.1142 -1.0212  1.1165
 8410SOL     OW36688   4.402   2.018  16.444 -0.0858 -0.2899 -0.1401
 8410SOL    HW136689   4.401   2.113  16.458  3.1360 -0.1343 -0.9805
 8410SOL    HW236690   4.482   2.000  16.493  1.2671 -0.0856 -2.2698
 8411SOL     OW36691   2.766   2.385  14.732  0.0189 -0.3589  0.2791
 8411SOL    HW136692   2.851   2.421  14.707  0.0481 -1.1993 -0.8123
 8411SOL    HW236693   2.776   2.347  14.820 -1.3343  0.4616  0.7981
 8412SOL     OW36694   1.129   3.339  10.283 -0.9584  0.2665 -0.2844
 8412SOL    HW136695   1.085   3.422  10.267 -0.8939  0.3370 -0.1039
 8412SOL    HW236696   1.214   3.365  10.248 -0.3037 -1.6141 -0.1062
 8413SOL     OW36697   0.590   0.481   1.684  0.1049 -0.1493 -0.1221
 8413SOL    HW136698   0.669   0.483   1.630  0.0169 -0.6422 -0.2768
 8413SOL    HW236699   0.553   0.395   1.664 -1.3921 -0.0091  2.1507
 8414SOL     OW36700   1.978   2.604   3.523  0.0746  0.1580 -0.3479
 8414SOL    HW136701   2.034   2.642   3.455  0.5525 -1.3360 -0.8010
 8414SOL    HW236702   1.928   2.539   3.474 -0.8959 -0.9904  2.1479
 8415SOL     OW36703   3.106   0.946  15.549 -0.7155 -0.1865  0.2449
 8415SOL    HW136704   3.092   0.960  15.455  1.3227  1.3598  0.1969
 8415SOL    HW236705   3.115   1.034  15.583 -0.2070 -0.9673  2.1067
 8416SOL     OW36706   0.324   1.091   7.321  0.2311  0.0154  0.0564
 8416SOL    HW136707   0.367   1.009   7.293 -0.0777 -0.7135  1.7233
 8416SOL    HW236708   0.391   1.124   7.381  0.6731  1.0592 -0.9941
 8417SOL     OW36709   3.429   3.880  15.031  0.4334 -0.2924  0.0170
 8417SOL    HW136710   3.344   3.912  14.999  1.1474  0.3902 -1.2145
 8417SOL    HW236711   3.410   3.787  15.030 -0.5156 -0.0916 -1.2379
 8418SOL     OW36712   2.982   2.298   8.427  0.1745 -0.2553  0.2733
 8418SOL    HW136713   2.930   2.340   8.496  1.9264  0.2913  1.2669
 8418SOL    HW236714   2.920   2.247   8.375 -0.3370 -1.1450  1.7279
 8419SOL     OW36715   1.297   1.524  14.754 -0.1114 -0.0967  0.0514
 8419SOL    HW136716   1.310   1.559  14.666  1.9261  0.0472  0.4199
 8419SOL    HW236717   1.201   1.521  14.753 -0.1193 -0.5527  1.4555
 8420SOL     OW36718   1.966   3.820   5.724  0.3044 -0.0173  0.1581
 8420SOL    HW136719   1.871   3.808   5.722  0.2437  0.9271 -1.9545
 8420SOL    HW236720   1.997   3.804   5.635 -0.3538 -1.4463  0.1791
 8421SOL     OW36721   0.775   2.191  12.682 -0.3517 -0.4722 -0.5745
 8421SOL    HW136722   0.764   2.112  12.734  1.5551 -0.4604 -0.1556
 8421SOL    HW236723   0.689   2.187  12.639 -0.5886 -1.2411 -0.0150
 8422SOL     OW36724   2.004   1.176  12.016  0.0536  0.2648 -0.0461
 8422SOL    HW136725   2.000   1.089  11.977 -1.1997  0.4517 -0.3565
 8422SOL    HW236726   2.078   1.221  11.975 -0.3223 -0.1498 -1.1720
 8423SOL     OW36727   2.515   2.454  16.477  0.4494  0.2511  0.4096
 8423SOL    HW136728   2.581   2.475  16.411 -0.0946 -0.6214 -0.4171
 8423SOL    HW236729   2.458   2.401  16.422 -1.8975  0.0671  3.0388
 8424SOL     OW36730   3.580   3.389   8.134  0.4644 -0.0976  0.2222
 8424SOL    HW136731   3.645   3.407   8.067 -1.0103  0.7799 -0.9588
 8424SOL    HW236732   3.640   3.356   8.201  1.7844  1.7403 -0.0778
 8425SOL     OW36733   2.788   1.056   5.096 -0.6601  0.1310 -0.1192
 8425SOL    HW136734   2.784   1.071   5.002  0.4857  0.5187 -0.1096
 8425SOL    HW236735   2.821   1.141   5.127  1.9404 -0.8863 -0.1097
 8426SOL     OW36736   4.620   1.823  16.476  0.1144 -0.4575 -0.3745
 8426SOL    HW136737   4.711   1.794  16.466  0.2317  0.1697 -1.0445
 8426SOL    HW236738   4.638   1.915  16.494  0.2194  0.0484 -3.1015
 8427SOL     OW36739   2.782   0.245   3.684 -0.3508  0.3851 -0.1915
 8427SOL    HW136740   2.820   0.324   3.722  0.9957  0.1981 -1.1568
 8427SOL    HW236741   2.803   0.263   3.592  0.1042  0.8891  0.0158
 8428SOL     OW36742   3.648   1.966   3.891  0.1361  0.1825 -0.1721
 8428SOL    HW136743   3.668   1.891   3.948  2.2519  0.7349 -0.1751
 8428SOL    HW236744   3.640   2.035   3.957 -2.4439  1.0431 -1.4068
 8429SOL     OW36745   1.674   4.426  16.872 -0.4826 -0.2587 -0.0492
 8429SOL    HW136746   1.697   4.512  16.836 -1.0598 -0.1887 -0.2543
 8429SOL    HW236747   1.665   4.378  16.790  1.0012 -0.1760 -0.2611
 8430SOL     OW36748   1.394   4.686  14.442 -0.0583  0.1435  0.3287
 8430SOL    HW136749   1.300   4.671  14.457 -0.5439  2.6953 -0.1434
 8430SOL    HW236750   1.408   4.649  14.356  0.5223  0.4280  0.3036
 8431SOL     OW36751   4.500   1.719  13.413 -0.1610 -0.4636  0.0303
 8431SOL    HW136752   4.479   1.707  13.505 -1.1546 -0.5643 -0.2060
 8431SOL    HW236753   4.584   1.764  13.419 -0.0611 -0.8943  1.7708
 8432SOL     OW36754   0.611   2.045   5.147  0.0645 -0.0553  0.2326
 8432SOL    HW136755   0.523   2.008   5.141 -0.7959  1.9956  0.2596
 8432SOL    HW236756   0.615   2.094   5.065  3.6743  0.2489  0.5882
 8433SOL     OW36757   0.229   3.190   2.008  0.7570 -0.3750  0.4385
 8433SOL    HW136758   0.323   3.173   2.004  1.3090  2.3657  1.9479
 8433SOL    HW236759   0.207   3.213   1.918  2.9802  0.0511 -0.0041
 8434SOL     OW36760   0.152   4.521  15.788 -0.3166 -0.0030 -0.6576
 8434SOL    HW136761   0.154   4.564  15.873  1.4295  1.2275 -1.3253
 8434SOL    HW236762   0.058   4.520  15.772  0.1412  1.8521 -3.3790
 8435SOL     OW36763   3.824   0.696   4.844 -0.3041  0.6772  0.0494
 8435SOL    HW136764   3.849   0.786   4.825  1.1533 -0.1650 -2.0155
 8435SOL    HW236765   3.733   0.708   4.871 -0.4067 -0.2236  0.1258
 8436SOL     OW36766   0.154   0.413   7.546  0.2766  0.7694  0.1216
 8436SOL    HW136767   0.096   0.373   7.481  0.0226  1.7723 -0.2593
 8436SOL    HW236768   0.136   0.505   7.529 -0.0231  0.7869  0.5091
 8437SOL     OW36769   0.831   2.274   2.766 -0.0596 -0.4267 -0.3232
 8437SOL    HW136770   0.772   2.254   2.693 -1.1480  0.4196  0.3262
 8437SOL    HW236771   0.918   2.285   2.728  0.4090 -1.5290  0.4105
 8438SOL     OW36772   1.320   0.089  10.554  0.5968  0.1716  0.8249
 8438SOL    HW136773   1.320   4.716  10.563  0.4428  0.2102  1.2492
 8438SOL    HW236774   1.350   0.115  10.641  0.5312  0.2401  0.8269
 8439SOL     OW36775   3.662   1.525   3.899  0.1874  0.7875  0.0159
 8439SOL    HW136776   3.696   1.505   3.986  1.4366 -1.9380 -1.0903
 8439SOL    HW236777   3.714   1.469   3.841  0.0697 -0.0340  0.7068
 8440SOL     OW36778   2.262   3.437  14.863  0.1891 -0.3545 -0.5113
 8440SOL    HW136779   2.287   3.449  14.771 -2.3662 -0.8955 -1.2781
 8440SOL    HW236780   2.327   3.371  14.885  0.1549 -0.8841 -2.0217
 8441SOL     OW36781   0.997   0.316   3.183 -0.1405 -0.2384 -0.4753
 8441SOL    HW136782   1.075   0.297   3.235  1.7274  2.0576 -2.4686
 8441SOL    HW236783   1.040   0.358   3.109  0.5077  0.2635  0.1952
 8442SOL     OW36784   1.849   4.247   6.785 -0.0417 -0.1659  0.2927
 8442SOL    HW136785   1.809   4.315   6.731 -0.3458  0.0607  0.7959
 8442SOL    HW236786   1.790   4.256   6.860  0.8755  2.4860  0.7191
 8443SOL     OW36787   0.422   1.144   7.567 -0.1392 -0.3093  0.7097
 8443SOL    HW136788   0.494   1.121   7.626 -1.2553 -0.0670  2.1681
 8443SOL    HW236789   0.366   1.186   7.633  1.1563  2.5505 -0.0222
 8444SOL     OW36790   3.732   1.986   9.425  0.5298 -0.2385 -0.6211
 8444SOL    HW136791   3.789   1.990   9.349 -0.8654 -3.4125 -1.8440
 8444SOL    HW236792   3.792   1.962   9.496  1.2129  0.8792 -0.8268
 8445SOL     OW36793   1.587   2.518   4.806 -0.1456  0.1729  0.4130
 8445SOL    HW136794   1.533   2.474   4.741 -0.6531  0.4341  0.6634
 8445SOL    HW236795   1.536   2.483   4.879 -1.5532  0.6393 -0.3676
 8446SOL     OW36796   3.463   0.956   6.230  0.1295  0.2348  0.2217
 8446SOL    HW136797   3.439   0.961   6.322 -1.2370  0.7058 -0.1606
 8446SOL    HW236798   3.441   0.866   6.204  0.2238  0.4261 -0.5295
 8447SOL     OW36799   1.303   1.473   9.882  0.4268 -0.2673 -0.0235
 8447SOL    HW136800   1.354   1.516   9.951  0.2044 -0.3362  0.1853
 8447SOL    HW236801   1.212   1.476   9.913  0.7889 -1.2567  1.1031
 8448SOL     OW36802   3.473   4.173   9.824  0.6365 -0.1001 -0.5792
 8448SOL    HW136803   3.548   4.116   9.839  0.7420  0.9797  2.8894
 8448SOL    HW236804   3.419   4.125   9.761 -0.8344 -0.3254  0.8645
 8449SOL     OW36805   4.375   2.222  15.535  0.4208  0.0785 -0.4294
 8449SOL    HW136806   4.430   2.296  15.560  0.3623 -0.1880  0.5150
 8449SOL    HW236807   4.352   2.184  15.620  1.1089  0.3062 -0.1389
 8450SOL     OW36808   4.183   4.345   6.143  0.1544  0.4257  0.0331
 8450SOL    HW136809   4.148   4.384   6.063 -0.4534 -1.6084 -0.7036
 8450SOL    HW236810   4.215   4.263   6.106  0.9689  0.8266 -0.1256
 8451SOL     OW36811   4.300   3.581  16.456  0.0165  0.2323 -0.1623
 8451SOL    HW136812   4.247   3.653  16.422 -2.1265 -1.1227  0.3045
 8451SOL    HW236813   4.251   3.565  16.537  0.3132  0.0739 -0.0161
 8452SOL     OW36814   2.071   2.014   4.450  0.2922  0.0954  0.7250
 8452SOL    HW136815   2.020   2.083   4.408  1.4209 -0.9088 -2.2670
 8452SOL    HW236816   2.017   2.003   4.529 -1.9247  1.4989 -0.5836
 8453SOL     OW36817   2.844   4.201   5.916 -0.3898  0.4132  0.0808
 8453SOL    HW136818   2.753   4.173   5.924  0.0778 -1.2651 -0.4658
 8453SOL    HW236819   2.877   4.164   5.834  1.2024 -1.0288  1.3494
 8454SOL     OW36820   4.319   1.816  11.590  0.7920 -0.4837  0.3424
 8454SOL    HW136821   4.251   1.835  11.525  1.7442 -1.4895 -0.9294
 8454SOL    HW236822   4.377   1.752  11.549  1.4428 -0.8744  1.8799
 8455SOL     OW36823   0.918   3.524   1.810  0.1835 -0.3363  0.5515
 8455SOL    HW136824   1.006   3.496   1.833 -0.7608 -0.5992  3.8566
 8455SOL    HW236825   0.936   3.606   1.763 -3.0851  0.6019  0.9007
 8456SOL     OW36826   2.689   1.705   9.250  0.2872 -0.0441 -0.0622
 8456SOL    HW136827   2.732   1.680   9.168 -2.0912 -1.6969 -0.8051
 8456SOL    HW236828   2.628   1.633   9.268  0.2050 -0.0612 -0.4060
 8457SOL     OW36829   0.628   4.185  16.201 -0.7593  0.0490 -0.3585
 8457SOL    HW136830   0.684   4.110  16.184  0.1621  0.5903  0.3439
 8457SOL    HW236831   0.543   4.142  16.190 -0.4912  0.0891 -2.7843
 8458SOL     OW36832   0.466   0.797   1.795 -0.0526 -0.3547 -0.7983
 8458SOL    HW136833   0.539   0.749   1.757 -0.5179 -1.2738 -0.5288
 8458SOL    HW236834   0.387   0.744   1.789  0.7123 -1.5854 -0.1539
 8459SOL     OW36835   3.225   0.541  13.001  0.1084 -0.0254  0.3472
 8459SOL    HW136836   3.303   0.563  13.053 -1.0025 -1.1845  2.4981
 8459SOL    HW236837   3.182   0.626  12.994 -0.0804 -0.1724 -0.2298
 8460SOL     OW36838   1.464   4.517   2.971 -0.1833  0.1175  0.6853
 8460SOL    HW136839   1.511   4.475   3.043 -0.5564 -0.7013  0.4597
 8460SOL    HW236840   1.494   4.606   2.990  0.4155  0.3713 -1.4542
 8461SOL     OW36841   1.856   2.553  16.682  0.4005  0.4564  0.3304
 8461SOL    HW136842   1.951   2.550  16.690  0.2848 -1.5194  1.0219
 8461SOL    HW236843   1.843   2.599  16.599 -3.0434 -0.4075  0.3695
 8462SOL     OW36844   1.270   1.489   4.220  0.0920 -0.6144 -1.0816
 8462SOL    HW136845   1.351   1.462   4.264  0.3048  0.4836 -0.8059
 8462SOL    HW236846   1.217   1.414   4.247  0.6198  1.0783  4.7326
 8463SOL     OW36847   3.127   3.046   6.453  0.9856 -0.0532 -0.0891
 8463SOL    HW136848   3.091   3.021   6.538  3.3223  0.6137  1.0659
 8463SOL    HW236849   3.221   3.057   6.461  0.9137 -1.1429  2.2855
 8464SOL     OW36850   3.554   0.304   7.384 -0.2432  0.3244  0.2901
 8464SOL    HW136851   3.602   0.326   7.304  0.0536  2.6745  1.0973
 8464SOL    HW236852   3.559   0.209   7.385  1.4154  0.3929 -2.2298
 8465SOL     OW36853   2.584   1.972  15.537  0.0305 -0.5726 -0.3977
 8465SOL    HW136854   2.539   1.887  15.544 -0.2705 -0.3848 -0.0654
 8465SOL    HW236855   2.672   1.936  15.527  0.1763 -0.8045  1.7195
 8466SOL     OW36856   4.402   1.653  13.679  0.6923 -0.4560 -0.0679
 8466SOL    HW136857   4.313   1.687  13.681  0.6891 -0.5718  1.7829
 8466SOL    HW236858   4.411   1.624  13.770 -2.7500 -1.7594 -0.1329
 8467SOL     OW36859   3.678   1.380  15.336 -0.6021 -0.4463 -0.3087
 8467SOL    HW136860   3.619   1.435  15.285  1.1091  0.4178 -1.3503
 8467SOL    HW236861   3.746   1.445  15.352 -1.6020  0.4931  0.1318
 8468SOL     OW36862   0.043   3.141   3.428 -0.0041  0.4203 -0.7056
 8468SOL    HW136863   0.098   3.112   3.355 -0.7890  0.3171 -1.2552
 8468SOL    HW236864   4.713   3.196   3.370 -0.5205 -0.8552 -1.4541
 8469SOL     OW36865   1.292   4.686  16.045  0.4540 -0.0551 -0.0806
 8469SOL    HW136866   1.207   4.656  16.014  0.5461  1.0658 -1.4312
 8469SOL    HW236867   1.266   0.052  16.071 -0.0931 -1.6081  4.5149
 8470SOL     OW36868   3.463   0.201   2.743  0.2298 -0.2657 -0.0907
 8470SOL    HW136869   3.370   0.198   2.720  0.2146 -2.0069  0.2018
 8470SOL    HW236870   3.497   0.288   2.720 -0.6944  0.4674  1.2839
 8471SOL     OW36871   2.643   3.625   2.310  0.6799 -0.4822 -0.6868
 8471SOL    HW136872   2.641   3.716   2.339  0.4126 -0.9506  0.7737
 8471SOL    HW236873   2.686   3.587   2.387  0.2311  1.0280  0.3075
 8472SOL     OW36874   1.644   2.860   7.250 -0.5390 -0.1788 -0.0092
 8472SOL    HW136875   1.598   2.791   7.298 -0.4753 -0.7509 -0.7821
 8472SOL    HW236876   1.733   2.826   7.263 -0.9291 -1.2912 -0.2093
 8473SOL     OW36877   3.088   0.413   2.487  0.3762 -0.3639  0.2701
 8473SOL    HW136878   3.015   0.414   2.425 -0.3580 -2.3878  1.0758
 8473SOL    HW236879   3.165   0.430   2.432 -1.6459  3.1793 -1.4104
 8474SOL     OW36880   2.461   1.040   7.177 -0.1581 -0.2676 -0.5870
 8474SOL    HW136881   2.498   0.969   7.230 -1.4371 -0.7852 -0.3887
 8474SOL    HW236882   2.494   1.009   7.093  1.2379  0.6466 -0.3785
 8475SOL     OW36883   1.312   0.773   2.050 -0.0551 -0.4789  0.0931
 8475SOL    HW136884   1.276   0.684   2.049 -1.2799  0.0234 -0.4293
 8475SOL    HW236885   1.321   0.794   1.957 -0.6145 -2.2893 -0.3772
 8476SOL     OW36886   0.844   0.313  16.182  0.0557  0.2886 -0.6404
 8476SOL    HW136887   0.807   0.276  16.102 -0.2003 -0.7469 -0.0369
 8476SOL    HW236888   0.781   0.385  16.184  0.3741  0.5273  1.2353
 8477SOL     OW36889   2.854   2.260  15.991 -0.3510  0.4988  0.2953
 8477SOL    HW136890   2.906   2.192  16.034 -0.9976 -0.3199 -0.2353
 8477SOL    HW236891   2.785   2.277  16.055 -0.2586  1.4074  0.1566
 8478SOL     OW36892   0.311   2.334  16.528  0.2526 -0.4887  0.1530
 8478SOL    HW136893   0.219   2.359  16.536  0.5213  0.6273 -0.2981
 8478SOL    HW236894   0.356   2.404  16.481 -1.9194 -0.3165 -1.6823
 8479SOL     OW36895   1.000   1.895  13.487 -0.5281 -0.4511  0.2000
 8479SOL    HW136896   0.972   1.984  13.507  1.3290  0.0303  0.6281
 8479SOL    HW236897   0.922   1.857  13.447 -0.6273 -0.8036  0.7305
 8480SOL     OW36898   4.266   0.845  17.065 -0.3526  0.6399  0.3552
 8480SOL    HW136899   4.228   0.885  16.987 -3.2338 -0.7260  1.0657
 8480SOL    HW236900   4.323   0.917  17.093 -1.0546  0.6644  1.7452
 8481SOL     OW36901   4.598   0.360   6.422  0.0892 -0.0405  0.3115
 8481SOL    HW136902   4.524   0.301   6.410 -1.4930  1.9140  0.2688
 8481SOL    HW236903   4.619   0.344   6.514  1.7933 -0.7630 -0.2084
 8482SOL     OW36904   2.268   4.092   4.095 -0.2110 -0.1839 -0.3538
 8482SOL    HW136905   2.194   4.034   4.076 -1.0434  0.6065  0.4699
 8482SOL    HW236906   2.338   4.037   4.131 -0.4721 -0.0184  0.4129
 8483SOL     OW36907   0.848   4.518  15.000 -0.1407 -0.2729 -0.2531
 8483SOL    HW136908   0.870   4.445  14.943  0.8215  1.3025 -1.8893
 8483SOL    HW236909   0.764   4.495  15.041 -0.1029  0.6310  0.3410
 8484SOL     OW36910   0.423   4.128  16.960  0.7844 -0.1234 -0.2595
 8484SOL    HW136911   0.385   4.183  16.891 -1.6527 -1.2159  0.2091
 8484SOL    HW236912   0.455   4.197  17.017  1.5116 -1.3365  0.7906
 8485SOL     OW36913   4.088   4.292   3.010 -0.2323 -0.0590 -0.1648
 8485SOL    HW136914   4.055   4.382   3.008 -0.5403 -0.1435  0.8538
 8485SOL    HW236915   4.116   4.303   2.919  2.2431  1.6319  0.7769
 8486SOL     OW36916   2.201   2.369   5.560  0.2955  0.6067  0.0420
 8486SOL    HW136917   2.181   2.461   5.543 -2.0294  0.0876  0.0852
 8486SOL    HW236918   2.284   2.375   5.609  0.6403 -2.7971 -0.1369
 8487SOL     OW36919   2.828   3.603   0.516 -0.3359  0.5589  0.1623
 8487SOL    HW136920   2.861   3.541   0.581 -0.3748 -1.6085 -1.8483
 8487SOL    HW236921   2.904   3.656   0.494 -1.4788  1.9925 -0.3634
 8488SOL     OW36922   3.949   4.197   9.836  0.6074  0.3261  0.4373
 8488SOL    HW136923   3.966   4.291   9.840  1.0213  0.2231  1.0776
 8488SOL    HW236924   3.932   4.177   9.928  0.6845  0.9221  0.5787
 8489SOL     OW36925   2.422   1.460   3.969  0.1161  0.7226  0.4577
 8489SOL    HW136926   2.436   1.492   3.880  2.6419 -1.2019  0.1649
 8489SOL    HW236927   2.327   1.449   3.966  0.4407 -2.1917  0.3569
 8490SOL     OW36928   4.014   2.169   7.229 -0.9136  0.3621  0.0235
 8490SOL    HW136929   4.102   2.172   7.265 -0.2912  1.5688 -1.5982
 8490SOL    HW236930   3.969   2.102   7.279 -1.5248  0.8376  0.1120
 8491SOL     OW36931   0.097   2.500  16.493  0.1123 -0.0681  0.0952
 8491SOL    HW136932   0.018   2.551  16.513 -0.6521 -1.5525  0.9048
 8491SOL    HW236933   0.110   2.527  16.402  1.8432  1.0081  0.6614
 8492SOL     OW36934   3.635   1.684   9.077  0.3771  0.1001 -0.0943
 8492SOL    HW136935   3.640   1.619   9.006 -1.1287 -0.3592  0.2209
 8492SOL    HW236936   3.695   1.750   9.045  1.9730 -1.2856  0.0095
 8493SOL     OW36937   2.195   2.465   4.352 -0.0266  0.1065 -0.0534
 8493SOL    HW136938   2.284   2.443   4.377  0.5375  0.8214 -1.4158
 8493SOL    HW236939   2.166   2.544   4.398 -1.6659 -1.0577  0.9022
 8494SOL     OW36940   2.741   3.303   0.133  0.2062 -0.4319  0.1751
 8494SOL    HW136941   2.737   3.327   0.040 -2.2327  2.4143  0.9879
 8494SOL    HW236942   2.661   3.346   0.164  0.7510  2.6885 -2.7265
 8495SOL     OW36943   1.529   3.485   4.104 -0.6287 -0.0904  0.1850
 8495SOL    HW136944   1.622   3.508   4.107 -1.2312  2.4742 -1.3833
 8495SOL    HW236945   1.533   3.391   4.085  0.2298 -0.0192  0.0296
 8496SOL     OW36946   2.174   1.785   8.056 -0.4556  0.3816  0.0135
 8496SOL    HW136947   2.171   1.695   8.021 -1.0259  0.7309 -0.8416
 8496SOL    HW236948   2.264   1.812   8.039 -0.6335  1.5021  0.9150
 8497SOL     OW36949   2.229   2.809   2.718  0.2205  0.0293  0.7615
 8497SOL    HW136950   2.289   2.801   2.644 -0.5690  1.0531  0.0031
 8497SOL    HW236951   2.224   2.905   2.722  0.6471  0.0352  1.2211
 8498SOL     OW36952   2.103   2.195  11.967  0.4858  0.0332 -0.4357
 8498SOL    HW136953   2.075   2.173  11.879  1.3806 -0.3674 -0.6184
 8498SOL    HW236954   2.022   2.169  12.011  1.2145 -0.8043  0.4245
 8499SOL     OW36955   4.191   2.471  15.913 -0.1199 -0.1065 -0.0090
 8499SOL    HW136956   4.149   2.546  15.954  0.0704  0.0176 -0.0383
 8499SOL    HW236957   4.255   2.445  15.979 -1.1286  0.4737  1.1924
 8500SOL     OW36958   4.139   1.002   2.977 -0.5475 -0.3859  0.1150
 8500SOL    HW136959   4.078   1.023   2.907  1.3982  3.1806 -0.4981
 8500SOL    HW236960   4.208   0.959   2.926  0.1533  1.0412 -0.1444
 8501SOL     OW36961   1.057   3.007   8.495 -0.5454  0.0305 -0.0819
 8501SOL    HW136962   0.973   2.962   8.505 -0.3115 -0.3711  0.0489
 8501SOL    HW236963   1.075   2.977   8.406  1.6122 -0.0121  0.3730
 8502SOL     OW36964   2.672   1.778  11.502 -0.1524  0.1471 -0.6204
 8502SOL    HW136965   2.738   1.739  11.444  0.4036 -1.6963  1.2304
 8502SOL    HW236966   2.665   1.704  11.563  0.9193 -0.4196 -1.1764
 8503SOL     OW36967   1.440   1.425   7.965  0.7263  0.6085 -0.2524
 8503SOL    HW136968   1.387   1.345   7.960 -1.1356  1.9538 -1.9395
 8503SOL    HW236969   1.524   1.400   8.003 -0.2220 -1.7413  0.3409
 8504SOL     OW36970   3.900   4.494  10.475 -0.1179  0.2712 -0.5052
 8504SOL    HW136971   3.886   4.561  10.541 -0.9066 -1.6649  1.2728
 8504SOL    HW236972   3.971   4.537  10.426  2.0934 -1.3560  1.2688
 8505SOL     OW36973   4.344   1.972   6.992 -0.5083 -0.3604 -0.1489
 8505SOL    HW136974   4.417   2.033   6.982  0.5454 -1.0579  3.3580
 8505SOL    HW236975   4.383   1.914   7.057  2.0142  0.8041 -0.6292
 8506SOL     OW36976   1.013   0.345  15.193 -0.1622  0.2134  0.1682
 8506SOL    HW136977   0.981   0.307  15.112 -0.3366 -0.7752  0.6961
 8506SOL    HW236978   1.085   0.402  15.164 -1.7025  2.0147 -0.0717
 8507SOL     OW36979   4.366   3.482   2.372 -0.5393  0.0936  0.2861
 8507SOL    HW136980   4.419   3.492   2.293 -1.2644 -1.8239 -0.4458
 8507SOL    HW236981   4.303   3.554   2.368  1.2169  1.6170 -0.0378
 8508SOL     OW36982   3.288   3.291   3.543 -0.2434 -0.2994  0.0320
 8508SOL    HW136983   3.274   3.362   3.605 -1.2008 -0.9703  0.5866
 8508SOL    HW236984   3.272   3.342   3.463  0.1680 -1.2810 -0.6776
 8509SOL     OW36985   2.407   4.144   7.262 -0.3323 -1.0453  0.2849
 8509SOL    HW136986   2.491   4.165   7.305 -0.4557  2.3218 -1.1213
 8509SOL    HW236987   2.401   4.230   7.220  0.9821 -0.9502  0.2830
 8510SOL     OW36988   1.589   1.614  17.472 -0.4702  0.7013 -0.3034
 8510SOL    HW136989   1.517   1.635  17.532  0.6364 -1.4585  1.8015
 8510SOL    HW236990   1.602   1.705  17.445  0.0943  1.4251  2.4501
 8511SOL     OW36991   2.733   2.998   2.376 -0.2603 -0.7656 -0.3020
 8511SOL    HW136992   2.673   2.962   2.441 -2.0426 -2.1941 -2.7049
 8511SOL    HW236993   2.694   3.082   2.351  2.7215  0.2997 -1.4104
 8512SOL     OW36994   3.599   0.719  14.369  0.5731 -0.0784 -0.3558
 8512SOL    HW136995   3.621   0.627  14.352 -0.0289  0.2103 -2.6725
 8512SOL    HW236996   3.505   0.710  14.355  0.3866  0.5312  0.5594
 8513SOL     OW36997   1.072   2.663   5.191  0.0138 -0.3446  0.3426
 8513SOL    HW136998   1.106   2.591   5.139  0.0248 -0.4310  0.4688
 8513SOL    HW236999   0.982   2.659   5.158  0.9081  0.0060 -2.0788
 8514SOL     OW37000   2.059   4.031   7.845 -0.3399 -0.1102 -0.6161
 8514SOL    HW137001   1.977   3.992   7.875 -0.9718  0.0314 -2.1940
 8514SOL    HW237002   2.106   3.948   7.834  1.7804  1.0866 -0.6843
 8515SOL     OW37003   4.594   0.293   2.331  0.2280 -0.1580  0.2649
 8515SOL    HW137004   4.529   0.268   2.396 -0.6930  1.8290  0.1197
 8515SOL    HW237005   4.656   0.224   2.357 -0.1592 -0.6099 -0.0263
 8516SOL     OW37006   3.732   3.677   7.890  0.2021  0.3967 -0.4426
 8516SOL    HW137007   3.761   3.650   7.977 -3.0159 -1.5099  0.0459
 8516SOL    HW237008   3.710   3.592   7.852  2.2112 -0.1525 -0.4199
 8517SOL     OW37009   1.878   2.832   0.211 -0.2243  0.4287 -0.3460
 8517SOL    HW137010   1.935   2.900   0.247 -2.9676  1.8685  1.2003
 8517SOL    HW237011   1.932   2.757   0.239  0.1811  1.3981  1.4512
 8518SOL     OW37012   2.658   0.894   6.267 -0.0388  0.1692  0.2561
 8518SOL    HW137013   2.653   0.917   6.174 -0.0119  1.9285  0.6779
 8518SOL    HW237014   2.566   0.887   6.292 -0.5689  0.5909 -1.5799
 8519SOL     OW37015   3.327   4.614  15.324 -0.0128  0.8585  0.0266
 8519SOL    HW137016   3.291   4.695  15.359  0.6252  2.0194 -2.0186
 8519SOL    HW237017   3.327   4.618  15.228  1.2462  1.2326  0.0424
 8520SOL     OW37018   3.814   4.291   2.812  0.1408 -0.3135  0.0333
 8520SOL    HW137019   3.879   4.361   2.827 -0.5117  0.0563  1.1145
 8520SOL    HW237020   3.783   4.276   2.901 -0.3928 -2.0691 -0.4592
 8521SOL     OW37021   2.151   4.205  16.924  0.0958 -0.3690  0.4434
 8521SOL    HW137022   2.161   4.233  16.833  0.4198 -0.6178  0.4028
 8521SOL    HW237023   2.178   4.114  16.912 -1.8762 -0.9414  0.4035
 8522SOL     OW37024   1.699   2.274  17.071 -0.0810  0.5176 -0.1569
 8522SOL    HW137025   1.757   2.289  16.997  0.1508  0.2879 -0.0210
 8522SOL    HW237026   1.756   2.247  17.143 -0.0959  0.0204 -0.3276
 8523SOL     OW37027   0.390   0.042   7.192 -0.6061  0.3492 -0.0189
 8523SOL    HW137028   0.371   4.699   7.259 -0.9448  0.2508 -0.2128
 8523SOL    HW237029   0.354   4.712   7.121  0.6453 -0.3462 -0.1492
 8524SOL     OW37030   0.034   4.068   4.455 -0.3367 -0.1516  0.3176
 8524SOL    HW137031   0.006   3.984   4.490  3.3129 -3.0799 -3.7757
 8524SOL    HW237032   0.027   4.126   4.531  2.0449 -0.1836  0.5696
 8525SOL     OW37033   3.088   1.913  13.550  0.0207  0.4575  0.3724
 8525SOL    HW137034   3.043   1.997  13.553  0.3320  0.6386 -0.1307
 8525SOL    HW237035   3.018   1.852  13.525  0.6108  0.7379 -1.9571
 8526SOL     OW37036   1.222   3.805  11.636  0.8078  0.1061 -0.1782
 8526SOL    HW137037   1.135   3.791  11.599  0.5596 -1.6787  1.0758
 8526SOL    HW237038   1.193   3.800  11.727  0.5405 -0.7114 -0.3098
 8527SOL     OW37039   3.863   0.696   7.895  0.1920 -0.2816  0.4721
 8527SOL    HW137040   3.917   0.706   7.973  0.2874  0.9880  0.2482
 8527SOL    HW237041   3.915   0.626   7.857 -0.8262  0.3318 -2.0503
 8528SOL     OW37042   1.289   2.504   5.532  0.3424  0.8446  0.5463
 8528SOL    HW137043   1.326   2.426   5.573 -1.2079 -1.5803 -2.5863
 8528SOL    HW237044   1.363   2.558   5.507  0.2894  0.9691  0.6588
 8529SOL     OW37045   0.904   2.173   4.454 -0.6985  0.1144 -0.1251
 8529SOL    HW137046   0.847   2.117   4.400  0.9151 -0.9420 -0.7311
 8529SOL    HW237047   0.862   2.258   4.441  2.0415  1.1678 -2.1247
 8530SOL     OW37048   2.925   2.120  13.541  0.6422  0.0426  0.1396
 8530SOL    HW137049   2.879   2.160  13.615  0.8599 -1.1568  0.9166
 8530SOL    HW237050   2.889   2.166  13.465  1.8328  1.1698  0.2539
 8531SOL     OW37051   0.034   4.551   3.631 -0.3955 -0.0596 -0.1462
 8531SOL    HW137052   0.081   4.596   3.560 -2.2264 -0.7507 -1.7796
 8531SOL    HW237053   0.078   4.596   3.703 -2.1731  0.1161  0.8073
 8532SOL     OW37054   1.110   2.292   4.947 -0.3167  0.3558  0.1939
 8532SOL    HW137055   1.103   2.307   4.853  0.8527 -1.6839 -0.2022
 8532SOL    HW237056   1.020   2.262   4.961  0.0243 -0.9548 -0.3989
 8533SOL     OW37057   0.139   1.497   7.052 -0.2557 -0.1302  0.9422
 8533SOL    HW137058   0.092   1.437   6.995  0.8858 -0.9826  0.9094
 8533SOL    HW237059   0.198   1.442   7.103 -0.9553 -1.3406  0.4316
 8534SOL     OW37060   0.431   0.025   1.272  0.1736  0.0479 -0.1124
 8534SOL    HW137061   0.350   0.072   1.254 -0.1651 -1.0793 -1.4938
 8534SOL    HW237062   0.398   4.660   1.292  0.1535  0.2743  0.8391
 8535SOL     OW37063   3.151   0.128  13.634  0.3393  0.1891 -0.5395
 8535SOL    HW137064   3.068   0.168  13.608 -0.9704 -0.5905  2.4161
 8535SOL    HW237065   3.117   0.044  13.665  0.2095 -0.1207 -1.5117
 8536SOL     OW37066   1.095   1.070  11.097  0.1176  0.0967 -0.7207
 8536SOL    HW137067   1.112   1.045  11.188 -1.6897 -0.8674 -0.6444
 8536SOL    HW237068   1.110   0.986  11.054 -1.0015 -0.6484  0.3361
 8537SOL     OW37069   0.918   1.436   4.205 -0.0458 -0.1120  0.3608
 8537SOL    HW137070   0.997   1.486   4.225  0.2438 -0.8556  1.0800
 8537SOL    HW237071   0.865   1.506   4.168  0.9771 -0.3698 -1.6129
 8538SOL     OW37072   1.677   1.254  12.214 -0.1673  0.2149  0.1032
 8538SOL    HW137073   1.632   1.219  12.136  1.8185  0.7612 -1.2880
 8538SOL    HW237074   1.660   1.181  12.273 -0.6714 -0.4927 -0.9015
 8539SOL     OW37075   3.388   2.862   3.074 -0.5126  0.3083  0.1242
 8539SOL    HW137076   3.463   2.873   3.133  0.1917 -1.0987 -0.5006
 8539SOL    HW237077   3.414   2.921   3.003  0.8341 -0.2607  0.1335
 8540SOL     OW37078   1.372   4.426   2.712 -0.1689  0.0156 -0.4800
 8540SOL    HW137079   1.389   4.474   2.792 -0.3198 -3.2472  1.5266
 8540SOL    HW237080   1.279   4.403   2.708 -0.9115  2.5235  2.8779
 8541SOL     OW37081   2.011   0.436   4.744  0.1619  0.2682  0.3620
 8541SOL    HW137082   2.081   0.491   4.710 -1.9860  2.3036 -0.8059
 8541SOL    HW237083   2.037   0.441   4.836 -0.3102  3.4804  0.3279
 8542SOL     OW37084   2.901   4.348  11.168 -0.1576 -0.0062 -0.0242
 8542SOL    HW137085   2.893   4.401  11.089 -0.9457  0.3739  0.3086
 8542SOL    HW237086   2.835   4.281  11.151 -1.1476  0.9834 -0.1144
 8543SOL     OW37087   3.958   2.999   1.400  0.4618  0.0144 -0.4057
 8543SOL    HW137088   3.874   2.963   1.428  1.2452 -0.3912  1.4120
 8543SOL    HW237089   4.014   2.989   1.477  1.4112 -0.4664 -1.1559
 8544SOL     OW37090   2.299   2.920   8.723 -0.5325  0.2329 -0.3504
 8544SOL    HW137091   2.314   2.835   8.682  1.0102 -0.2930  1.3837
 8544SOL    HW237092   2.281   2.896   8.814 -1.6515  0.5420 -0.4800
 8545SOL     OW37093   3.756   4.627   2.350 -0.3675 -0.1212  0.0656
 8545SOL    HW137094   3.759   4.595   2.440 -1.5545  1.6021  0.7063
 8545SOL    HW237095   3.846   4.600   2.331 -0.3059 -0.8453  1.3866
 8546SOL     OW37096   0.174   4.349  11.119  0.0376 -0.7441  0.4164
 8546SOL    HW137097   0.163   4.384  11.207 -1.9626  2.2791 -1.0613
 8546SOL    HW237098   0.188   4.428  11.067  2.7241 -2.7856 -1.9965
 8547SOL     OW37099   4.512   4.229  13.683  0.1747  0.0039  0.0420
 8547SOL    HW137100   4.521   4.184  13.767  0.8557 -0.1073 -0.0931
 8547SOL    HW237101   4.598   4.271  13.680  0.4730 -0.6183 -0.2314
 8548SOL     OW37102   2.521   0.953   5.503 -0.5332  0.2002 -0.1363
 8548SOL    HW137103   2.449   1.006   5.536 -2.3732 -1.0689 -2.1215
 8548SOL    HW237104   2.492   0.871   5.544 -0.2232  0.3265  0.3333
 8549SOL     OW37105   3.596   3.615   6.395  0.0701  0.5793  0.3907
 8549SOL    HW137106   3.650   3.631   6.472  1.0340 -3.1115  0.4865
 8549SOL    HW237107   3.642   3.670   6.331  0.5152 -0.0866  0.1386
 8550SOL     OW37108   3.397   3.593   5.338 -0.3673  0.1618  0.3282
 8550SOL    HW137109   3.356   3.619   5.420  1.4221  1.3735  0.8316
 8550SOL    HW237110   3.319   3.563   5.291 -0.0852 -0.1993  0.0960
 8551SOL     OW37111   3.538   1.902   0.385 -0.2506 -0.6096  0.0047
 8551SOL    HW137112   3.579   1.830   0.432 -1.0653  0.7558  2.8132
 8551SOL    HW237113   3.604   1.903   0.315  0.5368 -0.8312  0.7406
 8552SOL     OW37114   2.902   2.960   9.125 -0.4203 -0.5375  0.5633
 8552SOL    HW137115   2.884   2.878   9.171 -1.2781 -1.6474 -1.7705
 8552SOL    HW237116   2.973   2.994   9.179 -2.2590  4.0336  0.1030
 8553SOL     OW37117   2.150   3.475   6.358  0.1258 -0.4551  0.1241
 8553SOL    HW137118   2.185   3.555   6.319 -2.5352  0.8226  0.3905
 8553SOL    HW237119   2.231   3.424   6.362  1.2444  1.4222  1.4333
 8554SOL     OW37120   0.177   3.877   4.759  0.5932  0.0727  0.3825
 8554SOL    HW137121   0.230   3.948   4.724  0.6953 -0.0162  0.3547
 8554SOL    HW237122   0.097   3.921   4.788  0.8121  0.6851  0.0594
 8555SOL     OW37123   0.948   0.256   0.686 -0.4486 -0.3257 -0.1538
 8555SOL    HW137124   0.982   0.321   0.747 -1.2977 -0.9068  0.9231
 8555SOL    HW237125   0.970   0.297   0.602 -0.1154  2.4676  1.3250
 8556SOL     OW37126   0.166   0.183  11.488 -0.5136 -0.0985 -0.5913
 8556SOL    HW137127   0.217   0.251  11.444 -0.7068  0.0329 -0.6105
 8556SOL    HW237128   0.180   0.210  11.578 -0.4931 -0.6893 -0.4176
 8557SOL     OW37129   2.063   3.015  10.753 -0.5323  0.4695  0.1310
 8557SOL    HW137130   2.123   2.945  10.777 -0.6250  0.4619  0.3443
 8557SOL    HW237131   2.106   3.047  10.674 -0.6646  1.8008  0.6007
 8558SOL     OW37132   2.036   4.040  15.900 -0.2675  0.0773 -0.1836
 8558SOL    HW137133   1.958   3.986  15.891  1.4194 -2.2645 -1.0677
 8558SOL    HW237134   2.068   4.016  15.987 -0.7026  0.8868  0.1962
 8559SOL     OW37135   3.333   0.623   3.201  0.7721  0.2419 -0.2736
 8559SOL    HW137136   3.300   0.681   3.133 -0.5934  1.2368  1.2088
 8559SOL    HW237137   3.280   0.545   3.181 -0.8159  1.1862  0.2470
 8560SOL     OW37138   2.956   0.592   2.276  0.1688 -0.3397  0.3120
 8560SOL    HW137139   2.882   0.536   2.297  0.0956  0.2627  1.6039
 8560SOL    HW237140   2.918   0.654   2.213 -1.0657  0.9568  2.3491
 8561SOL     OW37141   0.167   0.375   2.441 -0.2771 -0.4438 -0.1583
 8561SOL    HW137142   0.121   0.342   2.518  1.5170 -1.1665  0.6143
 8561SOL    HW237143   0.163   0.307   2.373 -0.1587 -0.5048 -0.1055
 8562SOL     OW37144   3.908   0.504   3.011  0.3225 -0.2743  0.0042
 8562SOL    HW137145   3.845   0.537   3.075  1.9389  1.7261  0.5568
 8562SOL    HW237146   3.950   0.587   2.992 -0.0436  0.1570  1.0927
 8563SOL     OW37147   4.592   1.725  10.704 -0.0339  0.1471  0.1365
 8563SOL    HW137148   4.500   1.752  10.711 -0.3389 -1.1339  1.0198
 8563SOL    HW237149   4.591   1.630  10.716  3.5263  0.0043 -0.6870
 8564SOL     OW37150   0.538   3.766   7.775  0.3120  0.1772 -0.7995
 8564SOL    HW137151   0.632   3.783   7.778 -0.1575  2.2868  1.7302
 8564SOL    HW237152   0.537   3.679   7.816 -2.9615  0.2012 -0.8645
 8565SOL     OW37153   3.982   3.993  11.033  0.3060  0.0670  0.5875
 8565SOL    HW137154   4.073   3.990  11.003  0.1416  2.4594 -0.1581
 8565SOL    HW237155   3.938   4.055  10.975  0.6431 -1.3627 -1.2052
 8566SOL     OW37156   0.866   4.527   6.538  0.0840  0.0959 -0.0049
 8566SOL    HW137157   0.949   4.515   6.493  0.6884  0.6453  0.9595
 8566SOL    HW237158   0.910   4.552   6.620 -0.0307  0.2463  0.0106
 8567SOL     OW37159   1.187   4.263   7.011  0.3085 -0.1463  0.1550
 8567SOL    HW137160   1.100   4.287   6.980  0.0868  0.0296  0.9089
 8567SOL    HW237161   1.244   4.279   6.935  1.9091  1.3901  1.6874
 8568SOL     OW37162   1.190   1.553   6.757 -0.3532  0.2671 -0.1748
 8568SOL    HW137163   1.233   1.634   6.729 -1.5200  1.6624  2.0552
 8568SOL    HW237164   1.252   1.530   6.826 -0.0330  1.5137 -0.0477
 8569SOL     OW37165   3.251   4.368   5.732 -0.0600 -0.0070  0.7224
 8569SOL    HW137166   3.332   4.414   5.712  0.3493 -1.1664 -0.2226
 8569SOL    HW237167   3.186   4.436   5.716 -0.9311 -1.6340 -2.6557
 8570SOL     OW37168   3.137   3.677   4.164  0.5117 -0.7023 -0.0848
 8570SOL    HW137169   3.145   3.652   4.256 -1.0314 -1.9112 -0.2869
 8570SOL    HW237170   3.047   3.655   4.139  0.7626 -0.5698 -1.1065
 8571SOL     OW37171   1.183   4.581   2.018  0.2032  0.2872 -0.4096
 8571SOL    HW137172   1.142   4.666   2.032  1.5620  0.6318  1.6284
 8571SOL    HW237173   1.107   4.524   2.015 -0.6845  1.4102  0.8609
 8572SOL     OW37174   3.402   4.410   0.670 -0.6442  0.5484 -0.1062
 8572SOL    HW137175   3.308   4.402   0.652 -0.6539 -0.6027  0.4646
 8572SOL    HW237176   3.410   4.393   0.764 -0.1882  1.7576  0.0809
 8573SOL     OW37177   4.155   2.876  16.521  0.4182  0.1500 -0.0958
 8573SOL    HW137178   4.130   2.949  16.464  2.3035  0.9118  0.0570
 8573SOL    HW237179   4.184   2.816  16.452  2.3311  2.1805 -1.0642
 8574SOL     OW37180   0.749   2.068  14.366  0.0956 -0.3002  0.1032
 8574SOL    HW137181   0.823   2.121  14.396  1.6421 -1.2164 -2.1756
 8574SOL    HW237182   0.786   1.982  14.350 -0.8435 -0.4267 -1.3764
 8575SOL     OW37183   2.671   2.805   4.463  0.5841 -0.0719 -0.2269
 8575SOL    HW137184   2.695   2.897   4.474  0.7521 -0.4265  2.3468
 8575SOL    HW237185   2.604   2.788   4.529  2.6511  3.3294  2.7878
 8576SOL     OW37186   4.576   4.297  15.355  0.0153 -0.0973 -0.0690
 8576SOL    HW137187   4.590   4.249  15.437 -0.3500  1.1813  0.7441
 8576SOL    HW237188   4.592   4.388  15.377 -2.5257 -0.0581  1.6125
 8577SOL     OW37189   2.621   2.141  13.992 -0.0071  0.6069 -0.5769
 8577SOL    HW137190   2.678   2.073  14.027  0.4194  1.3349  0.1615
 8577SOL    HW237191   2.551   2.131  14.056  0.7194 -2.1157 -0.2293
 8578SOL     OW37192   3.052   3.352   0.477  0.7473  0.6044 -0.5401
 8578SOL    HW137193   2.994   3.392   0.541  0.5628  0.3072 -0.5195
 8578SOL    HW237194   3.058   3.260   0.505 -0.2335  1.1641  1.4909
 8579SOL     OW37195   0.093   2.582   6.153  0.1443 -0.2630  0.1266
 8579SOL    HW137196   0.039   2.661   6.152  1.3787  0.5980  2.3152
 8579SOL    HW237197   0.173   2.607   6.198  0.4875  1.7928 -1.5873
 8580SOL     OW37198   2.276   1.263  14.554  0.1698 -0.2815 -0.3274
 8580SOL    HW137199   2.357   1.231  14.593 -0.6312 -0.8944  0.8554
 8580SOL    HW237200   2.294   1.255  14.461 -1.0265  1.9387 -0.7441
 8581SOL     OW37201   0.781   2.898   7.698  0.1413  0.7790  0.1526
 8581SOL    HW137202   0.781   2.989   7.730 -0.6749  0.5529  0.8008
 8581SOL    HW237203   0.778   2.848   7.780  2.3746  1.3918  0.6032
 8582SOL     OW37204   3.625   1.460  12.421 -0.4414 -0.3601  0.0771
 8582SOL    HW137205   3.719   1.475  12.431 -0.5586 -0.4128  1.2547
 8582SOL    HW237206   3.619   1.518  12.346 -1.0856  0.4201  0.7342
 8583SOL     OW37207   3.807   2.915   8.900 -0.1452  0.6974 -0.1078
 8583SOL    HW137208   3.758   2.996   8.909  0.1425  0.7148  1.2623
 8583SOL    HW237209   3.758   2.888   8.822  1.0780  1.4266 -1.1224
 8584SOL     OW37210   0.014   0.700   7.955 -0.5733 -0.2858  0.5351
 8584SOL    HW137211   0.031   0.748   8.037 -3.5222 -1.2665  1.7221
 8584SOL    HW237212   0.101   0.663   7.943 -0.7885 -0.0506 -1.7294
 8585SOL     OW37213   3.022   3.124  17.198  0.3568 -0.2894  0.3373
 8585SOL    HW137214   3.037   3.134  17.104 -1.4223  2.1132  0.2955
 8585SOL    HW237215   2.940   3.170  17.218 -0.0327 -1.0690  0.5412
 8586SOL     OW37216   4.611   4.546  15.751 -0.0037 -0.9033 -0.4926
 8586SOL    HW137217   4.536   4.563  15.808 -0.3161 -0.9324 -0.9000
 8586SOL    HW237218   4.589   4.582  15.666  0.5608  1.7052  0.4701
 8587SOL     OW37219   0.856   3.701   6.155 -0.4013 -0.4248 -0.6364
 8587SOL    HW137220   0.872   3.656   6.238 -0.6097  1.1297  0.2481
 8587SOL    HW237221   0.906   3.642   6.098 -2.1335  0.3601 -2.9824
 8588SOL     OW37222   0.988   3.777  16.325  0.1876  0.3105 -0.5411
 8588SOL    HW137223   0.904   3.822  16.333  0.1815  0.6208 -2.3826
 8588SOL    HW237224   1.035   3.844  16.373  1.3863  0.4138 -1.8640
 8589SOL     OW37225   2.253   1.073   1.898 -0.2599  0.3309 -0.1538
 8589SOL    HW137226   2.211   1.025   1.970  0.9931 -0.3822  0.0999
 8589SOL    HW237227   2.288   1.152   1.938  1.7054 -2.1470  3.0797
 8590SOL     OW37228   1.307   3.376   5.889  0.3609 -0.3579 -0.0259
 8590SOL    HW137229   1.327   3.403   5.979  1.3822 -1.2166  0.0049
 8590SOL    HW237230   1.391   3.338   5.865  0.3252  0.7722 -1.9823
 8591SOL     OW37231   2.012   0.949   0.247 -0.0532  0.1454 -0.4374
 8591SOL    HW137232   2.077   0.956   0.316  1.0759  2.2745 -1.6947
 8591SOL    HW237233   2.036   0.870   0.199  3.5416  2.2212 -2.0390
 8592SOL     OW37234   3.915   2.341   8.568  0.0766  0.2768  0.1158
 8592SOL    HW137235   3.932   2.302   8.653 -0.0591 -1.0173 -0.4611
 8592SOL    HW237236   3.823   2.365   8.582  0.3359  2.0631 -1.1246
 8593SOL     OW37237   3.045   0.053  17.080  0.2393  0.4385  0.5649
 8593SOL    HW137238   3.099   4.711  17.034  0.4783  0.2524  1.1106
 8593SOL    HW237239   2.957   0.018  17.065 -0.6744  2.1268  2.0601
 8594SOL     OW37240   2.169   4.654   6.297 -1.0509  0.8810  0.2371
 8594SOL    HW137241   2.251   4.699   6.318 -0.2223 -0.3662 -0.2719
 8594SOL    HW237242   2.120   0.008   6.267 -1.7686  1.1944  2.2374
 8595SOL     OW37243   3.030   4.116   6.097 -0.2896 -0.1036  0.3146
 8595SOL    HW137244   2.954   4.141   6.044  1.0585  1.0555 -1.0769
 8595SOL    HW237245   3.101   4.157   6.047  0.3818 -1.4422  0.1577
 8596SOL     OW37246   0.583   2.005   5.953  0.6160 -0.5483 -0.4160
 8596SOL    HW137247   0.564   1.982   6.044  0.1079  4.7204  0.8205
 8596SOL    HW237248   0.497   2.031   5.919  0.8333  0.6724 -0.0474
 8597SOL     OW37249   1.443   0.717  17.451  0.4868 -0.9893  0.4729
 8597SOL    HW137250   1.461   0.791  17.392  0.0784 -0.4473  1.0266
 8597SOL    HW237251   1.524   0.707  17.500  0.6874 -2.5880 -0.1907
 8598SOL     OW37252   2.164   3.549   5.972  0.1525  0.2282  0.2859
 8598SOL    HW137253   2.084   3.500   5.994  0.4284 -0.0020  0.7969
 8598SOL    HW237254   2.181   3.592   6.056 -0.4678 -1.3939  1.2492
 8599SOL     OW37255   4.110   0.198   7.669  0.2252 -0.1508 -0.0757
 8599SOL    HW137256   4.111   0.283   7.713 -0.2782  0.7515 -1.8153
 8599SOL    HW237257   4.157   0.140   7.728  0.7935 -1.1293 -1.4835
 8600SOL     OW37258   2.785   1.673   6.108 -0.3266 -0.7939  0.0856
 8600SOL    HW137259   2.823   1.598   6.062 -1.1562 -2.0896  1.5282
 8600SOL    HW237260   2.757   1.730   6.036  3.1638  3.1329  1.8033
 8601SOL     OW37261   0.514   4.015   2.559  0.2759 -0.1564  0.3705
 8601SOL    HW137262   0.442   3.980   2.612 -0.3187  0.5561  0.0267
 8601SOL    HW237263   0.571   4.041   2.631  0.0805  0.1110  0.4278
 8602SOL     OW37264   0.132   1.516   3.895  0.4035 -0.7035  0.7189
 8602SOL    HW137265   0.104   1.564   3.817  1.9111  2.0353  1.8560
 8602SOL    HW237266   0.179   1.442   3.858 -2.0417 -2.2049  0.6113
 8603SOL     OW37267   4.084   0.699  17.449 -0.1210 -0.0048 -0.3014
 8603SOL    HW137268   4.138   0.767  17.409  0.0630  1.3442  2.2764
 8603SOL    HW237269   4.114   0.708  17.539 -1.4597  1.8443 -0.0489
 8604SOL     OW37270   0.540   2.158   6.953 -0.4245  0.2748 -0.1019
 8604SOL    HW137271   0.606   2.098   6.987  0.1150  1.2669  0.5942
 8604SOL    HW237272   0.476   2.122   7.015 -0.5719  0.4001 -0.1822
 8605SOL     OW37273   2.033   0.338   1.727  0.2876 -0.3850  0.6522
 8605SOL    HW137274   1.975   0.306   1.658  0.2590  0.5532  0.2417
 8605SOL    HW237275   1.976   0.321   1.802  2.1289  0.8320  2.3321
 8606SOL     OW37276   1.276   0.512   1.948 -0.5488 -0.4050 -0.6384
 8606SOL    HW137277   1.195   0.552   1.915  0.2617 -0.9473 -3.2571
 8606SOL    HW237278   1.241   0.451   2.013 -0.4301 -1.6906 -1.7946
 8607SOL     OW37279   3.077   3.143   8.741 -0.1454  0.8241  0.5159
 8607SOL    HW137280   3.037   3.097   8.668  2.1233 -0.0405 -0.1904
 8607SOL    HW237281   3.003   3.129   8.800 -0.8690  1.0041 -0.3389
 8608SOL     OW37282   1.951   0.326  14.813  0.9307  0.1435 -0.3417
 8608SOL    HW137283   1.913   0.290  14.893  0.3552  0.2036 -0.5866
 8608SOL    HW237284   1.993   0.246  14.784 -0.0483 -0.1880 -0.8398
 8609SOL     OW37285   4.342   0.085   8.749 -0.0548 -0.5740 -0.6241
 8609SOL    HW137286   4.351   0.128   8.664 -1.1037  1.5062  0.3238
 8609SOL    HW237287   4.433   0.097   8.773 -0.4486 -0.7478  0.9522
 8610SOL     OW37288   3.798   1.152  12.415  0.2658  0.1164  0.2922
 8610SOL    HW137289   3.849   1.075  12.391  0.4828  0.4569 -0.3288
 8610SOL    HW237290   3.738   1.156  12.340 -0.9989  1.5832  1.3679
 8611SOL     OW37291   2.000   3.090   4.808  0.3296  0.2470 -0.0197
 8611SOL    HW137292   1.922   3.122   4.762 -1.4384 -1.7556  1.5785
 8611SOL    HW237293   1.977   2.998   4.818  0.0135  0.2138 -1.0257
 8612SOL     OW37294   3.964   3.201  17.668 -0.0805 -0.1179 -0.2109
 8612SOL    HW137295   3.925   3.252   0.046  3.1584  2.3163 -0.1746
 8612SOL    HW237296   4.058   3.203  17.688  0.0063  3.2823 -0.9911
 8613SOL     OW37297   0.062   4.552   4.062 -0.0353  0.3962  0.0232
 8613SOL    HW137298   0.078   4.493   3.988  1.6761  0.3707  0.4114
 8613SOL    HW237299   0.151   4.568   4.094  0.4592 -1.5786 -0.3499
 8614SOL     OW37300   2.792   3.660   8.088 -0.1033  0.0926  0.4970
 8614SOL    HW137301   2.872   3.664   8.141  2.2962 -0.6933 -3.1019
 8614SOL    HW237302   2.753   3.593   8.145  0.8203 -0.7799  0.1171
 8615SOL     OW37303   4.548   0.729  11.196 -0.2710  0.0315 -0.4000
 8615SOL    HW137304   4.453   0.714  11.187 -0.5868  2.4474 -1.1687
 8615SOL    HW237305   4.559   0.816  11.156 -1.6525  1.1727  1.6836
 8616SOL     OW37306   0.957   1.591   0.490 -0.6429 -0.6192  0.3399
 8616SOL    HW137307   0.917   1.677   0.476  0.4113  0.1508  2.1471
 8616SOL    HW237308   1.045   1.605   0.457 -1.0601 -0.5123 -0.7484
 8617SOL     OW37309   3.538   3.860   3.791  0.7934 -0.8438 -0.3643
 8617SOL    HW137310   3.567   3.806   3.717  0.6089 -0.3282 -0.8152
 8617SOL    HW237311   3.575   3.946   3.772 -1.3630  0.3036  0.6103
 8618SOL     OW37312   2.646   3.991  13.506  0.1591  0.0319  0.5115
 8618SOL    HW137313   2.577   3.964  13.446  2.2194 -0.0750 -1.8248
 8618SOL    HW237314   2.718   3.982  13.443  1.5644  3.4962  1.6605
 8619SOL     OW37315   0.101   4.035  10.780 -0.0762  0.1606  0.3774
 8619SOL    HW137316   0.186   4.076  10.767 -0.0036 -0.6512 -1.7032
 8619SOL    HW237317   0.127   3.965  10.840 -2.1731 -0.3752  0.6515
 8620SOL     OW37318   1.191   1.702   2.869  0.4876  0.4328 -0.4720
 8620SOL    HW137319   1.245   1.623   2.864 -1.2624 -0.5813 -3.5821
 8620SOL    HW237320   1.128   1.662   2.809  0.8246 -0.7613 -0.0387
 8621SOL     OW37321   0.943   4.628   4.089  0.1108  0.5709 -0.6300
 8621SOL    HW137322   0.870   4.570   4.112  1.0533 -0.1540  0.5469
 8621SOL    HW237323   0.899   4.678   4.020 -0.4147 -1.1803 -1.5641
 8622SOL     OW37324   0.751   0.414   2.101 -0.4938 -0.6345  0.2748
 8622SOL    HW137325   0.732   0.359   2.176  0.0849 -1.2607 -0.0338
 8622SOL    HW237326   0.698   0.371   2.034 -0.7768 -0.1761  0.2046
 8623SOL     OW37327   1.192   3.530   5.686 -0.0262  0.1379  0.3914
 8623SOL    HW137328   1.193   3.608   5.741 -0.1966 -0.0950  0.7237
 8623SOL    HW237329   1.220   3.469   5.753  1.0593 -0.3755 -0.5161
 8624SOL     OW37330   3.604   0.194   3.193  0.3176 -0.5085  0.5332
 8624SOL    HW137331   3.566   0.151   3.116 -0.0487  1.0571 -0.1684
 8624SOL    HW237332   3.576   0.284   3.173  0.6628 -1.2956 -3.5508
 8625SOL     OW37333   3.148   1.817  10.107  0.7293  1.1178 -0.2406
 8625SOL    HW137334   3.225   1.770  10.077 -0.5173 -1.4445  0.5994
 8625SOL    HW237335   3.098   1.823  10.025  1.5104 -0.7783 -0.8492
 8626SOL     OW37336   4.335   2.175  14.117  0.4045 -0.9203  0.3915
 8626SOL    HW137337   4.414   2.221  14.088 -0.9247  1.7079  0.8714
 8626SOL    HW237338   4.342   2.187  14.212 -0.9724  0.4600  0.3207
 8627SOL     OW37339   3.509   2.931   8.273  0.4630 -0.1530  0.0637
 8627SOL    HW137340   3.593   2.899   8.306  1.8269  0.7485 -2.5308
 8627SOL    HW237341   3.537   3.004   8.219  0.9648  0.8088  1.6250
 8628SOL     OW37342   2.969   1.791   2.006  0.2832 -0.1746 -0.3912
 8628SOL    HW137343   2.960   1.741   1.925 -2.1254  0.9093 -0.7718
 8628SOL    HW237344   3.061   1.816   2.015  0.6677 -0.9940 -2.0969
 8629SOL     OW37345   3.322   2.296  16.479 -0.2102  0.0195  0.3511
 8629SOL    HW137346   3.397   2.316  16.536 -0.2501 -0.3868  0.5506
 8629SOL    HW237347   3.345   2.350  16.404 -0.1580 -1.3033 -0.5960
 8630SOL     OW37348   2.122   0.239   7.951  0.1806 -0.6673  0.9065
 8630SOL    HW137349   2.125   0.174   8.022  0.2680  0.4744  1.9376
 8630SOL    HW237350   2.201   0.215   7.902 -1.0860  0.9187 -1.8953
 8631SOL     OW37351   0.089   1.341   8.032  0.5412  0.0059 -0.2669
 8631SOL    HW137352   0.171   1.358   8.077  0.5832  0.0427 -0.3594
 8631SOL    HW237353   0.040   1.422   8.047 -1.3444 -1.2992  0.6448
 8632SOL     OW37354   0.837   0.955   1.987 -0.4113  0.2197  0.6679
 8632SOL    HW137355   0.869   0.956   2.077 -0.2405 -1.5886  0.6199
 8632SOL    HW237356   0.923   0.981   1.955 -0.2047  0.0111  1.0516
 8633SOL     OW37357   4.218   2.382   0.433  0.0947  0.1784 -0.5715
 8633SOL    HW137358   4.124   2.394   0.417 -0.1978 -3.3491 -1.3268
 8633SOL    HW237359   4.233   2.304   0.379  0.8314 -1.1943  1.6315
 8634SOL     OW37360   0.907   1.078  15.318 -0.0971 -0.9250  0.6474
 8634SOL    HW137361   0.838   1.012  15.310  0.3198 -1.0088 -2.3006
 8634SOL    HW237362   0.860   1.148  15.364 -2.9600 -1.3491 -1.6185
 8635SOL     OW37363   3.695   1.911  13.987  0.3749  0.6124  0.0167
 8635SOL    HW137364   3.700   1.854  14.064 -1.0648  1.2570  0.5889
 8635SOL    HW237365   3.651   1.986  14.027  1.0188  0.1975  1.4880
 8636SOL     OW37366   3.243   3.277   5.237 -0.5445  0.8363 -0.1231
 8636SOL    HW137367   3.153   3.254   5.259  0.1456 -0.5678  1.2770
 8636SOL    HW237368   3.273   3.288   5.328  0.4686 -2.2521 -0.0614
 8637SOL     OW37369   1.641   3.721  13.083 -1.0603  0.2603 -0.0871
 8637SOL    HW137370   1.660   3.789  13.017 -0.3423 -0.6401 -0.8178
 8637SOL    HW237371   1.568   3.756  13.133 -4.3398 -1.7262 -3.5228
 8638SOL     OW37372   3.814   3.816   3.069 -0.1693 -0.6109 -0.3059
 8638SOL    HW137373   3.879   3.779   3.129  1.3889  1.4830 -0.6925
 8638SOL    HW237374   3.861   3.895   3.041  0.9384 -0.9156  0.6586
 8639SOL     OW37375   3.898   3.354   3.250 -0.3057  0.2984 -0.4245
 8639SOL    HW137376   3.828   3.416   3.229  0.0300  1.1544  1.0031
 8639SOL    HW237377   3.904   3.365   3.345  1.8736  1.8586 -0.7598
 8640SOL     OW37378   3.043   1.909   2.888  0.5953 -0.5921 -0.1245
 8640SOL    HW137379   3.081   1.892   2.801 -0.9417  3.5168 -1.6103
 8640SOL    HW237380   3.002   1.825   2.903 -0.7816  0.1994  0.4933
 8641SOL     OW37381   2.060   0.561  13.810 -0.8006  0.3492 -0.0064
 8641SOL    HW137382   2.126   0.540  13.876  0.3555  1.0416 -0.9350
 8641SOL    HW237383   1.988   0.519  13.858 -2.0700  0.6301 -1.6743
 8642SOL     OW37384   0.836   1.290   7.042 -0.2335  0.3309 -0.1756
 8642SOL    HW137385   0.882   1.302   6.959  0.1655  1.5972  0.2213
 8642SOL    HW237386   0.789   1.207   7.039  0.9882 -0.4171  1.2925
 8643SOL     OW37387   3.407   2.535   7.685 -0.3812 -0.1009  0.3932
 8643SOL    HW137388   3.407   2.610   7.625  1.1150  0.4042  1.0172
 8643SOL    HW237389   3.438   2.584   7.761  4.6916 -0.7019 -1.2736
 8644SOL     OW37390   0.675   2.920   6.735  0.0854 -0.0378  0.2972
 8644SOL    HW137391   0.668   2.979   6.660  1.0281 -0.3194 -0.0080
 8644SOL    HW237392   0.654   2.836   6.694 -1.7849  0.2291  0.6986
 8645SOL     OW37393   1.024   3.614   2.112  0.4093  0.0839 -0.2617
 8645SOL    HW137394   0.962   3.541   2.115 -0.2520  0.6291 -0.6516
 8645SOL    HW237395   0.998   3.670   2.039  2.2195  1.9935  0.5754
 8646SOL     OW37396   3.810   0.571   4.503  0.0932  0.3924  0.4327
 8646SOL    HW137397   3.796   0.476   4.501 -0.9760  0.5876 -2.1863
 8646SOL    HW237398   3.729   0.609   4.469 -0.8192  0.8825  3.1692
 8647SOL     OW37399   3.060   1.180   8.737 -0.2557  0.2355  0.1796
 8647SOL    HW137400   3.133   1.158   8.795 -0.1258 -0.5408 -0.2761
 8647SOL    HW237401   3.090   1.126   8.663  1.4200  1.0367  0.2690
 8648SOL     OW37402   4.423   4.226  10.147 -0.2255 -0.2525  0.0669
 8648SOL    HW137403   4.401   4.171  10.072 -0.7432  0.4389 -0.2868
 8648SOL    HW237404   4.405   4.313  10.112  2.1246  0.3173  0.2411
 8649SOL     OW37405   0.658   1.625   5.224 -0.4997  0.5411  0.0400
 8649SOL    HW137406   0.614   1.572   5.291  0.9968 -0.3503  0.3176
 8649SOL    HW237407   0.634   1.714   5.249 -3.2171 -0.7088  1.9000
 8650SOL     OW37408   2.287   2.808   6.326  0.1191 -0.1777 -0.1580
 8650SOL    HW137409   2.315   2.735   6.381  0.1427 -1.1776 -1.4969
 8650SOL    HW237410   2.203   2.772   6.296  0.3258  0.2501 -1.2522
 8651SOL     OW37411   1.599   2.922   3.237  0.3713 -0.0505  0.2626
 8651SOL    HW137412   1.603   2.902   3.143  3.1751  2.0464 -0.0765
 8651SOL    HW237413   1.515   2.876   3.247 -0.5639  0.6454 -4.3091
 8652SOL     OW37414   3.279   0.806  12.376 -0.1573  0.1385  0.2067
 8652SOL    HW137415   3.372   0.792  12.391  0.3484  2.1726 -1.1416
 8652SOL    HW237416   3.260   0.712  12.369 -1.6499  0.4150  0.4362
 8653SOL     OW37417   0.258   2.042   7.765 -0.6478  0.3433 -0.0218
 8653SOL    HW137418   0.236   2.134   7.753  1.7836  0.9971  0.5111
 8653SOL    HW237419   0.182   2.003   7.809 -0.6641  1.2491  0.7585
 8654SOL     OW37420   0.523   1.067   6.471  0.6035  0.9883 -0.1290
 8654SOL    HW137421   0.542   1.150   6.516 -1.4404  1.9660 -1.0915
 8654SOL    HW237422   0.523   1.081   6.377  1.4957 -0.1106 -0.2933
 8655SOL     OW37423   1.225   2.506   3.178  0.2067 -0.6188 -0.2087
 8655SOL    HW137424   1.224   2.465   3.265  1.6077 -0.0567  0.0775
 8655SOL    HW237425   1.140   2.550   3.178  0.7292  0.4079  1.0532
 8656SOL     OW37426   1.651   3.429   8.414 -0.0437  0.3430 -0.3883
 8656SOL    HW137427   1.626   3.402   8.502  2.0044 -0.1110  0.0348
 8656SOL    HW237428   1.633   3.349   8.364  0.0845 -0.1033  0.2915
 8657SOL     OW37429   3.355   3.279  14.267  0.2672 -0.7552 -0.1761
 8657SOL    HW137430   3.281   3.257  14.210  0.7674 -1.8409 -0.4093
 8657SOL    HW237431   3.352   3.374  14.274  3.0872 -0.5449 -2.1311
 8658SOL     OW37432   1.983   3.228   6.798 -0.8714 -0.1219 -0.2927
 8658SOL    HW137433   1.972   3.275   6.716 -0.0078  0.6232  0.0176
 8658SOL    HW237434   2.036   3.154   6.769 -0.6069  0.0333 -0.1977
 8659SOL     OW37435   0.408   3.122   6.345 -0.3376  0.6398  0.2877
 8659SOL    HW137436   0.414   3.032   6.377 -1.7273  0.2464 -0.5207
 8659SOL    HW237437   0.342   3.164   6.401  0.0304  0.7699  0.6263
 8660SOL     OW37438   2.216   2.141  11.424 -0.2440  0.3023  0.0519
 8660SOL    HW137439   2.153   2.181  11.364 -0.7871 -0.3650  0.1798
 8660SOL    HW237440   2.293   2.198  11.426 -0.1215  0.1643 -0.5906
 8661SOL     OW37441   2.221   3.144   3.092 -0.1297 -0.5532  0.4277
 8661SOL    HW137442   2.160   3.214   3.071 -0.9086 -1.7654 -1.3738
 8661SOL    HW237443   2.284   3.147   3.020 -1.0184  2.5485 -0.2213
 8662SOL     OW37444   3.860   3.038  11.933 -0.1639  0.4645 -0.2453
 8662SOL    HW137445   3.837   3.027  11.841 -1.3155 -0.8111  0.1876
 8662SOL    HW237446   3.889   3.129  11.940 -0.3155  0.4988 -0.0411
 8663SOL     OW37447   2.389   1.708   0.121 -0.0630  0.1855  0.6671
 8663SOL    HW137448   2.323   1.685   0.187  1.0456 -2.5383  0.8579
 8663SOL    HW237449   2.390   1.803   0.126 -1.5589  0.3114 -1.7463
 8664SOL     OW37450   2.233   1.074   9.415 -0.4358  0.2862 -0.3376
 8664SOL    HW137451   2.219   0.998   9.358 -1.5077 -0.6328  1.1282
 8664SOL    HW237452   2.203   1.037   9.499  0.1535 -1.7253 -0.9967
 8665SOL     OW37453   2.072   3.326  15.575 -0.2777 -0.1388  0.9182
 8665SOL    HW137454   2.144   3.287  15.526  0.2275 -0.4273  1.8905
 8665SOL    HW237455   2.112   3.343  15.661  2.0437 -1.3843  0.0858
 8666SOL     OW37456   4.014   3.504   5.671  0.0513  0.2290 -0.0153
 8666SOL    HW137457   4.016   3.533   5.580 -0.1557 -0.7283 -0.3260
 8666SOL    HW237458   3.994   3.588   5.713 -0.3589 -0.4802  1.2136
 8667SOL     OW37459   3.919   3.378   3.549 -0.0118  0.0625  0.0804
 8667SOL    HW137460   3.991   3.319   3.571 -0.7780 -0.8694  0.1120
 8667SOL    HW237461   3.846   3.335   3.595 -0.6110  1.4100  0.3995
 8668SOL     OW37462   1.008   0.718   2.525  0.2875 -0.1845  0.3531
 8668SOL    HW137463   0.925   0.696   2.483 -0.8617 -1.0287  3.0189
 8668SOL    HW237464   0.993   0.812   2.534 -1.5885 -0.4906  0.4860
 8669SOL     OW37465   3.448   3.892   4.106 -0.4847 -0.2334  0.3003
 8669SOL    HW137466   3.534   3.923   4.075 -0.3353  0.4666  1.3987
 8669SOL    HW237467   3.445   3.803   4.071  1.4591 -0.6016  1.0394
 8670SOL     OW37468   1.364   2.859   2.357  0.3150  0.0406  0.3966
 8670SOL    HW137469   1.355   2.763   2.361 -0.9925  0.1834  0.7836
 8670SOL    HW237470   1.274   2.889   2.350  0.7336  1.1476 -0.1943
 8671SOL     OW37471   0.728   0.784   1.483 -0.0959  0.2041 -0.3340
 8671SOL    HW137472   0.788   0.734   1.428  0.2798  1.4792 -1.0758
 8671SOL    HW237473   0.778   0.789   1.564  0.1799  3.1749 -0.7005
 8672SOL     OW37474   4.142   3.025  13.444 -0.1868 -0.0956  0.0355
 8672SOL    HW137475   4.103   3.087  13.381  0.1383  0.8901  0.7978
 8672SOL    HW237476   4.181   3.086  13.507 -0.3014  1.1040 -1.0341
 8673SOL     OW37477   1.358   4.312  14.048 -0.0262 -0.3269  0.0913
 8673SOL    HW137478   1.274   4.347  14.021 -0.4156  0.2345  2.0340
 8673SOL    HW237479   1.339   4.294  14.140  0.8393  1.1040  0.5543
 8674SOL     OW37480   0.752   1.362   5.866 -0.7319 -0.2533  0.3902
 8674SOL    HW137481   0.825   1.348   5.806  1.0583 -0.8806  2.6990
 8674SOL    HW237482   0.733   1.269   5.878  0.6558 -0.6954 -0.8338
 8675SOL     OW37483   4.434   3.464  10.246  0.2285 -0.1613  0.3422
 8675SOL    HW137484   4.516   3.460  10.295  1.3809  2.6300 -1.3939
 8675SOL    HW237485   4.409   3.552  10.276  1.3721  0.5180 -0.7112
 8676SOL     OW37486   1.808   2.694   5.467 -0.4204  0.8648  0.1775
 8676SOL    HW137487   1.794   2.774   5.517 -0.5633  1.9419 -1.5939
 8676SOL    HW237488   1.771   2.713   5.380 -0.5739  1.5893  0.4011
 8677SOL     OW37489   0.714   1.525   7.037  0.0148 -0.0733 -0.1239
 8677SOL    HW137490   0.750   1.437   7.033  1.0239  0.1994  3.0643
 8677SOL    HW237491   0.655   1.513   6.963  0.4397  2.8446 -0.9549
 8678SOL     OW37492   1.596   2.983  12.800  0.1317 -0.5958  0.1396
 8678SOL    HW137493   1.582   3.000  12.893 -0.3672  1.0736 -0.2462
 8678SOL    HW237494   1.594   2.887  12.798  0.1098 -0.6056  0.5721
 8679SOL     OW37495   4.716   1.879   3.669  0.6772 -0.1918 -0.5737
 8679SOL    HW137496   4.702   1.785   3.652  2.2643 -0.3455 -0.9834
 8679SOL    HW237497   4.711   1.886   3.765 -2.7478  0.3018 -0.7673
 8680SOL     OW37498   2.759   1.840   0.629  0.1823  0.3211  0.1001
 8680SOL    HW137499   2.710   1.851   0.547  1.0480  1.9862 -0.2083
 8680SOL    HW237500   2.690   1.823   0.693 -0.1842  0.7212 -0.1844
 8681SOL     OW37501   1.678   4.243   4.586  0.2203 -0.8246  0.1215
 8681SOL    HW137502   1.769   4.217   4.600  0.1374  0.3905  3.0455
 8681SOL    HW237503   1.633   4.160   4.602  0.8932 -1.2195 -0.0425
 8682SOL     OW37504   3.059   3.705   0.202  0.4635  0.1535 -0.2398
 8682SOL    HW137505   3.008   3.624   0.199  0.3078  0.2056  1.2575
 8682SOL    HW237506   3.124   3.671   0.263 -0.8986  0.6139  1.4476
 8683SOL     OW37507   4.550   3.384   4.601  0.5576  0.2697  0.0383
 8683SOL    HW137508   4.615   3.441   4.644 -0.6384  1.3062  0.4812
 8683SOL    HW237509   4.476   3.411   4.655  1.7760  0.3788  1.6853
 8684SOL     OW37510   4.267   2.767  12.868  0.4841  0.3517 -0.1931
 8684SOL    HW137511   4.232   2.826  12.935  0.5476  0.3229 -0.1341
 8684SOL    HW237512   4.190   2.760  12.812  0.5477 -1.1966 -0.0884
 8685SOL     OW37513   0.297   0.074   6.016 -0.0223  0.0433 -0.1227
 8685SOL    HW137514   0.284   4.703   6.002  2.9598 -0.2040 -1.2730
 8685SOL    HW237515   0.207   0.105   6.016 -0.6430 -1.7375 -0.3621
 8686SOL     OW37516   1.233   4.148  14.610  0.3546  0.2125  0.0711
 8686SOL    HW137517   1.219   4.071  14.665  1.8591  1.7388  2.6441
 8686SOL    HW237518   1.176   4.210  14.657  0.6448  0.5085  0.0338
 8687SOL     OW37519   0.106   4.232   0.738 -0.1189 -0.1819 -0.3324
 8687SOL    HW137520   0.116   4.326   0.721  2.2171 -0.4130 -0.1355
 8687SOL    HW237521   0.188   4.208   0.697 -0.1321 -1.3833  0.3529
 8688SOL     OW37522   2.337   3.036   5.999  0.1254 -0.5067 -0.2553
 8688SOL    HW137523   2.406   3.054   5.936  0.4352  1.5439  0.6465
 8688SOL    HW237524   2.310   2.950   5.968  0.6837 -1.1395  1.0273
 8689SOL     OW37525   2.622   2.966   5.396 -0.3859 -0.1467  0.2170
 8689SOL    HW137526   2.588   2.879   5.376 -1.5144  0.5310 -0.7783
 8689SOL    HW237527   2.543   3.016   5.412  0.1039  1.0852 -1.1914
 8690SOL     OW37528   4.087   3.473  15.495  0.0121 -0.1444 -0.2637
 8690SOL    HW137529   4.035   3.551  15.477 -0.6359 -0.4344  0.3359
 8690SOL    HW237530   4.099   3.443  15.405 -0.1823  2.0935 -1.0390
 8691SOL     OW37531   2.539   1.566   4.810 -0.1829  0.0529 -0.5707
 8691SOL    HW137532   2.468   1.630   4.817 -0.0297 -0.0915  2.0444
 8691SOL    HW237533   2.559   1.555   4.903 -0.1793 -3.0449 -0.9431
 8692SOL     OW37534   1.090   3.031   7.939  0.0033 -0.1494 -0.7573
 8692SOL    HW137535   1.171   3.082   7.948 -0.2344 -0.6455  3.9014
 8692SOL    HW237536   1.047   3.048   8.022  0.4247 -0.9197 -0.3889
 8693SOL     OW37537   2.972   1.816  17.380 -0.3887 -0.3493 -0.2077
 8693SOL    HW137538   2.960   1.724  17.360  1.4018 -0.5885 -0.2147
 8693SOL    HW237539   3.066   1.818  17.399 -0.2941 -1.3238 -0.6010
 8694SOL     OW37540   3.767   2.004   5.226  0.5267 -0.1771 -0.1398
 8694SOL    HW137541   3.856   1.999   5.262  0.4895  1.7191  0.2011
 8694SOL    HW237542   3.768   2.079   5.166  1.4933 -1.7659 -2.1007
 8695SOL     OW37543   0.685   0.955  15.781  0.4625  0.0430 -0.3444
 8695SOL    HW137544   0.769   0.932  15.742  0.7085  0.2587  0.0632
 8695SOL    HW237545   0.641   0.873  15.802  2.2038 -1.4531 -2.5406
 8696SOL     OW37546   0.786   0.773   1.786  0.8923  0.2351  0.5628
 8696SOL    HW137547   0.720   0.724   1.834  0.3177  0.8631  0.4111
 8696SOL    HW237548   0.786   0.858   1.830  0.9888  0.0854  0.8536
 8697SOL     OW37549   3.102   0.555   7.555  0.1328 -0.2383 -0.1868
 8697SOL    HW137550   3.194   0.552   7.578  0.8931 -0.5876 -3.2290
 8697SOL    HW237551   3.087   0.463   7.531 -3.1484  0.2536 -0.1127
 8698SOL     OW37552   4.093   3.281  16.516 -0.3578 -0.0617  0.3425
 8698SOL    HW137553   4.079   3.355  16.574  0.5384 -0.2886  0.8424
 8698SOL    HW237554   4.171   3.239  16.554 -0.8118 -0.9818  0.2750
 8699SOL     OW37555   4.597   2.585   5.112  0.7506  0.3391  0.0181
 8699SOL    HW137556   4.502   2.578   5.125  0.6618  2.5801  0.6203
 8699SOL    HW237557   4.604   2.659   5.052 -0.3705  0.1111 -0.3925
 8700SOL     OW37558   4.381   3.608   4.663 -0.0519  0.0288 -0.3136
 8700SOL    HW137559   4.338   3.692   4.678  1.2822  0.2840  2.0267
 8700SOL    HW237560   4.314   3.553   4.703  1.1244 -0.2397  1.2669
 8701SOL     OW37561   3.508   1.949  11.718 -0.3197  0.5403  1.1619
 8701SOL    HW137562   3.565   1.994  11.655 -1.1917 -2.1564 -1.5978
 8701SOL    HW237563   3.505   2.002  11.797 -2.7318  2.4467 -0.1967
 8702SOL     OW37564   1.331   2.674   7.281 -0.2393 -0.5439 -0.0907
 8702SOL    HW137565   1.309   2.722   7.361 -0.6068  1.0568 -1.1484
 8702SOL    HW237566   1.254   2.643   7.234 -1.5976  1.6713  0.6721
 8703SOL     OW37567   0.518   3.449   9.193 -0.3691 -0.2430 -0.4592
 8703SOL    HW137568   0.496   3.526   9.246  2.7557  0.0943  0.3524
 8703SOL    HW237569   0.579   3.477   9.125  0.5121 -2.1521 -0.4599
 8704SOL     OW37570   1.811   1.359   7.339  0.2821  0.6959 -0.3475
 8704SOL    HW137571   1.810   1.413   7.260  2.8425  3.0043  1.1794
 8704SOL    HW237572   1.725   1.384   7.373 -0.2616 -2.3589  0.4961
 8705SOL     OW37573   4.279   3.584   8.066  1.0291  0.0381 -1.0702
 8705SOL    HW137574   4.250   3.671   8.093 -0.2095  0.1320 -2.6929
 8705SOL    HW237575   4.202   3.555   8.017  1.5927 -0.9656 -1.3709
 8706SOL     OW37576   1.670   2.691   0.035  0.4118  0.3677 -0.3819
 8706SOL    HW137577   1.718   2.766   0.070 -0.3523  0.6715  0.0212
 8706SOL    HW237578   1.733   2.622   0.057 -1.6788 -1.1034  1.0698
 8707SOL     OW37579   1.975   1.122   4.406  0.2684 -0.1369  0.0506
 8707SOL    HW137580   1.977   1.142   4.500 -0.2268 -2.9864  0.6776
 8707SOL    HW237581   2.029   1.042   4.398 -1.5115 -1.3867  0.5599
 8708SOL     OW37582   0.066   4.286   2.828 -0.0279 -0.2922  0.0109
 8708SOL    HW137583   4.713   4.344   2.836 -0.3455 -0.6917 -0.1385
 8708SOL    HW237584   0.062   4.240   2.912 -0.9479 -1.9781 -0.9783
 8709SOL     OW37585   3.356   3.999   5.950 -0.0170  0.2846  0.1663
 8709SOL    HW137586   3.293   4.016   6.020  0.2984  1.4821  0.1509
 8709SOL    HW237587   3.417   3.938   5.992  0.9853  0.8461 -0.4636
 8710SOL     OW37588   4.263   2.052   9.997  0.2357 -0.6151  0.3532
 8710SOL    HW137589   4.332   2.042  10.063  0.2653  0.9584  0.5676
 8710SOL    HW237590   4.193   2.081  10.055  1.3656 -0.6233  1.7196
 8711SOL     OW37591   4.511   4.070   8.436 -0.1857 -0.1410  0.2546
 8711SOL    HW137592   4.501   4.088   8.529  0.1834 -0.0552  0.2763
 8711SOL    HW237593   4.437   4.111   8.392  0.6929 -0.3654 -1.4265
 8712SOL     OW37594   3.195   2.470   9.510 -0.0566  0.1582  0.2841
 8712SOL    HW137595   3.246   2.410   9.455  0.2236  0.4576  0.2199
 8712SOL    HW237596   3.211   2.552   9.464 -2.2817  0.5030  0.1258
 8713SOL     OW37597   2.492   0.956   0.290  0.0789  0.1820  0.2462
 8713SOL    HW137598   2.476   1.004   0.209 -0.4896 -0.4412 -0.0194
 8713SOL    HW237599   2.495   0.866   0.255 -0.9248  0.3054 -0.1592
 8714SOL     OW37600   1.135   2.351   3.402 -0.3163 -0.3475  0.1079
 8714SOL    HW137601   1.184   2.269   3.396  1.2229  0.5142  0.9760
 8714SOL    HW237602   1.119   2.347   3.496 -1.9999 -0.3371 -0.1775
 8715SOL     OW37603   2.108   0.510   6.974  0.1256  0.0005  0.7320
 8715SOL    HW137604   2.141   0.492   7.062 -2.0132 -0.0910  1.5264
 8715SOL    HW237605   2.044   0.579   6.992 -0.1555  0.0135 -0.3551
 8716SOL     OW37606   1.217   0.875   8.454 -0.4230 -0.0713 -0.4287
 8716SOL    HW137607   1.145   0.847   8.399  0.4229 -0.1042 -1.5154
 8716SOL    HW237608   1.194   0.816   8.526  1.2505  1.3647  1.2881
 8717SOL     OW37609   2.507   2.938   2.566 -0.4327 -0.3125 -0.5401
 8717SOL    HW137610   2.414   2.960   2.577 -1.1560 -2.8150 -1.7615
 8717SOL    HW237611   2.544   2.951   2.653 -0.9719  1.6259 -0.5849
 8718SOL     OW37612   2.647   3.324   1.197 -0.1773 -0.5348 -0.5539
 8718SOL    HW137613   2.649   3.231   1.171  2.0660 -0.8662  0.8614
 8718SOL    HW237614   2.558   3.339   1.229 -0.0022  0.1630 -0.4063
 8719SOL     OW37615   1.030   2.018   7.345 -0.0274  0.1643  0.3129
 8719SOL    HW137616   0.994   2.099   7.309  0.3758  0.9966  1.7858
 8719SOL    HW237617   0.990   2.031   7.431 -2.3993 -1.5268 -0.5333
 8720SOL     OW37618   4.106   0.022   3.038  0.6668 -0.2335  0.1176
 8720SOL    HW137619   4.061   0.106   3.040 -1.2046 -1.2774  1.2540
 8720SOL    HW237620   4.032   4.683   3.041  0.1441  0.4616  1.2349
 8721SOL     OW37621   3.350   0.471   2.380  0.5931  0.3093  0.1163
 8721SOL    HW137622   3.411   0.402   2.352 -2.1725 -1.6295 -1.1446
 8721SOL    HW237623   3.406   0.540   2.416  0.8963  0.2906 -0.3101
 8722SOL     OW37624   3.508   1.863  10.934  0.0780  0.1648 -0.2103
 8722SOL    HW137625   3.498   1.824  11.021 -1.2247 -0.3439 -0.5950
 8722SOL    HW237626   3.528   1.792  10.873  0.6591  0.4689 -0.3698
 8723SOL     OW37627   0.163   2.137   5.019  0.1662 -0.6542 -0.4119
 8723SOL    HW137628   0.068   2.149   5.026  0.0443 -0.7527 -1.7974
 8723SOL    HW237629   0.164   2.075   4.946 -1.6570 -2.1933  0.8763
 8724SOL     OW37630   0.475   3.666   1.473 -0.1041  0.1594  0.4522
 8724SOL    HW137631   0.488   3.660   1.379  2.1495 -0.2496  0.7861
 8724SOL    HW237632   0.559   3.634   1.505  0.5542  2.5723  1.1536
 8725SOL     OW37633   1.030   3.049  16.226  0.5753 -0.7105  0.2464
 8725SOL    HW137634   0.981   3.052  16.144  0.5032  1.7284  0.3673
 8725SOL    HW237635   0.958   3.054  16.289  0.0687  1.4501 -0.4780
 8726SOL     OW37636   2.261   0.110  16.695  0.0032 -0.0883  0.0514
 8726SOL    HW137637   2.302   0.028  16.723 -1.8637 -0.7322  0.9004
 8726SOL    HW237638   2.217   0.081  16.615 -0.1524  3.3713 -1.1137
 8727SOL     OW37639   1.221   1.616   0.405  0.0499  0.2160 -0.5011
 8727SOL    HW137640   1.316   1.618   0.393  0.0155  0.3192 -0.7576
 8727SOL    HW237641   1.197   1.541   0.351  0.9858 -0.7690  0.4729
 8728SOL     OW37642   2.252   0.629   2.954 -0.1436  0.2459  0.5478
 8728SOL    HW137643   2.295   0.606   3.036  0.1021 -2.2224 -0.2697
 8728SOL    HW237644   2.196   0.552   2.945  1.3927 -0.5143 -2.4980
 8729SOL     OW37645   4.330   4.415   7.372  0.1555 -0.4234 -0.1080
 8729SOL    HW137646   4.403   4.354   7.363 -0.3434 -1.0206 -0.0962
 8729SOL    HW237647   4.274   4.373   7.306 -0.1797 -0.3658  0.1403
 8730SOL     OW37648   1.152   1.794  10.865 -0.2709  0.4907  0.1746
 8730SOL    HW137649   1.118   1.713  10.828  0.3275  0.9390 -1.3613
 8730SOL    HW237650   1.074   1.849  10.854 -0.4661  0.6925  2.5645
 8731SOL     OW37651   0.027   0.422   8.203 -0.1048  0.6226 -0.1435
 8731SOL    HW137652   0.036   0.498   8.260 -1.2323  1.2669 -0.8305
 8731SOL    HW237653   0.041   0.355   8.269 -0.3487 -0.1000 -0.8295
 8732SOL     OW37654   2.213   2.191  17.638  0.4302  0.4173  0.4941
 8732SOL    HW137655   2.263   2.178  17.558 -1.2469  2.0346 -0.8215
 8732SOL    HW237656   2.125   2.214  17.609  0.4088 -0.5621 -0.2266
 8733SOL     OW37657   2.794   4.493  12.720  0.3348 -0.2898 -0.0160
 8733SOL    HW137658   2.764   4.483  12.810  1.1384  3.8635  0.6912
 8733SOL    HW237659   2.770   4.584  12.705  1.6156  0.1580  0.6163
 8734SOL     OW37660   1.669   4.200   5.355  0.0379 -0.1729 -0.2612
 8734SOL    HW137661   1.586   4.161   5.330  1.1128 -1.6773 -1.4942
 8734SOL    HW237662   1.733   4.133   5.329 -0.3854 -0.6766 -0.0108
 8735SOL     OW37663   2.111   0.928  15.722 -0.4447  0.3541  0.4071
 8735SOL    HW137664   2.185   0.903  15.667 -0.0727  3.2604 -0.4280
 8735SOL    HW237665   2.055   0.852  15.704 -0.2525  0.0832  0.9515
 8736SOL     OW37666   4.340   1.523   6.485 -0.2940 -0.0259  0.0367
 8736SOL    HW137667   4.341   1.462   6.411 -0.6696  0.3986 -0.3119
 8736SOL    HW237668   4.265   1.481   6.527 -0.4824  0.3186  0.0361
 8737SOL     OW37669   2.460   0.138   3.161 -0.4258  0.7633 -0.4138
 8737SOL    HW137670   2.422   0.051   3.157 -0.4489  0.8636 -2.4398
 8737SOL    HW237671   2.467   0.160   3.068  0.4254 -0.8791 -0.7292
 8738SOL     OW37672   3.354   2.265   3.940  0.0988  0.3732 -0.0085
 8738SOL    HW137673   3.340   2.180   3.981 -0.2642  0.1335 -0.6260
 8738SOL    HW237674   3.367   2.323   4.015  0.3664 -0.3970  0.5409
 8739SOL     OW37675   4.233   2.341  13.623 -0.1966 -0.3237  0.5180
 8739SOL    HW137676   4.201   2.255  13.647  2.4398 -2.3717 -3.2539
 8739SOL    HW237677   4.206   2.400  13.694 -2.2098 -2.1421  1.2667
 8740SOL     OW37678   0.364   1.930   3.481 -0.1396  0.0844  0.0682
 8740SOL    HW137679   0.402   1.992   3.420 -0.2749  0.8028  0.7045
 8740SOL    HW237680   0.274   1.964   3.482  0.0884  0.7027 -0.6776
 8741SOL     OW37681   3.768   1.260   6.458 -0.0536 -0.2193 -0.1276
 8741SOL    HW137682   3.802   1.174   6.434  0.3913 -0.0902  0.0277
 8741SOL    HW237683   3.807   1.314   6.389  0.0970 -0.3850 -0.1725
 8742SOL     OW37684   0.308   1.431   1.632 -0.0909  0.5169  0.3629
 8742SOL    HW137685   0.375   1.381   1.678 -1.2021 -0.8988  0.4262
 8742SOL    HW237686   0.235   1.370   1.643 -0.0576  0.4537  0.2437
 8743SOL     OW37687   0.455   1.544   3.717 -0.0563 -0.8377  0.1293
 8743SOL    HW137688   0.387   1.483   3.745  0.2599 -2.2653 -2.1814
 8743SOL    HW237689   0.500   1.567   3.798 -0.6986  1.0836 -0.0514
 8744SOL     OW37690   2.589   4.322  10.441 -0.0498  0.1301 -0.4365
 8744SOL    HW137691   2.495   4.338  10.437 -0.0109  0.3120 -0.7151
 8744SOL    HW237692   2.585   4.229  10.463  1.5380 -0.0622 -0.9730
 8745SOL     OW37693   1.823   4.423   1.642 -0.1955 -0.4098 -0.4289
 8745SOL    HW137694   1.756   4.367   1.682  0.6699 -0.9793  0.1971
 8745SOL    HW237695   1.770   4.456   1.569  2.1492  0.1652 -1.8514
 8746SOL     OW37696   2.418   1.594  17.102 -0.8722 -0.0672 -0.4542
 8746SOL    HW137697   2.373   1.527  17.154  1.8265  0.7537  2.9763
 8746SOL    HW237698   2.367   1.581  17.022  1.0567 -0.2160 -1.6601
 8747SOL     OW37699   3.756   4.057   6.778  0.1947 -0.1821 -0.2177
 8747SOL    HW137700   3.811   3.997   6.827 -0.2800  1.5148  2.4179
 8747SOL    HW237701   3.818   4.115   6.733  2.3392 -1.2643  1.3370
 8748SOL     OW37702   1.628   2.293  12.547 -0.1635  0.2380  0.2392
 8748SOL    HW137703   1.695   2.231  12.517 -0.0848  1.3814 -1.9467
 8748SOL    HW237704   1.577   2.232  12.600 -0.4512 -0.3151 -0.6698
 8749SOL     OW37705   0.502   4.332  14.785  0.6115  0.0731 -0.0764
 8749SOL    HW137706   0.573   4.300  14.840 -0.0357  1.3081  1.4689
 8749SOL    HW237707   0.429   4.275  14.806 -1.1866  1.3379 -2.8495
 8750SOL     OW37708   3.004   0.580  12.107  0.0032 -0.7454  0.1979
 8750SOL    HW137709   2.999   0.675  12.093 -2.2578 -0.8912 -0.0461
 8750SOL    HW237710   3.041   0.546  12.026 -0.3850  0.3666 -0.4536
 8751SOL     OW37711   0.966   2.912   1.264 -0.0600 -0.4764 -0.4937
 8751SOL    HW137712   1.017   2.978   1.217 -2.1164  1.6905  0.3216
 8751SOL    HW237713   0.994   2.838   1.210 -0.7025  0.4765 -2.1350
 8752SOL     OW37714   3.854   0.711   8.222  0.0184  0.0671  0.1147
 8752SOL    HW137715   3.948   0.700   8.207  0.0532 -2.5286  2.1474
 8752SOL    HW237716   3.840   0.802   8.246  0.0769  0.8981 -3.0160
 8753SOL     OW37717   2.244   0.512   4.939  0.6475  0.1214  0.5417
 8753SOL    HW137718   2.292   0.457   5.001  1.2894 -0.2347 -0.2685
 8753SOL    HW237719   2.165   0.535   4.989 -0.1923 -0.1487 -0.6637
 8754SOL     OW37720   3.593   2.269   3.050 -0.5014  0.1242 -0.6231
 8754SOL    HW137721   3.540   2.339   3.011 -0.8709 -0.0977 -0.5138
 8754SOL    HW237722   3.610   2.210   2.977 -2.9834 -1.3276 -0.0096
 8755SOL     OW37723   0.796   2.455  12.685  0.1745 -0.0809 -0.2898
 8755SOL    HW137724   0.806   2.362  12.703  0.1268  0.1697  1.0396
 8755SOL    HW237725   0.721   2.478  12.739 -1.0083  0.7376 -2.2972
 8756SOL     OW37726   2.300   2.621   6.931 -0.0687 -0.3680 -0.1859
 8756SOL    HW137727   2.269   2.708   6.955 -0.7459 -0.4238 -0.8596
 8756SOL    HW237728   2.393   2.641   6.928 -0.1116 -0.3211 -1.2608
 8757SOL     OW37729   1.867   0.303   7.959  0.1610  0.0635 -0.2014
 8757SOL    HW137730   1.958   0.286   7.933  0.3723 -1.3791  1.4243
 8757SOL    HW237731   1.827   0.229   7.914 -0.0023 -0.0980  0.2044
 8758SOL     OW37732   0.720   3.416   9.732 -0.9540 -0.4075  0.3854
 8758SOL    HW137733   0.808   3.411   9.695 -1.3267 -1.4571 -0.3394
 8758SOL    HW237734   0.715   3.346   9.797 -0.0999 -1.7681 -1.0253
 8759SOL     OW37735   2.433   4.433   4.044 -0.1727 -0.5152 -0.5313
 8759SOL    HW137736   2.366   4.414   4.109 -0.2599 -1.9438 -1.0421
 8759SOL    HW237737   2.413   4.371   3.974  1.7692 -1.1345 -0.5610
 8760SOL     OW37738   3.971   2.443   4.901  0.7618  0.8004 -0.4152
 8760SOL    HW137739   4.040   2.509   4.901 -0.7050  2.3488 -4.4352
 8760SOL    HW237740   3.895   2.494   4.928  0.4412 -0.7796  1.6991
 8761SOL     OW37741   3.910   4.270   9.207  0.2673  0.1090 -0.0330
 8761SOL    HW137742   3.938   4.301   9.293  2.9812 -4.1382  0.5842
 8761SOL    HW237743   3.858   4.349   9.193 -0.1561 -0.5798 -2.2684
 8762SOL     OW37744   0.376   0.193   7.663 -0.2807  0.0649  0.2219
 8762SOL    HW137745   0.430   0.249   7.608 -0.2974 -1.5034 -1.4028
 8762SOL    HW237746   0.321   0.253   7.713  0.8029  0.3030  1.1328
 8763SOL     OW37747   3.609   0.267   1.301  0.6071 -0.3722  0.3653
 8763SOL    HW137748   3.566   0.214   1.368  0.0275 -0.2522  0.0905
 8763SOL    HW237749   3.571   0.216   1.229 -2.9340 -1.4643  3.0171
 8764SOL     OW37750   2.761   1.728   1.252  0.1763  0.0066  0.3124
 8764SOL    HW137751   2.676   1.763   1.277  0.0478 -0.2585  0.2529
 8764SOL    HW237752   2.776   1.664   1.322 -1.3494 -1.2676 -0.5092
 8765SOL     OW37753   1.496   3.262   0.476 -0.6003  0.3382  0.2699
 8765SOL    HW137754   1.440   3.331   0.510 -0.1603  1.0856 -0.5373
 8765SOL    HW237755   1.575   3.307   0.447  0.6048 -1.4669  0.7199
 8766SOL     OW37756   1.319   1.660   8.004  0.4613 -0.0769  0.2328
 8766SOL    HW137757   1.408   1.692   8.020  0.6295 -0.1663 -0.5202
 8766SOL    HW237758   1.337   1.575   7.963  0.5597  0.9761 -1.8863
 8767SOL     OW37759   3.671   2.165   4.051  0.6231 -0.0271  0.1786
 8767SOL    HW137760   3.648   2.254   4.023 -0.6690 -0.8048 -1.2668
 8767SOL    HW237761   3.763   2.188   4.061  1.0957 -0.7181 -2.5154
 8768SOL     OW37762   3.785   3.411   6.723 -0.4389 -0.2215 -0.1420
 8768SOL    HW137763   3.867   3.385   6.764  0.0051  2.1917  0.5472
 8768SOL    HW237764   3.719   3.379   6.785 -1.2921  0.3064 -0.7750
 8769SOL     OW37765   1.403   1.371   9.012  0.1780 -0.0699 -0.7350
 8769SOL    HW137766   1.365   1.364   8.925 -0.6348  2.0931 -0.5456
 8769SOL    HW237767   1.375   1.289   9.053  0.6307  0.7552  1.2610
 8770SOL     OW37768   4.152   0.971   7.776 -0.2311  0.4492  0.1011
 8770SOL    HW137769   4.247   0.963   7.767 -0.4251 -0.9696 -0.6817
 8770SOL    HW237770   4.132   1.055   7.734 -1.0928  0.0981 -0.1941
 8771SOL     OW37771   1.853   3.769  16.608 -0.5366  0.6749  0.7334
 8771SOL    HW137772   1.878   3.770  16.515  0.5457  0.6443  1.0321
 8771SOL    HW237773   1.845   3.675  16.624 -3.9908  0.9752  0.8426
 8772SOL     OW37774   0.598   0.199   8.559  0.3327  0.2914  0.2416
 8772SOL    HW137775   0.682   0.158   8.539 -0.2613 -0.7244 -0.1656
 8772SOL    HW237776   0.615   0.293   8.570  0.7305  0.4185 -1.3928
 8773SOL     OW37777   0.788   0.419   4.017 -0.1131  0.7424  0.7211
 8773SOL    HW137778   0.863   0.471   3.989 -1.0430  2.1872  0.8858
 8773SOL    HW237779   0.734   0.450   3.944  1.5326  2.4681  0.2259
 8774SOL     OW37780   2.300   2.554  12.680 -0.3547 -0.2812  0.0834
 8774SOL    HW137781   2.209   2.583  12.683  0.1209  1.2296  0.1997
 8774SOL    HW237782   2.299   2.501  12.760  1.3410 -0.6986 -0.1747
 8775SOL     OW37783   0.445   4.515   0.947 -0.1752  0.3058 -0.5865
 8775SOL    HW137784   0.353   4.523   0.972 -0.2864  0.6873 -1.1124
 8775SOL    HW237785   0.444   4.537   0.854 -0.4731  0.3304 -0.5778
 8776SOL     OW37786   4.026   1.213   8.391  0.2897  0.4496  0.0003
 8776SOL    HW137787   3.949   1.190   8.444  1.0483  1.6201  1.6423
 8776SOL    HW237788   3.988   1.269   8.324  1.4945  2.7812  1.2709
 8777SOL     OW37789   2.945   2.696   8.616  0.4745  0.1239 -0.4913
 8777SOL    HW137790   2.890   2.644   8.675  1.0156 -0.3243 -0.3902
 8777SOL    HW237791   2.872   2.724   8.561 -0.3106  0.4620  0.7023
 8778SOL     OW37792   1.349   1.511   5.873  0.1473  0.0052  0.5038
 8778SOL    HW137793   1.352   1.417   5.860 -1.3362  0.1308 -0.7628
 8778SOL    HW237794   1.256   1.528   5.859  0.1102 -0.7491 -0.1355
 8779SOL     OW37795   0.995   1.591   2.695  0.1952  0.3052 -0.3658
 8779SOL    HW137796   0.917   1.644   2.678  0.6862  1.5339  1.2981
 8779SOL    HW237797   1.024   1.550   2.613  1.7636  0.1727  0.2601
 8780SOL     OW37798   2.428   3.593   4.321  0.2809  1.0281 -0.4480
 8780SOL    HW137799   2.452   3.680   4.354 -0.1937  0.9637  0.0704
 8780SOL    HW237800   2.378   3.560   4.395 -1.1336 -0.3172 -2.0095
 8781SOL     OW37801   1.682   0.731   7.932 -0.1957  0.3755  0.0186
 8781SOL    HW137802   1.657   0.648   7.973  2.1893  0.2914  1.3344
 8781SOL    HW237803   1.724   0.771   8.008  2.1069 -0.7294 -0.6519
 8782SOL     OW37804   4.101   3.394   3.953  0.2978 -0.2084 -0.2107
 8782SOL    HW137805   4.185   3.430   3.983 -0.1101  0.7244 -0.1753
 8782SOL    HW237806   4.075   3.460   3.889  0.2253  0.5977  0.6462
 8783SOL     OW37807   2.360   1.725   5.350  0.3550  0.8010 -0.2820
 8783SOL    HW137808   2.452   1.745   5.331  0.8557  0.3399  1.6735
 8783SOL    HW237809   2.319   1.758   5.270  0.5267 -0.2271 -0.7978
 8784SOL     OW37810   4.498   2.021   1.046 -0.1125  0.2779 -0.6784
 8784SOL    HW137811   4.406   2.021   1.070  0.2312 -1.7312  0.6133
 8784SOL    HW237812   4.481   2.040   0.954 -2.0988 -1.2637 -0.6153
 8785SOL     OW37813   2.945   4.482   9.361  0.5067  0.6575 -0.4356
 8785SOL    HW137814   3.014   4.426   9.396  0.1270  0.2561 -0.3253
 8785SOL    HW237815   2.864   4.432   9.363  1.0523 -0.3011 -2.2316
 8786SOL     OW37816   4.685   3.749   4.957  0.0490  0.4938  0.2845
 8786SOL    HW137817   0.005   3.764   5.042  1.4461  0.8721 -0.4759
 8786SOL    HW237818   0.008   3.669   4.934 -4.0311 -1.8769  0.5523
 8787SOL     OW37819   4.149   2.940   5.727  0.2582  0.1453  0.0099
 8787SOL    HW137820   4.156   3.012   5.791  0.7994  1.1199 -1.1495
 8787SOL    HW237821   4.243   2.936   5.715  0.2734  0.6262 -0.0609
 8788SOL     OW37822   0.575   1.135   8.800 -0.2026 -0.1484 -0.1287
 8788SOL    HW137823   0.663   1.111   8.830  0.6367  1.2340 -1.4554
 8788SOL    HW237824   0.524   1.082   8.861  0.9931 -2.9092 -1.5126
 8789SOL     OW37825   2.103   2.494  11.813  0.4023  0.1403 -0.1112
 8789SOL    HW137826   2.164   2.567  11.807 -1.1393  1.4026 -0.2299
 8789SOL    HW237827   2.093   2.480  11.907  1.2261 -0.3421 -0.0932
 8790SOL     OW37828   0.886   4.203  11.014  0.2911 -0.5371 -0.1405
 8790SOL    HW137829   0.836   4.253  10.949  0.2032 -0.0468  0.3002
 8790SOL    HW237830   0.912   4.272  11.076  0.1757  2.0526 -2.9731
 8791SOL     OW37831   1.051   0.067  10.476 -0.4088  0.5601  0.2724
 8791SOL    HW137832   1.141   0.078  10.446 -0.1946  1.7682  1.3681
 8791SOL    HW237833   1.062   0.081  10.570 -2.6444  0.4622  0.5547
 8792SOL     OW37834   0.787   4.279   9.852  0.3006 -0.4883 -0.1734
 8792SOL    HW137835   0.841   4.334   9.909 -0.1033 -0.8002  0.5152
 8792SOL    HW237836   0.854   4.217   9.823  0.6814 -0.0006 -0.3263
 8793SOL     OW37837   1.725   0.830   9.466 -0.0419 -0.1756 -0.2386
 8793SOL    HW137838   1.708   0.770   9.394 -0.0278 -1.8186  1.1178
 8793SOL    HW237839   1.720   0.771   9.541  0.1205  0.9131  0.6335
 8794SOL     OW37840   2.516   4.064   2.035  0.0552 -0.3336 -0.4387
 8794SOL    HW137841   2.538   3.971   2.045 -0.4622 -0.3273  0.7786
 8794SOL    HW237842   2.592   4.083   1.980  0.4567 -1.9333 -0.4527
 8795SOL     OW37843   1.643   2.731   8.056  0.1536 -0.4810  0.0752
 8795SOL    HW137844   1.690   2.773   7.983  1.1339 -2.3505 -0.3696
 8795SOL    HW237845   1.629   2.646   8.014  1.1748 -0.1009 -1.0707
 8796SOL     OW37846   0.637   0.981   5.137 -0.2460 -0.0221  0.1973
 8796SOL    HW137847   0.589   0.900   5.155 -1.6679  0.8182  0.1553
 8796SOL    HW237848   0.727   0.954   5.156 -0.2525  1.3317  2.2330
 8797SOL     OW37849   1.567   2.641   6.051 -0.3002  0.2962 -0.3893
 8797SOL    HW137850   1.660   2.619   6.046 -0.2190  0.7761 -0.9299
 8797SOL    HW237851   1.575   2.717   6.109 -0.5580  0.7469 -0.9470
 8798SOL     OW37852   3.434   4.495   6.464 -0.0324 -0.0387 -0.1194
 8798SOL    HW137853   3.441   4.587   6.491  1.3370  0.4278 -2.0960
 8798SOL    HW237854   3.492   4.453   6.527 -0.2879  0.3864  0.4002
 8799SOL     OW37855   4.307   0.607   1.804  0.1663 -0.2808 -0.0314
 8799SOL    HW137856   4.246   0.543   1.768  1.0966  0.2915 -2.6925
 8799SOL    HW237857   4.260   0.637   1.881 -1.6434  1.9887 -2.0128
 8800SOL     OW37858   2.332   1.866   5.087  0.0761 -0.0351 -0.0886
 8800SOL    HW137859   2.388   1.823   5.023 -0.0428  1.8522 -1.4699
 8800SOL    HW237860   2.248   1.840   5.049  0.9690  0.7013 -2.5360
 8801SOL     OW37861   0.231   0.881  14.712  0.1716  0.1901 -0.1990
 8801SOL    HW137862   0.224   0.967  14.753 -0.4647 -0.1474  0.3956
 8801SOL    HW237863   0.140   0.854  14.702  0.6698 -1.3893 -0.4489
 8802SOL     OW37864   2.600   2.316  12.082  0.2626  0.0235 -0.0943
 8802SOL    HW137865   2.569   2.259  12.011  1.0753  0.2772 -0.6606
 8802SOL    HW237866   2.618   2.248  12.147 -1.4460  1.0967  1.4729
 8803SOL     OW37867   0.641   3.224   9.913 -0.0797  0.4954  0.3882
 8803SOL    HW137868   0.687   3.190   9.990  1.5421 -0.3312 -0.9332
 8803SOL    HW237869   0.557   3.255   9.945  0.2441  0.1319  1.6120
 8804SOL     OW37870   2.965   0.288   7.514  0.3917 -0.0743 -0.1529
 8804SOL    HW137871   2.913   0.228   7.461  0.4454  0.8366 -1.2287
 8804SOL    HW237872   3.056   0.263   7.496 -0.2897 -1.9540 -0.9750
 8805SOL     OW37873   4.307   0.340   7.506  0.0164 -0.2461  0.0328
 8805SOL    HW137874   4.312   0.317   7.413  2.1098  1.8125 -0.3655
 8805SOL    HW237875   4.244   0.278   7.542  0.6559 -1.1776 -0.4532
 8806SOL     OW37876   0.815   3.139   2.209  1.0956  0.4411 -0.1706
 8806SOL    HW137877   0.857   3.072   2.154 -0.1409  0.5648 -1.2845
 8806SOL    HW237878   0.769   3.079   2.267  3.1796  1.5433  2.5979
 8807SOL     OW37879   1.542   4.402   7.978  0.2343 -0.0529 -0.3478
 8807SOL    HW137880   1.494   4.344   8.038  2.5153 -0.4285  1.1356
 8807SOL    HW237881   1.578   4.461   8.045  0.3048 -0.3400 -0.1318
 8808SOL     OW37882   0.818   2.223  17.551  0.2168  0.9140  0.0690
 8808SOL    HW137883   0.797   2.132  17.572  4.0706  0.6644  2.8567
 8808SOL    HW237884   0.910   2.207  17.531  0.0908 -0.1662  0.3295
 8809SOL     OW37885   3.669   1.190   3.801  0.4032  0.2218  0.0281
 8809SOL    HW137886   3.605   1.130   3.765  0.4985 -1.1043  2.0775
 8809SOL    HW237887   3.676   1.163   3.893 -1.4762 -0.9172 -0.1807
 8810SOL     OW37888   1.574   0.637   5.373 -0.4898 -0.1679 -0.1979
 8810SOL    HW137889   1.522   0.556   5.375  1.3245 -1.2788  1.6680
 8810SOL    HW237890   1.526   0.695   5.432  0.5103  1.3186 -0.8387
 8811SOL     OW37891   0.060   3.572   1.826 -0.0013  0.4227 -0.5614
 8811SOL    HW137892   4.721   3.643   1.846 -1.6979 -0.7069 -1.7876
 8811SOL    HW237893   0.134   3.618   1.785 -1.0690  0.6355 -2.2692
 8812SOL     OW37894   0.119   0.595  11.120  0.4986  0.1145 -0.2119
 8812SOL    HW137895   0.096   0.629  11.206 -0.0917 -0.7734 -0.0192
 8812SOL    HW237896   0.099   0.669  11.063 -0.6689 -1.5935 -2.0134
 8813SOL     OW37897   1.474   0.402   5.339  0.1479 -0.0482  0.1803
 8813SOL    HW137898   1.452   0.322   5.388 -1.1103  0.5770  0.6280
 8813SOL    HW237899   1.550   0.363   5.296  0.2230  1.1738 -0.7882
 8814SOL     OW37900   3.093   4.593  11.034 -0.6672  0.3333  0.4500
 8814SOL    HW137901   3.068   4.672  11.081 -0.3568  0.4203  0.4691
 8814SOL    HW237902   3.170   4.620  10.983 -1.3907  1.0711 -0.2515
 8815SOL     OW37903   1.367   1.021   1.408  0.1729 -0.2978  0.3988
 8815SOL    HW137904   1.272   1.032   1.406  0.3196  0.8454 -0.7703
 8815SOL    HW237905   1.390   1.076   1.482  1.7279 -0.2210 -0.1325
 8816SOL     OW37906   1.903   1.664  14.753 -0.6071 -0.2395 -0.4485
 8816SOL    HW137907   1.888   1.653  14.847  0.9624 -1.9376 -0.3691
 8816SOL    HW237908   1.997   1.646  14.743 -0.2374  0.0814  2.5296
 8817SOL     OW37909   4.682   3.366   3.986 -0.0519 -0.3993  0.5011
 8817SOL    HW137910   0.023   3.306   4.026  0.4141  0.3299  0.8582
 8817SOL    HW237911   0.011   3.446   3.975 -2.2079  1.1220  1.5091
 8818SOL     OW37912   2.278   2.492   0.864  0.7323 -0.1948  0.1021
 8818SOL    HW137913   2.227   2.566   0.898 -2.4163 -1.6676 -1.4276
 8818SOL    HW237914   2.266   2.492   0.769  2.9897  1.1189 -0.1651
 8819SOL     OW37915   0.840   2.253   4.962  0.4587 -0.0165  0.1104
 8819SOL    HW137916   0.817   2.211   5.045  0.2066  0.1089  0.1023
 8819SOL    HW237917   0.753   2.245   4.923  0.5367 -1.8505  0.3272
 8820SOL     OW37918   4.277   4.234   8.438  0.0066  0.1091  0.5652
 8820SOL    HW137919   4.254   4.292   8.366  1.0261  0.6943  0.7139
 8820SOL    HW237920   4.199   4.201   8.482  0.1907 -1.0664  0.0224
 8821SOL     OW37921   1.079   0.411   4.804 -0.3125  0.4506  0.1703
 8821SOL    HW137922   1.155   0.430   4.858 -1.0746 -1.6571  1.9963
 8821SOL    HW237923   1.065   0.502   4.779  2.8181  0.9813  0.4054
 8822SOL     OW37924   4.184   2.731   5.293  0.1841  0.4870  0.1724
 8822SOL    HW137925   4.102   2.767   5.328  0.9486  2.6032 -0.1967
 8822SOL    HW237926   4.224   2.811   5.259  0.4487  0.7212  1.0214
 8823SOL     OW37927   2.082   0.600   6.149 -0.0959 -0.5547 -0.6106
 8823SOL    HW137928   2.043   0.516   6.124  1.8275 -1.5028 -0.3719
 8823SOL    HW237929   2.065   0.611   6.242  2.0399  0.6007 -0.3634
 8824SOL     OW37930   0.345   2.293  10.082  0.0470 -0.8909  0.6401
 8824SOL    HW137931   0.354   2.249  10.167  1.9542  1.3497  1.5820
 8824SOL    HW237932   0.429   2.338  10.077 -1.0098  1.0938  0.9135
 8825SOL     OW37933   1.715   0.802   8.183 -0.1095  0.2724  0.1004
 8825SOL    HW137934   1.666   0.767   8.257  1.8593  0.2005  1.3618
 8825SOL    HW237935   1.692   0.891   8.210 -1.6233  0.4827 -1.8241
 8826SOL     OW37936   4.690   0.683  16.555 -0.0754  0.4740  0.3713
 8826SOL    HW137937   4.614   0.633  16.585  0.7554 -1.1935 -0.3391
 8826SOL    HW237938   0.024   0.621  16.510  0.4844  1.7375 -0.6542
 8827SOL     OW37939   2.230   4.189   5.365  0.5159  0.2640  0.0501
 8827SOL    HW137940   2.231   4.123   5.435 -1.6055 -1.7164 -1.7867
 8827SOL    HW237941   2.258   4.139   5.289 -1.4575  0.7953 -0.9999
 8828SOL     OW37942   0.593   0.052  10.575 -0.0098  0.1482  0.2420
 8828SOL    HW137943   0.536   4.711  10.617  2.0629 -1.4587  0.6053
 8828SOL    HW237944   0.639   0.095  10.647  1.2345 -1.6882  0.5349
 8829SOL     OW37945   1.387   1.187   5.446  0.3062  0.4760 -0.2390
 8829SOL    HW137946   1.375   1.254   5.515 -1.8400 -0.1125 -0.0246
 8829SOL    HW237947   1.394   1.107   5.498 -0.5007 -0.0698 -0.9654
 8830SOL     OW37948   3.619   1.750   9.538  0.0620  0.4591  0.3961
 8830SOL    HW137949   3.690   1.722   9.596 -0.6953 -3.3166 -0.5304
 8830SOL    HW237950   3.640   1.842   9.520 -0.8738  0.2194 -1.9073
 8831SOL     OW37951   0.889   3.213   2.460 -0.1338 -0.5840 -0.2547
 8831SOL    HW137952   0.863   3.199   2.368 -2.5924  1.2439  0.1598
 8831SOL    HW237953   0.802   3.214   2.500  0.3418  0.2277  0.7544
 8832SOL     OW37954   4.486   4.556   9.661  0.7388 -0.3096 -0.2828
 8832SOL    HW137955   4.524   4.468   9.655  0.7271 -0.3593  0.3374
 8832SOL    HW237956   4.456   4.552   9.752 -2.1083  2.0218 -1.1532
 8833SOL     OW37957   0.799   1.930   2.888 -0.2260 -0.4013 -1.4431
 8833SOL    HW137958   0.713   1.956   2.920  0.5516 -1.0469  1.1951
 8833SOL    HW237959   0.850   2.011   2.880 -0.8913  0.2098  0.4135
 8834SOL     OW37960   2.420   3.927   7.914 -0.2720  0.1252  0.3544
 8834SOL    HW137961   2.347   3.866   7.913 -1.4204  1.5430 -1.7427
 8834SOL    HW237962   2.372   4.000   7.875  0.1047  0.4692  0.5327
 8835SOL     OW37963   4.094   0.208   1.548  0.2559  0.3498  0.6404
 8835SOL    HW137964   4.112   0.148   1.620 -3.3430  1.0166  2.1104
 8835SOL    HW237965   4.003   0.181   1.529  0.0219 -0.9674  3.6828
 8836SOL     OW37966   1.966   3.011   4.461  0.6628 -0.3919 -0.2212
 8836SOL    HW137967   1.984   3.104   4.449 -0.5330 -0.2022 -0.5218
 8836SOL    HW237968   2.056   2.978   4.460  0.9357  0.3152  0.9063
 8837SOL     OW37969   3.598   2.067  10.635 -0.3373 -0.2147 -0.6421
 8837SOL    HW137970   3.640   2.152  10.617  1.3093 -1.2047 -1.5389
 8837SOL    HW237971   3.663   2.007  10.598 -2.3725 -2.3962 -0.6682
 8838SOL     OW37972   1.032   2.738   1.042  0.7828 -0.1072  1.1877
 8838SOL    HW137973   0.978   2.737   0.963  0.2376 -1.7481  1.5871
 8838SOL    HW237974   1.098   2.793   1.001  0.0265 -0.6772 -0.7619
 8839SOL     OW37975   2.590   0.286   0.423 -0.1866  0.3523 -0.3285
 8839SOL    HW137976   2.683   0.285   0.399  0.0988  0.1587  0.7801
 8839SOL    HW237977   2.545   0.345   0.362 -2.0598 -0.2980  0.4210
 8840SOL     OW37978   4.084   2.147  14.686  0.1346  0.2202  0.0744
 8840SOL    HW137979   4.148   2.137  14.756 -0.9944  0.2210  1.0984
 8840SOL    HW237980   4.003   2.178  14.727  0.2744 -1.4776  1.6562
 8841SOL     OW37981   3.240   1.216   0.877  0.6715  0.1443  0.3095
 8841SOL    HW137982   3.159   1.267   0.868 -0.7630 -2.2387 -0.2753
 8841SOL    HW237983   3.293   1.281   0.832  1.4858 -0.7168  0.0214
 8842SOL     OW37984   0.339   4.720   0.389  0.3559  0.9794  0.0804
 8842SOL    HW137985   0.404   4.718   0.459 -0.3902  2.0777  0.7979
 8842SOL    HW237986   0.310   4.628   0.396  2.0758  0.4260 -0.1616
 8843SOL     OW37987   1.445   0.883   6.629 -0.5297  0.2514  0.1886
 8843SOL    HW137988   1.431   0.792   6.653  2.4227 -0.6781 -1.6415
 8843SOL    HW237989   1.529   0.896   6.673  0.2870  1.4033 -1.7433
 8844SOL     OW37990   4.009   3.301   8.430  0.2525 -0.3375 -0.3956
 8844SOL    HW137991   4.055   3.237   8.484  1.4217  0.6418 -0.2385
 8844SOL    HW237992   4.009   3.368   8.498 -0.0729 -1.1606  0.4184
 8845SOL     OW37993   0.652   3.325   2.562  0.2195  0.0430  0.0406
 8845SOL    HW137994   0.570   3.345   2.518  1.1456 -1.0053 -2.1392
 8845SOL    HW237995   0.693   3.411   2.559 -0.1839  0.2185 -0.4122
 8846SOL     OW37996   1.040   3.670  15.824 -0.2623 -0.6913  0.1738
 8846SOL    HW137997   1.009   3.709  15.906 -0.3901  0.3971 -0.3851
 8846SOL    HW237998   0.971   3.606  15.806 -1.5995  0.4154  1.2929
 8847SOL     OW37999   4.397   1.943  11.825 -0.0331 -0.1684 -0.0799
 8847SOL    HW138000   4.345   1.891  11.886 -1.9107 -0.1937 -1.6946
 8847SOL    HW238001   4.368   1.915  11.739 -0.2051  0.4556 -0.2273
 8848SOL     OW38002   2.393   3.392   6.366 -0.8108 -0.3819  0.5113
 8848SOL    HW138003   2.473   3.437   6.338 -0.4512 -0.6548  1.1114
 8848SOL    HW238004   2.401   3.379   6.460 -2.0649  1.1661  0.8255
 8849SOL     OW38005   0.784   1.610   6.691 -0.1045  0.5725  0.7541
 8849SOL    HW138006   0.871   1.591   6.656  0.0398 -2.0476  2.5888
 8849SOL    HW238007   0.812   1.649   6.774  2.6862 -1.2185  0.6347
 8850SOL     OW38008   4.349   2.045   4.462 -0.5085  0.2199 -0.5239
 8850SOL    HW138009   4.308   2.042   4.549 -1.6879 -3.3135 -1.2267
 8850SOL    HW238010   4.275   2.019   4.407 -1.2173 -1.5367  1.2491
 8851SOL     OW38011   4.063   1.465   6.198  0.0385 -0.2305 -0.3342
 8851SOL    HW138012   4.102   1.552   6.205 -1.0226  0.2464 -0.4477
 8851SOL    HW238013   3.972   1.495   6.205 -0.1923 -1.0170 -0.0229
 8852SOL     OW38014   1.543   2.796   3.881  0.0933  0.5305  0.2250
 8852SOL    HW138015   1.636   2.794   3.859  0.1005 -0.5708  0.3855
 8852SOL    HW238016   1.536   2.827   3.972  1.9471  1.3347  0.0816
 8853SOL     OW38017   0.485   2.012   2.940 -0.2439  0.1978  0.0155
 8853SOL    HW138018   0.412   1.951   2.928 -1.8161  2.0206  0.3429
 8853SOL    HW238019   0.438   2.089   2.907  1.0949  1.0737  0.1303
 8854SOL     OW38020   3.529   2.342  13.725 -0.0128 -0.3138  0.3404
 8854SOL    HW138021   3.491   2.346  13.637 -0.4926  0.9088  0.6091
 8854SOL    HW238022   3.621   2.318  13.712 -0.6595 -1.5668 -1.8802
 8855SOL     OW38023   1.249   3.729   0.526 -0.4662 -0.1275  0.1448
 8855SOL    HW138024   1.326   3.689   0.568  1.0539 -1.8980 -4.3425
 8855SOL    HW238025   1.193   3.732   0.603 -1.9349 -0.0624 -0.9341
 8856SOL     OW38026   0.091   1.784  12.488 -0.0747 -0.3805 -0.1623
 8856SOL    HW138027   0.088   1.689  12.480 -0.3290 -0.4302  0.5926
 8856SOL    HW238028   0.173   1.808  12.532  0.1986  0.3841 -1.0682
 8857SOL     OW38029   2.349   2.765   4.248  0.1429 -0.0004 -0.1338
 8857SOL    HW138030   2.414   2.822   4.206  0.0325  1.2524  1.3757
 8857SOL    HW238031   2.375   2.678   4.220  1.3100 -0.4868  2.4411
 8858SOL     OW38032   3.698   4.050   3.652 -0.1331  0.1074 -0.0755
 8858SOL    HW138033   3.781   4.091   3.677 -0.0950 -0.0971  0.1418
 8858SOL    HW238034   3.723   4.013   3.567 -1.1657 -3.5814  1.2407
 8859SOL     OW38035   2.474   0.685  11.546  0.0633  0.2385  0.4717
 8859SOL    HW138036   2.386   0.711  11.572  0.8093  3.1488  0.0663
 8859SOL    HW238037   2.502   0.637  11.624 -0.1030 -1.3097 -0.4156
 8860SOL     OW38038   2.045   1.908   0.023 -0.9015 -0.1446 -0.0694
 8860SOL    HW138039   2.091   1.968   0.082  0.4752 -1.1995 -0.0599
 8860SOL    HW238040   2.002   1.845   0.081  0.7872 -1.3019 -0.0724
 8861SOL     OW38041   1.767   4.246   7.541 -0.3354 -0.1272 -0.1597
 8861SOL    HW138042   1.684   4.212   7.574 -0.7873 -0.3597 -1.5246
 8861SOL    HW238043   1.808   4.293   7.613 -1.4505 -1.8919  1.6161
 8862SOL     OW38044   3.852   0.046   0.415  0.6708 -0.4154  0.5405
 8862SOL    HW138045   3.905   0.010   0.344 -0.7264  0.3558 -0.9183
 8862SOL    HW238046   3.895   0.125   0.448 -0.6886 -0.1912  1.7869
 8863SOL     OW38047   2.818   0.876   1.025  0.0303 -0.3488 -0.8676
 8863SOL    HW138048   2.813   0.946   1.090  3.2739 -0.1960 -0.8102
 8863SOL    HW238049   2.791   0.808   1.086  1.4150  1.2464  1.5502
 8864SOL     OW38050   2.150   0.878   6.068  0.0153  0.4389 -0.5983
 8864SOL    HW138051   2.223   0.883   6.129 -0.1754  2.0051 -0.4957
 8864SOL    HW238052   2.109   0.792   6.079 -0.9699  0.8455 -1.0236
 8865SOL     OW38053   4.159   3.516   0.846  0.0441 -0.3477  0.0869
 8865SOL    HW138054   4.202   3.600   0.861 -1.0127  0.2305 -0.1444
 8865SOL    HW238055   4.233   3.462   0.876  0.3058 -0.4869 -0.8101
 8866SOL     OW38056   2.300   1.284   3.708  0.0946  0.5192  0.2151
 8866SOL    HW138057   2.305   1.267   3.614 -4.0340  1.2591 -0.1381
 8866SOL    HW238058   2.364   1.220   3.740  1.1986  0.8939 -1.2464
 8867SOL     OW38059   4.191   2.994  17.102  0.1944 -0.1519 -0.2079
 8867SOL    HW138060   4.152   3.027  17.021 -2.9662 -2.9176  0.2167
 8867SOL    HW238061   4.231   3.073  17.139 -1.1915  2.3522 -4.0331
 8868SOL     OW38062   2.060   4.248  14.063 -0.2094  0.1986 -0.5245
 8868SOL    HW138063   2.056   4.275  13.972 -0.2329 -0.8396 -0.8325
 8868SOL    HW238064   1.982   4.289  14.100 -0.4740 -2.4794  1.9293
 8869SOL     OW38065   1.967   0.288   4.169 -0.2288 -0.2679  0.3273
 8869SOL    HW138066   1.974   0.281   4.264 -0.8850  3.0217  0.6160
 8869SOL    HW238067   1.938   0.379   4.163 -0.4649 -0.3653 -0.0611
 8870SOL     OW38068   3.283   3.812   6.995 -0.2269  0.1950 -0.1924
 8870SOL    HW138069   3.373   3.798   7.024  0.4174  1.3727 -1.6150
 8870SOL    HW238070   3.240   3.788   7.077  1.6889 -1.7965  0.2454
 8871SOL     OW38071   2.372   1.376   7.403  0.5352  0.2416 -0.6689
 8871SOL    HW138072   2.340   1.286   7.402  0.2889  0.3286 -0.2396
 8871SOL    HW238073   2.424   1.374   7.484 -0.7834  1.9857  0.2088
 8872SOL     OW38074   3.763   3.209   4.559 -0.3530  0.1598  0.7455
 8872SOL    HW138075   3.818   3.176   4.631  0.4953  0.6751  0.3337
 8872SOL    HW238076   3.827   3.256   4.506 -1.0168 -0.3761 -0.5153
 8873SOL     OW38077   1.779   0.043  15.136  0.1551 -0.0591  0.4847
 8873SOL    HW138078   1.752   0.131  15.113  1.2761 -0.0630 -0.8057
 8873SOL    HW238079   1.847   0.037  15.069 -0.2447 -1.1504  0.1712
 8874SOL     OW38080   1.140   0.543   8.787  0.8481 -0.3094 -0.0361
 8874SOL    HW138081   1.196   0.514   8.715  4.1818  1.9684  1.5975
 8874SOL    HW238082   1.197   0.604   8.835 -0.3765  2.6023 -2.2887
 8875SOL     OW38083   0.360   3.936   7.184  0.5867  0.0542  0.4965
 8875SOL    HW138084   0.349   4.002   7.115  1.5859 -0.6815 -0.3738
 8875SOL    HW238085   0.350   3.854   7.135 -1.0018 -0.4326  1.6564
 8876SOL     OW38086   3.661   3.675   2.265 -0.0718  0.4569  0.1636
 8876SOL    HW138087   3.713   3.734   2.210 -1.3066 -1.1337 -2.7462
 8876SOL    HW238088   3.715   3.671   2.343  1.2298  2.6446 -0.6279
 8877SOL     OW38089   3.837   1.672  10.888 -0.1724  0.0517 -0.1219
 8877SOL    HW138090   3.843   1.722  10.806 -1.1088 -2.9705 -2.0376
 8877SOL    HW238091   3.747   1.640  10.886 -0.1321 -0.1457  1.6751
 8878SOL     OW38092   1.319   4.453   1.670  0.2503  0.5331  0.2573
 8878SOL    HW138093   1.346   4.448   1.579  1.4327 -1.8861  0.7182
 8878SOL    HW238094   1.253   4.521   1.665 -1.2800 -1.2724 -3.6903
 8879SOL     OW38095   0.985   4.262   5.360  0.0181  0.3644  0.1597
 8879SOL    HW138096   1.053   4.301   5.415 -1.2661 -0.6078  2.4392
 8879SOL    HW238097   0.914   4.272   5.423 -0.3782 -1.6765  0.0260
 8880SOL     OW38098   1.550   3.609  13.414 -0.2980 -0.1470  0.2653
 8880SOL    HW138099   1.501   3.563  13.483 -3.1301  2.6034  0.0720
 8880SOL    HW238100   1.490   3.640  13.346 -0.9472 -0.3254  0.7479
 8881SOL     OW38101   2.171   1.386   3.934 -0.2745 -0.0931  0.7833
 8881SOL    HW138102   2.216   1.343   3.862  0.0068  0.2726  0.7420
 8881SOL    HW238103   2.084   1.345   3.931  0.5401 -1.7603  0.1342
 8882SOL     OW38104   4.205   4.135   4.971 -0.1092  0.1439 -0.3103
 8882SOL    HW138105   4.236   4.143   4.881 -2.0840 -2.5431 -1.2366
 8882SOL    HW238106   4.279   4.160   5.025  1.5861 -0.0042 -2.5749
 8883SOL     OW38107   0.195   0.007   3.492  0.3601 -0.2527 -0.2639
 8883SOL    HW138108   0.272   0.042   3.537  0.1983 -1.2808  0.7744
 8883SOL    HW238109   0.139   0.084   3.498 -1.1421 -1.3954  0.0910
 8884SOL     OW38110   0.640   3.953   8.797 -0.4324 -0.2883 -0.1099
 8884SOL    HW138111   0.687   3.869   8.793  0.4191  0.3375 -3.0386
 8884SOL    HW238112   0.641   3.975   8.890  3.4085 -3.2951  0.5727
 8885SOL     OW38113   1.530   1.860  11.477 -0.5131 -0.2296 -0.4511
 8885SOL    HW138114   1.505   1.776  11.438 -1.3697  0.6285 -1.7645
 8885SOL    HW238115   1.571   1.903  11.402  0.7147 -0.6184  0.0127
 8886SOL     OW38116   3.091   1.298  15.180 -0.2013  0.0281  0.2602
 8886SOL    HW138117   3.035   1.262  15.248  3.5000 -2.9661  1.6892
 8886SOL    HW238118   3.147   1.224  15.157 -0.2913  0.2417 -0.6425
 8887SOL     OW38119   1.866   2.976  13.666 -0.4543 -0.3896 -0.5587
 8887SOL    HW138120   1.813   2.898  13.652 -0.2930 -0.2913 -1.6802
 8887SOL    HW238121   1.894   2.946  13.753 -0.3606  1.2979 -0.0153
 8888SOL     OW38122   4.108   0.291   2.844 -0.1389 -0.4279  0.0020
 8888SOL    HW138123   4.124   0.340   2.763  1.5016 -2.7750 -1.1138
 8888SOL    HW238124   4.155   0.344   2.908 -0.0457 -1.4039  0.7418
 8889SOL     OW38125   2.868   4.360   6.378  0.1344  0.2066  0.4625
 8889SOL    HW138126   2.956   4.396   6.369  0.5761 -1.5405 -2.0814
 8889SOL    HW238127   2.831   4.386   6.294 -1.1644  0.0236  0.9760
 8890SOL     OW38128   2.355   2.012   7.807 -0.1554  0.0839  0.4512
 8890SOL    HW138129   2.363   1.932   7.860 -0.3610  1.3042  2.3372
 8890SOL    HW238130   2.291   1.977   7.745  1.1622 -0.0584 -0.8245
 8891SOL     OW38131   0.231   4.434   4.283 -0.0953 -0.1942  0.0033
 8891SOL    HW138132   0.178   4.482   4.346  2.3224  2.7382 -0.1969
 8891SOL    HW238133   0.257   4.509   4.230  1.2531 -0.0551  0.8555
 8892SOL     OW38134   3.395   4.601  15.581 -0.9023  0.2313  0.5746
 8892SOL    HW138135   3.365   4.589  15.490  1.9558 -2.9445  0.0341
 8892SOL    HW238136   3.486   4.575  15.565 -0.4884  0.9810  1.7374
 8893SOL     OW38137   3.355   3.226   4.049 -0.4396 -0.4299 -0.0716
 8893SOL    HW138138   3.275   3.178   4.071 -0.4312 -1.9554 -3.2596
 8893SOL    HW238139   3.328   3.316   4.065 -3.3578 -1.8077  2.6427
 8894SOL     OW38140   2.063   2.617   5.565  0.2317 -0.0105  0.0971
 8894SOL    HW138141   1.983   2.627   5.515 -0.2653 -1.3744  0.6112
 8894SOL    HW238142   2.066   2.697   5.618 -0.6448 -0.8662  1.4473
 8895SOL     OW38143   0.332   1.440   8.112  0.2079  0.4577  0.6220
 8895SOL    HW138144   0.401   1.490   8.156  0.2839  1.8267 -1.0574
 8895SOL    HW238145   0.326   1.496   8.034 -1.4343  0.2065  0.5531
 8896SOL     OW38146   3.394   0.823  16.366 -0.1085 -0.0996  0.1670
 8896SOL    HW138147   3.395   0.788  16.276  2.1088  1.7051 -0.4844
 8896SOL    HW238148   3.378   0.915  16.347  2.2530  0.8279  2.7417
 8897SOL     OW38149   0.865   3.259   7.330 -0.8220  0.0833  0.5533
 8897SOL    HW138150   0.893   3.173   7.362  1.2666  0.7471  0.4983
 8897SOL    HW238151   0.770   3.254   7.325 -0.6650 -3.1017  1.0115
 8898SOL     OW38152   4.231   2.791   2.193 -0.4536 -0.0613  0.3057
 8898SOL    HW138153   4.277   2.753   2.268  1.0948  1.3374  0.0741
 8898SOL    HW238154   4.255   2.884   2.200  0.2099 -0.4486  3.2170
 8899SOL     OW38155   4.251   0.518  17.055  0.3379  0.0078 -0.1906
 8899SOL    HW138156   4.225   0.473  17.135  0.0808  2.6494  1.1918
 8899SOL    HW238157   4.202   0.599  17.071  3.5283  1.4524  2.1393
 8900SOL     OW38158   3.726   1.701  13.485  0.1055  0.2517 -0.1944
 8900SOL    HW138159   3.698   1.622  13.438 -0.1386  0.1876  0.0572
 8900SOL    HW238160   3.726   1.673  13.576 -1.5270  2.8938  0.5944
 8901SOL     OW38161   1.489   2.391  10.965  0.4042  0.3338  0.0476
 8901SOL    HW138162   1.415   2.436  11.006 -0.3236  0.4263 -1.3724
 8901SOL    HW238163   1.514   2.335  11.038 -2.2992  1.5228  1.8708
 8902SOL     OW38164   0.679   4.159   1.485  0.7145  0.6908 -0.3186
 8902SOL    HW138165   0.626   4.232   1.453 -1.2868  0.1126  1.6327
 8902SOL    HW238166   0.658   4.088   1.424  1.6892  0.7077 -0.6756
 8903SOL     OW38167   2.000   4.068   3.928 -0.3964  0.1494 -0.4082
 8903SOL    HW138168   2.071   4.005   3.918 -0.7131 -0.2658  0.0033
 8903SOL    HW238169   1.947   4.050   4.006 -0.1746  0.5534 -0.1614
 8904SOL     OW38170   3.035   4.525  16.321  0.0220  0.2172  0.5335
 8904SOL    HW138171   3.027   4.595  16.257  3.8647  0.5314  0.3519
 8904SOL    HW238172   3.078   4.565  16.397  0.7840 -1.3193  0.9188
 8905SOL     OW38173   1.570   4.295  15.057  0.4876 -0.3519  0.0788
 8905SOL    HW138174   1.597   4.376  15.100  0.2515 -0.6472  0.7794
 8905SOL    HW238175   1.634   4.292  14.986 -1.5100  0.2919 -1.7637
 8906SOL     OW38176   3.993   3.221   1.069  0.0672  0.2180 -0.0054
 8906SOL    HW138177   3.976   3.137   1.110 -1.9512  1.1151  1.0347
 8906SOL    HW238178   3.933   3.278   1.117  0.3640  2.0831 -1.8249
 8907SOL     OW38179   2.325   2.321   6.505 -0.1315 -0.2851  0.5591
 8907SOL    HW138180   2.345   2.414   6.497 -0.5943 -0.4429 -2.1720
 8907SOL    HW238181   2.394   2.295   6.566 -0.5202 -0.0974  1.0906
 8908SOL     OW38182   0.609   4.582   3.748  0.4607 -0.2979 -0.2895
 8908SOL    HW138183   0.575   4.639   3.679 -1.6864 -1.0598  0.1392
 8908SOL    HW238184   0.680   4.637   3.782 -0.0835 -0.7768  1.6164
 8909SOL     OW38185   3.665   2.500   0.167  0.7975  0.5454  0.4106
 8909SOL    HW138186   3.612   2.423   0.146 -1.2237  1.9233  0.3913
 8909SOL    HW238187   3.597   2.551   0.211 -0.9418 -0.7329 -0.8000
 8910SOL     OW38188   3.677   2.658  15.869  0.2573 -0.0848  0.8551
 8910SOL    HW138189   3.764   2.698  15.860 -0.3148  1.0636  0.4856
 8910SOL    HW238190   3.707   2.571  15.897  0.5312  0.0603  1.0139
 8911SOL     OW38191   3.398   0.654  14.663  0.0507 -0.1350 -0.2744
 8911SOL    HW138192   3.326   0.700  14.621 -0.9642 -1.6541 -0.2017
 8911SOL    HW238193   3.415   0.733  14.715  0.5551  0.0355 -0.7014
 8912SOL     OW38194   3.673   3.062   5.058  0.2656  0.1252 -0.5169
 8912SOL    HW138195   3.607   3.126   5.083 -0.4205 -1.1029  0.8022
 8912SOL    HW238196   3.753   3.110   5.080 -1.2609  1.3300  2.4207
 8913SOL     OW38197   1.427   4.290   9.680  0.0270 -0.5091  0.2847
 8913SOL    HW138198   1.397   4.218   9.734 -0.7966 -0.8888 -0.6774
 8913SOL    HW238199   1.519   4.267   9.667  0.0387 -1.1643  1.5746
 8914SOL     OW38200   0.129   2.789   8.580  0.1441  0.3624  0.4508
 8914SOL    HW138201   0.172   2.843   8.645  1.2540 -0.1442  0.1422
 8914SOL    HW238202   0.164   2.701   8.597  1.9498  1.1359  0.7087
 8915SOL     OW38203   4.002   4.429   6.382 -0.2235  0.6433 -0.1474
 8915SOL    HW138204   3.929   4.457   6.327  0.5771  0.7957 -1.1417
 8915SOL    HW238205   4.051   4.382   6.315  0.2082 -0.7082  1.1018
 8916SOL     OW38206   2.771   0.096   4.720  0.4524  1.1582 -0.1403
 8916SOL    HW138207   2.814   0.120   4.639  1.7906 -0.5178  0.0678
 8916SOL    HW238208   2.804   0.006   4.724  0.3082  1.1414  0.7085
 8917SOL     OW38209   2.796   4.183   1.020  0.2688 -0.0170  0.1056
 8917SOL    HW138210   2.829   4.164   1.108 -1.3140  1.8862  1.1034
 8917SOL    HW238211   2.822   4.273   1.005 -0.6162  0.0314 -1.0718
 8918SOL     OW38212   1.019   1.022   9.249  0.2137 -0.0119  0.2465
 8918SOL    HW138213   1.015   1.113   9.220  0.8466 -0.2228 -0.5079
 8918SOL    HW238214   1.064   1.038   9.332  0.6378 -0.6775  0.1471
 8919SOL     OW38215   3.310   0.978   0.360 -0.3071  0.7284  0.4183
 8919SOL    HW138216   3.233   0.952   0.308  0.6501 -2.1913  0.4510
 8919SOL    HW238217   3.380   0.916   0.342  0.1754  1.0056  1.3451
 8920SOL     OW38218   0.830   0.428   0.084 -0.4902 -0.0294 -0.5572
 8920SOL    HW138219   0.849   0.374   0.162  1.4075 -0.2261 -1.1491
 8920SOL    HW238220   0.895   0.498   0.081 -1.6000  0.9842 -0.9699
 8921SOL     OW38221   0.282   0.388  11.081  0.3579  0.3188 -0.4993
 8921SOL    HW138222   0.248   0.476  11.094 -0.0312  0.5548 -3.0084
 8921SOL    HW238223   0.246   0.386  10.992  0.3105 -1.8589 -0.4264
 8922SOL     OW38224   0.385   0.172   3.570  0.0394 -0.2762  0.4767
 8922SOL    HW138225   0.403   0.179   3.664 -0.6019 -0.4479  0.6123
 8922SOL    HW238226   0.475   0.173   3.538 -0.6208  2.0703 -1.3425
 8923SOL     OW38227   0.994   3.448   5.527  0.0840  0.2695  0.1719
 8923SOL    HW138228   1.029   3.409   5.447  1.2218  0.4348  0.5774
 8923SOL    HW238229   1.073   3.473   5.575  0.0753 -2.2811  1.4891
 8924SOL     OW38230   1.840   1.849   3.281 -0.2145  0.0013  0.1325
 8924SOL    HW138231   1.782   1.876   3.210  0.0282  0.5288  0.1295
 8924SOL    HW238232   1.923   1.880   3.245 -0.3258 -0.0135 -0.1364
 8925SOL     OW38233   4.218   2.666  16.336  0.0003 -0.1215 -0.4630
 8925SOL    HW138234   4.128   2.689  16.314  0.0003  0.8348  0.5459
 8925SOL    HW238235   4.265   2.665  16.252 -0.1536 -0.3861 -0.5454
 8926SOL     OW38236   3.944   1.593   5.212 -0.0466 -0.0154  0.3625
 8926SOL    HW138237   3.961   1.563   5.302  1.4190 -1.7548 -0.4896
 8926SOL    HW238238   3.873   1.534   5.188 -0.6478  0.3093  1.3152
 8927SOL     OW38239   3.236   4.016   7.536 -0.2814  0.2237  0.0292
 8927SOL    HW138240   3.283   3.932   7.542 -0.4058  0.2323  1.0487
 8927SOL    HW238241   3.285   4.064   7.601  1.8619  0.6057 -1.8762
 8928SOL     OW38242   3.171   3.424   7.393 -0.1428  0.2028  0.1904
 8928SOL    HW138243   3.155   3.349   7.336  0.7240 -0.7966  1.2580
 8928SOL    HW238244   3.264   3.416   7.412 -0.3616 -0.1524  1.1332
 8929SOL     OW38245   1.930   2.132   7.185 -0.1767  0.5184 -0.0636
 8929SOL    HW138246   1.881   2.214   7.180  1.4566  1.4679 -0.3374
 8929SOL    HW238247   1.938   2.105   7.093 -0.1839  0.1028  0.0566
 8930SOL     OW38248   1.758   4.327   2.331 -0.6247  0.8945 -0.2765
 8930SOL    HW138249   1.760   4.256   2.266 -0.9291  0.6360 -0.0031
 8930SOL    HW238250   1.695   4.298   2.397 -0.2607 -2.7010 -1.5115
 8931SOL     OW38251   3.166   4.220   7.988 -0.1897 -0.1325 -0.6494
 8931SOL    HW138252   3.251   4.237   7.948 -0.3075 -0.3566 -0.9961
 8931SOL    HW238253   3.140   4.137   7.948 -0.2464 -0.4581  0.0540
 8932SOL     OW38254   3.143   1.894   6.049  0.2564  0.5023 -0.1901
 8932SOL    HW138255   3.088   1.851   6.114  0.6500  1.7826  0.9973
 8932SOL    HW238256   3.229   1.851   6.052 -1.1139 -2.2814 -0.9335
 8933SOL     OW38257   2.044   2.978  16.896 -0.4221 -0.3599  0.1411
 8933SOL    HW138258   2.064   3.043  16.829 -1.5715  1.0913  1.2061
 8933SOL    HW238259   2.116   2.993  16.957 -0.7051  3.8143 -0.5976
 8934SOL     OW38260   3.794   2.609   7.829 -0.0952 -0.0331  0.0973
 8934SOL    HW138261   3.753   2.666   7.763  1.1443  1.7445  0.8653
 8934SOL    HW238262   3.843   2.561   7.762  2.2903 -1.3857  2.8521
 8935SOL     OW38263   4.418   0.995   1.432  0.7615 -0.1396  0.4074
 8935SOL    HW138264   4.441   1.069   1.488 -1.2564  0.3912  0.5408
 8935SOL    HW238265   4.370   0.934   1.489  1.4428  0.2847  1.4280
 8936SOL     OW38266   4.223   3.219  12.078  0.1069  0.0913 -0.3059
 8936SOL    HW138267   4.285   3.151  12.054  0.0206  0.5651 -1.9302
 8936SOL    HW238268   4.193   3.253  11.993  0.3013 -0.9271 -0.7749
 8937SOL     OW38269   2.231   0.955  14.338 -0.3640  0.0672  0.0995
 8937SOL    HW138270   2.296   0.968  14.269  2.0510 -3.1159  1.7385
 8937SOL    HW238271   2.293   0.949  14.411  1.2198  3.7221 -0.9621
 8938SOL     OW38272   4.508   1.349   3.159 -0.2966  0.4239 -0.4084
 8938SOL    HW138273   4.549   1.301   3.230  0.8206  1.4963 -0.3200
 8938SOL    HW238274   4.488   1.269   3.111  2.9569  0.5111 -1.8907
 8939SOL     OW38275   0.204   2.970   8.781 -0.2652 -0.6198 -0.2489
 8939SOL    HW138276   0.290   3.008   8.799 -0.9020  0.3143  0.7937
 8939SOL    HW238277   0.142   3.042   8.794  0.4668 -0.7559  4.1297
 8940SOL     OW38278   0.760   2.369   4.274  0.1029 -0.5021 -0.3206
 8940SOL    HW138279   0.732   2.403   4.189 -1.7443  1.3401  1.0394
 8940SOL    HW238280   0.855   2.383   4.281 -0.2757  0.4077  2.8119
 8941SOL     OW38281   3.322   2.229   1.992  0.3185  0.0916 -0.3578
 8941SOL    HW138282   3.313   2.238   2.087 -0.4581  0.5298 -0.4773
 8941SOL    HW238283   3.396   2.288   1.978 -1.1257  1.8882 -0.4124
 8942SOL     OW38284   4.688   4.684  12.738 -0.0996  0.4844  0.5406
 8942SOL    HW138285   0.021   4.643  12.672  1.0402  0.9941  1.1793
 8942SOL    HW238286   0.013   4.657  12.817  0.5493 -0.8820 -0.3182
 8943SOL     OW38287   1.503   0.036   6.709  0.2828  0.0474 -0.1837
 8943SOL    HW138288   1.485   4.665   6.704  1.5219 -0.2709  1.2856
 8943SOL    HW238289   1.592   0.026   6.743  0.6239  0.8895 -0.8265
 8944SOL     OW38290   4.197   3.111  12.385  0.7492  0.1570 -0.5779
 8944SOL    HW138291   4.202   3.179  12.317  1.0892 -0.4298 -1.1420
 8944SOL    HW238292   4.189   3.034  12.328  1.0762 -0.0242 -0.3741
 8945SOL     OW38293   4.133   0.756   4.074 -0.3467 -0.0621 -0.4929
 8945SOL    HW138294   4.176   0.839   4.056  2.1183 -1.4817 -1.1083
 8945SOL    HW238295   4.185   0.726   4.149  0.2161 -1.4330 -1.4359
 8946SOL     OW38296   2.479   0.764   4.992  0.2150 -0.1782 -0.4094
 8946SOL    HW138297   2.464   0.843   4.940 -0.4602 -0.6034 -0.8743
 8946SOL    HW238298   2.416   0.695   4.968 -0.3309 -0.1577  0.9537
 8947SOL     OW38299   0.355   0.777   4.239  0.2461 -0.3567  0.0637
 8947SOL    HW138300   0.423   0.820   4.291 -0.0370 -0.1635  0.2698
 8947SOL    HW238301   0.410   0.710   4.196  0.3649  0.6735 -1.4002
 8948SOL     OW38302   2.912   3.032   7.443 -0.3026 -0.3035  0.0228
 8948SOL    HW138303   2.856   3.038   7.366 -1.2580  0.7980  0.7966
 8948SOL    HW238304   2.851   3.011   7.514  1.5259  0.1652  1.7200
 8949SOL     OW38305   0.271   0.637   7.894 -0.1112  0.0648  0.0513
 8949SOL    HW138306   0.344   0.653   7.834  0.9484 -2.9521  0.5326
 8949SOL    HW238307   0.320   0.649   7.976  1.2195 -2.3128 -0.3758
 8950SOL     OW38308   4.029   2.863   8.646 -0.6229  0.1641 -0.5153
 8950SOL    HW138309   3.999   2.870   8.737 -0.9320 -1.6700 -0.4857
 8950SOL    HW238310   4.053   2.771   8.650  2.3802  0.8944 -1.8458
 8951SOL     OW38311   1.158   2.417  16.274 -0.7247  0.4900 -0.5664
 8951SOL    HW138312   1.151   2.513  16.276  0.0686  0.5735 -2.1278
 8951SOL    HW238313   1.148   2.400  16.181 -0.2709 -2.2217 -0.1136
 8952SOL     OW38314   4.203   0.135   6.688 -0.2147  0.1277 -0.1092
 8952SOL    HW138315   4.243   0.104   6.769 -0.8974  1.8083  0.8505
 8952SOL    HW238316   4.164   0.054   6.655 -1.0463  0.0695  1.0401
 8953SOL     OW38317   1.838   0.571  14.506 -0.0415 -0.1762  0.1902
 8953SOL    HW138318   1.845   0.598  14.598 -0.0658  2.7131 -0.6476
 8953SOL    HW238319   1.922   0.532  14.483 -0.3596 -0.4373 -0.5362
 8954SOL     OW38320   0.870   0.135  11.161 -0.0755 -0.1208 -0.4352
 8954SOL    HW138321   0.943   0.121  11.100  1.6028 -1.5315  1.9070
 8954SOL    HW238322   0.921   0.147  11.241 -0.8350  0.7193 -0.0800
 8955SOL     OW38323   3.064   0.289   6.087 -0.3649  0.3832 -0.0771
 8955SOL    HW138324   3.106   0.226   6.028 -0.8671 -1.1704  1.2167
 8955SOL    HW238325   2.978   0.301   6.047 -0.2219  0.3519 -0.3956
 8956SOL     OW38326   4.658   3.429  13.015  0.1742 -0.1227  0.6726
 8956SOL    HW138327   0.002   3.431  13.084  1.1516  1.9519 -0.3489
 8956SOL    HW238328   4.712   3.389  12.947 -1.2408 -0.2676 -0.3787
 8957SOL     OW38329   1.276   3.797   1.322  0.3637 -0.2460 -0.2761
 8957SOL    HW138330   1.322   3.880   1.332 -0.0449  0.1304 -1.5353
 8957SOL    HW238331   1.320   3.764   1.244 -0.0159 -0.1345 -0.5389
 8958SOL     OW38332   4.399   4.022   7.063 -0.9996  0.2570 -1.1134
 8958SOL    HW138333   4.463   3.951   7.056  0.4662  0.9515  5.4504
 8958SOL    HW238334   4.458   4.093   7.037 -1.3670  1.0995  0.3810
 8959SOL     OW38335   0.322   0.466   8.145 -0.3481 -0.3842 -0.1063
 8959SOL    HW138336   0.243   0.492   8.192 -0.5843 -1.2708 -0.0075
 8959SOL    HW238337   0.299   0.383   8.105 -0.6056 -0.3145 -0.1030
 8960SOL     OW38338   2.181   1.054   5.076  0.1939  0.5395 -0.0999
 8960SOL    HW138339   2.119   1.086   5.140  0.4283 -0.8099  0.7971
 8960SOL    HW238340   2.187   0.966   5.114  0.0720  0.8343  0.5915
 8961SOL     OW38341   0.154   4.573   8.545  0.4736 -0.1135 -0.7555
 8961SOL    HW138342   0.090   4.623   8.494 -0.0189  1.5677  1.4865
 8961SOL    HW238343   0.093   4.503   8.570  1.5963 -0.0352  2.1557
 8962SOL     OW38344   4.085   4.002   9.673  0.6774  0.3783  0.3498
 8962SOL    HW138345   4.028   4.070   9.709  1.0809  0.8307  0.1468
 8962SOL    HW238346   4.116   4.048   9.595  0.6614  0.8226  0.6020
 8963SOL     OW38347   0.142   0.622   3.366 -0.2466  0.3535  0.4720
 8963SOL    HW138348   0.147   0.706   3.321  0.4039  0.9241  1.6015
 8963SOL    HW238349   0.185   0.571   3.298 -0.3359  0.1592  0.5628
 8964SOL     OW38350   3.413   3.242   3.066  0.1116 -0.0827  0.2029
 8964SOL    HW138351   3.413   3.329   3.024  0.9683  0.5813  1.5858
 8964SOL    HW238352   3.495   3.242   3.115  0.0380  2.2807  0.3585
 8965SOL     OW38353   1.346   2.123   1.645  0.2676 -0.1760 -0.0970
 8965SOL    HW138354   1.384   2.154   1.563  1.6086  1.3074  1.0856
 8965SOL    HW238355   1.408   2.059   1.680  0.8396 -0.0473 -0.9020
 8966SOL     OW38356   2.061   3.607  14.909  0.5428  0.2410 -0.1872
 8966SOL    HW138357   2.137   3.548  14.912 -0.2370 -0.6429  2.1264
 8966SOL    HW238358   2.092   3.682  14.960 -0.7059  1.6436 -1.4843
 8967SOL     OW38359   3.491   1.750  13.133 -0.4976 -0.0803  0.2638
 8967SOL    HW138360   3.573   1.787  13.101 -0.5211  0.7964  1.1913
 8967SOL    HW238361   3.468   1.687  13.065  2.2564 -0.3081 -0.4427
 8968SOL     OW38362   0.038   2.422   7.317 -0.1543  0.2658 -0.5422
 8968SOL    HW138363   0.055   2.361   7.245 -1.6085 -0.3243 -0.3714
 8968SOL    HW238364   0.040   2.510   7.280 -1.9683  0.6905  0.3850
 8969SOL     OW38365   3.753   2.146   0.595 -0.3841 -0.1961  0.5097
 8969SOL    HW138366   3.839   2.112   0.618  0.1586  1.1438  0.4717
 8969SOL    HW238367   3.698   2.088   0.648 -0.4155  0.0706  0.7682
 8970SOL     OW38368   3.543   3.829   7.058  0.9127  0.6133 -0.0112
 8970SOL    HW138369   3.551   3.743   7.099  0.7572  0.7893  0.3944
 8970SOL    HW238370   3.612   3.832   6.992  1.5300  0.6833  0.6379
 8971SOL     OW38371   0.673   4.133   3.981 -0.0962  0.1048  0.3216
 8971SOL    HW138372   0.751   4.186   3.969 -0.4331  0.3215 -0.8831
 8971SOL    HW238373   0.697   4.044   3.953 -0.7973  0.4226 -1.2551
 8972SOL     OW38374   3.927   1.598  15.706  0.2455  0.6787 -0.2227
 8972SOL    HW138375   4.014   1.578  15.743  0.4613  1.4672 -0.3214
 8972SOL    HW238376   3.946   1.582  15.613 -0.4957 -2.0336  0.0917
 8973SOL     OW38377   2.816   0.330   2.953 -0.4842 -0.4000 -0.1340
 8973SOL    HW138378   2.856   0.393   2.892 -0.3091  1.0691  1.5017
 8973SOL    HW238379   2.755   0.387   2.999 -0.5823  0.4352 -1.2916
 8974SOL     OW38380   3.756   2.889   8.411 -0.5806  0.2580  0.6186
 8974SOL    HW138381   3.748   2.960   8.475 -3.7475 -0.3876  0.9372
 8974SOL    HW238382   3.840   2.911   8.370 -0.5114 -1.9009 -0.3667
 8975SOL     OW38383   2.048   2.646  12.655  0.2503  0.0501  0.7080
 8975SOL    HW138384   2.014   2.734  12.666 -0.1646  0.1924 -1.8506
 8975SOL    HW238385   1.972   2.594  12.630  0.0897  0.4393  0.3878
 8976SOL     OW38386   2.756   3.898   3.173 -0.0959 -0.0763 -0.1405
 8976SOL    HW138387   2.762   3.872   3.265 -0.8218 -0.4976 -0.2109
 8976SOL    HW238388   2.740   3.992   3.179  1.7257  0.1442  1.2999
 8977SOL     OW38389   3.288   4.691   5.348 -0.0951 -0.1106  0.1522
 8977SOL    HW138390   3.338   4.609   5.349  1.0527  0.5993  1.7452
 8977SOL    HW238391   3.201   4.659   5.324 -0.9959  0.3440  2.8249
 8978SOL     OW38392   3.179   3.648   5.888  0.1265  0.4463  0.2631
 8978SOL    HW138393   3.231   3.619   5.963  0.6069  0.4206 -0.0770
 8978SOL    HW238394   3.144   3.725   5.933 -0.7212 -0.4349  1.1268
 8979SOL     OW38395   0.155   0.247  10.248  0.8964  0.2813  0.1136
 8979SOL    HW138396   0.216   0.222  10.179 -0.1294 -1.0832 -0.2870
 8979SOL    HW238397   0.136   0.160  10.284  0.2231  0.1496 -0.5678
 8980SOL     OW38398   1.932   1.263  16.092 -0.0255 -0.2262 -0.4640
 8980SOL    HW138399   2.011   1.220  16.124 -1.3247 -2.4156 -0.2180
 8980SOL    HW238400   1.855   1.209  16.109 -0.7618  0.4738 -1.5451
 8981SOL     OW38401   1.603   3.127  17.146 -0.6481 -0.0282 -0.0345
 8981SOL    HW138402   1.631   3.055  17.203  1.2961  1.8822  1.4077
 8981SOL    HW238403   1.671   3.122  17.080 -1.0671  1.5792 -0.5851
 8982SOL     OW38404   1.563   2.547   1.860 -0.3240 -0.2082 -0.0979
 8982SOL    HW138405   1.612   2.520   1.938  1.2010  2.6594 -0.0356
 8982SOL    HW238406   1.497   2.478   1.859 -2.0231  1.4107 -0.1805
 8983SOL     OW38407   3.625   2.451   2.468  0.0483 -0.0236 -1.1509
 8983SOL    HW138408   3.649   2.491   2.551  0.9851 -0.1765 -1.3503
 8983SOL    HW238409   3.530   2.458   2.483  0.2498  0.5394 -0.1779
 8984SOL     OW38410   3.212   0.990  17.370 -0.1253 -0.5247 -0.5723
 8984SOL    HW138411   3.179   0.910  17.409  2.0311 -1.1822 -0.1123
 8984SOL    HW238412   3.140   1.053  17.373 -0.5123 -0.9681 -0.5655
 8985SOL     OW38413   1.879   2.225   7.609 -0.2381 -0.4164  0.3332
 8985SOL    HW138414   1.917   2.211   7.696  0.1365  2.2299  0.5827
 8985SOL    HW238415   1.866   2.135   7.577 -1.9565 -0.9950  2.5813
 8986SOL     OW38416   4.126   4.475   1.000  0.7873  0.2196  0.2884
 8986SOL    HW138417   4.043   4.469   0.953  1.2449  0.8270 -0.6060
 8986SOL    HW238418   4.184   4.511   0.932 -0.0493 -0.6754 -0.9134
 8987SOL     OW38419   2.035   2.076   5.020 -0.4865  0.3842 -0.6302
 8987SOL    HW138420   2.027   1.981   5.030 -0.9450  0.5625  0.6613
 8987SOL    HW238421   2.077   2.094   5.104 -2.1990  0.9350  0.1159
 8988SOL     OW38422   2.056   3.060   1.531 -0.1207 -0.7103  0.4168
 8988SOL    HW138423   2.082   3.122   1.600  1.7961 -2.0731  0.9060
 8988SOL    HW238424   1.968   3.093   1.516  0.3092  0.0247 -0.5158
 8989SOL     OW38425   1.472   1.027   8.998 -0.0093  0.0599  0.1293
 8989SOL    HW138426   1.465   1.053   9.090  3.2620 -3.3761  1.3609
 8989SOL    HW238427   1.539   0.958   8.999  1.0222  1.0707 -0.2099
 8990SOL     OW38428   0.339   3.240  13.324  0.4661  0.6694  0.3199
 8990SOL    HW138429   0.315   3.169  13.383  0.2736  1.1740  0.8549
 8990SOL    HW238430   0.434   3.232  13.335  0.5543  0.8439 -0.2845
 8991SOL     OW38431   1.218   1.321  16.095 -0.9385 -0.2266  0.0319
 8991SOL    HW138432   1.141   1.356  16.050  1.2220 -0.1016 -3.6308
 8991SOL    HW238433   1.264   1.404  16.109  0.3303 -0.8209 -0.5483
 8992SOL     OW38434   3.049   1.494   5.296  0.0750  0.3095 -0.0089
 8992SOL    HW138435   2.982   1.485   5.363 -0.2146 -2.3658 -0.6424
 8992SOL    HW238436   3.003   1.525   5.218  0.4315 -0.1518 -0.4101
 8993SOL     OW38437   0.519   0.506   2.857 -0.3255 -0.1455 -0.0804
 8993SOL    HW138438   0.502   0.599   2.849 -0.5488  0.0400  2.5596
 8993SOL    HW238439   0.613   0.486   2.859 -0.4221 -0.1567  3.7653
 8994SOL     OW38440   1.490   1.704   3.054  0.2800 -0.3742 -0.3032
 8994SOL    HW138441   1.432   1.780   3.054 -0.3254 -0.8365 -1.3613
 8994SOL    HW238442   1.458   1.654   3.130  0.6412 -0.4729 -0.2130
 8995SOL     OW38443   1.828   2.659   3.796  0.0614  0.0469 -0.2324
 8995SOL    HW138444   1.832   2.575   3.750  0.6917  0.9778 -1.8673
 8995SOL    HW238445   1.809   2.629   3.886  1.9365  2.7688  1.0603
 8996SOL     OW38446   2.576   2.909   3.193  0.1739  0.7216  0.2477
 8996SOL    HW138447   2.548   2.856   3.268 -0.9221 -0.2014 -0.8188
 8996SOL    HW238448   2.585   2.845   3.122  0.7652 -0.1663  1.1223
 8997SOL     OW38449   3.642   3.520   5.242 -0.0982  0.6867 -0.5156
 8997SOL    HW138450   3.608   3.441   5.199  2.0670 -0.9773  0.8169
 8997SOL    HW238451   3.567   3.559   5.287 -1.0784 -0.1611 -1.3904
 8998SOL     OW38452   0.517   2.248  13.924  0.5675  0.1648 -0.4292
 8998SOL    HW138453   0.526   2.320  13.986 -3.0704  2.0031 -1.9978
 8998SOL    HW238454   0.521   2.301  13.844 -0.0706 -0.6743 -1.0148
 8999SOL     OW38455   0.504   4.312   1.098 -0.0036 -0.5546  0.1499
 8999SOL    HW138456   0.446   4.243   1.066 -3.0081  1.0476  2.2034
 8999SOL    HW238457   0.500   4.383   1.034  0.3206 -0.2875  0.4201
 9000SOL     OW38458   3.025   1.985  16.375 -0.0035  0.2538 -0.6419
 9000SOL    HW138459   3.007   2.072  16.410 -1.5928 -0.4916  0.4021
 9000SOL    HW238460   3.117   1.976  16.403 -1.0092 -2.4980  1.8446
 9001SOL     OW38461   3.687   0.097   6.067 -0.2034  0.1514 -0.0548
 9001SOL    HW138462   3.607   0.064   6.107 -0.2692  0.0668 -0.2571
 9001SOL    HW238463   3.714   0.160   6.134 -1.6502 -1.0144  1.6124
 9002SOL     OW38464   0.654   3.714   6.608 -0.5207 -0.2964  0.1546
 9002SOL    HW138465   0.668   3.643   6.670 -1.6116 -0.9337 -0.3318
 9002SOL    HW238466   0.741   3.751   6.594 -1.0853  0.6611 -0.8622
 9003SOL     OW38467   0.232   3.014  10.296 -0.0079  0.6751 -0.1593
 9003SOL    HW138468   0.186   2.932  10.312  1.2994 -0.3207 -1.5331
 9003SOL    HW238469   0.286   2.976  10.227 -0.0030 -1.7286  1.1679
 9004SOL     OW38470   3.280   1.956   5.368  0.1401  0.3879 -0.0200
 9004SOL    HW138471   3.375   1.944   5.367  0.3244  1.6439  2.4975
 9004SOL    HW238472   3.279   2.039   5.416  1.0078 -0.3556  1.2755
 9005SOL     OW38473   2.989   4.532   8.600 -0.4472 -0.3953 -0.3642
 9005SOL    HW138474   3.071   4.525   8.648 -0.4321  2.0419  0.0030
 9005SOL    HW238475   2.929   4.466   8.635  0.7991 -1.1454  0.3181
 9006SOL     OW38476   3.106   1.193  13.590  0.0467  0.0101 -0.4360
 9006SOL    HW138477   3.095   1.193  13.685  0.8453 -0.0701 -0.3372
 9006SOL    HW238478   3.021   1.157  13.566  0.1578  0.4708 -1.5321
 9007SOL     OW38479   3.926   1.114   7.387 -0.2190  0.9080  0.1693
 9007SOL    HW138480   3.941   1.126   7.480  0.0151 -0.1907  0.2719
 9007SOL    HW238481   3.958   1.199   7.355  1.7006 -0.0893 -0.6223
 9008SOL     OW38482   2.005   3.042   3.938 -0.3552 -0.2645  0.3422
 9008SOL    HW138483   1.915   3.049   3.968  0.1390 -1.5643  2.1297
 9008SOL    HW238484   1.992   3.079   3.851  0.2614  2.7798  1.5382
 9009SOL     OW38485   1.249   2.069  10.920  0.2446 -0.7095  0.3890
 9009SOL    HW138486   1.200   2.045  10.998  0.0045  2.1142  1.1139
 9009SOL    HW238487   1.335   2.041  10.952 -0.1481 -0.1371  1.9509
 9010SOL     OW38488   0.755   3.417  11.005 -0.4469  0.2583  0.2099
 9010SOL    HW138489   0.754   3.510  11.028 -1.0236  0.3447 -0.1670
 9010SOL    HW238490   0.848   3.398  10.995 -0.8116 -2.4671  2.1834
 9011SOL     OW38491   0.943   4.258   3.889  0.4547 -0.0544  0.3991
 9011SOL    HW138492   0.970   4.347   3.909  1.3847  0.2129 -2.0359
 9011SOL    HW238493   0.990   4.209   3.957  0.7582 -0.7039 -0.2822
 9012SOL     OW38494   2.699   1.396   2.580  0.1956  0.1054  0.1087
 9012SOL    HW138495   2.700   1.436   2.493  1.6003  1.8990  0.9250
 9012SOL    HW238496   2.794   1.386   2.593 -0.2645 -0.4929  3.1300
 9013SOL     OW38497   2.155   2.457  11.109  1.1722 -0.1587 -0.7191
 9013SOL    HW138498   2.161   2.539  11.159 -1.2577 -0.2055 -0.3441
 9013SOL    HW238499   2.250   2.442  11.104  1.5012  2.5196 -2.3081
 9014SOL     OW38500   2.760   2.681   3.409 -0.0494 -0.1487 -0.2010
 9014SOL    HW138501   2.692   2.727   3.458  0.6811 -0.8489  1.4304
 9014SOL    HW238502   2.705   2.609   3.378  1.6905 -1.2659 -0.6686
 9015SOL     OW38503   3.089   4.358   4.891  0.1062 -0.4493 -0.0327
 9015SOL    HW138504   3.144   4.280   4.885 -2.4665 -2.1502 -1.0036
 9015SOL    HW238505   3.155   4.423   4.866  1.5383 -1.7424  0.3727
 9016SOL     OW38506   2.893   2.691   7.930 -0.4668 -0.0861  0.2133
 9016SOL    HW138507   2.986   2.700   7.908  0.1057 -2.8737  1.4943
 9016SOL    HW238508   2.871   2.623   7.866 -2.2524 -1.1958  2.0163
 9017SOL     OW38509   2.287   4.693  11.168  0.2856  0.1184 -0.3455
 9017SOL    HW138510   2.277   0.050  11.220  0.2601 -1.0173  1.4161
 9017SOL    HW238511   2.336   4.721  11.091  0.3813 -1.7932 -0.9831
 9018SOL     OW38512   4.571   3.773  11.109 -0.0410 -0.3873  0.2668
 9018SOL    HW138513   4.634   3.740  11.045  0.6291 -2.1322  1.8152
 9018SOL    HW238514   4.512   3.697  11.108  0.5335 -0.8644  1.6482
 9019SOL     OW38515   0.851   4.408   3.599 -0.3923  0.5441  0.5393
 9019SOL    HW138516   0.927   4.374   3.552 -0.5504  2.0544 -0.7767
 9019SOL    HW238517   0.888   4.419   3.687  2.5767 -1.5477 -0.4525
 9020SOL     OW38518   2.502   1.762  13.296  0.6236  0.0528  0.1104
 9020SOL    HW138519   2.580   1.757  13.241  0.8427 -2.4118  0.6495
 9020SOL    HW238520   2.467   1.851  13.294  1.3373  0.3009 -1.2716
 9021SOL     OW38521   0.691   3.088  10.805  0.1621  0.4250  0.2638
 9021SOL    HW138522   0.760   3.089  10.872  0.0470 -1.8002  0.4124
 9021SOL    HW238523   0.693   2.999  10.771 -1.0420  0.9031 -1.1059
 9022SOL     OW38524   3.515   1.411   0.109 -0.2552  0.7281  0.2362
 9022SOL    HW138525   3.551   1.482   0.162  0.9759 -0.0297  0.4082
 9022SOL    HW238526   3.437   1.379   0.154  0.6475 -1.3872  0.2505
 9023SOL     OW38527   1.661   1.905  11.192 -0.0955 -0.1815  0.1913
 9023SOL    HW138528   1.736   1.849  11.215 -0.9672 -1.1522  0.6746
 9023SOL    HW238529   1.695   1.992  11.211  0.3688  0.0922 -1.9694
 9024SOL     OW38530   3.631   3.747   8.633  0.0588  0.0469 -0.3541
 9024SOL    HW138531   3.553   3.799   8.616  0.9715  1.2806 -0.7748
 9024SOL    HW238532   3.652   3.782   8.720  0.7661  0.3005 -0.6292
 9025SOL     OW38533   3.681   0.175   6.654  0.2549  0.0783  0.6612
 9025SOL    HW138534   3.743   0.104   6.673 -1.0162 -1.4000 -0.7494
 9025SOL    HW238535   3.714   0.242   6.714  0.4410  0.0163  0.6258
 9026SOL     OW38536   1.755   2.539   0.620  0.5710  0.9626  0.6665
 9026SOL    HW138537   1.774   2.624   0.660  3.4725  0.4478  0.4100
 9026SOL    HW238538   1.662   2.558   0.606 -0.4157 -3.9371  0.7056
 9027SOL     OW38539   4.614   3.370   1.732  0.0930  0.1700 -0.0346
 9027SOL    HW138540   4.620   3.298   1.794 -0.7466  1.0643  1.0807
 9027SOL    HW238541   4.682   3.435   1.752  0.0364  0.3207 -0.3369
 9028SOL     OW38542   3.464   4.635  11.183 -0.4769  0.1241 -0.2692
 9028SOL    HW138543   3.453   4.570  11.253  1.7915 -1.2810 -1.2072
 9028SOL    HW238544   3.549   4.669  11.212 -1.6795  2.0800  0.9674
 9029SOL     OW38545   4.545   4.651   7.108 -0.5196  0.6588  0.3297
 9029SOL    HW138546   4.619   4.708   7.092 -1.2551  1.3025 -0.7574
 9029SOL    HW238547   4.582   4.612   7.188  0.3668 -1.1185 -0.9445
 9030SOL     OW38548   2.514   4.709  13.037 -0.0041  0.1947  0.0981
 9030SOL    HW138549   2.459   4.718  13.114  0.7550  2.8932  0.2990
 9030SOL    HW238550   2.451   4.675  12.973  0.7427  0.7337 -0.9300
 9031SOL     OW38551   0.522   2.174  12.573 -0.2957 -0.6788 -0.2243
 9031SOL    HW138552   0.438   2.128  12.570 -0.0068 -1.2033 -0.2267
 9031SOL    HW238553   0.501   2.239  12.640 -0.0822  0.0038 -0.8176
 9032SOL     OW38554   1.750   3.391   5.299 -0.5448 -0.2563 -0.1612
 9032SOL    HW138555   1.755   3.477   5.257  2.4537  0.2790  1.2654
 9032SOL    HW238556   1.662   3.364   5.274 -0.5169 -1.1681  0.7596
 9033SOL     OW38557   4.659   0.568   6.222 -0.1744  0.1458  0.0950
 9033SOL    HW138558   4.593   0.633   6.247 -1.8115 -0.9195 -1.3943
 9033SOL    HW238559   4.623   0.495   6.273 -0.2724 -0.1191 -0.3523
 9034SOL     OW38560   1.357   1.179   2.013 -0.1417 -0.0541 -0.1225
 9034SOL    HW138561   1.410   1.120   1.958  1.2778  1.4182 -0.3488
 9034SOL    HW238562   1.411   1.257   2.001  2.4547 -1.7032  0.7639
 9035SOL     OW38563   0.986   2.652   3.848  0.1430  0.0459 -0.1373
 9035SOL    HW138564   0.910   2.595   3.839 -0.7223  1.5201 -2.0120
 9035SOL    HW238565   0.992   2.652   3.944 -2.4455  1.5869 -0.0053
 9036SOL     OW38566   0.013   2.379   9.944  0.0020  0.0661 -0.4402
 9036SOL    HW138567   4.699   2.299   9.907 -0.1337  0.3501 -0.9191
 9036SOL    HW238568   4.688   2.381  10.027  0.3400  1.9857 -0.2846
 9037SOL     OW38569   4.651   1.336  15.442  0.0748 -0.4883  0.0049
 9037SOL    HW138570   4.691   1.282  15.373  1.0765 -0.7721  0.7939
 9037SOL    HW238571   4.706   1.413  15.429  0.7864 -0.7975  1.2051
 9038SOL     OW38572   3.048   3.627  13.466 -0.4787  0.2165 -0.0325
 9038SOL    HW138573   3.119   3.691  13.462  0.1000 -0.4582 -0.4968
 9038SOL    HW238574   3.054   3.590  13.554  1.1406 -2.6312 -1.3709
 9039SOL     OW38575   0.750   0.910  13.764 -0.4536 -1.0441 -0.4691
 9039SOL    HW138576   0.772   0.927  13.673  0.8046  0.0050  0.0202
 9039SOL    HW238577   0.664   0.951  13.774 -0.6299 -1.6698  0.6295
 9040SOL     OW38578   2.947   3.062  10.669 -0.2200  0.3345  0.1986
 9040SOL    HW138579   2.950   2.978  10.625 -1.2326  0.4984 -0.1675
 9040SOL    HW238580   3.038   3.076  10.642 -0.4900  0.8832 -0.4106
 9041SOL     OW38581   2.852   2.655  15.933 -0.1022 -0.3055 -0.2613
 9041SOL    HW138582   2.933   2.698  15.960 -1.1257  1.5080 -0.0758
 9041SOL    HW238583   2.803   2.726  15.892  1.4773  1.1151  0.2853
 9042SOL     OW38584   1.249   1.435   2.865  0.5199  0.6626  0.0247
 9042SOL    HW138585   1.321   1.380   2.835 -0.8097 -0.1429 -1.6679
 9042SOL    HW238586   1.254   1.410   2.958  0.0597 -2.3743 -0.7526
 9043SOL     OW38587   3.251   0.947  10.538  1.0039  0.0219 -0.1393
 9043SOL    HW138588   3.218   0.863  10.506 -0.6987  0.9464 -0.7988
 9043SOL    HW238589   3.181   1.009  10.519  1.1768  0.0879 -0.5524
 9044SOL     OW38590   2.219   2.048   6.870 -0.6850 -0.5361  0.2212
 9044SOL    HW138591   2.274   1.971   6.862  0.1670  0.1294 -0.3076
 9044SOL    HW238592   2.170   2.051   6.787 -1.3418 -0.2573  0.6176
 9045SOL     OW38593   3.573   3.241  15.112  0.2915  0.1181  0.2686
 9045SOL    HW138594   3.611   3.310  15.058 -1.4995 -0.1295 -1.3004
 9045SOL    HW238595   3.651   3.217  15.162 -0.2912  3.2063  2.6374
 9046SOL     OW38596   0.150   1.187  12.561 -0.5837 -0.0144  0.0252
 9046SOL    HW138597   0.215   1.257  12.559 -0.0298 -0.4833  1.2082
 9046SOL    HW238598   0.125   1.190  12.469  0.1558 -1.8528 -0.2324
 9047SOL     OW38599   3.490   3.015   5.393 -0.1011  0.1606 -0.0174
 9047SOL    HW138600   3.503   3.109   5.383  1.4432 -0.0114  0.3418
 9047SOL    HW238601   3.562   2.999   5.455  0.4897 -0.0810 -0.7704
 9048SOL     OW38602   0.221   0.314   6.523  0.1639 -0.4184 -0.2036
 9048SOL    HW138603   0.199   0.258   6.448 -0.4508  0.0793 -0.3891
 9048SOL    HW238604   0.135   0.306   6.564  0.7445  0.2569  1.1650
 9049SOL     OW38605   1.211   1.425  13.746  0.2806  0.0016 -0.2532
 9049SOL    HW138606   1.267   1.393  13.816  0.0004 -0.6134 -0.3075
 9049SOL    HW238607   1.189   1.512  13.778 -0.1707 -0.5516  0.9262
 9050SOL     OW38608   1.645   4.712  10.668 -0.3732 -0.2939 -0.2533
 9050SOL    HW138609   1.636   4.628  10.713 -3.3246  0.5810  0.7586
 9050SOL    HW238610   1.577   0.043  10.708 -1.4360 -1.9109  0.0772
 9051SOL     OW38611   0.314   0.084   8.986  0.1165  0.1181 -0.7231
 9051SOL    HW138612   0.303   0.032   9.066  1.8779  0.3777 -0.3228
 9051SOL    HW238613   0.313   0.171   9.027  0.1124 -0.0881 -0.2798
 9052SOL     OW38614   3.575   3.823   0.145  0.6775 -0.3929  0.0508
 9052SOL    HW138615   3.545   3.792   0.231  0.2883 -1.4523 -0.4676
 9052SOL    HW238616   3.666   3.817   0.172  0.3737  3.6771  1.9377
 9053SOL     OW38617   3.240   1.129   6.446 -0.4088 -0.1735  0.0399
 9053SOL    HW138618   3.191   1.170   6.375  1.3146  0.3596 -0.8507
 9053SOL    HW238619   3.317   1.186   6.451 -0.0491 -0.4525 -2.1387
 9054SOL     OW38620   1.686   2.639  12.737  0.5750  0.1831  0.2171
 9054SOL    HW138621   1.737   2.630  12.656 -0.5860  1.2714 -0.6215
 9054SOL    HW238622   1.742   2.579  12.787  0.6687 -0.8226 -1.0893
 9055SOL     OW38623   1.056   3.573   5.981 -0.2349  0.7753  0.3906
 9055SOL    HW138624   1.118   3.645   5.972 -0.0016  0.6719  1.1713
 9055SOL    HW238625   1.111   3.509   6.026 -0.9797 -0.7347 -0.8592
 9056SOL     OW38626   3.710   3.153   8.525  0.1491 -0.4741  0.5685
 9056SOL    HW138627   3.799   3.186   8.510  1.2689 -3.9403 -0.3356
 9056SOL    HW238628   3.699   3.167   8.619 -1.9608  3.4172 -0.2243
 9057SOL     OW38629   3.548   1.936  13.602 -0.0340  0.0815  0.2034
 9057SOL    HW138630   3.565   1.962  13.511 -0.4417 -0.3226  0.0150
 9057SOL    HW238631   3.613   1.866  13.607 -1.6488 -1.0322  5.1749
 9058SOL     OW38632   0.728   2.478   4.534  1.1129 -0.1149  0.3356
 9058SOL    HW138633   0.722   2.419   4.458  0.2242  1.2016 -0.6160
 9058SOL    HW238634   0.641   2.480   4.574  0.6153 -0.4971 -0.6972
 9059SOL     OW38635   0.279   2.661   3.990  0.1936  0.0808 -0.1862
 9059SOL    HW138636   0.213   2.613   3.939  0.8071 -1.0838  0.1407
 9059SOL    HW238637   0.346   2.689   3.927  2.2923  1.5954  2.7482
 9060SOL     OW38638   4.350   0.152   3.143  0.4593 -0.1501 -0.1497
 9060SOL    HW138639   4.294   0.081   3.112  1.0824 -1.5804  2.0248
 9060SOL    HW238640   4.313   0.217   3.083 -0.9123 -2.0076 -1.3322
 9061SOL     OW38641   3.987   3.458  14.733 -0.0020  0.1938 -0.4374
 9061SOL    HW138642   3.977   3.501  14.648 -2.1374 -0.7116 -0.6449
 9061SOL    HW238643   4.010   3.531  14.790  0.4087 -1.7243  1.8410
 9062SOL     OW38644   1.923   0.584  14.769  0.0866 -0.3312  0.1179
 9062SOL    HW138645   2.017   0.594  14.785  0.1726 -1.4863  0.3765
 9062SOL    HW238646   1.906   0.490  14.778 -0.4670 -0.2820 -0.4493
 9063SOL     OW38647   0.464   0.660   9.748  0.2657  0.0821 -0.4378
 9063SOL    HW138648   0.455   0.755   9.756 -1.3576 -0.1104 -0.0103
 9063SOL    HW238649   0.438   0.650   9.657  2.2791  1.0195 -1.1138
 9064SOL     OW38650   3.634   0.536   6.750  0.2941 -0.5448  0.3680
 9064SOL    HW138651   3.556   0.523   6.695 -0.7315  1.6415  1.3128
 9064SOL    HW238652   3.656   0.627   6.729  0.9027 -1.2421 -2.0989
 9065SOL     OW38653   0.489   4.398  12.736 -0.4168 -0.5643  0.2684
 9065SOL    HW138654   0.509   4.468  12.675 -1.2032 -1.1497 -0.6566
 9065SOL    HW238655   0.485   4.327  12.672  0.6647 -0.9359  0.6126
 9066SOL     OW38656   4.630   0.873   2.547  0.0960  0.0532  0.4485
 9066SOL    HW138657   4.668   0.910   2.626 -1.6509  0.6210  1.0208
 9066SOL    HW238658   4.641   0.779   2.561 -0.8645 -0.1346 -0.0456
 9067SOL     OW38659   0.643   3.847   7.049  0.1911  0.1256  0.3177
 9067SOL    HW138660   0.695   3.874   7.125  2.9918 -1.5747 -1.0066
 9067SOL    HW238661   0.671   3.757   7.037 -0.0932  0.0436  0.2609
 9068SOL     OW38662   4.033   4.641   6.944  0.3913 -0.0270  0.6258
 9068SOL    HW138663   4.052   4.549   6.959 -2.1884 -0.4588  1.0961
 9068SOL    HW238664   4.117   4.683   6.963  0.6744  0.0115 -0.7137
 9069SOL     OW38665   3.868   1.826   9.022  0.0191 -0.2620 -0.1411
 9069SOL    HW138666   3.935   1.759   9.009  0.5014  0.4406 -1.3160
 9069SOL    HW238667   3.894   1.873   9.102  0.3499 -1.4135  0.4167
 9070SOL     OW38668   4.096   1.077   4.241 -0.2047  0.4213 -0.3866
 9070SOL    HW138669   4.016   1.029   4.264 -0.1703  0.0927 -0.9657
 9070SOL    HW238670   4.150   1.016   4.192  0.1192  0.6686 -0.3312
 9071SOL     OW38671   3.766   2.621   2.947 -0.2961  0.1915  0.0371
 9071SOL    HW138672   3.839   2.611   3.008  2.0497 -0.6011 -2.9069
 9071SOL    HW238673   3.771   2.712   2.920  0.8700  0.2283  0.3511
 9072SOL     OW38674   4.584   0.856   1.233  0.4373  0.4508 -0.4041
 9072SOL    HW138675   4.537   0.872   1.315 -0.5779 -1.2627 -0.6543
 9072SOL    HW238676   4.630   0.774   1.251  0.6957  0.7055  0.1048
 9073SOL     OW38677   2.392   3.618   9.666 -0.6237  0.2891  0.2016
 9073SOL    HW138678   2.373   3.694   9.611 -1.7112 -1.0929 -1.3469
 9073SOL    HW238679   2.464   3.576   9.619 -1.2695 -1.6539  0.9495
 9074SOL     OW38680   0.034   1.102   3.041 -0.1709 -0.3890 -0.0809
 9074SOL    HW138681   4.686   1.147   2.994  1.6364 -0.1261 -2.5741
 9074SOL    HW238682   0.111   1.157   3.027 -0.6407  0.1463 -0.5752
 9075SOL     OW38683   4.089   0.680   8.094  0.3025 -0.4376  0.7441
 9075SOL    HW138684   4.125   0.696   8.007 -2.9074  1.7362 -0.2115
 9075SOL    HW238685   4.082   0.586   8.081  0.4783 -0.1176 -1.7276
 9076SOL     OW38686   2.747   4.453   4.207 -0.3009  0.0915  0.5932
 9076SOL    HW138687   2.796   4.370   4.211 -2.0908 -0.9154  1.6437
 9076SOL    HW238688   2.682   4.425   4.143  1.5922 -0.4952 -1.0804
 9077SOL     OW38689   3.122   4.535   9.833  0.1205 -0.2405 -0.0121
 9077SOL    HW138690   3.056   4.489   9.780  0.3170 -0.7583  0.1962
 9077SOL    HW238691   3.195   4.501   9.782 -0.3612 -1.1551 -0.0923
 9078SOL     OW38692   3.963   4.722  10.646  0.4014  0.3558  0.5187
 9078SOL    HW138693   4.028   4.656  10.671 -0.1932 -1.0548 -1.6211
 9078SOL    HW238694   3.952   0.031  10.736  0.4977 -1.5411  1.2028
 9079SOL     OW38695   4.040   3.491  16.651 -0.0215  0.5039  0.3584
 9079SOL    HW138696   4.113   3.529  16.700  1.6191 -1.4567 -0.5898
 9079SOL    HW238697   3.980   3.466  16.722  0.4250  0.2801  0.6607
 9080SOL     OW38698   3.658   3.169   3.166 -0.5073  0.2371  0.1028
 9080SOL    HW138699   3.701   3.211   3.240 -0.9181  0.7359  0.0641
 9080SOL    HW238700   3.731   3.167   3.104 -2.5245 -1.9773 -2.2356
 9081SOL     OW38701   0.991   0.477   3.847 -0.0088 -0.3905 -0.4448
 9081SOL    HW138702   1.070   0.425   3.830 -0.8128 -0.8465 -2.8055
 9081SOL    HW238703   1.011   0.555   3.796 -2.0860 -0.1042 -0.8138
 9082SOL     OW38704   4.063   2.918   5.475  0.1688 -0.2663  0.0866
 9082SOL    HW138705   4.084   2.915   5.568  1.6980  0.1384 -0.2434
 9082SOL    HW238706   4.135   2.970   5.440  1.1060 -1.1435  0.7304
 9083SOL     OW38707   2.100   0.711  13.192 -0.3272  0.0101 -0.0392
 9083SOL    HW138708   2.055   0.644  13.245 -0.4681  1.6091  1.8775
 9083SOL    HW238709   2.028   0.761  13.154  1.2368  0.5689 -2.2380
 9084SOL     OW38710   0.835   1.080  13.546  0.2058  0.0658 -0.2255
 9084SOL    HW138711   0.915   1.123  13.578  0.8631 -0.3311 -1.3510
 9084SOL    HW238712   0.846   1.118  13.459 -0.9338  2.0274  0.4963
 9085SOL     OW38713   1.494   2.378   7.192  0.0118  0.4056  0.0674
 9085SOL    HW138714   1.429   2.392   7.260 -0.6685 -0.3527 -0.4213
 9085SOL    HW238715   1.480   2.449   7.128 -0.7268  0.6256  0.4731
 9086SOL     OW38716   1.616   3.382   1.661  0.1326 -0.2080  0.1954
 9086SOL    HW138717   1.567   3.326   1.722 -0.4517  0.0309 -0.0488
 9086SOL    HW238718   1.570   3.462   1.688  4.1754  2.6517 -1.4041
 9087SOL     OW38719   0.872   0.109   7.483  0.1608  0.1727  0.0022
 9087SOL    HW138720   0.954   0.159   7.483  0.4520 -0.3012  0.1967
 9087SOL    HW238721   0.830   0.132   7.566  0.3458  0.6834 -0.0460
 9088SOL     OW38722   2.069   3.930   6.803  1.0940 -0.7062 -0.6751
 9088SOL    HW138723   2.131   3.864   6.770 -0.1004 -3.0941  1.8728
 9088SOL    HW238724   2.061   3.913   6.897 -1.9354  1.7217 -0.4829
 9089SOL     OW38725   1.516   1.570   5.460 -0.0938  0.3235  0.0981
 9089SOL    HW138726   1.465   1.536   5.386  1.8184 -1.2596 -0.4956
 9089SOL    HW238727   1.570   1.633   5.412  2.7483 -0.9959  1.5141
 9090SOL     OW38728   1.858   3.618   7.762 -0.3625  0.3313 -0.3483
 9090SOL    HW138729   1.926   3.555   7.739 -0.0164  0.6738 -0.2733
 9090SOL    HW238730   1.800   3.588   7.692  0.5521  0.1014 -1.0085
 9091SOL     OW38731   4.448   1.860   9.472 -0.0810 -0.1982  0.6863
 9091SOL    HW138732   4.471   1.780   9.425  0.1578 -0.4210  1.1810
 9091SOL    HW238733   4.495   1.927   9.421 -0.4484 -1.3339 -1.1540
 9092SOL     OW38734   3.659   2.620  17.613  0.1459  0.0886  0.0701
 9092SOL    HW138735   3.650   2.586   0.010 -1.2005  0.5630  0.1181
 9092SOL    HW238736   3.658   2.716  17.615  0.2980  0.0317  2.3529
 9093SOL     OW38737   4.262   2.549   6.773  0.2887 -0.0332 -0.1128
 9093SOL    HW138738   4.213   2.547   6.855 -1.2091 -0.3956 -1.0223
 9093SOL    HW238739   4.280   2.455   6.766  0.7367  0.0975 -0.8136
 9094SOL     OW38740   0.228   0.333   3.402 -0.3895 -0.2755  0.1211
 9094SOL    HW138741   0.146   0.303   3.443 -0.6898 -5.1411 -4.0468
 9094SOL    HW238742   0.285   0.281   3.458 -0.6195 -3.5496 -2.7076
 9095SOL     OW38743   0.104   4.491  14.307 -0.5254  0.2984  0.2536
 9095SOL    HW138744   0.108   4.433  14.232  2.9773  1.9406 -0.8342
 9095SOL    HW238745   0.017   4.469  14.341 -1.2036  2.0927 -0.3259
 9096SOL     OW38746   3.851   1.901   6.958 -0.1108 -0.2705  0.0208
 9096SOL    HW138747   3.777   1.959   6.978 -0.6248  0.0789 -2.9110
 9096SOL    HW238748   3.819   1.838   6.893  0.5241  0.7086 -1.2565
 9097SOL     OW38749   0.402   3.490   9.889  0.2148  0.4222  0.3164
 9097SOL    HW138750   0.370   3.568   9.934 -0.1893 -0.1392  1.0038
 9097SOL    HW238751   0.443   3.537   9.817 -0.6268 -0.9998 -1.0700
 9098SOL     OW38752   3.505   0.493   5.028  0.1348  0.0532  0.2912
 9098SOL    HW138753   3.512   0.489   5.124 -1.3814 -1.5990  0.3202
 9098SOL    HW238754   3.509   0.589   5.029  0.7083  0.0316 -0.0685
 9099SOL     OW38755   2.351   3.041   1.768  0.0613  0.3493  0.2935
 9099SOL    HW138756   2.412   3.113   1.751 -1.5833  1.5785 -0.3225
 9099SOL    HW238757   2.285   3.062   1.702  0.1930 -1.5774 -0.4487
 9100SOL     OW38758   4.169   4.393  17.440 -0.3515  0.0712  0.4401
 9100SOL    HW138759   4.226   4.344  17.500  0.0421 -0.3360 -0.2628
 9100SOL    HW238760   4.158   4.329  17.369 -0.4622  0.0568  0.4716
 9101SOL     OW38761   3.067   2.234   3.153 -0.5008  1.2715 -0.0732
 9101SOL    HW138762   3.083   2.326   3.131  0.2034  1.6899  2.1943
 9101SOL    HW238763   3.151   2.203   3.186 -1.9514 -2.2121  0.3660
 9102SOL     OW38764   1.024   3.554   4.102 -0.3201 -0.5113  0.0392
 9102SOL    HW138765   1.010   3.598   4.018  0.3517 -0.3801  0.0025
 9102SOL    HW238766   1.073   3.618   4.153 -0.3588  1.1908 -2.0641
 9103SOL     OW38767   4.585   1.227  12.039  0.4124 -0.3691  0.0423
 9103SOL    HW138768   4.647   1.205  11.969 -0.2142 -2.0782  0.0440
 9103SOL    HW238769   4.503   1.203  11.995 -0.2707  1.3610  0.3642
 9104SOL     OW38770   1.812   0.353   3.453  0.2828  0.4525  0.1497
 9104SOL    HW138771   1.848   0.439   3.474 -0.8517  0.9898 -0.0740
 9104SOL    HW238772   1.785   0.353   3.361 -1.7489 -0.6913  0.7468
 9105SOL     OW38773   0.360   2.594   9.578  0.2250  0.0375  0.3923
 9105SOL    HW138774   0.320   2.634   9.655 -0.9561 -1.3465  0.4876
 9105SOL    HW238775   0.386   2.674   9.533  0.2203 -0.7159 -0.9472
 9106SOL     OW38776   3.953   3.167   2.261  0.3102  0.1881 -0.1491
 9106SOL    HW138777   3.909   3.219   2.328 -1.4346 -1.0700 -0.3237
 9106SOL    HW238778   3.918   3.078   2.273 -0.9917  0.4445 -2.0212
 9107SOL     OW38779   4.674   3.104   0.371 -0.0272 -0.1201  0.0174
 9107SOL    HW138780   4.618   3.047   0.424  2.2068 -0.5487  1.9541
 9107SOL    HW238781   0.039   3.082   0.406 -0.5153  1.0273  1.9179
 9108SOL     OW38782   1.230   3.987   9.036 -0.4338 -0.8555 -0.1829
 9108SOL    HW138783   1.270   3.913   9.082 -1.0966 -0.8578  0.3937
 9108SOL    HW238784   1.301   4.050   9.053 -0.5763 -0.5253 -0.8056
 9109SOL     OW38785   3.498   0.189   1.073  0.0808 -0.0189  0.2092
 9109SOL    HW138786   3.478   0.116   1.015  0.5305  2.5125 -3.1276
 9109SOL    HW238787   3.412   0.225   1.091  0.2760  1.6725 -2.3010
 9110SOL     OW38788   1.250   4.452  15.816 -0.1005 -0.4150 -0.4820
 9110SOL    HW138789   1.280   4.402  15.740  0.0285 -0.8434 -0.1497
 9110SOL    HW238790   1.183   4.504  15.771  0.2125  0.8177  0.4908
 9111SOL     OW38791   2.239   2.116  10.079 -0.0325 -0.0072 -0.1740
 9111SOL    HW138792   2.284   2.138   9.997  0.8030 -1.2400 -0.0375
 9111SOL    HW238793   2.292   2.041  10.103 -0.8497 -0.3425  0.5767
 9112SOL     OW38794   3.543   2.047   5.403 -0.0058  0.4361  0.1301
 9112SOL    HW138795   3.623   2.034   5.352 -0.2435  2.5986 -0.7580
 9112SOL    HW238796   3.553   2.137   5.433  2.1430 -0.0923  0.9956
 9113SOL     OW38797   3.261   3.491   9.179 -0.0402 -0.0980 -0.2039
 9113SOL    HW138798   3.261   3.437   9.100 -1.3874 -0.1927 -0.1439
 9113SOL    HW238799   3.348   3.473   9.213  0.0158 -1.8526 -1.2418
 9114SOL     OW38800   1.185   4.111   4.139 -0.7605  0.3966  0.4580
 9114SOL    HW138801   1.152   4.043   4.081  1.2321 -0.9236  0.8806
 9114SOL    HW238802   1.107   4.140   4.187 -1.7958 -2.0951  0.2514
 9115SOL     OW38803   2.719   2.492   6.793 -0.1839  0.1098 -0.4276
 9115SOL    HW138804   2.639   2.516   6.841  0.6170  1.0299  0.4555
 9115SOL    HW238805   2.702   2.399   6.807 -0.6845  0.1614 -0.6905
 9116SOL     OW38806   0.836   0.094   6.287 -0.1528 -0.5090 -0.7417
 9116SOL    HW138807   0.920   0.071   6.248 -1.2200 -1.8171 -2.2754
 9116SOL    HW238808   0.859   0.110   6.378  1.2966 -0.0852 -1.1744
 9117SOL     OW38809   0.079   3.414   2.077  0.5907 -0.0621 -0.0680
 9117SOL    HW138810   0.114   3.348   2.016 -1.0738 -1.2927  0.3180
 9117SOL    HW238811   0.059   3.480   2.010 -1.3859 -0.3483  0.2555
 9118SOL     OW38812   3.682   2.374  16.011  0.2016 -0.4530  0.3172
 9118SOL    HW138813   3.768   2.349  15.976  0.5323  0.9971  0.0814
 9118SOL    HW238814   3.635   2.296  16.037 -1.0823 -0.0473 -0.7776
 9119SOL     OW38815   2.228   3.186   8.794  0.1676  0.1438  0.2445
 9119SOL    HW138816   2.263   3.106   8.756  1.8383  1.9249 -1.9669
 9119SOL    HW238817   2.287   3.250   8.754 -0.7152  1.7021  1.4036
 9120SOL     OW38818   2.090   0.201  16.881 -0.3076 -0.3330 -0.1140
 9120SOL    HW138819   2.134   0.226  16.962  1.9674 -3.1117 -0.4898
 9120SOL    HW238820   2.165   0.180  16.825 -1.0029 -0.2182 -1.0938
 9121SOL     OW38821   3.854   0.277   9.782  0.0242  0.0153 -0.1423
 9121SOL    HW138822   3.817   0.354   9.738 -1.1689  1.1365  2.8320
 9121SOL    HW238823   3.866   0.310   9.871  0.3792  0.8669 -0.5127
 9122SOL     OW38824   2.667   1.540   2.808 -0.0210  0.6895 -0.5241
 9122SOL    HW138825   2.679   1.471   2.743  1.5317  0.1804  0.2920
 9122SOL    HW238826   2.595   1.590   2.770  0.5051 -0.7709 -3.4328
 9123SOL     OW38827   1.347   1.173  16.733  0.5360  0.4663 -0.1475
 9123SOL    HW138828   1.317   1.263  16.717 -4.4049 -1.2825 -0.7062
 9123SOL    HW238829   1.272   1.122  16.763 -0.7911  1.0189 -2.4772
 9124SOL     OW38830   1.489   1.600   0.369 -0.2992 -0.0795  0.2074
 9124SOL    HW138831   1.475   1.509   0.342 -1.0665 -0.0594  0.5492
 9124SOL    HW238832   1.533   1.635   0.292 -2.2737  0.7426 -0.5447
 9125SOL     OW38833   0.496   2.365   2.607 -0.2689 -0.3684 -0.1689
 9125SOL    HW138834   0.407   2.346   2.637  0.4573 -1.5050  1.2707
 9125SOL    HW238835   0.522   2.294   2.549 -2.5920 -1.0656 -0.3511
 9126SOL     OW38836   3.598   3.143   9.044  0.2289 -0.0454 -0.1521
 9126SOL    HW138837   3.532   3.143   9.113 -0.1622  0.9213 -0.5295
 9126SOL    HW238838   3.670   3.165   9.103  0.9532  1.3232 -1.5483
 9127SOL     OW38839   3.369   0.967   1.621  0.0085  0.0095 -0.3343
 9127SOL    HW138840   3.287   1.017   1.613 -0.2232 -0.1546  0.9915
 9127SOL    HW238841   3.368   0.930   1.709 -1.4222  0.1295 -0.2893
 9128SOL     OW38842   1.724   2.761   3.534 -0.4133  0.1687  0.5933
 9128SOL    HW138843   1.798   2.738   3.591 -0.1311  0.7725  0.4644
 9128SOL    HW238844   1.776   2.799   3.464  1.9737 -0.5960  1.9492
 9129SOL     OW38845   1.526   0.833   4.451 -0.4150 -0.0099  0.1934
 9129SOL    HW138846   1.533   0.928   4.450  0.6519 -0.0925 -0.0166
 9129SOL    HW238847   1.611   0.813   4.489 -1.4738 -2.7092  1.1363
 9130SOL     OW38848   2.794   3.063   0.885  0.0067 -0.2260 -0.2440
 9130SOL    HW138849   2.799   3.020   0.970 -1.1472  1.7023  0.7794
 9130SOL    HW238850   2.807   3.154   0.910 -0.9739 -0.2720  0.4122
 9131SOL     OW38851   1.786   1.809   5.920 -0.0495  0.3694 -0.7250
 9131SOL    HW138852   1.815   1.826   6.010  1.5766 -0.2651 -1.1221
 9131SOL    HW238853   1.691   1.802   5.930  0.0807 -0.0154  0.2760
 9132SOL     OW38854   2.436   0.747   6.530  0.4974 -0.7422 -0.0647
 9132SOL    HW138855   2.505   0.788   6.582  0.5102 -0.0466 -0.6263
 9132SOL    HW238856   2.399   0.678   6.584  2.7821 -2.5510 -0.7955
 9133SOL     OW38857   2.542   0.305   7.400 -0.2903 -0.1962  0.1528
 9133SOL    HW138858   2.518   0.305   7.493 -0.3396  1.6410  0.1385
 9133SOL    HW238859   2.614   0.242   7.393 -1.3876 -1.3818 -0.3651
 9134SOL     OW38860   1.830   0.518   4.105 -0.0769 -0.4560 -0.0323
 9134SOL    HW138861   1.738   0.511   4.131  0.0731  0.4547  0.7548
 9134SOL    HW238862   1.840   0.613   4.107  0.7112 -0.5765  1.4315
 9135SOL     OW38863   0.299   4.511  12.882 -1.0018  0.1270 -0.2712
 9135SOL    HW138864   0.241   4.546  12.815 -0.5290 -0.4022 -0.9559
 9135SOL    HW238865   0.365   4.461  12.833 -1.7428 -1.7572  0.6673
 9136SOL     OW38866   2.206   3.066   2.667  0.4604  0.1029 -0.4178
 9136SOL    HW138867   2.226   3.094   2.578 -0.1024 -2.3166 -1.3102
 9136SOL    HW238868   2.134   3.126   2.689 -0.1667 -2.1573  3.6702
 9137SOL     OW38869   0.795   4.318   7.223  0.2054  0.0775  0.3344
 9137SOL    HW138870   0.821   4.398   7.267 -0.0652  0.6247 -0.4994
 9137SOL    HW238871   0.841   4.248   7.270  1.1098  1.0848  0.9544
 9138SOL     OW38872   3.476   3.522   0.659  0.2491 -0.1957  0.4663
 9138SOL    HW138873   3.515   3.562   0.581 -0.4376 -0.9782 -0.2707
 9138SOL    HW238874   3.506   3.432   0.647 -1.8218 -0.5842 -1.6818
 9139SOL     OW38875   1.812   1.634  11.506 -0.4586 -0.4028  0.3167
 9139SOL    HW138876   1.718   1.626  11.491 -0.4632 -0.1715  0.2262
 9139SOL    HW238877   1.839   1.556  11.458 -0.5915  0.1891 -0.7153
 9140SOL     OW38878   4.344   0.395   3.545 -0.2940 -0.1529  0.6693
 9140SOL    HW138879   4.380   0.321   3.593 -0.4880 -0.4337  0.3823
 9140SOL    HW238880   4.429   0.430   3.516 -0.8327  0.2811 -0.4080
 9141SOL     OW38881   0.530   1.470  11.440  0.4175  0.4407  0.1628
 9141SOL    HW138882   0.492   1.507  11.361 -0.0364 -1.0107 -0.3073
 9141SOL    HW238883   0.539   1.551  11.489  1.4726  1.9613 -2.5940
 9142SOL     OW38884   3.500   2.298   7.273 -0.3145 -0.6031  0.0353
 9142SOL    HW138885   3.511   2.284   7.366  0.8845 -1.3039 -0.2205
 9142SOL    HW238886   3.494   2.207   7.245 -1.3119 -0.2911 -0.7816
 9143SOL     OW38887   1.104   1.817   7.975 -0.1312  0.8467  0.3752
 9143SOL    HW138888   1.083   1.734   8.018  2.1327 -0.0764 -0.3284
 9143SOL    HW238889   1.195   1.798   7.955 -0.7111 -0.0531 -1.4822
 9144SOL     OW38890   1.431   0.161   5.460  0.2028  0.6445  0.1544
 9144SOL    HW138891   1.412   0.077   5.419  1.4026  0.8062 -0.7555
 9144SOL    HW238892   1.520   0.144   5.493  0.1284  2.1441  1.1396
 9145SOL     OW38893   3.212   0.272  16.570  0.2388  0.5166 -0.7194
 9145SOL    HW138894   3.231   0.361  16.541 -0.6121  0.5596 -1.1475
 9145SOL    HW238895   3.130   0.243  16.530 -0.1110 -2.9413  2.5071
 9146SOL     OW38896   0.162   2.034   2.812 -0.0153 -0.2425  0.2658
 9146SOL    HW138897   0.165   1.960   2.752  0.6487  1.2591 -1.5622
 9146SOL    HW238898   0.118   2.102   2.760 -1.8964 -0.2680  1.8242
 9147SOL     OW38899   1.675   2.181   7.367 -0.3448 -0.2006  0.6957
 9147SOL    HW138900   1.598   2.124   7.365  1.1663 -2.2352  0.0443
 9147SOL    HW238901   1.748   2.141   7.319 -2.2705 -0.0587 -2.4123
 9148SOL     OW38902   2.902   4.242  11.595 -0.5231  0.0250 -0.1036
 9148SOL    HW138903   2.985   4.268  11.634 -0.9454  1.0946  0.0732
 9148SOL    HW238904   2.882   4.314  11.535 -3.4633 -1.5109 -0.9748
 9149SOL     OW38905   4.217   1.931   2.499  0.3845 -0.8862 -0.2352
 9149SOL    HW138906   4.149   1.989   2.464  0.8076 -0.5178 -0.4357
 9149SOL    HW238907   4.236   1.877   2.422  0.8169 -0.1968 -0.6156
 9150SOL     OW38908   0.210   3.863  11.006  0.0506 -0.5343 -0.0656
 9150SOL    HW138909   0.240   3.926  11.072  1.9407 -3.7763  2.1490
 9150SOL    HW238910   0.292   3.852  10.959  1.4940 -0.6013  2.4885
 9151SOL     OW38911   0.973   2.829   6.781 -0.6994 -0.1667 -0.1928
 9151SOL    HW138912   0.983   2.743   6.741 -3.2362  0.0583 -1.3292
 9151SOL    HW238913   0.879   2.848   6.782 -0.1133  2.6170  1.9567
 9152SOL     OW38914   1.837   4.689   3.816 -0.9991 -0.1926 -0.4295
 9152SOL    HW138915   1.834   0.034   3.883  0.7708 -2.1209  1.5695
 9152SOL    HW238916   1.821   0.021   3.738  3.0541 -2.5302 -2.8880
 9153SOL     OW38917   0.301   2.930   2.876  0.0177  0.5103 -0.1371
 9153SOL    HW138918   0.227   2.870   2.863  1.6098 -1.0127 -2.1251
 9153SOL    HW238919   0.367   2.880   2.827  0.9931  1.1648  0.5156
 9154SOL     OW38920   3.218   2.335   8.084  0.1011 -0.1088 -0.4188
 9154SOL    HW138921   3.224   2.383   8.167 -0.1308 -0.0129 -0.4554
 9154SOL    HW238922   3.307   2.300   8.090  0.7070  1.7819  1.8590
 9155SOL     OW38923   2.497   2.790   3.452  0.0278 -0.2240  0.2168
 9155SOL    HW138924   2.465   2.737   3.525  1.7458 -2.3910 -0.6135
 9155SOL    HW238925   2.457   2.876   3.465 -0.8969 -0.5032 -0.7308
 9156SOL     OW38926   3.509   2.522   5.207  0.2221 -0.1985  0.4919
 9156SOL    HW138927   3.550   2.570   5.279 -0.2223  1.2676 -0.2314
 9156SOL    HW238928   3.570   2.448   5.212  0.5893 -0.2136 -3.9233
 9157SOL     OW38929   4.343   2.965   9.255  0.5780 -0.3518  1.1764
 9157SOL    HW138930   4.364   2.936   9.166 -1.3834  0.1253  0.5612
 9157SOL    HW238931   4.396   3.045   9.256 -0.4280  0.3028  1.3230
 9158SOL     OW38932   0.934   2.941   6.425 -0.3674  0.2426 -0.0130
 9158SOL    HW138933   0.957   2.858   6.466 -1.4548 -0.7518 -1.4407
 9158SOL    HW238934   0.860   2.906   6.377 -1.0289  2.6807 -0.7838
 9159SOL     OW38935   2.734   2.462   0.343 -0.6729 -0.2318  0.2701
 9159SOL    HW138936   2.690   2.458   0.428  0.0024  3.6698  0.8036
 9159SOL    HW238937   2.663   2.490   0.285 -1.8437 -0.5918  1.5302
 9160SOL     OW38938   3.308   0.133  13.418 -0.3264  0.2641 -0.1020
 9160SOL    HW138939   3.228   0.136  13.365  0.5269  0.6461 -1.3857
 9160SOL    HW238940   3.270   0.123  13.505  0.3143  1.3799  0.3044
 9161SOL     OW38941   2.893   1.564   3.213 -0.3426 -0.6179  0.0214
 9161SOL    HW138942   2.952   1.639   3.227 -2.0114  0.7180 -0.1362
 9161SOL    HW238943   2.868   1.552   3.305  2.0410  1.3249  0.9286
 9162SOL     OW38944   0.578   0.250   1.409  0.0067 -0.1021 -0.4262
 9162SOL    HW138945   0.542   0.171   1.368  0.3932 -0.4858 -0.0409
 9162SOL    HW238946   0.612   0.223   1.494 -1.6900  2.2717  0.9845
 9163SOL     OW38947   2.451   1.314   8.835 -0.1052 -0.0580 -0.7170
 9163SOL    HW138948   2.466   1.388   8.894  0.5727 -0.8014  0.0485
 9163SOL    HW238949   2.529   1.264   8.860 -0.8767 -0.5675  0.6678
 9164SOL     OW38950   0.334   2.272  10.383 -0.1993  0.0350 -0.0315
 9164SOL    HW138951   0.337   2.367  10.397 -1.3644 -0.1435  1.4416
 9164SOL    HW238952   0.245   2.252  10.412 -0.0437 -0.6105  0.0120
 9165SOL     OW38953   0.181   4.054   9.545  0.1192 -0.1662 -0.2364
 9165SOL    HW138954   0.259   4.029   9.496  0.3405  0.7263 -0.3522
 9165SOL    HW238955   0.212   4.128   9.598 -0.8665 -1.1432  1.7121
 9166SOL     OW38956   0.465   2.398   8.560 -0.0725  0.5297 -0.2208
 9166SOL    HW138957   0.469   2.347   8.478 -3.8401  0.3603 -0.3092
 9166SOL    HW238958   0.435   2.332   8.622 -1.8821  2.6734  1.1471
 9167SOL     OW38959   1.031   2.316  17.359 -0.6244  0.4219  0.0566
 9167SOL    HW138960   1.099   2.376  17.328  1.7126 -3.1163 -1.5969
 9167SOL    HW238961   1.039   2.252  17.289 -0.6260 -1.0621  1.4307
 9168SOL     OW38962   0.259   3.984  10.305 -0.9680 -0.9314 -0.2302
 9168SOL    HW138963   0.207   3.913  10.341  0.2376 -1.3541  0.6568
 9168SOL    HW238964   0.344   3.940  10.310 -0.8058 -1.0262 -3.6264
 9169SOL     OW38965   2.077   0.298  12.332 -0.2658 -0.4858  0.2825
 9169SOL    HW138966   2.114   0.229  12.388 -0.0388 -0.3161  0.3390
 9169SOL    HW238967   1.991   0.256  12.327 -2.2828  3.8460 -0.9578
 9170SOL     OW38968   3.860   2.859   8.130  0.2091  0.1257 -0.1509
 9170SOL    HW138969   3.936   2.879   8.184 -0.0851 -1.1655  0.7499
 9170SOL    HW238970   3.833   2.773   8.161  1.9086  0.1847  1.4805
 9171SOL     OW38971   2.228   1.146   7.209  0.2252  0.0036 -0.2858
 9171SOL    HW138972   2.231   1.159   7.304  1.0250 -0.9642 -0.1775
 9171SOL    HW238973   2.314   1.106   7.200 -0.2155 -0.6097 -1.6383
 9172SOL     OW38974   4.297   2.665   2.507 -0.5235  0.3354 -0.0340
 9172SOL    HW138975   4.281   2.688   2.598  1.4423 -2.0694  0.8880
 9172SOL    HW238976   4.388   2.667   2.480 -0.6440 -1.2296 -0.5451
 9173SOL     OW38977   0.461   3.960   1.464  0.1305 -0.3655 -0.3605
 9173SOL    HW138978   0.418   3.987   1.546  1.4277 -3.2473  1.2641
 9173SOL    HW238979   0.469   3.865   1.474  0.4840 -0.4857 -1.8501
 9174SOL     OW38980   2.681   1.865   4.169  0.1812 -0.3842  0.2049
 9174SOL    HW138981   2.662   1.929   4.100 -0.0895 -0.7106 -0.0270
 9174SOL    HW238982   2.680   1.916   4.250 -0.3931 -1.9715  1.2009
 9175SOL     OW38983   3.280   1.955   9.384  0.1387  0.1038 -0.0280
 9175SOL    HW138984   3.357   1.914   9.345 -0.0825 -0.7043  0.3685
 9175SOL    HW238985   3.282   1.928   9.476 -2.2895  0.2519  0.0842
 9176SOL     OW38986   0.315   0.849   8.379 -0.0479 -0.1783 -0.3586
 9176SOL    HW138987   0.318   0.760   8.413 -4.1761 -0.1379  0.0467
 9176SOL    HW238988   0.355   0.889   8.456 -2.0898  0.2019  0.4938
 9177SOL     OW38989   1.402   3.868   6.681  0.2626  0.0621 -0.4775
 9177SOL    HW138990   1.428   3.807   6.612 -0.8851  1.9085 -2.5490
 9177SOL    HW238991   1.365   3.935   6.623  0.7146  0.3869 -0.3926
 9178SOL     OW38992   0.965   1.612   1.850  0.0188  0.3500  0.4012
 9178SOL    HW138993   0.991   1.676   1.784  0.6595 -1.5659 -1.2088
 9178SOL    HW238994   1.038   1.551   1.835 -0.4165  0.2061 -1.1983
 9179SOL     OW38995   2.345   4.417  10.430  0.4708  0.8058 -0.4289
 9179SOL    HW138996   2.276   4.481  10.417 -2.0327 -1.8802 -0.3056
 9179SOL    HW238997   2.345   4.424  10.526  1.9497  2.2256 -0.5366
 9180SOL     OW38998   3.158   4.602   2.744 -0.1861 -0.0394 -0.9227
 9180SOL    HW138999   3.137   4.666   2.811  2.0119 -0.7863  0.4902
 9180SOL    HW239000   3.071   4.568   2.723 -0.7348  1.4262 -0.9900
 9181SOL     OW39001   2.877   1.995   1.260 -0.2109  0.1281  0.0995
 9181SOL    HW139002   2.840   1.907   1.273  0.4570 -0.2079 -0.2421
 9181SOL    HW239003   2.898   2.013   1.352 -1.1032 -0.2745  0.3823
 9182SOL     OW39004   0.261   0.087   0.707 -0.1369 -0.8388  0.1357
 9182SOL    HW139005   0.178   0.040   0.708  0.6780 -2.2430  2.1867
 9182SOL    HW239006   0.309   0.050   0.781 -0.3847 -1.8714 -0.2196
 9183SOL     OW39007   2.635   1.091   4.844 -0.5779 -0.2427 -0.3031
 9183SOL    HW139008   2.548   1.054   4.859  0.0825 -0.9695  1.8230
 9183SOL    HW239009   2.601   1.176   4.815  0.9938  0.2542 -0.6938
 9184SOL     OW39010   2.331   1.729   4.849 -0.1021 -0.0294  0.3624
 9184SOL    HW139011   2.317   1.779   4.769  2.3165 -0.5461 -0.3671
 9184SOL    HW239012   2.244   1.688   4.848  0.6670 -1.7183  1.4370
 9185SOL     OW39013   2.517   3.357   7.708 -0.5042  0.3145 -0.2885
 9185SOL    HW139014   2.596   3.326   7.663 -0.5558 -0.5780  0.2553
 9185SOL    HW239015   2.564   3.413   7.770 -1.0586  0.9473 -0.4463
 9186SOL     OW39016   1.713   2.407   8.206 -0.1008  0.0555 -0.0998
 9186SOL    HW139017   1.771   2.465   8.157 -0.6809 -1.5402 -2.6147
 9186SOL    HW239018   1.704   2.461   8.285 -1.8844 -1.9505  1.0603
 9187SOL     OW39019   2.778   2.450   8.575 -0.1842 -0.0613  1.0161
 9187SOL    HW139020   2.692   2.412   8.591 -1.0599  1.9949  1.2121
 9187SOL    HW239021   2.760   2.544   8.578  1.7479  0.2498  2.9108
 9188SOL     OW39022   1.852   1.963   8.305 -0.6837 -0.3507 -0.3821
 9188SOL    HW139023   1.928   1.946   8.360  0.7351 -0.9606 -2.5529
 9188SOL    HW239024   1.830   1.877   8.269  0.8312 -0.6342 -0.6098
 9189SOL     OW39025   3.081   4.578  13.678 -0.3478  0.5735  0.0621
 9189SOL    HW139026   3.027   4.506  13.646  1.6789 -0.8665 -0.0966
 9189SOL    HW239027   3.160   4.538  13.715  0.2956 -0.4971 -2.4666
 9190SOL     OW39028   0.483   4.383  12.145  0.1141 -0.2347 -0.4383
 9190SOL    HW139029   0.546   4.314  12.161 -0.4933 -0.8070 -0.5178
 9190SOL    HW239030   0.532   4.459  12.179 -0.5527  1.0725 -2.3971
 9191SOL     OW39031   0.217   1.785   5.019  0.1284 -0.3082  0.7033
 9191SOL    HW139032   0.252   1.724   5.084 -1.2515 -1.1221  0.6688
 9191SOL    HW239033   0.135   1.813   5.059  0.2421  0.9162  0.0724
 9192SOL     OW39034   3.352   2.830   8.823 -0.1167 -0.4691  0.1431
 9192SOL    HW139035   3.426   2.876   8.784 -0.3751 -0.3644 -0.2268
 9192SOL    HW239036   3.320   2.782   8.747 -0.1078 -2.8486  1.6433
 9193SOL     OW39037   0.008   0.132  10.982 -0.7100  0.1798 -0.2064
 9193SOL    HW139038   0.075   0.173  10.928 -0.8409  1.8019  0.8977
 9193SOL    HW239039   4.715   0.214  11.028 -0.6217  0.8550 -1.3692
 9194SOL     OW39040   4.092   2.938  15.645  0.4567 -0.3095 -0.4326
 9194SOL    HW139041   4.094   2.933  15.550  1.2726  0.9324 -0.4747
 9194SOL    HW239042   4.087   3.033  15.654  0.8430 -0.3661  0.3795
 9195SOL     OW39043   0.576   3.053   3.796 -0.3788 -0.0753 -0.1781
 9195SOL    HW139044   0.647   2.992   3.816 -0.4760  0.0469  0.5625
 9195SOL    HW239045   0.522   2.998   3.739 -0.9327 -0.3771  0.6268
 9196SOL     OW39046   0.231   0.848   6.610 -0.5403  0.0161 -0.1125
 9196SOL    HW139047   0.316   0.841   6.567 -1.6623  1.4245 -2.5336
 9196SOL    HW239048   0.240   0.808   6.696  1.2247 -1.0586 -0.7972
 9197SOL     OW39049   4.304   0.400   3.018 -0.1219  0.0113  0.4304
 9197SOL    HW139050   4.397   0.389   2.999 -0.5632 -3.6715  0.3488
 9197SOL    HW239051   4.282   0.486   2.982  0.3098 -0.8281 -1.8446
 9198SOL     OW39052   2.199   4.335   9.180  0.3020  0.4519  0.1273
 9198SOL    HW139053   2.166   4.382   9.104 -0.6559  0.0482  0.2885
 9198SOL    HW239054   2.123   4.323   9.237 -0.1018 -0.3367 -0.5784
 9199SOL     OW39055   4.522   3.397   7.979 -0.0003 -0.4108  0.6979
 9199SOL    HW139056   4.493   3.309   8.003 -2.0013  0.4018  1.2260
 9199SOL    HW239057   4.486   3.411   7.892  0.8083  0.8646  0.5729
 9200SOL     OW39058   1.928   1.664   8.232 -0.5217 -0.1501 -0.5325
 9200SOL    HW139059   1.981   1.611   8.292 -0.2419 -0.1197 -0.7539
 9200SOL    HW239060   2.001   1.708   8.188  1.0261 -2.8694 -0.7544
 9201SOL     OW39061   4.173   3.832   0.549 -0.0242  0.3083  0.1435
 9201SOL    HW139062   4.136   3.817   0.637 -1.1634  2.2044 -0.0039
 9201SOL    HW239063   4.110   3.903   0.534  0.2286  0.8207  1.4720
 9202SOL     OW39064   1.058   3.018   2.386  0.8498 -0.2858  0.3726
 9202SOL    HW139065   0.993   3.080   2.418  0.3085 -0.5136 -0.2920
 9202SOL    HW239066   1.071   3.050   2.297  0.5586  0.7638  0.7045
 9203SOL     OW39067   3.135   4.037   6.897 -0.6127  0.6302 -0.0132
 9203SOL    HW139068   3.165   3.951   6.928 -2.4350 -0.2799 -0.7714
 9203SOL    HW239069   3.186   4.042   6.817  0.0825 -1.6388  0.2775
 9204SOL     OW39070   1.295   0.095  11.490 -0.1000 -0.0162  0.3568
 9204SOL    HW139071   1.383   0.124  11.466  0.1596 -0.5620  0.6204
 9204SOL    HW239072   1.309   0.006  11.457  0.1982  0.8703 -1.8694
 9205SOL     OW39073   2.979   3.728   8.568  0.0595 -1.1171  0.4519
 9205SOL    HW139074   2.888   3.734   8.596  0.8945  0.3504  2.8248
 9205SOL    HW239075   2.967   3.719   8.473  1.0768 -1.1818  0.3254
 9206SOL     OW39076   3.795   3.898  15.950  1.0799  0.1365  0.3956
 9206SOL    HW139077   3.807   3.852  15.866  2.8032  0.3565  0.5373
 9206SOL    HW239078   3.703   3.872  15.961  0.6120  1.7208  0.1610
 9207SOL     OW39079   0.513   2.320   6.348  0.6099 -0.3127  0.1287
 9207SOL    HW139080   0.600   2.283   6.328  0.6959  0.2426 -0.5003
 9207SOL    HW239081   0.527   2.412   6.326 -1.1764  0.1553  0.9745
 9208SOL     OW39082   4.614   2.680   7.630 -0.1559 -0.4178 -0.5967
 9208SOL    HW139083   4.702   2.683   7.668 -0.1283  1.0968 -0.7589
 9208SOL    HW239084   4.580   2.602   7.672 -1.0339 -0.2448 -0.9880
 9209SOL     OW39085   0.963   1.892   7.104 -0.4747  0.6018 -0.3633
 9209SOL    HW139086   0.911   1.835   7.160  3.1023 -1.6242  0.7123
 9209SOL    HW239087   1.029   1.917   7.170 -2.7989  2.1146  1.3803
 9210SOL     OW39088   0.679   3.477   8.780  0.6088 -0.3373 -0.0154
 9210SOL    HW139089   0.588   3.503   8.764  1.0989  2.3502  1.5052
 9210SOL    HW239090   0.710   3.547   8.722  2.3252 -1.7656 -0.7992
 9211SOL     OW39091   1.152   2.684   1.685  0.0048  0.8600  0.3745
 9211SOL    HW139092   1.160   2.767   1.638  0.3936 -0.0540 -1.1870
 9211SOL    HW239093   1.058   2.669   1.693  0.1522  1.3099  2.7632
 9212SOL     OW39094   3.038   2.381   5.697 -0.6420  0.0250 -0.2796
 9212SOL    HW139095   3.006   2.348   5.781  1.9951  1.9528  1.4727
 9212SOL    HW239096   3.022   2.300   5.649 -0.3535 -0.8032  1.0187
 9213SOL     OW39097   0.100   2.202  11.374 -0.0510 -0.0471 -0.5338
 9213SOL    HW139098   0.175   2.166  11.326  0.7845  1.0125 -0.0132
 9213SOL    HW239099   0.039   2.230  11.306 -1.9103 -0.7942  0.8251
 9214SOL     OW39100   1.921   3.164   2.651 -0.0749  0.1164 -0.9639
 9214SOL    HW139101   1.912   3.232   2.718 -0.8392  1.5782 -2.5697
 9214SOL    HW239102   1.925   3.217   2.572  1.2667  0.1903 -0.8563
 9215SOL     OW39103   0.293   4.514   6.025 -0.2842 -0.2784  0.3418
 9215SOL    HW139104   0.384   4.519   6.054  0.7627 -1.4662 -2.6912
 9215SOL    HW239105   0.262   4.443   6.081 -1.7235  1.2698  1.4992
 9216SOL     OW39106   3.011   1.951  11.683  0.3404 -0.0973  0.0009
 9216SOL    HW139107   3.080   2.009  11.651 -2.4796  3.1149 -0.2474
 9216SOL    HW239108   3.055   1.868  11.703  3.3661  0.6511 -3.5308
 9217SOL     OW39109   1.802   3.488   4.154 -0.0642 -0.2756 -0.3112
 9217SOL    HW139110   1.869   3.428   4.121  1.5541  0.7132  1.1709
 9217SOL    HW239111   1.816   3.563   4.096 -1.9069  0.2932 -0.0127
 9218SOL     OW39112   4.157   0.480   5.910 -0.2811  0.2977  0.6729
 9218SOL    HW139113   4.085   0.418   5.922  2.1586 -2.0182  3.3598
 9218SOL    HW239114   4.211   0.465   5.988  0.9345  0.3209 -0.1723
 9219SOL     OW39115   1.636   2.457   2.793 -0.0561  0.8381 -0.2108
 9219SOL    HW139116   1.636   2.492   2.883  2.0927 -0.9900  0.5047
 9219SOL    HW239117   1.722   2.485   2.762 -0.1820  0.8507 -0.5429
 9220SOL     OW39118   2.621   3.645   5.017  0.4957  0.1153 -0.3006
 9220SOL    HW139119   2.558   3.594   4.966  0.1880 -0.8611  1.0557
 9220SOL    HW239120   2.698   3.589   5.032  0.0247 -0.2798  0.6057
 9221SOL     OW39121   4.640   0.993   2.300  0.2664 -0.3582 -0.2849
 9221SOL    HW139122   4.686   0.917   2.265  0.2883 -0.8510  0.8049
 9221SOL    HW239123   4.623   0.954   2.386 -0.0201 -0.8116 -0.5452
 9222SOL     OW39124   3.570   0.516   4.705  0.1169 -0.1027  0.3251
 9222SOL    HW139125   3.561   0.571   4.783 -1.9986 -0.9728  0.6948
 9222SOL    HW239126   3.639   0.455   4.729  0.8326  1.0887  1.2832
 9223SOL     OW39127   3.906   1.543   7.635  0.4066 -0.3603 -0.6024
 9223SOL    HW139128   3.994   1.545   7.672  0.4826  0.0715 -0.8026
 9223SOL    HW239129   3.894   1.454   7.601  0.3968 -0.5218 -0.1770
 9224SOL     OW39130   0.065   4.504   5.209  0.4919 -0.4405 -0.2209
 9224SOL    HW139131   0.103   4.494   5.296 -0.9565  1.8336  0.6943
 9224SOL    HW239132   0.089   4.595   5.189 -2.7111 -0.0906 -2.3820
 9225SOL     OW39133   3.665   0.631   9.032  0.4980  0.6251  0.2659
 9225SOL    HW139134   3.576   0.619   8.999  0.2589  1.0163  0.7742
 9225SOL    HW239135   3.681   0.726   9.028  0.8112  0.5561 -0.1249
 9226SOL     OW39136   2.358   1.155   7.815 -0.7725 -0.0291 -0.0768
 9226SOL    HW139137   2.419   1.086   7.841  0.1099  0.9607  0.4896
 9226SOL    HW239138   2.405   1.175   7.734 -2.4116 -0.7264 -1.1975
 9227SOL     OW39139   3.132   4.295  11.722 -0.3909  0.3504 -0.2345
 9227SOL    HW139140   3.214   4.247  11.718 -0.2527  0.8031 -2.9514
 9227SOL    HW239141   3.156   4.380  11.759  0.8056 -0.2796  0.4087
 9228SOL     OW39142   0.877   0.712   7.635  0.5313  0.7800  0.5283
 9228SOL    HW139143   0.849   0.695   7.725 -0.7262 -0.5349 -0.1210
 9228SOL    HW239144   0.854   0.805   7.634 -1.0263  0.3800 -0.5102
 9229SOL     OW39145   0.311   4.333  10.334 -0.4808 -0.5689 -0.5529
 9229SOL    HW139146   0.295   4.349  10.427  0.7181 -0.0542 -0.4442
 9229SOL    HW239147   0.255   4.259  10.309 -1.4638 -0.5991  1.7317
 9230SOL     OW39148   2.031   2.470   7.872  0.1956 -0.3543 -0.5437
 9230SOL    HW139149   2.125   2.489   7.878  0.7124 -2.6793 -1.7231
 9230SOL    HW239150   2.015   2.501   7.783 -0.5720 -0.5855 -0.4833
 9231SOL     OW39151   0.064   1.219   0.067 -0.1872 -0.1512 -0.0220
 9231SOL    HW139152   0.138   1.179   0.113  0.7080  0.2856 -1.0614
 9231SOL    HW239153   0.039   1.273   0.142 -1.4234  1.0828 -1.3214
 9232SOL     OW39154   1.026   2.363  15.391 -0.1120 -0.1009 -0.3061
 9232SOL    HW139155   0.950   2.308  15.411  0.6242 -1.4174 -1.1270
 9232SOL    HW239156   1.001   2.385  15.301 -0.7061  0.3850 -0.0248
 9233SOL     OW39157   0.401   0.390  16.030  1.0936  0.0750 -0.1639
 9233SOL    HW139158   0.423   0.297  16.043  1.3841  0.3974  1.6659
 9233SOL    HW239159   0.474   0.437  16.068 -0.7798  0.4642  2.9558
 9234SOL     OW39160   2.945   4.273   4.339 -0.1149  0.4035  1.2087
 9234SOL    HW139161   2.942   4.227   4.423 -3.1434 -2.0488 -0.2146
 9234SOL    HW239162   2.986   4.207   4.283 -2.1418 -0.3427  0.6077
 9235SOL     OW39163   0.975   2.802   2.690  0.1814  0.0893 -0.4296
 9235SOL    HW139164   0.940   2.888   2.714  1.5176  0.4752  0.1502
 9235SOL    HW239165   0.904   2.745   2.721 -0.3341  1.2034  0.4552
 9236SOL     OW39166   1.036   3.999   0.490  0.0513 -0.1065  0.1748
 9236SOL    HW139167   1.035   3.952   0.573 -1.1805  0.5457  0.5364
 9236SOL    HW239168   0.943   4.020   0.479  0.1994  1.3650  1.5903
 9237SOL     OW39169   4.456   0.179   4.216  1.1048 -0.2926 -0.1348
 9237SOL    HW139170   4.405   0.223   4.284  0.2476  0.4785 -1.2874
 9237SOL    HW239171   4.530   0.161   4.275  0.4801 -1.0971  0.4118
 9238SOL     OW39172   1.027   1.413   0.997  0.3768  0.1666 -0.2459
 9238SOL    HW139173   0.950   1.355   0.990  0.1701  0.4672 -0.4494
 9238SOL    HW239174   1.087   1.365   1.054  0.6819  0.9224  0.0692
 9239SOL     OW39175   2.674   2.311   7.998 -0.1853  0.2224  0.1205
 9239SOL    HW139176   2.706   2.289   7.910 -0.6186  1.5421 -0.3625
 9239SOL    HW239177   2.666   2.405   7.982 -1.2714 -0.1567 -1.4850
 9240SOL     OW39178   3.805   4.532   7.242  0.2743 -0.0738 -0.3668
 9240SOL    HW139179   3.773   4.564   7.158  2.6660  2.6157 -0.2509
 9240SOL    HW239180   3.790   4.438   7.241  2.5025 -0.4497  2.1990
 9241SOL     OW39181   4.283   2.886   1.644  0.2141 -0.0371  0.6586
 9241SOL    HW139182   4.365   2.867   1.690 -0.2068  0.7919  1.7508
 9241SOL    HW239183   4.277   2.978   1.670  4.0518  0.3384  0.2601
 9242SOL     OW39184   3.600   4.022   2.266 -0.2915 -0.2699  0.0526
 9242SOL    HW139185   3.603   4.097   2.206  1.1462  0.4435  1.0326
 9242SOL    HW239186   3.566   3.957   2.203 -0.8638  2.5154 -2.4957
 9243SOL     OW39187   0.120   1.565  15.424 -0.0993 -0.2555  0.4781
 9243SOL    HW139188   0.190   1.519  15.376  0.1541 -0.7484  1.3104
 9243SOL    HW239189   0.066   1.598  15.353 -0.3515  0.0962  0.8333
 9244SOL     OW39190   2.802   0.117   0.852 -0.0388  0.0089  0.0204
 9244SOL    HW139191   2.717   0.138   0.813 -0.4650 -0.8359  0.5007
 9244SOL    HW239192   2.768   0.095   0.938 -0.7682  2.1111  0.2710
 9245SOL     OW39193   1.368   3.380   2.614  0.0155  0.1743  0.7370
 9245SOL    HW139194   1.351   3.286   2.602  0.9672  0.1785 -0.6804
 9245SOL    HW239195   1.287   3.408   2.572 -0.4788 -0.8794  0.9778
 9246SOL     OW39196   1.883   4.269   6.208 -0.0569 -0.6389  0.0682
 9246SOL    HW139197   1.946   4.312   6.266 -0.0975 -1.6405  0.8710
 9246SOL    HW239198   1.844   4.205   6.268 -1.1980  0.2386  0.2642
 9247SOL     OW39199   1.222   3.353   4.051 -0.0961  0.5955  0.2919
 9247SOL    HW139200   1.170   3.430   4.074  0.2970  0.4663  1.5932
 9247SOL    HW239201   1.154   3.310   3.998  0.6362 -0.0027 -0.1536
 9248SOL     OW39202   4.705   4.040   6.608  0.0088  0.5943 -0.0710
 9248SOL    HW139203   4.688   4.129   6.640 -2.1419  0.4982 -0.9735
 9248SOL    HW239204   0.076   4.046   6.586 -0.1502  4.7190  0.3285
 9249SOL     OW39205   1.317   4.215  16.933 -0.7695  0.1468  0.2575
 9249SOL    HW139206   1.246   4.260  16.979 -1.4397 -1.6968  1.0076
 9249SOL    HW239207   1.305   4.249  16.844  2.8421  0.5578 -0.0832
 9250SOL     OW39208   4.441   2.967   7.522 -0.0576  0.4135  0.0154
 9250SOL    HW139209   4.391   2.919   7.456  3.3882 -1.4271 -1.2533
 9250SOL    HW239210   4.527   2.961   7.481 -0.6268 -2.7270 -0.6650
 9251SOL     OW39211   0.248   4.165   1.280 -0.0250 -0.2691 -0.0657
 9251SOL    HW139212   0.328   4.122   1.311 -0.8541 -0.9108  1.1607
 9251SOL    HW239213   0.189   4.091   1.268  0.0672 -0.2235 -0.8132
 9252SOL     OW39214   2.236   1.607   4.221  0.0009 -0.2735 -0.6521
 9252SOL    HW139215   2.316   1.650   4.192  0.0262 -0.2175 -0.4960
 9252SOL    HW239216   2.198   1.674   4.278  0.5295 -0.7609  0.2720
 9253SOL     OW39217   2.146   3.910  16.126  1.1071  0.0504 -0.0552
 9253SOL    HW139218   2.084   3.875  16.190  1.0895  0.8749  0.3891
 9253SOL    HW239219   2.181   3.969  16.193 -0.9880  0.8655  0.3148
 9254SOL     OW39220   4.641   2.175   7.606  0.4287 -0.2971 -0.1441
 9254SOL    HW139221   4.627   2.244   7.670 -0.0470  0.7781 -1.4061
 9254SOL    HW239222   0.010   2.186   7.577  0.4283  1.3541  0.4806
 9255SOL     OW39223   1.539   2.615   3.255 -0.1231  0.5822  0.2682
 9255SOL    HW139224   1.449   2.599   3.227 -0.3754  2.7878 -0.2029
 9255SOL    HW239225   1.540   2.634   3.349  3.2476  0.2911  0.3018
 9256SOL     OW39226   3.586   3.920  13.661  0.2658  0.2013  0.5545
 9256SOL    HW139227   3.628   4.006  13.666  0.7347 -0.1004  1.7300
 9256SOL    HW239228   3.598   3.885  13.749 -0.1338 -0.9483  0.1524
 9257SOL     OW39229   1.023   1.246  10.917  0.5243  0.3965  0.5710
 9257SOL    HW139230   1.047   1.186  10.987 -1.6819 -1.6368 -0.4163
 9257SOL    HW239231   1.069   1.323  10.950 -0.3253  0.9598  0.4514
 9258SOL     OW39232   1.561   2.810   2.645  0.1945 -0.2024  0.4751
 9258SOL    HW139233   1.532   2.807   2.554  2.2408 -2.4312 -0.1083
 9258SOL    HW239234   1.482   2.780   2.689 -1.2111  2.8581  0.0761
 9259SOL     OW39235   0.197   0.809   2.975  0.7320 -0.4442  0.1295
 9259SOL    HW139236   0.197   0.713   2.972 -1.4266 -0.4062 -1.4469
 9259SOL    HW239237   0.248   0.838   2.899 -1.1493  0.9886 -0.5959
 9260SOL     OW39238   3.826   1.642   0.150  0.0387  0.0654  0.1356
 9260SOL    HW139239   3.796   1.597   0.071  0.6495  0.1572 -0.1434
 9260SOL    HW239240   3.905   1.685   0.120 -0.3906  0.4708 -0.4020
 9261SOL     OW39241   4.050   3.985   3.011 -0.5509 -0.1002  0.2535
 9261SOL    HW139242   4.041   4.080   3.004 -3.6759 -0.3101  1.3027
 9261SOL    HW239243   4.013   3.973   2.923  0.1699 -1.3604  0.1279
 9262SOL     OW39244   2.838   0.772  15.652  0.0606  0.1900  0.2198
 9262SOL    HW139245   2.828   0.839  15.719 -1.4189  1.0135 -0.8125
 9262SOL    HW239246   2.909   0.808  15.600  1.5163  0.3835  2.3472
 9263SOL     OW39247   4.656   4.546  15.448 -0.4042  0.4343 -0.3343
 9263SOL    HW139248   0.026   4.571  15.451 -0.0995 -0.5965 -0.8601
 9263SOL    HW239249   4.623   4.614  15.389 -1.7306 -0.9831 -1.2435
 9264SOL     OW39250   3.813   2.588   2.129  0.1878  0.3939  0.1156
 9264SOL    HW139251   3.869   2.653   2.172 -1.0682  0.6319  1.4075
 9264SOL    HW239252   3.775   2.637   2.056 -1.8195 -0.8924  0.3127
 9265SOL     OW39253   0.768   0.422   2.795  0.0477  0.2544  1.1732
 9265SOL    HW139254   0.761   0.453   2.704 -0.1428 -1.5917  0.5585
 9265SOL    HW239255   0.859   0.447   2.812  0.3700  0.6019 -1.0443
 9266SOL     OW39256   1.883   2.309   1.756 -0.4478 -0.3789  0.4021
 9266SOL    HW139257   1.930   2.393   1.759  1.1383 -1.2481  0.0842
 9266SOL    HW239258   1.892   2.292   1.663 -0.4573 -0.0037  0.3327
 9267SOL     OW39259   3.410   4.608   7.913 -0.0505  1.0121  0.2751
 9267SOL    HW139260   3.480   4.663   7.877 -1.4424  2.3356 -0.3747
 9267SOL    HW239261   3.409   4.635   8.005 -0.8963 -2.4675  1.3084
 9268SOL     OW39262   0.372   0.578   1.967  0.1686  0.3768 -0.4877
 9268SOL    HW139263   0.301   0.584   1.902 -1.7867  0.9362  1.7168
 9268SOL    HW239264   0.352   0.489   1.997  0.2810  0.2912 -0.6604
 9269SOL     OW39265   4.368   2.405  16.857 -0.5767  0.2575  0.3943
 9269SOL    HW139266   4.443   2.419  16.915  1.4388 -0.3108 -2.0837
 9269SOL    HW239267   4.342   2.493  16.828 -3.0285 -0.4173  0.4868
 9270SOL     OW39268   4.635   0.895  13.902 -0.1787 -0.0926 -0.2174
 9270SOL    HW139269   4.630   0.805  13.934  2.9514 -0.1341  0.1136
 9270SOL    HW239270   0.007   0.906  13.892  0.1985 -1.6180  1.6717
 9271SOL     OW39271   3.358   3.624  11.394 -0.1034 -0.3781 -1.0025
 9271SOL    HW139272   3.302   3.549  11.376  0.9629 -1.5870  0.8172
 9271SOL    HW239273   3.428   3.617  11.329  0.9939 -0.8657  0.2391
 9272SOL     OW39274   1.037   2.771   0.488 -0.1958  0.4160  0.2317
 9272SOL    HW139275   1.102   2.729   0.544  1.5880  2.7854 -0.1005
 9272SOL    HW239276   1.010   2.692   0.439  1.7515  0.1146 -0.3767
 9273SOL     OW39277   1.472   3.863  15.162  0.1193  0.4129  0.2673
 9273SOL    HW139278   1.514   3.780  15.141 -0.8358  0.0922 -0.4053
 9273SOL    HW239279   1.411   3.834  15.231  1.0796 -0.3806  0.7914
 9274SOL     OW39280   3.826   3.336   8.245  0.4096  0.6845  0.0012
 9274SOL    HW139281   3.866   3.306   8.164  0.1619 -0.8582  0.4565
 9274SOL    HW239282   3.901   3.334   8.305 -0.6698 -0.7701  1.2849
 9275SOL     OW39283   3.175   2.438   7.612 -0.1722  0.0899  0.1899
 9275SOL    HW139284   3.134   2.454   7.698 -1.6703  0.5500 -0.6105
 9275SOL    HW239285   3.257   2.486   7.622  0.8122 -1.5124 -0.2309
 9276SOL     OW39286   1.410   4.368   4.406  0.2832  0.0131 -0.8807
 9276SOL    HW139287   1.335   4.410   4.363  0.0715 -0.0638 -0.5865
 9276SOL    HW239288   1.374   4.323   4.482  1.2078  0.9012  0.0858
 9277SOL     OW39289   1.111   3.813  13.793 -0.2451  0.1774 -0.2649
 9277SOL    HW139290   1.093   3.905  13.812 -0.5680 -0.5067  2.7243
 9277SOL    HW239291   1.087   3.768  13.875 -1.0040 -1.3939 -1.3521
 9278SOL     OW39292   4.432   3.290  12.436 -0.4474 -0.6272 -0.5665
 9278SOL    HW139293   4.420   3.314  12.528 -1.7625  0.1820 -0.9465
 9278SOL    HW239294   4.462   3.200  12.441 -1.7004 -1.1072 -1.8134
 9279SOL     OW39295   0.426   3.816  10.871 -0.4304  0.4334 -0.0965
 9279SOL    HW139296   0.419   3.871  10.793  0.3627  0.1984 -0.3360
 9279SOL    HW239297   0.487   3.749  10.840  0.2517  1.0058  0.0065
 9280SOL     OW39298   0.615   0.102  11.040 -0.5662 -0.1501  0.8882
 9280SOL    HW139299   0.612   0.026  10.982  0.6538 -1.0436  2.0028
 9280SOL    HW239300   0.707   0.083  11.057 -0.1836  0.3498 -0.6056
 9281SOL     OW39301   1.961   2.176  10.615  0.0096  0.7392 -0.4194
 9281SOL    HW139302   1.931   2.132  10.535 -0.7111 -0.7941  0.6904
 9281SOL    HW239303   2.013   2.251  10.588  1.5267 -0.2384 -0.2248
 9282SOL     OW39304   2.469   4.666   4.155  0.3290  0.1186 -0.5531
 9282SOL    HW139305   2.374   4.679   4.162  0.6341 -0.5273  4.2942
 9282SOL    HW239306   2.470   4.572   4.136 -0.9554  0.2339 -1.2286
 9283SOL     OW39307   0.567   3.586   1.188 -0.2303 -0.5458  0.0727
 9283SOL    HW139308   0.618   3.665   1.205 -2.2248  0.6796  0.3125
 9283SOL    HW239309   0.580   3.580   1.094 -2.1824  0.9609 -0.2819
 9284SOL     OW39310   1.600   3.999  12.946  0.3028 -0.6077  0.5302
 9284SOL    HW139311   1.588   4.054  13.024 -1.3665  0.0368 -0.1818
 9284SOL    HW239312   1.529   4.010  12.883  0.7685 -2.2665 -0.2794
 9285SOL     OW39313   2.795   3.917   3.464 -0.2116 -0.3322  0.3010
 9285SOL    HW139314   2.847   3.986   3.423 -0.0436 -0.1135  0.8783
 9285SOL    HW239315   2.836   3.916   3.551  0.1835  3.0744  0.1517
 9286SOL     OW39316   4.007   2.632  16.064 -0.1646  0.6734  0.2798
 9286SOL    HW139317   3.988   2.677  15.982  2.3211  0.3129 -0.4851
 9286SOL    HW239318   3.994   2.695  16.135 -1.5560  0.6201  0.0855
 9287SOL     OW39319   3.098   2.444  13.066 -0.1985  0.2003  0.9216
 9287SOL    HW139320   3.088   2.363  13.115 -2.0880  0.1044  0.3638
 9287SOL    HW239321   3.150   2.494  13.129  0.2050 -0.2556  0.9464
 9288SOL     OW39322   1.122   3.212   6.143 -0.4295 -0.0438 -0.4358
 9288SOL    HW139323   1.143   3.121   6.165  1.0050  0.3531 -0.2035
 9288SOL    HW239324   1.211   3.248   6.138  0.0027 -1.4100 -2.8808
 9289SOL     OW39325   4.675   2.783  13.569 -0.0995  0.0479 -0.2912
 9289SOL    HW139326   0.006   2.749  13.497  2.6689 -0.9452  2.2014
 9289SOL    HW239327   4.685   2.717  13.638 -2.9056  0.6441  0.6855
 9290SOL     OW39328   0.940   0.310   5.271 -0.0537 -0.2405  0.2676
 9290SOL    HW139329   0.854   0.319   5.312 -1.9973 -3.2585 -3.1371
 9290SOL    HW239330   0.907   0.345   5.188  1.8656 -0.6699 -0.6830
 9291SOL     OW39331   0.550   1.798  12.411  0.2476  0.4465  0.2937
 9291SOL    HW139332   0.587   1.823  12.496  3.7811 -0.8629 -0.8612
 9291SOL    HW239333   0.461   1.798  12.446  0.9316  0.2761  2.0421
 9292SOL     OW39334   1.767   2.671   4.684  0.1484  0.0299  0.1021
 9292SOL    HW139335   1.799   2.606   4.621  1.7363  0.1533  0.7660
 9292SOL    HW239336   1.686   2.626   4.707  0.8018 -2.3509 -2.2878
 9293SOL     OW39337   3.346   4.234   8.333 -0.2399  0.6540  0.0259
 9293SOL    HW139338   3.437   4.238   8.360 -0.5716  0.4582  1.1486
 9293SOL    HW239339   3.295   4.187   8.399 -0.3214  0.0272 -0.4877
 9294SOL     OW39340   3.612   2.725   8.658  0.3208  0.2765  0.0555
 9294SOL    HW139341   3.665   2.699   8.582  0.2529 -2.3734  0.9315
 9294SOL    HW239342   3.570   2.803   8.622  0.7154  0.7966  0.7186
 9295SOL     OW39343   4.214   4.174   8.854 -0.4401  0.0889 -0.3067
 9295SOL    HW139344   4.253   4.137   8.933 -1.2175 -0.8698 -0.3805
 9295SOL    HW239345   4.135   4.224   8.874  0.6788  2.7582 -2.5317
 9296SOL     OW39346   4.675   4.106   3.788  0.2571  0.3494  1.1679
 9296SOL    HW139347   4.709   4.042   3.725 -0.1677  0.4242  0.8582
 9296SOL    HW239348   4.632   4.033   3.833  0.7540  2.0278  4.3332
 9297SOL     OW39349   1.122   0.152   3.590 -0.1363  0.3969 -0.0957
 9297SOL    HW139350   1.156   0.088   3.527 -1.1201 -0.6849  0.4642
 9297SOL    HW239351   1.063   0.205   3.536  0.3827  1.0660 -0.0013
 9298SOL     OW39352   4.720   3.787  10.104  0.4309 -0.2487  0.0697
 9298SOL    HW139353   0.048   3.712  10.136 -0.1189 -0.4090  0.5517
 9298SOL    HW239354   4.643   3.743  10.068  0.8999  0.0245 -1.2934
 9299SOL     OW39355   0.335   1.102   4.876 -0.3410  0.6145 -0.2083
 9299SOL    HW139356   0.419   1.057   4.869  0.1059  1.5097 -0.4544
 9299SOL    HW239357   0.280   1.027   4.902 -1.3932  0.7762 -1.9966
 9300SOL     OW39358   3.781   4.669   3.261  0.1868 -0.0672 -0.7354
 9300SOL    HW139359   3.827   0.003   3.198 -0.2582 -0.4360 -1.3834
 9300SOL    HW239360   3.726   0.005   3.314 -1.3997 -2.5519  0.3483
 9301SOL     OW39361   2.975   3.184   5.275  0.6003 -0.1903  0.3070
 9301SOL    HW139362   2.919   3.118   5.235 -0.9111  0.2726  1.6577
 9301SOL    HW239363   2.951   3.168   5.366  0.5655 -1.6203  0.0491
 9302SOL     OW39364   3.990   2.747  14.875 -0.2302  0.0039  0.0536
 9302SOL    HW139365   3.961   2.657  14.860 -0.2897 -0.0287  0.3638
 9302SOL    HW239366   3.927   2.797  14.823  1.6294  0.5135 -1.7221
 9303SOL     OW39367   1.358   3.929   7.764  0.3105 -0.3269 -0.9344
 9303SOL    HW139368   1.309   3.932   7.846 -2.1174  0.3125 -2.4046
 9303SOL    HW239369   1.314   3.850   7.734 -0.0306 -0.9218  1.0941
 9304SOL     OW39370   4.719   1.530   0.541  0.1602 -0.1891 -0.0886
 9304SOL    HW139371   0.055   1.454   0.548  1.2203  0.6729  0.2522
 9304SOL    HW239372   4.698   1.542   0.633 -0.7308  1.6410 -0.5243
 9305SOL     OW39373   2.544   0.050   6.993  0.1469  0.0585 -0.1362
 9305SOL    HW139374   2.534   0.124   6.934  0.4529 -0.2423 -0.5665
 9305SOL    HW239375   2.529   4.700   6.932  0.7090 -1.1559  1.1742
 9306SOL     OW39376   1.046   0.812   2.949 -0.0092  0.0778 -0.0451
 9306SOL    HW139377   0.977   0.769   2.898 -1.0252  0.1702  1.2463
 9306SOL    HW239378   1.107   0.837   2.879 -1.1246 -3.2142 -2.2251
 9307SOL     OW39379   1.116   0.906  11.383  0.3412  0.2994  0.2804
 9307SOL    HW139380   1.091   0.822  11.343  0.2953  1.1472 -1.4796
 9307SOL    HW239381   1.041   0.901  11.442  0.4696 -0.4490  0.3900
 9308SOL     OW39382   0.637   0.714  11.605  0.2796 -0.1287 -0.1524
 9308SOL    HW139383   0.553   0.700  11.561  0.5479 -0.4890 -0.5548
 9308SOL    HW239384   0.607   0.709  11.695 -0.9002 -0.3101 -0.5529
 9309SOL     OW39385   0.504   3.584   5.733  0.2340  0.9273 -0.7211
 9309SOL    HW139386   0.483   3.491   5.731  1.7192  0.5369  1.5225
 9309SOL    HW239387   0.564   3.598   5.659  2.3269  0.2870  0.8369
 9310SOL     OW39388   2.499   1.364   6.336 -0.0370 -0.0213  0.2693
 9310SOL    HW139389   2.537   1.424   6.272  0.0410  0.7801  1.0620
 9310SOL    HW239390   2.421   1.416   6.357 -0.1150  0.0105 -0.0941
 9311SOL     OW39391   1.784   3.416   0.110  0.4541 -0.1697 -0.2380
 9311SOL    HW139392   1.770   3.510   0.122 -2.6006 -0.3583 -2.4367
 9311SOL    HW239393   1.694   3.385   0.121  1.1335 -1.3875  1.9742
 9312SOL     OW39394   0.321   3.844  16.779 -0.0941  0.2530 -0.8108
 9312SOL    HW139395   0.266   3.914  16.814 -2.9457 -1.1559 -2.4466
 9312SOL    HW239396   0.285   3.762  16.814 -0.9477  2.2599  3.0590
 9313SOL     OW39397   0.048   4.605   3.203  0.0262 -0.2728  0.0577
 9313SOL    HW139398   0.001   4.554   3.269 -1.1881  1.9864  0.9271
 9313SOL    HW239399   0.140   4.580   3.217 -0.4510 -1.8375  0.4090
 9314SOL     OW39400   2.959   4.067   8.583 -0.2246  0.2814 -0.0445
 9314SOL    HW139401   2.875   4.087   8.625  0.2358  1.1023  0.4832
 9314SOL    HW239402   2.931   4.106   8.501 -3.9353  0.6484  1.3672
 9315SOL     OW39403   1.894   1.179  15.705 -0.0555 -0.0253  0.8866
 9315SOL    HW139404   1.952   1.104  15.688  0.6421  0.8742 -0.6594
 9315SOL    HW239405   1.822   1.139  15.754 -0.3813 -0.1184  0.3282
 9316SOL     OW39406   0.166   2.738  15.394 -0.4415 -0.3356 -0.4296
 9316SOL    HW139407   0.164   2.834  15.392 -0.8787 -0.3438 -0.1502
 9316SOL    HW239408   0.180   2.711  15.484 -2.2200  2.3946  0.6611
 9317SOL     OW39409   3.114   2.473   7.880  0.3053  0.2167  0.1826
 9317SOL    HW139410   3.181   2.430   7.933 -0.0014  0.2790  0.6173
 9317SOL    HW239411   3.036   2.456   7.933 -0.0106  1.6993  0.1899
 9318SOL     OW39412   3.077   2.356   1.107  0.1762 -0.7011  0.0115
 9318SOL    HW139413   3.086   2.293   1.036  0.5017 -0.3172 -0.2825
 9318SOL    HW239414   3.007   2.414   1.077  2.4218  0.5619 -2.6694
 9319SOL     OW39415   4.183   3.499   6.414  0.1634  0.4388 -0.0125
 9319SOL    HW139416   4.275   3.484   6.393  0.5390  1.9909  0.5164
 9319SOL    HW239417   4.190   3.582   6.461 -1.7483  1.2183 -1.0816
 9320SOL     OW39418   1.013   1.005   0.945 -0.0463 -0.4408 -0.1939
 9320SOL    HW139419   0.920   1.029   0.942  0.1573  0.0646 -2.1109
 9320SOL    HW239420   1.024   0.971   1.034 -0.0464  1.1064  0.4075
 9321SOL     OW39421   0.218   4.290  12.148 -0.0804 -0.1782  0.3331
 9321SOL    HW139422   0.306   4.327  12.145 -0.2930  0.1620 -1.3461
 9321SOL    HW239423   0.187   4.305  12.237  1.5932  0.0787  0.8521
 9322SOL     OW39424   3.379   2.465   8.576 -0.4194  0.2436  0.2596
 9322SOL    HW139425   3.400   2.557   8.563  0.4405 -0.1464 -1.1449
 9322SOL    HW239426   3.310   2.464   8.643  0.5270 -0.1789  1.2190
 9323SOL     OW39427   0.463   0.761   3.222 -0.2884  0.5099 -0.2078
 9323SOL    HW139428   0.416   0.828   3.172  1.6115  1.8301 -0.2189
 9323SOL    HW239429   0.392   0.696   3.228  0.4669 -0.2834  0.1452
 9324SOL     OW39430   1.199   3.341   8.226 -0.2368  0.0196  0.0635
 9324SOL    HW139431   1.152   3.345   8.309 -0.3899  1.2696 -0.0761
 9324SOL    HW239432   1.243   3.426   8.222  0.9614 -0.6466 -1.0435
 9325SOL     OW39433   3.554   2.941   3.264  0.6389 -0.1069  0.2726
 9325SOL    HW139434   3.598   3.016   3.223  0.6308  0.7597  1.8454
 9325SOL    HW239435   3.506   2.980   3.337 -0.2922  1.7918 -1.3336
 9326SOL     OW39436   2.752   0.718   0.807  0.0985  0.2367  0.2093
 9326SOL    HW139437   2.713   0.645   0.856  0.3126  0.3591  0.5664
 9326SOL    HW239438   2.761   0.779   0.880 -0.6645  0.9008 -0.2489
 9327SOL     OW39439   0.461   0.913   0.610 -0.2856 -0.0613  0.0742
 9327SOL    HW139440   0.543   0.909   0.659 -0.8122  0.1688  0.9895
 9327SOL    HW239441   0.425   0.994   0.648 -1.3658 -0.1227 -0.8126
 9328SOL     OW39442   2.807   3.036  17.596 -0.5283  0.1804  0.1541
 9328SOL    HW139443   2.732   2.981  17.574 -0.7213  0.6516 -0.3380
 9328SOL    HW239444   2.762   3.118  17.614 -0.2395  0.2217  0.7047
 9329SOL     OW39445   3.694   3.014  14.862 -0.1409 -0.5802 -0.0870
 9329SOL    HW139446   3.621   2.958  14.887  1.4201 -3.4035 -1.8862
 9329SOL    HW239447   3.751   2.949  14.820  0.1867 -0.3651  0.0189
 9330SOL     OW39448   4.279   0.537   2.233  1.0910  0.1360  0.1625
 9330SOL    HW139449   4.285   0.588   2.315  2.0512  0.4084 -0.0795
 9330SOL    HW239450   4.208   0.576   2.182  0.4140  1.1223  1.8561
 9331SOL     OW39451   0.627   1.403   6.778 -0.4694 -0.7573  0.3641
 9331SOL    HW139452   0.584   1.397   6.693  0.8032 -0.5173 -0.3068
 9331SOL    HW239453   0.676   1.481   6.748  0.6950 -1.4562  0.4456
 9332SOL     OW39454   2.320   2.449   2.403 -0.7642 -0.3909 -1.0537
 9332SOL    HW139455   2.352   2.539   2.407  1.3360 -1.3493  2.5159
 9332SOL    HW239456   2.227   2.465   2.385 -1.1741 -0.5281  1.0099
 9333SOL     OW39457   2.337   3.204   8.369 -0.0951  0.2065 -0.1166
 9333SOL    HW139458   2.399   3.209   8.442  1.3342  0.4377 -1.3364
 9333SOL    HW239459   2.281   3.280   8.381  1.4822  1.2348  0.8371
 9334SOL     OW39460   2.207   2.109   4.796 -0.7477 -0.3429  0.1542
 9334SOL    HW139461   2.124   2.078   4.834 -1.6319 -0.2107 -1.6499
 9334SOL    HW239462   2.247   2.123   4.882 -4.2940 -0.6767  1.8645
 9335SOL     OW39463   1.669   2.140   1.793  0.0386 -0.2632 -0.0086
 9335SOL    HW139464   1.625   2.183   1.720 -1.0781 -1.9618 -0.3410
 9335SOL    HW239465   1.745   2.198   1.796 -0.9017  0.9119  1.3919
 9336SOL     OW39466   1.019   0.416   6.534 -0.4639  0.3102  0.0931
 9336SOL    HW139467   1.075   0.494   6.537 -0.9361  0.7716 -2.7615
 9336SOL    HW239468   1.068   0.352   6.483  1.0982  1.6680 -0.1072
 9337SOL     OW39469   1.797   3.555   3.072 -0.6594 -0.3732  0.0868
 9337SOL    HW139470   1.735   3.482   3.066  2.0377 -2.5876 -1.4231
 9337SOL    HW239471   1.810   3.584   2.982 -1.2799  0.8994  0.4202
 9338SOL     OW39472   0.680   1.075   3.250  0.7045 -0.0648  0.3404
 9338SOL    HW139473   0.710   1.067   3.160 -1.3132 -1.4080 -0.2274
 9338SOL    HW239474   0.705   0.991   3.288 -0.2888 -0.6190 -0.2197
 9339SOL     OW39475   2.168   3.686   2.484 -0.0541  0.1849 -0.3174
 9339SOL    HW139476   2.185   3.777   2.507 -1.7665  0.4904 -0.2442
 9339SOL    HW239477   2.085   3.663   2.527  0.4013  1.6782  1.3600
 9340SOL     OW39478   1.025   4.199   3.642  0.0200  0.1222 -0.3946
 9340SOL    HW139479   1.107   4.248   3.639 -1.3637  2.3227 -1.9697
 9340SOL    HW239480   0.998   4.221   3.731 -0.2923 -2.7908  0.2248
 9341SOL     OW39481   3.349   1.058   5.349 -0.1940  0.9535 -0.4846
 9341SOL    HW139482   3.344   1.056   5.253 -1.7473 -2.2795 -0.3351
 9341SOL    HW239483   3.325   1.146   5.380 -1.8942  0.6832 -1.0445
 9342SOL     OW39484   0.687   2.414   0.581  0.0194 -0.1044  0.5509
 9342SOL    HW139485   0.762   2.358   0.600  0.2360 -0.0072 -0.0276
 9342SOL    HW239486   0.694   2.430   0.487  3.1559 -0.8344  0.6583
 9343SOL     OW39487   4.565   4.067   8.926  0.3022  0.0749  0.3201
 9343SOL    HW139488   4.648   4.115   8.936 -0.6295  1.7300  0.0057
 9343SOL    HW239489   4.520   4.101   9.003 -0.2291 -0.7397  0.3681
 9344SOL     OW39490   4.512   1.491   4.828  0.1526  0.1541  0.1050
 9344SOL    HW139491   4.526   1.585   4.841 -0.1708  0.2864 -0.4772
 9344SOL    HW239492   4.596   1.446   4.832  0.4396  0.6917  0.1184
 9345SOL     OW39493   3.120   4.346   8.252  0.2574 -0.2947 -0.5014
 9345SOL    HW139494   3.110   4.318   8.161  2.0390  0.3632 -0.9003
 9345SOL    HW239495   3.199   4.297   8.275  1.1853  0.6505 -1.6766
 9346SOL     OW39496   2.979   0.888   6.820  0.6061  0.0355 -0.1590
 9346SOL    HW139497   2.936   0.973   6.807 -0.5993 -0.4675  0.5136
 9346SOL    HW239498   3.023   0.869   6.737  0.2521 -0.4870 -0.2276
 9347SOL     OW39499   0.969   3.215   7.777  0.0557  0.1421 -0.1728
 9347SOL    HW139500   0.885   3.170   7.775 -0.2125  0.5610  1.4303
 9347SOL    HW239501   1.016   3.154   7.834  0.7267 -1.6109 -2.6146
 9348SOL     OW39502   0.989   1.842   5.434  0.0484 -0.2358 -0.0220
 9348SOL    HW139503   1.024   1.845   5.523 -0.5334 -1.1710  0.2331
 9348SOL    HW239504   1.045   1.914   5.405  0.4136 -0.4235  0.2178
 9349SOL     OW39505   3.544   4.204   6.062  0.1960 -0.2431  0.0266
 9349SOL    HW139506   3.589   4.188   6.144  0.6704  0.5343 -0.0869
 9349SOL    HW239507   3.473   4.139   6.063  0.4364 -0.5054 -0.1108
 9350SOL     OW39508   3.119   0.436   3.870  0.3034 -0.2603  0.2347
 9350SOL    HW139509   3.182   0.374   3.836  1.6776  2.0936 -1.5157
 9350SOL    HW239510   3.147   0.454   3.960 -0.7364  2.9865 -0.0633
 9351SOL     OW39511   1.864   1.134   0.426 -0.0232  0.6260  0.1071
 9351SOL    HW139512   1.814   1.054   0.444 -0.9860  1.6277  1.9037
 9351SOL    HW239513   1.931   1.106   0.364 -0.0480  2.9673 -0.9673
 9352SOL     OW39514   3.526   1.503   0.903  0.2042  0.0151  0.1754
 9352SOL    HW139515   3.549   1.567   0.836 -1.3648  2.0706  1.5901
 9352SOL    HW239516   3.496   1.428   0.852  2.1403 -0.7422  0.1478
 9353SOL     OW39517   3.372   2.994   4.442  0.0766  0.0380  0.6721
 9353SOL    HW139518   3.387   3.044   4.361  1.7521 -1.4290  0.0749
 9353SOL    HW239519   3.358   2.911   4.398  0.7995 -0.6706  1.7543
 9354SOL     OW39520   3.322   3.004   5.828  0.1409  0.3447 -0.0040
 9354SOL    HW139521   3.266   3.075   5.862 -0.6099 -0.1551 -0.1867
 9354SOL    HW239522   3.355   3.040   5.746  1.5658 -0.3329  0.2813
 9355SOL     OW39523   0.661   3.760   8.997  0.9363 -0.6325  0.3832
 9355SOL    HW139524   0.746   3.728   9.025  1.4199  0.9295  0.6610
 9355SOL    HW239525   0.626   3.692   8.939 -0.5374  0.0284  0.4933
 9356SOL     OW39526   3.389   3.697  16.886  0.2839 -0.1510  0.1878
 9356SOL    HW139527   3.350   3.652  16.962 -0.2863  0.3770  0.2076
 9356SOL    HW239528   3.317   3.746  16.848  0.8251  1.4391  1.2295
 9357SOL     OW39529   4.144   4.618  17.308 -0.0002 -0.0552  0.0572
 9357SOL    HW139530   4.136   4.540  17.362 -1.7890  2.4050  3.3666
 9357SOL    HW239531   4.181   4.675  17.376 -1.0289  0.3107  0.3079
 9358SOL     OW39532   3.662   2.639   3.819  0.2043 -1.0858  0.4155
 9358SOL    HW139533   3.601   2.713   3.813  1.3137 -0.3685 -2.0017
 9358SOL    HW239534   3.657   2.617   3.726  0.4213  0.7540 -0.0316
 9359SOL     OW39535   2.369   4.376   3.361  0.0270  0.5915  0.0954
 9359SOL    HW139536   2.390   4.362   3.453  3.2533  2.5961 -0.3559
 9359SOL    HW239537   2.335   4.287   3.347  0.5028  0.4209  0.0109
 9360SOL     OW39538   4.666   1.704   2.523 -0.1111 -0.4991  0.4710
 9360SOL    HW139539   4.718   1.746   2.592  0.8073 -1.6483  0.4793
 9360SOL    HW239540   4.602   1.656   2.576  0.3485 -1.9416 -0.2901
 9361SOL     OW39541   4.166   4.119  15.111  0.0686 -0.0195  0.4893
 9361SOL    HW139542   4.154   4.210  15.085  0.9853  0.1814  0.7555
 9361SOL    HW239543   4.260   4.115  15.131  0.4353  2.0003 -0.8081
 9362SOL     OW39544   4.198   1.253   7.946 -0.7934  0.5538  0.0989
 9362SOL    HW139545   4.160   1.190   8.007  1.1544 -1.6169 -0.9052
 9362SOL    HW239546   4.285   1.228   7.978 -1.7539 -3.7663 -0.6664
 9363SOL     OW39547   3.716   2.831  11.368 -0.2723 -0.7446  0.0797
 9363SOL    HW139548   3.782   2.773  11.331 -1.9026 -1.0419 -2.3477
 9363SOL    HW239549   3.640   2.802  11.318  0.7561 -2.1137 -0.6671
 9364SOL     OW39550   1.197   2.805   4.492  0.4352 -0.3349 -0.2489
 9364SOL    HW139551   1.161   2.741   4.553 -0.5940  0.7088  0.2224
 9364SOL    HW239552   1.131   2.874   4.492  1.7383  0.9316 -3.6451
 9365SOL     OW39553   0.576   2.376   2.237 -0.1511 -0.1986  0.3879
 9365SOL    HW139554   0.503   2.438   2.237  1.1055  1.2877 -0.6456
 9365SOL    HW239555   0.646   2.440   2.255  1.2769 -1.0968 -1.9338
 9366SOL     OW39556   4.308   0.776  10.680  0.6628  0.4143 -0.0126
 9366SOL    HW139557   4.272   0.754  10.593 -1.3101 -1.4404  1.2623
 9366SOL    HW239558   4.374   0.839  10.652  0.5585  0.3174 -0.4940
 9367SOL     OW39559   4.333   3.879   1.137  0.5689 -0.6502  0.0630
 9367SOL    HW139560   4.296   3.967   1.146  2.1334 -0.0640  0.7292
 9367SOL    HW239561   4.427   3.894   1.141  0.5268 -0.2853 -0.3229
 9368SOL     OW39562   2.266   2.223   4.190  0.7356 -0.0708 -0.5277
 9368SOL    HW139563   2.191   2.278   4.171  0.6296 -0.1231 -0.2591
 9368SOL    HW239564   2.245   2.147   4.135 -2.4534 -0.0240  0.6762
 9369SOL     OW39565   4.188   1.874   4.671  0.1085  0.2495  0.1684
 9369SOL    HW139566   4.167   1.797   4.724  0.3329  1.2451  1.7104
 9369SOL    HW239567   4.104   1.920   4.662  1.9197  3.3685 -0.8690
 9370SOL     OW39568   4.372   1.918   8.388 -0.0822  0.1052  0.3707
 9370SOL    HW139569   4.409   2.003   8.365  0.0574 -0.4262 -1.2969
 9370SOL    HW239570   4.293   1.938   8.439 -0.3617 -0.9740  0.3708
 9371SOL     OW39571   3.346   0.281  12.996  0.2484 -0.2620  0.0180
 9371SOL    HW139572   3.288   0.357  12.999  0.1633 -0.3790  1.3245
 9371SOL    HW239573   3.314   0.241  12.915 -0.5535  0.2360  0.0889
 9372SOL     OW39574   2.784   2.981   1.141 -0.1388 -0.3668 -0.0726
 9372SOL    HW139575   2.709   2.922   1.128 -1.8029  1.7633 -0.1241
 9372SOL    HW239576   2.812   2.946   1.225  2.5208 -0.4787 -0.9994
 9373SOL     OW39577   2.587   4.557  17.001 -0.5785 -0.5948  0.3086
 9373SOL    HW139578   2.504   4.510  16.991 -1.5700  1.0658  0.7137
 9373SOL    HW239579   2.633   4.536  16.919 -0.9920  1.0413 -0.3369
 9374SOL     OW39580   2.457   3.101   5.119  0.1508  0.0939 -0.0260
 9374SOL    HW139581   2.471   3.193   5.096  0.9341  0.1447  0.6549
 9374SOL    HW239582   2.371   3.102   5.161 -0.2860  0.4001 -0.9215
 9375SOL     OW39583   2.146   0.377   2.861  0.2892  0.0942 -0.0463
 9375SOL    HW139584   2.181   0.325   2.789  0.7790  0.8989 -0.3984
 9375SOL    HW239585   2.124   0.306   2.921  1.1564  0.1640  0.3542
 9376SOL     OW39586   0.576   0.395   7.544  0.4710 -0.4105  0.4560
 9376SOL    HW139587   0.557   0.489   7.552  1.3352 -0.1428 -0.7586
 9376SOL    HW239588   0.667   0.383   7.568  0.0836 -0.5088  1.8778
 9377SOL     OW39589   4.636   1.529   2.300  0.2815 -0.0580  0.4740
 9377SOL    HW139590   4.712   1.470   2.301  2.5257  2.8075  0.6739
 9377SOL    HW239591   4.670   1.602   2.352  0.4477  0.1404  0.0896
 9378SOL     OW39592   1.581   0.895  16.146 -0.1650  0.5661 -0.9364
 9378SOL    HW139593   1.547   0.872  16.233  0.5527  0.6290 -0.6338
 9378SOL    HW239594   1.511   0.882  16.083 -0.1802 -0.4247 -0.7076
 9379SOL     OW39595   2.814   4.056   6.678  0.1447 -0.0286  0.7079
 9379SOL    HW139596   2.824   4.015   6.764  0.1276 -0.3329  0.5628
 9379SOL    HW239597   2.896   4.099   6.654  0.1237  1.1061  2.6609
 9380SOL     OW39598   1.047   0.840   1.562 -0.1608  0.1778 -0.4995
 9380SOL    HW139599   1.090   0.764   1.599 -1.2765 -1.0629 -1.7204
 9380SOL    HW239600   1.070   0.914   1.619  1.3448 -0.7130  0.0372
 9381SOL     OW39601   1.485   0.608   2.719 -0.1487  0.7444  0.3167
 9381SOL    HW139602   1.486   0.576   2.809 -2.1198 -0.9759 -0.2784
 9381SOL    HW239603   1.399   0.583   2.686 -0.7981  0.0958  2.5451
 9382SOL     OW39604   0.421   3.961  10.628 -0.5985  0.2206 -0.1362
 9382SOL    HW139605   0.474   4.038  10.610  1.0078 -0.1170  3.0962
 9382SOL    HW239606   0.466   3.900  10.571  1.3965  0.4165  1.2276
 9383SOL     OW39607   4.659   3.434  12.486 -0.1634 -0.4949  0.2896
 9383SOL    HW139608   4.577   3.414  12.442  0.4270  0.0429 -1.0484
 9383SOL    HW239609   4.614   3.451  12.569 -0.3804  2.5681 -0.4374
 9384SOL     OW39610   1.216   0.651  13.953  0.4997  0.6274  0.3621
 9384SOL    HW139611   1.144   0.589  13.963  1.1968 -0.5653 -1.8785
 9384SOL    HW239612   1.251   0.644  14.041 -3.3895 -0.8861  1.8067
 9385SOL     OW39613   3.826   2.330   7.413  0.3890  0.1211  0.8035
 9385SOL    HW139614   3.788   2.245   7.434  0.6038 -0.3909 -0.8613
 9385SOL    HW239615   3.879   2.302   7.338 -0.3142  1.3813 -0.1832
 9386SOL     OW39616   3.904   1.032   6.853  0.1206  0.2235  0.1088
 9386SOL    HW139617   3.995   1.043   6.881  0.4361  2.6793 -1.9550
 9386SOL    HW239618   3.927   0.960   6.794  1.4061 -0.7746  1.8478
 9387SOL     OW39619   0.137   0.670   5.529  0.4823 -0.5253 -0.1684
 9387SOL    HW139620   0.066   0.726   5.497  0.0119 -0.6077  0.6998
 9387SOL    HW239621   0.200   0.742   5.540 -0.5147  0.6068 -1.8665
 9388SOL     OW39622   4.070   2.262  16.953  0.3085 -0.1121  0.7514
 9388SOL    HW139623   4.134   2.261  16.882  0.4036 -0.3316  0.8397
 9388SOL    HW239624   4.124   2.226  17.023 -2.7055 -3.4417  1.3857
 9389SOL     OW39625   3.174   1.502   4.434 -0.2832 -0.0641  0.7667
 9389SOL    HW139626   3.209   1.590   4.451  0.7640 -0.3929  0.3036
 9389SOL    HW239627   3.078   1.495   4.434 -0.0064 -3.4087 -0.0535
 9390SOL     OW39628   2.490   3.806  11.651  0.0535  0.2540  0.1620
 9390SOL    HW139629   2.562   3.792  11.590  0.1606  1.0377  0.1024
 9390SOL    HW239630   2.419   3.767  11.601  0.9729 -0.7075 -0.3783
 9391SOL     OW39631   2.894   1.310   3.143  0.1705 -1.1282 -0.2206
 9391SOL    HW139632   2.893   1.401   3.173 -0.2187 -0.3426 -2.5904
 9391SOL    HW239633   2.926   1.268   3.222  0.5218 -2.2773 -0.9764
 9392SOL     OW39634   1.790   2.675   6.427  0.5171  0.2867  0.3150
 9392SOL    HW139635   1.818   2.719   6.507  1.1223 -0.5361  0.5653
 9392SOL    HW239636   1.871   2.683   6.376  0.3394 -0.6010 -0.1150
 9393SOL     OW39637   2.475   3.204   0.379  0.3967 -0.6267  0.0561
 9393SOL    HW139638   2.465   3.299   0.387 -0.9523 -0.8102  0.5891
 9393SOL    HW239639   2.428   3.162   0.451  0.1402 -1.0821 -0.3848
 9394SOL     OW39640   0.431   3.234   9.617 -0.2075  0.1135  0.2478
 9394SOL    HW139641   0.485   3.238   9.538  0.6721 -1.1829  0.7671
 9394SOL    HW239642   0.479   3.290   9.678  0.3126 -0.5410  0.4516
 9395SOL     OW39643   3.957   2.323   2.867 -0.0099 -0.2251 -0.2711
 9395SOL    HW139644   3.959   2.315   2.962  1.9168  1.5447 -0.1701
 9395SOL    HW239645   3.865   2.306   2.848 -0.5167  2.9096 -0.4575
 9396SOL     OW39646   1.924   1.720   1.560  0.7861  0.3541  0.0186
 9396SOL    HW139647   1.848   1.765   1.522  0.6651 -0.2918 -0.5077
 9396SOL    HW239648   1.916   1.649   1.496  0.1695 -0.3551  0.8798
 9397SOL     OW39649   0.745   2.847   3.784 -0.3335 -0.1161 -0.1314
 9397SOL    HW139650   0.775   2.759   3.808  0.2189  0.0669 -0.1666
 9397SOL    HW239651   0.806   2.874   3.715 -1.9022  2.7637 -0.4016
 9398SOL     OW39652   4.597   4.436   2.186 -0.1499  0.3242 -0.9721
 9398SOL    HW139653   4.525   4.475   2.235  0.1590 -0.6161  0.2084
 9398SOL    HW239654   4.666   4.475   2.238  0.1967  0.3460 -1.4488
 9399SOL     OW39655   3.052   3.705   3.288 -0.2195  0.1092  0.1702
 9399SOL    HW139656   3.086   3.617   3.272 -0.5328 -0.1927  1.1597
 9399SOL    HW239657   2.958   3.686   3.284 -0.0836 -0.4414 -0.4123
 9400SOL     OW39658   2.752   0.673   3.629  0.0343 -0.2149 -0.5029
 9400SOL    HW139659   2.689   0.670   3.701  0.1243 -1.5171 -0.4830
 9400SOL    HW239660   2.826   0.621   3.661  1.0403  1.1999 -0.5227
 9401SOL     OW39661   1.471   1.962  12.038 -0.1578 -0.2792  0.1967
 9401SOL    HW139662   1.555   1.954  11.993 -1.1645 -3.6033 -1.1155
 9401SOL    HW239663   1.489   2.029  12.103 -1.6753  0.8288 -0.5159
 9402SOL     OW39664   4.506   1.628   9.278 -0.4491 -0.6049  1.0404
 9402SOL    HW139665   4.454   1.582   9.344  0.5187 -2.6899  0.3529
 9402SOL    HW239666   4.572   1.560   9.262  0.8219  0.4997  1.6455
 9403SOL     OW39667   3.905   1.556   3.135 -0.8155 -0.4985 -0.2764
 9403SOL    HW139668   3.859   1.630   3.174 -0.4753  0.3038 -1.4139
 9403SOL    HW239669   3.853   1.542   3.057 -0.6931 -0.2101 -0.4078
 9404SOL     OW39670   1.823   3.894   2.647  0.1797 -0.4402  0.4673
 9404SOL    HW139671   1.766   3.957   2.690  1.3329  0.2543  0.9609
 9404SOL    HW239672   1.870   3.956   2.591  0.2989 -0.0780  0.9714
 9405SOL     OW39673   0.654   3.818   5.883 -0.4517  0.3516 -0.7707
 9405SOL    HW139674   0.736   3.860   5.856 -0.8564  1.0249 -0.9649
 9405SOL    HW239675   0.687   3.733   5.853  1.4173  0.5605  0.7216
 9406SOL     OW39676   3.267   2.762  10.944 -0.1670  0.1424  0.3835
 9406SOL    HW139677   3.198   2.701  10.970  1.6086 -1.6538  0.8891
 9406SOL    HW239678   3.311   2.769  11.029 -0.3504  0.6515  0.4393
 9407SOL     OW39679   3.954   2.291  15.964 -0.1978  0.5744  0.9255
 9407SOL    HW139680   3.960   2.292  16.059 -1.4216 -0.8318  1.0123
 9407SOL    HW239681   4.034   2.341  15.946 -0.1689 -0.1814 -1.1007
 9408SOL     OW39682   3.918   0.232   3.057  0.1990 -0.7709 -1.0535
 9408SOL    HW139683   3.884   0.182   2.983 -0.7280 -2.6766  0.6668
 9408SOL    HW239684   3.910   0.322   3.023  1.7210  0.2291  1.2063
 9409SOL     OW39685   1.141   2.023   4.562 -0.9412  0.5726 -0.1175
 9409SOL    HW139686   1.065   2.062   4.519 -1.4661  1.0410  1.2103
 9409SOL    HW239687   1.101   2.000   4.646  2.3026 -0.7150  1.0863
 9410SOL     OW39688   3.966   0.077   8.591 -0.1102  0.6681  0.0396
 9410SOL    HW139689   3.899   0.146   8.586 -0.8770 -0.0990 -0.3498
 9410SOL    HW239690   3.977   0.067   8.685  0.0164  1.9329  0.1694
 9411SOL     OW39691   2.133   0.572   2.381  0.3158  0.1090  0.2542
 9411SOL    HW139692   2.102   0.482   2.371 -0.1807  0.2449  0.6317
 9411SOL    HW239693   2.157   0.584   2.473 -0.7016  1.5133  0.3200
 9412SOL     OW39694   3.530   0.368   2.024 -0.1729 -0.7234  0.5282
 9412SOL    HW139695   3.613   0.407   1.995  0.3015 -0.5805  2.1010
 9412SOL    HW239696   3.519   0.292   1.967 -0.7385 -1.4003  1.5480
 9413SOL     OW39697   1.733   0.845  14.577  0.1671  0.2730 -0.3112
 9413SOL    HW139698   1.673   0.894  14.520 -0.1297 -1.5941 -1.5934
 9413SOL    HW239699   1.738   0.760  14.533  2.2316 -1.5995  3.5691
 9414SOL     OW39700   0.817   1.529   7.757 -0.4145 -0.0199 -0.4614
 9414SOL    HW139701   0.860   1.471   7.695  2.4937  1.7297 -0.1032
 9414SOL    HW239702   0.867   1.611   7.752 -1.0950  0.4457  0.3562
 9415SOL     OW39703   4.547   2.700   7.337  0.0969  0.1790  0.4364
 9415SOL    HW139704   4.582   2.708   7.426 -1.6896  0.8542  1.0696
 9415SOL    HW239705   4.545   2.605   7.343  0.0313  0.1006 -0.7816
 9416SOL     OW39706   1.073   3.568   6.337  0.1335 -0.1876  0.1494
 9416SOL    HW139707   1.067   3.623   6.415 -0.4165  0.5452 -0.4082
 9416SOL    HW239708   1.167   3.554   6.332  0.1293  0.1186 -0.8159
 9417SOL     OW39709   1.255   3.549   2.273 -0.0738  0.3235 -0.3483
 9417SOL    HW139710   1.222   3.532   2.361  1.0765  1.1223  0.2280
 9417SOL    HW239711   1.169   3.545   2.231  0.8996  0.2428 -2.3463
 9418SOL     OW39712   3.036   0.570   3.299 -0.1617 -0.2009  0.2744
 9418SOL    HW139713   3.090   0.526   3.233  0.1244 -0.6855  0.8343
 9418SOL    HW239714   3.020   0.652   3.252  3.8827  0.3827 -0.0381
 9419SOL     OW39715   1.097   2.021  13.830  0.1194 -0.1092 -0.1069
 9419SOL    HW139716   1.029   2.038  13.765  0.7371  1.3106 -0.3766
 9419SOL    HW239717   1.049   2.033  13.911 -0.8781  0.7162 -0.8196
 9420SOL     OW39718   0.392   0.234   5.033  0.5829  0.4163  0.5220
 9420SOL    HW139719   0.338   0.281   5.097 -1.4048 -0.8092 -0.2824
 9420SOL    HW239720   0.457   0.303   5.020 -0.1682  0.7172 -1.6816
 9421SOL     OW39721   3.134   0.517   7.985  0.8344 -0.0367  0.2322
 9421SOL    HW139722   3.227   0.494   7.990  0.6015 -0.8281  0.8072
 9421SOL    HW239723   3.089   0.435   7.968 -0.6249  0.7069  0.4970
 9422SOL     OW39724   1.914   1.221   4.658 -0.2069  0.0786  0.0409
 9422SOL    HW139725   1.848   1.163   4.694 -0.7586 -0.8137 -2.4885
 9422SOL    HW239726   1.860   1.290   4.619 -0.6562 -1.7990 -2.5865
 9423SOL     OW39727   3.831   1.592   8.021  0.1981  1.1718 -0.7935
 9423SOL    HW139728   3.788   1.516   7.982 -1.4800  1.0264  1.3469
 9423SOL    HW239729   3.922   1.569   8.002  0.8327  1.8087  1.4825
 9424SOL     OW39730   1.493   1.974   5.440  0.6711  0.4432 -0.0416
 9424SOL    HW139731   1.578   2.018   5.434  1.1355 -1.0354 -3.9593
 9424SOL    HW239732   1.520   1.885   5.417  0.1335  0.8183 -2.0964
 9425SOL     OW39733   1.557   1.683  11.091  0.2739  0.2050 -0.0177
 9425SOL    HW139734   1.477   1.735  11.079  0.0549  0.5774  3.0496
 9425SOL    HW239735   1.613   1.744  11.139 -0.1975  2.2037 -1.9744
 9426SOL     OW39736   1.352   2.397   7.808  0.9522  0.1389  0.1400
 9426SOL    HW139737   1.435   2.371   7.848  1.6673 -1.2183 -2.2138
 9426SOL    HW239738   1.307   2.313   7.797  0.4748 -0.0039  3.3371
 9427SOL     OW39739   4.159   3.134  11.799 -0.0419 -0.1879 -0.1750
 9427SOL    HW139740   4.201   3.126  11.713 -0.7434  2.7512 -0.7810
 9427SOL    HW239741   4.193   3.063  11.854  3.6924  1.1155 -0.8637
 9428SOL     OW39742   3.621   4.207   8.394  0.1227 -0.0369  0.3873
 9428SOL    HW139743   3.702   4.255   8.412 -0.6236  1.9046 -1.3920
 9428SOL    HW239744   3.637   4.126   8.441  0.1068 -0.5510 -0.4964
 9429SOL     OW39745   2.321   3.666  17.608 -0.1127  0.0349  0.6154
 9429SOL    HW139746   2.371   3.686  17.529  0.9965  0.6617  1.4833
 9429SOL    HW239747   2.274   3.749  17.616 -0.1756  0.0644 -0.0069
 9430SOL     OW39748   2.728   0.697   2.721  0.3464 -0.8123  0.3381
 9430SOL    HW139749   2.731   0.619   2.667 -1.1060  0.2524 -1.2781
 9430SOL    HW239750   2.663   0.681   2.788  1.6538 -0.0794  1.7891
 9431SOL     OW39751   4.351   1.772   7.633 -0.0633 -0.4335 -0.2621
 9431SOL    HW139752   4.432   1.725   7.651 -1.1250 -2.1359  0.0330
 9431SOL    HW239753   4.380   1.862   7.616 -1.2705 -0.2447 -1.3810
 9432SOL     OW39754   1.377   0.661  16.072  0.5694  0.6045  0.4561
 9432SOL    HW139755   1.341   0.703  16.150 -0.2041 -0.7805  0.8403
 9432SOL    HW239756   1.363   0.732  16.008  1.5423  0.0367 -0.3814
 9433SOL     OW39757   4.144   3.908   3.577  0.0352 -0.9500 -0.5150
 9433SOL    HW139758   4.169   3.925   3.487 -1.0030 -1.3364 -0.8756
 9433SOL    HW239759   4.066   3.853   3.570 -1.3115  0.8343  0.4561
 9434SOL     OW39760   1.057   0.652   4.703  0.2272 -0.1732 -0.4524
 9434SOL    HW139761   1.139   0.702   4.695 -0.4709  0.8348 -1.3847
 9434SOL    HW239762   1.009   0.688   4.628 -1.0526  1.1415  1.0034
 9435SOL     OW39763   0.724   1.586   2.208 -0.1417  0.2805  0.1544
 9435SOL    HW139764   0.682   1.621   2.287  0.3873  0.5638  0.3095
 9435SOL    HW239765   0.666   1.515   2.181  1.4979 -1.2481  0.6005
 9436SOL     OW39766   2.891   1.082   4.806  0.7148  0.2871 -0.4262
 9436SOL    HW139767   2.800   1.078   4.836  0.2407  4.9158 -1.2860
 9436SOL    HW239768   2.893   1.127   4.722  1.2529  4.6509  1.9213
 9437SOL     OW39769   2.323   2.363   8.448  0.0261  0.1574  0.1992
 9437SOL    HW139770   2.260   2.330   8.512 -1.0788 -0.8283 -1.4152
 9437SOL    HW239771   2.315   2.294   8.383  0.0425 -1.1180  1.5391
 9438SOL     OW39772   3.973   1.754   1.812 -0.2632 -0.5758 -0.5284
 9438SOL    HW139773   3.948   1.818   1.879 -0.2529 -1.1767  0.0586
 9438SOL    HW239774   3.912   1.777   1.743 -1.0401  1.4132  0.8258
 9439SOL     OW39775   2.572   3.932   4.976 -0.4067 -0.1042  0.3396
 9439SOL    HW139776   2.577   3.843   5.010  1.9908  0.8042  2.3026
 9439SOL    HW239777   2.535   3.925   4.888  0.4794 -0.8264  0.0266
 9440SOL     OW39778   0.268   2.656   2.626 -0.7336 -0.7274  0.1124
 9440SOL    HW139779   0.186   2.705   2.622  0.8231  1.7600 -1.4460
 9440SOL    HW239780   0.312   2.708   2.558 -0.4883 -0.3214  0.5777
 9441SOL     OW39781   1.657   1.601   1.799  0.1138  0.2703  0.4546
 9441SOL    HW139782   1.641   1.669   1.865  0.6514  0.1905  0.6649
 9441SOL    HW239783   1.675   1.646   1.717 -0.0143 -0.4292  0.0488
 9442SOL     OW39784   0.443   0.745   2.201 -0.3925 -0.0885  0.2114
 9442SOL    HW139785   0.529   0.744   2.159  0.2723  2.3867  1.5414
 9442SOL    HW239786   0.401   0.708   2.123 -0.6654  0.8470 -0.0942
 9443SOL     OW39787   2.744   0.017  16.333  0.2179 -0.1969 -0.0918
 9443SOL    HW139788   2.825   0.016  16.385  1.1926 -0.5503 -1.5929
 9443SOL    HW239789   2.731   4.656  16.288 -2.0838 -0.2533  0.7087
 9444SOL     OW39790   0.959   1.980   3.800  0.1975 -0.5995  0.3390
 9444SOL    HW139791   0.955   1.968   3.705 -1.4099  3.4469 -0.1068
 9444SOL    HW239792   0.866   1.962   3.817 -0.3246  2.3091  0.5867
 9445SOL     OW39793   1.793   3.770   6.616  0.1038 -0.0062  0.0118
 9445SOL    HW139794   1.853   3.745   6.686  0.1666  0.6345  0.1891
 9445SOL    HW239795   1.785   3.864   6.629 -0.1683 -0.0907  0.4539
 9446SOL     OW39796   4.295   1.767   5.097 -0.2549 -0.2609 -0.2068
 9446SOL    HW139797   4.348   1.770   5.017  0.0830  1.6300  0.0896
 9446SOL    HW239798   4.209   1.763   5.054  0.5889  2.0560 -2.0796
 9447SOL     OW39799   3.840   3.816   9.700 -0.4829 -0.0777 -0.5780
 9447SOL    HW139800   3.899   3.752   9.739 -1.4368  0.1279  1.2282
 9447SOL    HW239801   3.899   3.885   9.673 -0.1428 -0.4524 -0.7894
 9448SOL     OW39802   4.286   4.102   2.330 -0.2550 -0.2335 -0.1323
 9448SOL    HW139803   4.301   4.186   2.373 -2.5444 -0.1143  0.4686
 9448SOL    HW239804   4.364   4.104   2.275 -0.4997 -2.7883 -0.5576
 9449SOL     OW39805   0.087   4.123   2.361  0.7330  0.3984 -0.9432
 9449SOL    HW139806   0.125   4.121   2.449  1.4840  0.5313 -1.2670
 9449SOL    HW239807   0.118   4.044   2.315  0.0887 -0.7648  0.6055
 9450SOL     OW39808   2.003   1.591   1.847 -0.4486  0.6057 -0.9125
 9450SOL    HW139809   2.009   1.592   1.752  0.9517  0.9098 -0.8250
 9450SOL    HW239810   1.948   1.666   1.871 -2.0537 -1.3339  1.4629
 9451SOL     OW39811   0.932   0.234   5.668 -0.5020 -0.3930  0.1638
 9451SOL    HW139812   0.849   0.258   5.709  1.0966  1.0246  2.5512
 9451SOL    HW239813   0.952   0.316   5.623 -1.6348  0.3163  0.9595
 9452SOL     OW39814   3.546   2.978   7.786 -0.0628 -0.0235  0.3379
 9452SOL    HW139815   3.626   2.974   7.838  1.0460 -0.4611 -1.3930
 9452SOL    HW239816   3.514   2.890   7.807 -1.2462  0.3040 -0.1490
 9453SOL     OW39817   0.521   2.244   4.337 -0.3488  0.3528  0.1275
 9453SOL    HW139818   0.605   2.283   4.315  0.2126 -1.2770 -0.6428
 9453SOL    HW239819   0.461   2.287   4.277  0.3911  0.7326 -0.3278
 9454SOL     OW39820   0.314   4.668   4.150 -0.0199  0.2460 -0.0338
 9454SOL    HW139821   0.337   4.638   4.062  1.1059  0.0924  0.3177
 9454SOL    HW239822   0.363   0.027   4.158  0.4326  0.0100 -0.4179
 9455SOL     OW39823   1.969   2.006   7.472 -0.5394  0.1100  0.2074
 9455SOL    HW139824   1.932   1.941   7.413  0.9845 -0.2550 -0.3301
 9455SOL    HW239825   1.990   2.078   7.413 -1.5383 -1.2724 -1.8309
 9456SOL     OW39826   3.220   4.378   7.218 -0.0075 -0.0893  0.0682
 9456SOL    HW139827   3.172   4.362   7.136 -1.5905  0.9695  0.7905
 9456SOL    HW239828   3.214   4.288   7.250 -0.4147  0.2575  0.9631
 9457SOL     OW39829   2.581   3.885   8.906  0.0830  0.0909 -0.0126
 9457SOL    HW139830   2.516   3.867   8.974  0.5567 -0.2196  0.3618
 9457SOL    HW239831   2.664   3.891   8.954  2.3729 -2.5797 -3.5963
 9458SOL     OW39832   3.580   1.494  12.672 -0.8379  0.1962 -0.0458
 9458SOL    HW139833   3.594   1.474  12.580  0.7599  0.7310  0.0749
 9458SOL    HW239834   3.671   1.488  12.702 -0.5570  1.1842 -0.6921
 9459SOL     OW39835   2.510   0.516   8.802  0.0077  0.2495  0.0556
 9459SOL    HW139836   2.514   0.428   8.764  1.1718  0.7050 -0.8628
 9459SOL    HW239837   2.498   0.562   8.719  2.0662  1.5459  0.4830
 9460SOL     OW39838   0.958   4.482  10.844  0.6650 -0.7166  0.4036
 9460SOL    HW139839   0.929   4.391  10.831 -2.0582  0.1766  0.2779
 9460SOL    HW239840   0.995   4.466  10.931  2.4420 -0.8251 -0.3575
 9461SOL     OW39841   2.218   2.663   6.051  0.0094  0.5715  0.1762
 9461SOL    HW139842   2.244   2.717   5.976  0.8955  0.0103  0.0895
 9461SOL    HW239843   2.295   2.610   6.069  0.7657  1.5088 -0.2645
 9462SOL     OW39844   3.258   3.094  11.916  0.6062 -0.3664  0.4158
 9462SOL    HW139845   3.165   3.089  11.895  0.6761  0.3904 -0.0361
 9462SOL    HW239846   3.248   3.148  11.994 -0.4697  0.0226 -0.0018
 9463SOL     OW39847   3.623   1.786   5.089 -0.0920 -0.2660  0.4803
 9463SOL    HW139848   3.562   1.730   5.137 -0.2261 -0.9645 -0.5006
 9463SOL    HW239849   3.671   1.825   5.162  1.6552  0.0972 -0.8851
 9464SOL     OW39850   1.303   2.684  16.164 -0.0943 -0.2329 -0.1091
 9464SOL    HW139851   1.304   2.657  16.256 -2.1270 -0.8535 -0.2629
 9464SOL    HW239852   1.369   2.623  16.131  0.9871  0.5891  0.5196
 9465SOL     OW39853   4.277   1.340   5.864 -0.0298 -0.0518  0.4419
 9465SOL    HW139854   4.323   1.383   5.792  0.9617  0.9313  1.6533
 9465SOL    HW239855   4.227   1.270   5.822 -0.9190  0.1719  1.1260
 9466SOL     OW39856   2.787   0.495  14.199  0.6338  0.0355 -0.0096
 9466SOL    HW139857   2.878   0.521  14.186  0.8013  1.1251  3.3625
 9466SOL    HW239858   2.797   0.401  14.215  0.1636 -0.2822 -1.5957
 9467SOL     OW39859   1.534   4.441  10.397 -0.1540 -0.6340 -0.3947
 9467SOL    HW139860   1.528   4.348  10.419 -0.9415 -0.6251 -0.5874
 9467SOL    HW239861   1.624   4.451  10.365 -1.1807 -0.8614 -3.3717
 9468SOL     OW39862   3.902   3.870   7.801  0.3286  0.4416 -0.1470
 9468SOL    HW139863   3.858   3.792   7.834  0.8255 -0.6048 -1.9639
 9468SOL    HW239864   3.900   3.854   7.707 -1.6530 -1.8854  0.2851
 9469SOL     OW39865   4.556   0.165   4.736 -0.4116 -0.3035  0.3002
 9469SOL    HW139866   4.569   0.120   4.819 -1.6905 -0.9485  0.1477
 9469SOL    HW239867   4.608   0.112   4.676 -2.0810 -2.0286  0.3941
 9470SOL     OW39868   1.365   4.346   8.815 -0.4258 -0.0431 -0.2692
 9470SOL    HW139869   1.274   4.363   8.790  0.1904 -0.2782 -2.7028
 9470SOL    HW239870   1.423   4.401   8.761 -0.2426 -1.3188 -1.3605
 9471SOL     OW39871   2.338   0.159   8.812  0.7393 -1.3905 -0.7353
 9471SOL    HW139872   2.341   0.177   8.906  0.7612 -2.3277 -0.5532
 9471SOL    HW239873   2.429   0.172   8.786  0.4352 -1.6053 -1.9288
 9472SOL     OW39874   1.960   3.113   7.132 -0.7331  0.2044  0.0375
 9472SOL    HW139875   1.992   3.023   7.124  2.6387  1.5298 -1.4371
 9472SOL    HW239876   1.895   3.114   7.063 -0.7834  2.4605  0.1344
 9473SOL     OW39877   3.289   1.717  13.319 -0.0612 -0.4817  0.5184
 9473SOL    HW139878   3.375   1.726  13.277  0.4036  0.2489  1.6307
 9473SOL    HW239879   3.312   1.728  13.412 -0.9355  2.8996  0.3092
 9474SOL     OW39880   3.555   0.966   4.198 -0.0180 -0.7485 -0.7427
 9474SOL    HW139881   3.529   1.052   4.167 -2.1254 -1.4064 -0.8168
 9474SOL    HW239882   3.630   0.951   4.142  1.0508 -0.5969  0.6370
 9475SOL     OW39883   3.584   1.647  17.560 -0.3162 -0.2146 -0.0786
 9475SOL    HW139884   3.655   1.583  17.567  1.6337  2.1162  1.3284
 9475SOL    HW239885   3.608   1.697  17.482  2.5120  1.6108  1.9765
 9476SOL     OW39886   0.981   2.521   8.591 -0.0618 -0.2741  0.1444
 9476SOL    HW139887   0.934   2.439   8.606 -2.7512  1.1862 -0.1394
 9476SOL    HW239888   0.969   2.528   8.496 -1.7738 -0.3492  0.3582
 9477SOL     OW39889   3.115   1.187  14.810 -0.4522  0.7587 -0.0930
 9477SOL    HW139890   3.204   1.213  14.785 -0.0937  0.0304  0.3902
 9477SOL    HW239891   3.071   1.193  14.725 -1.1201 -0.3533  0.1796
 9478SOL     OW39892   0.441   1.719   0.778 -0.7988  0.0786  0.0901
 9478SOL    HW139893   0.399   1.734   0.863  1.0335 -1.5477  1.2833
 9478SOL    HW239894   0.447   1.811   0.755  1.5505 -0.3553 -1.0263
 9479SOL     OW39895   1.191   4.015   3.502  0.0074 -0.5441  0.0891
 9479SOL    HW139896   1.118   4.067   3.536 -1.2487 -0.8151 -2.2010
 9479SOL    HW239897   1.237   4.092   3.468  1.0508 -1.4791 -0.5981
 9480SOL     OW39898   2.398   2.126   1.664  0.1458 -0.6305 -0.2989
 9480SOL    HW139899   2.385   2.221   1.666  1.9500 -0.3712 -0.8870
 9480SOL    HW239900   2.305   2.105   1.671  0.3257 -1.2957  0.0853
 9481SOL     OW39901   4.718   0.128  15.666  0.3955 -0.1837  0.1836
 9481SOL    HW139902   0.035   0.137  15.753  2.3250  1.3016 -0.8238
 9481SOL    HW239903   0.045   0.059  15.623 -0.9779 -1.7831  1.2141
 9482SOL     OW39904   2.026   4.123  13.576  0.0012  0.8641 -0.3267
 9482SOL    HW139905   2.072   4.070  13.641  0.5356 -0.1744 -1.5549
 9482SOL    HW239906   1.961   4.057  13.552  2.2973 -1.3478 -0.5101
 9483SOL     OW39907   0.497   3.496   7.843 -0.0682 -0.1040  0.7943
 9483SOL    HW139908   0.407   3.485   7.872 -0.6035  0.4889 -0.6430
 9483SOL    HW239909   0.524   3.408   7.869  2.7877 -0.3145 -2.8434
 9484SOL     OW39910   3.532   0.946   5.108  0.0847  0.5202 -0.0270
 9484SOL    HW139911   3.482   0.903   5.177  0.3063 -1.5856 -1.1519
 9484SOL    HW239912   3.466   1.007   5.076 -0.6289 -1.2871 -2.0155
 9485SOL     OW39913   3.801   1.370  15.697 -0.1070 -0.1719  0.5156
 9485SOL    HW139914   3.792   1.455  15.741 -1.4077 -0.3695  0.6130
 9485SOL    HW239915   3.874   1.380  15.635  0.3763  0.5990  1.2174
 9486SOL     OW39916   1.666   3.822  15.372 -0.2381 -0.1304  0.2276
 9486SOL    HW139917   1.731   3.883  15.338 -1.1187  1.0983  0.7329
 9486SOL    HW239918   1.593   3.834  15.310 -0.3683  0.6168  0.5299
 9487SOL     OW39919   2.033   2.660   6.301 -0.5149  0.0516  0.4380
 9487SOL    HW139920   2.053   2.672   6.208 -0.2336 -2.1681  0.2143
 9487SOL    HW239921   2.051   2.566   6.305 -1.8701 -0.2771 -1.2991
 9488SOL     OW39922   3.904   2.973   1.133  0.2081 -0.5282  0.1525
 9488SOL    HW139923   3.930   2.885   1.107  2.9301 -0.3929  2.3650
 9488SOL    HW239924   3.919   2.974   1.228 -1.0135  1.6436  0.3163
 9489SOL     OW39925   4.716   0.034   9.613  0.3183 -0.4008 -0.0276
 9489SOL    HW139926   4.693   4.689   9.677  0.9461  0.2904  0.9382
 9489SOL    HW239927   0.053   0.096   9.655  1.9929 -2.0519  0.0731
 9490SOL     OW39928   2.629   4.111   7.430 -0.1318 -0.0669 -0.1053
 9490SOL    HW139929   2.678   4.039   7.390 -2.5167 -0.2165 -2.7749
 9490SOL    HW239930   2.580   4.052   7.488 -0.8445  0.4786 -0.1516
 9491SOL     OW39931   2.890   1.492   4.017  0.1615  0.1534 -0.4431
 9491SOL    HW139932   2.812   1.454   4.059 -0.1842  1.4795  0.1015
 9491SOL    HW239933   2.905   1.575   4.062 -0.4207  0.7172 -1.2925
 9492SOL     OW39934   1.208   0.109   6.684 -0.0400 -0.2523 -0.2030
 9492SOL    HW139935   1.252   0.124   6.601 -1.0784 -1.2245 -0.9282
 9492SOL    HW239936   1.270   0.050   6.727  0.8309  1.7580  1.2738
 9493SOL     OW39937   2.897   2.437   5.453  0.0741  0.0821  0.0661
 9493SOL    HW139938   2.967   2.457   5.391  0.4065 -1.1208  0.0543
 9493SOL    HW239939   2.942   2.411   5.533  0.9314 -3.1108 -1.4450
 9494SOL     OW39940   3.799   2.560  12.103  0.1771 -0.0578  0.1278
 9494SOL    HW139941   3.705   2.553  12.093  0.0295 -0.7235  2.0271
 9494SOL    HW239942   3.814   2.491  12.169 -0.2792 -0.5768 -0.3179
 9495SOL     OW39943   2.110   1.126  16.368  0.2009  0.2681 -0.0076
 9495SOL    HW139944   2.152   1.127  16.453  0.5374 -2.7366 -0.1389
 9495SOL    HW239945   2.049   1.198  16.384 -0.4996  0.2063 -2.2813
 9496SOL     OW39946   0.306   1.747   2.471 -0.2132 -0.7001  0.0707
 9496SOL    HW139947   0.323   1.758   2.378  1.9200  2.9159  0.9083
 9496SOL    HW239948   0.286   1.654   2.483  2.1849 -1.0568  1.3274
 9497SOL     OW39949   1.019   3.279  15.976  0.3609 -0.3269  0.2206
 9497SOL    HW139950   1.043   3.329  16.054  0.9752  0.8477 -0.7104
 9497SOL    HW239951   1.101   3.284  15.926  0.9872  0.9222  1.3616
 9498SOL     OW39952   1.746   0.392   6.420 -0.5256  0.1367  0.3368
 9498SOL    HW139953   1.676   0.332   6.446 -1.1230  0.3349 -0.8067
 9498SOL    HW239954   1.692   0.465   6.391 -0.8655 -0.3172 -0.1945
 9499SOL     OW39955   4.664   3.494   0.196 -0.1197 -0.9528  0.1201
 9499SOL    HW139956   4.601   3.556   0.232  1.0123  0.5557 -0.5489
 9499SOL    HW239957   4.692   3.536   0.115 -2.5613 -0.7245 -0.6266
 9500SOL     OW39958   4.715   2.076   5.676 -0.3609 -0.1914 -0.5437
 9500SOL    HW139959   0.082   2.068   5.645 -1.7262 -0.2729 -4.4924
 9500SOL    HW239960   4.718   2.095   5.769 -1.8951 -0.2273 -0.4866
 9501SOL     OW39961   3.198   3.311  15.717 -0.0858  0.1238  0.4864
 9501SOL    HW139962   3.249   3.261  15.654 -1.1356 -1.0539  0.5678
 9501SOL    HW239963   3.230   3.397  15.688  0.6905 -0.9699 -1.8974
 9502SOL     OW39964   2.509   2.192   6.718 -0.5818  0.1978 -0.0100
 9502SOL    HW139965   2.512   2.096   6.723  0.8340  0.2584  0.4244
 9502SOL    HW239966   2.601   2.215   6.703  0.0747 -0.5231  2.8399
 9503SOL     OW39967   2.329   2.467   2.816 -0.0783  0.4237  0.3601
 9503SOL    HW139968   2.417   2.452   2.850  0.4216 -0.2453 -1.2269
 9503SOL    HW239969   2.357   2.520   2.742 -0.9898  0.1487 -0.1876
 9504SOL     OW39970   0.312   3.804  16.506  0.1403 -0.1010  1.0158
 9504SOL    HW139971   0.244   3.861  16.470 -1.9217 -1.7716  2.2473
 9504SOL    HW239972   0.335   3.851  16.586  1.7367  1.6259 -0.4604
 9505SOL     OW39973   0.074   4.319   3.892 -0.1773  0.1344  0.3668
 9505SOL    HW139974   0.157   4.293   3.852 -0.8262 -3.0443  1.0259
 9505SOL    HW239975   0.025   4.247   3.852 -1.1436  0.6104  0.7049
 9506SOL     OW39976   0.169   2.325   8.601  0.3773  0.6297  0.0536
 9506SOL    HW139977   0.221   2.246   8.614  0.7395  0.9143  0.3269
 9506SOL    HW239978   0.092   2.310   8.657  0.9981  0.0490  0.7441
 9507SOL     OW39979   0.399   1.372  10.137  0.0376 -0.2095  0.7867
 9507SOL    HW139980   0.356   1.452  10.107 -0.1758 -0.3946  0.5966
 9507SOL    HW239981   0.471   1.360  10.076 -0.8847 -0.7762 -0.1954
 9508SOL     OW39982   2.180   4.632   0.876 -0.6828 -0.0681 -0.6616
 9508SOL    HW139983   2.178   4.565   0.943  0.0775 -0.2893 -0.8645
 9508SOL    HW239984   2.120   4.698   0.910  0.6057  0.2382  0.9961
 9509SOL     OW39985   4.665   4.264   4.182 -0.5170 -0.5145  0.0428
 9509SOL    HW139986   4.695   4.174   4.166 -0.4010 -0.7892  1.8496
 9509SOL    HW239987   4.694   4.307   4.102 -1.7020 -1.9638 -1.1738
 9510SOL     OW39988   0.994   0.404   1.951 -0.0790  0.5846  0.0329
 9510SOL    HW139989   0.917   0.415   2.007 -0.1031 -4.2101  0.9102
 9510SOL    HW239990   0.985   0.491   1.912  0.8064  1.6324  2.1507
 9511SOL     OW39991   0.087   3.122   5.332 -0.0433  0.2396 -0.1571
 9511SOL    HW139992   0.081   3.198   5.275 -0.4011 -0.9192 -1.6689
 9511SOL    HW239993   0.137   3.159   5.405 -0.1914 -0.1145  0.1283
 9512SOL     OW39994   0.819   3.690   4.609  0.4567  0.8043  0.4781
 9512SOL    HW139995   0.868   3.661   4.685  1.6278 -1.5901 -1.1951
 9512SOL    HW239996   0.893   3.722   4.557  0.1185 -2.0225 -1.7104
 9513SOL     OW39997   4.489   1.526  14.452 -0.4563 -0.0800  0.0039
 9513SOL    HW139998   4.517   1.463  14.385  0.3057  0.5666 -0.2810
 9513SOL    HW239999   4.540   1.599  14.416 -1.5123  0.4351 -0.4418
 9514SOL     OW40000   0.905   2.027  15.955 -0.2183 -0.7006  0.4247
 9514SOL    HW140001   0.906   2.069  16.041 -1.7919  0.7395 -0.2606
 9514SOL    HW240002   0.935   1.938  15.975 -1.4075 -0.7762  1.8659
 9515SOL     OW40003   3.062   2.441  12.778 -0.4268  0.4788 -0.1503
 9515SOL    HW140004   3.080   2.480  12.864 -0.4363 -3.9807  1.8682
 9515SOL    HW240005   3.029   2.516  12.730 -1.3382 -0.0626 -0.3558
 9516SOL     OW40006   2.945   1.211   2.901 -0.3734 -0.5467 -0.0578
 9516SOL    HW140007   2.996   1.274   2.851 -1.7616  2.0724  1.8354
 9516SOL    HW240008   2.909   1.262   2.973  1.3756 -1.0389  1.1649
 9517SOL     OW40009   3.631   0.572   6.397  0.1655  0.0901 -0.3306
 9517SOL    HW140010   3.708   0.588   6.452 -0.9309  2.3643  0.5446
 9517SOL    HW240011   3.601   0.662   6.382 -0.3301  0.5609  3.7321
 9518SOL     OW40012   0.996   2.979   2.122 -0.5185 -0.5315 -0.1131
 9518SOL    HW140013   1.075   3.022   2.090  0.1521 -1.1487  0.7086
 9518SOL    HW240014   1.012   2.889   2.093 -3.9089 -1.5255  1.0890
 9519SOL     OW40015   3.527   4.273  15.983 -0.5041 -0.0631 -0.1232
 9519SOL    HW140016   3.451   4.325  15.954  0.7284  1.5105 -0.5381
 9519SOL    HW240017   3.584   4.272  15.907  1.8284 -1.3242  1.6631
 9520SOL     OW40018   1.177   4.004   4.490  0.8809  0.3535 -0.5226
 9520SOL    HW140019   1.154   4.009   4.397  1.6424 -0.0020 -0.7239
 9520SOL    HW240020   1.128   3.925   4.515  0.2989  0.8985  0.0599
 9521SOL     OW40021   3.858   4.206   7.982  0.4038  0.1048  0.2522
 9521SOL    HW140022   3.767   4.236   7.977  0.5770  0.7092  0.6677
 9521SOL    HW240023   3.898   4.270   7.924 -0.5630  1.8192  1.4643
 9522SOL     OW40024   2.539   3.589  16.012 -0.0442  0.3188  0.3114
 9522SOL    HW140025   2.464   3.602  15.954 -0.2799 -1.9844  0.1089
 9522SOL    HW240026   2.604   3.552  15.953  0.0470 -0.5460  0.9527
 9523SOL     OW40027   0.618   4.247   6.213  0.2071 -0.2546  0.0720
 9523SOL    HW140028   0.555   4.181   6.182  0.7103 -0.7872  0.1704
 9523SOL    HW240029   0.686   4.197   6.260 -0.4416 -0.6351  0.6060
 9524SOL     OW40030   2.961   1.578   7.387  0.8179 -0.1751  0.0195
 9524SOL    HW140031   2.952   1.673   7.396  2.8268  0.0253 -0.1107
 9524SOL    HW240032   3.037   1.556   7.440  0.1829 -2.5479 -0.0716
 9525SOL     OW40033   2.333   4.282   8.530 -1.2549  0.8669 -0.5677
 9525SOL    HW140034   2.385   4.211   8.492  0.1911  0.7025  1.6879
 9525SOL    HW240035   2.321   4.247   8.618 -0.5342  0.9185 -0.4502
 9526SOL     OW40036   4.009   3.405   1.819 -0.1908 -0.1954 -0.4142
 9526SOL    HW140037   4.022   3.318   1.856  0.3884  0.0314 -0.0773
 9526SOL    HW240038   3.982   3.382   1.730 -1.1234  1.1959 -0.4975
 9527SOL     OW40039   2.272   4.030   7.463 -0.1712  0.0360 -0.4072
 9527SOL    HW140040   2.317   4.081   7.395  0.9823  1.4117  1.3947
 9527SOL    HW240041   2.262   3.949   7.412  0.3798 -0.3270  0.0650
 9528SOL     OW40042   4.068   2.522  12.060  0.3510  0.6062  0.0289
 9528SOL    HW140043   3.975   2.541  12.067  0.4481  0.8277  0.7502
 9528SOL    HW240044   4.088   2.533  12.153  0.6334 -0.5771  0.1136
 9529SOL     OW40045   2.135   1.856  14.415  0.6259  0.8134  0.2463
 9529SOL    HW140046   2.145   1.889  14.325  2.1145 -0.8421 -0.1990
 9529SOL    HW240047   2.055   1.804  14.420  0.5604  0.9672  0.7221
 9530SOL     OW40048   0.251   2.563   7.492  0.2878  0.0162 -0.1986
 9530SOL    HW140049   0.280   2.499   7.427  0.9125  0.1741 -0.0771
 9530SOL    HW240050   0.199   2.629   7.446  1.1938  1.7959  1.3382
 9531SOL     OW40051   0.479   4.151   8.683 -0.0126  0.3193  0.6883
 9531SOL    HW140052   0.544   4.080   8.690  0.9052  0.9499 -1.3303
 9531SOL    HW240053   0.525   4.216   8.736  0.7689  0.0314  0.3723
 9532SOL     OW40054   4.211   4.098  13.208 -0.8291 -0.2459  0.0073
 9532SOL    HW140055   4.223   4.042  13.285 -0.6960 -0.4902 -0.1925
 9532SOL    HW240056   4.124   4.073  13.178  0.1120  1.5546 -4.1494
 9533SOL     OW40057   4.155   3.856   1.965  0.2470 -0.8122 -0.1295
 9533SOL    HW140058   4.169   3.769   1.928 -1.4655 -0.7830 -0.8396
 9533SOL    HW240059   4.241   3.871   2.003  0.6682 -1.6155 -0.7600
 9534SOL     OW40060   4.614   0.191  12.201  0.4457  0.0448 -0.1027
 9534SOL    HW140061   4.620   0.176  12.107 -3.3063 -0.6211 -0.2557
 9534SOL    HW240062   4.707   0.173  12.217  0.9805  1.0290 -2.1877
 9535SOL     OW40063   3.637   0.679  13.774 -0.0036  0.1604  0.4642
 9535SOL    HW140064   3.581   0.750  13.741  2.2366  2.2321  1.1054
 9535SOL    HW240065   3.575   0.611  13.747  0.3010  0.4963 -1.1369
 9536SOL     OW40066   0.364   1.999   1.478  0.4684 -0.3391 -0.1178
 9536SOL    HW140067   0.442   2.052   1.458 -0.3080  0.2753 -1.5187
 9536SOL    HW240068   0.344   2.029   1.566 -0.4678 -0.8021 -0.1718
 9537SOL     OW40069   4.172   2.542   7.797  0.3691 -0.4873 -0.1720
 9537SOL    HW140070   4.124   2.538   7.879 -0.1789 -0.5110 -0.4948
 9537SOL    HW240071   4.127   2.619   7.762  0.7717  0.8755  2.3305
 9538SOL     OW40072   2.690   0.421   6.254  0.5374 -0.3958  0.4206
 9538SOL    HW140073   2.719   0.405   6.164 -1.0682  1.0680 -0.3494
 9538SOL    HW240074   2.628   0.350   6.269  0.2808 -0.0045  1.1734
 9539SOL     OW40075   4.215   0.822   8.309 -0.4540  0.3921 -0.0378
 9539SOL    HW140076   4.167   0.758   8.256  1.1213  0.5340 -1.6420
 9539SOL    HW240077   4.211   0.771   8.390  3.1433  0.3362  0.1045
 9540SOL     OW40078   0.390   0.754  16.840 -0.2910  0.3523 -0.1669
 9540SOL    HW140079   0.467   0.808  16.856  1.4142 -2.8659  2.6628
 9540SOL    HW240080   0.346   0.763  16.924 -1.7660 -3.8530 -0.4837
 9541SOL     OW40081   4.709   1.988   6.536 -0.3578  0.7045 -0.1151
 9541SOL    HW140082   4.717   1.928   6.462  0.9267  2.8766 -1.7510
 9541SOL    HW240083   0.065   1.965   6.584 -0.7663 -0.1130  0.1561
 9542SOL     OW40084   1.803   2.004   5.733 -0.1143  0.9182  0.1178
 9542SOL    HW140085   1.805   1.927   5.790 -2.4171  1.1915  0.5694
 9542SOL    HW240086   1.709   2.003   5.713 -0.0661  0.4705 -0.0851
 9543SOL     OW40087   3.452   3.536   3.060  0.1355  0.0145  0.2734
 9543SOL    HW140088   3.518   3.587   3.011  2.4200 -2.7820  0.4282
 9543SOL    HW240089   3.372   3.580   3.033 -0.7371 -1.0063  1.2278
 9544SOL     OW40090   4.299   2.226   3.306  0.2089  0.1529 -0.5081
 9544SOL    HW140091   4.291   2.215   3.211 -2.8075 -0.8688 -0.1348
 9544SOL    HW240092   4.316   2.321   3.310  0.0269  0.0924  1.2833
 9545SOL     OW40093   1.423   0.818   7.269  0.3821 -0.7921  0.4610
 9545SOL    HW140094   1.501   0.783   7.312  1.4512  0.1194 -0.6788
 9545SOL    HW240095   1.437   0.913   7.267  0.5487 -0.8757 -2.8910
 9546SOL     OW40096   1.114   4.314   5.844  0.4721  0.2157  0.3444
 9546SOL    HW140097   1.035   4.368   5.843 -0.1105 -0.6022  1.4901
 9546SOL    HW240098   1.092   4.266   5.924 -1.2463 -3.2503 -2.2063
 9547SOL     OW40099   0.976   2.712   2.149 -0.0486 -0.1222 -0.0759
 9547SOL    HW140100   1.022   2.676   2.073 -0.1134 -3.4837  1.4887
 9547SOL    HW240101   0.895   2.745   2.108  0.1316  0.9902  0.4766
 9548SOL     OW40102   0.787   1.037   8.911 -0.4545 -0.9504  0.9362
 9548SOL    HW140103   0.858   0.980   8.883 -0.2539 -0.9852  1.5249
 9548SOL    HW240104   0.831   1.121   8.920 -0.1449 -0.8637 -1.3330
 9549SOL     OW40105   2.775   3.145   8.527 -0.0800  0.5919  0.2975
 9549SOL    HW140106   2.832   3.068   8.532  1.6329  1.8389  0.0053
 9549SOL    HW240107   2.690   3.108   8.550 -1.4194  3.0817 -0.5844
 9550SOL     OW40108   1.398   4.429   5.831  0.4777  0.1506 -0.3803
 9550SOL    HW140109   1.461   4.382   5.885  1.7219 -0.7320 -2.5748
 9550SOL    HW240110   1.315   4.404   5.872 -0.5366  0.6676 -2.1461
 9551SOL     OW40111   2.357   4.649   4.723  0.3051  0.3607  0.3053
 9551SOL    HW140112   2.372   4.662   4.816 -1.2096  3.3452  0.1421
 9551SOL    HW240113   2.424   4.706   4.685 -0.8116  0.4322 -1.5735
 9552SOL     OW40114   3.396   1.456   5.739  0.0355  0.4539 -0.1436
 9552SOL    HW140115   3.430   1.392   5.802  0.4217 -1.2500 -2.0908
 9552SOL    HW240116   3.463   1.522   5.719 -0.2115  0.5835 -0.5441
 9553SOL     OW40117   4.297   1.225   6.662  0.3040 -0.2381  0.2983
 9553SOL    HW140118   4.272   1.313   6.690 -1.3152  0.1375 -2.3908
 9553SOL    HW240119   4.238   1.206   6.589 -0.3178  1.4704  0.3590
 9554SOL     OW40120   0.712   2.477   0.306  0.1303 -0.0100 -0.5156
 9554SOL    HW140121   0.715   2.442   0.217  1.9523 -0.6046 -0.2201
 9554SOL    HW240122   0.644   2.543   0.296  0.5435  0.3764 -0.7798
 9555SOL     OW40123   3.383   4.114  14.740  0.2051  0.0974 -0.2443
 9555SOL    HW140124   3.400   4.207  14.754 -0.1538 -0.1778  1.9039
 9555SOL    HW240125   3.287   4.116  14.736  0.0778 -1.4026  2.3644
 9556SOL     OW40126   0.933   1.216   1.522 -0.5126  0.6048 -0.4050
 9556SOL    HW140127   0.991   1.175   1.585 -0.0363 -0.9089 -1.8218
 9556SOL    HW240128   0.866   1.263   1.571 -0.1292  0.0205  0.6633
 9557SOL     OW40129   0.519   3.972  12.639  0.6449 -0.2628 -0.0501
 9557SOL    HW140130   0.508   4.057  12.596 -2.3304  0.9085  3.0434
 9557SOL    HW240131   0.432   3.932  12.636 -0.1730  1.5215 -0.1120
 9558SOL     OW40132   3.099   0.235  10.828 -0.1131 -0.3115 -0.8876
 9558SOL    HW140133   3.042   0.293  10.877  2.0438  0.4129  0.7769
 9558SOL    HW240134   3.056   0.243  10.743  0.3007 -2.3209 -1.2929
 9559SOL     OW40135   0.598   1.010   4.879 -0.0960 -0.2199 -0.4117
 9559SOL    HW140136   0.638   1.015   4.966  0.7410 -0.6542 -0.7648
 9559SOL    HW240137   0.652   1.067   4.823  0.3093  1.5639  1.7842
 9560SOL     OW40138   1.755   0.763   8.468 -0.3248 -0.1679  0.1963
 9560SOL    HW140139   1.753   0.822   8.543  0.6793 -0.6507  0.6029
 9560SOL    HW240140   1.849   0.771   8.450  0.0365 -0.1859  2.0851
 9561SOL     OW40141   3.278   3.266  12.129 -0.1976  0.1017 -0.3625
 9561SOL    HW140142   3.346   3.231  12.188 -0.7591  0.5094  0.5283
 9561SOL    HW240143   3.230   3.318  12.193  0.1706  0.1950 -0.1626
 9562SOL     OW40144   3.601   3.306   5.902  0.1104  0.2954 -0.1451
 9562SOL    HW140145   3.604   3.357   5.821  2.0182  1.9655  1.0139
 9562SOL    HW240146   3.667   3.360   5.944 -0.5613  0.8635  0.1749
 9563SOL     OW40147   3.328   0.799  11.483 -0.2029  0.6430 -0.5498
 9563SOL    HW140148   3.370   0.883  11.468 -0.0072  0.3081 -1.9077
 9563SOL    HW240149   3.237   0.827  11.469 -0.6184 -0.5138 -0.1950
 9564SOL     OW40150   0.471   1.485  17.053 -0.1342  0.0656  0.3536
 9564SOL    HW140151   0.533   1.547  17.013  0.3863  1.8115  3.8125
 9564SOL    HW240152   0.505   1.461  17.140 -3.8447 -0.3527  1.6735
 9565SOL     OW40153   4.499   3.153   2.879 -0.1435  0.4389 -0.3887
 9565SOL    HW140154   4.437   3.214   2.918  1.7734  2.5745 -0.6216
 9565SOL    HW240155   4.454   3.134   2.797 -0.3955  0.4860 -0.2588
   4.72250   4.72250  17.69203
