Membrane in water
40155
    1TCq1    O1    1   0.382   4.485  10.637 -1.0691  0.7189  0.1825
    1TCq1    C1    2   0.300   4.451  10.739  0.5188  0.6645  0.7446
    1TCq1    O2    3   0.276   4.335  10.762  0.4311 -0.3305  0.4252
    1TCq1    C2    4   0.307   4.559  10.835  0.7282 -0.5516 -0.3071
    1TCq1    C3    5   0.327   4.692  10.796  0.1295  0.4804 -0.1086
    1TCq1    C4    6   0.319   0.069  10.892  0.2683 -1.2262  0.6439
    1TCq1    C5    7   0.311   0.036  11.025 -0.2818 -0.2949  0.2264
    1TCq1    C6    8   0.299   4.622  11.055  0.1731  0.1764 -0.1344
    1TCq1    C7    9   0.280   4.529  10.961  0.1429  0.3482  0.1657
    1TCq1    C8   10   0.289   4.594  11.191 -0.6452 -0.8701  0.0594
    1TCq1    O4   11   0.280   4.690  11.268  0.1872 -0.3338 -0.1235
    1TCq1    C9   12   0.336   0.202  10.843  0.5085  0.9135 -0.4987
    1TCq1    O5   13   0.393   0.283  10.921  0.0245  0.0518  0.1691
    1TCq1    O6   14   0.310   0.225  10.723 -0.3364  0.5658  0.4508
    1TCq1    H1   15   0.430   4.567  10.661  1.9518 -0.8295 -0.5210
    1TCq1    H2   16   0.330   0.006  10.694 -0.0085  2.0751  0.4673
    1TCq1    H3   17   0.314   0.111  11.103  1.1128  0.1013 -0.2024
    1TCq1    H4   18   0.278   4.422  10.980 -1.4228  0.3528  0.0205
    2MPD2     C   19   0.270   4.260  11.599  0.8570  0.0314 -0.1173
    2MPD2    C1   20   0.224   4.395  11.590 -0.2250  0.1582 -0.1225
    2MPD2    C2   21   0.244   4.469  11.474  0.0105  0.1395 -0.2352
    2MPD2    C3   22   0.296   4.404  11.359  0.5045 -0.0741 -0.0248
    2MPD2    C4   23   0.325   4.268  11.367 -0.3651 -0.3407  0.3909
    2MPD2    C5   24   0.306   4.201  11.480 -1.0958 -0.1321 -0.6721
    2MPD2     H   25   0.222   4.575  11.479 -0.1082  0.0211  1.5365
    2MPD2    H1   26   0.374   4.218  11.286 -0.9146 -0.5306  0.1751
    2MPD2    H2   27   0.266   4.195  11.685  2.6970 -1.2212 -0.9870
    2MPD2    H3   28   0.337   4.098  11.487  3.3933  1.3051  0.6950
    2MPD2     N   29   0.312   4.462  11.225  0.0910 -0.1738 -0.0545
    2MPD2    H5   30   0.361   4.415  11.150 -1.2120  0.4835 -1.3103
    2MPD2    N1   31   0.176   4.471  11.698 -0.1903  0.2258 -0.1085
    2MPD2    H7   32   0.164   4.571  11.686  1.0160  0.5520  1.3866
    3TCq1    O1   33   4.095   0.505  10.530 -0.1671 -0.1652  0.2648
    3TCq1    C1   34   4.228   0.531  10.529  1.0211 -0.6142  1.0156
    3TCq1    O2   35   4.302   0.491  10.446  0.4497 -0.8127 -0.3401
    3TCq1    C2   36   4.256   0.661  10.587 -0.4067  0.2293 -0.5834
    3TCq1    C3   37   4.329   0.750  10.512  0.1012  0.3402  0.1152
    3TCq1    C4   38   4.353   0.868  10.571 -0.2701 -1.0866  0.2684
    3TCq1    C5   39   4.299   0.900  10.694  0.0712  0.0064 -0.1888
    3TCq1    C6   40   4.221   0.813  10.759  0.1855 -0.9359 -0.6306
    3TCq1    C7   41   4.202   0.689  10.706 -0.1380  0.2880 -0.8864
    3TCq1    C8   42   4.144   0.857  10.869  0.2944  0.1142  0.6120
    3TCq1    O4   43   4.088   0.764  10.922 -0.2496 -0.1849 -0.4355
    3TCq1    C9   44   4.430   0.964  10.495  0.4010 -0.2688 -0.2107
    3TCq1    O5   45   4.469   0.921  10.382 -0.0074 -0.3795  0.6460
    3TCq1    O6   46   4.455   1.071  10.545 -0.0957 -1.0949 -0.4664
    3TCq1    H1   47   4.039   0.567  10.581  1.0994  1.4719 -0.3463
    3TCq1    H2   48   4.390   0.726  10.426 -0.0717  2.7363 -0.6847
    3TCq1    H3   49   4.323   0.998  10.732  2.1328  0.3455 -2.3583
    3TCq1    H4   50   4.153   0.608  10.759 -1.3871  1.0543 -0.8641
    4MPD2     C   51   3.875   1.165  11.170  0.4194 -0.2438  0.7122
    4MPD2    C1   52   3.901   1.231  11.050  0.6752 -0.8005  0.3427
    4MPD2    C2   53   3.985   1.180  10.958 -0.3160  0.2955 -0.5621
    4MPD2    C3   54   4.034   1.050  10.975 -0.2046  0.1038 -0.2214
    4MPD2    C4   55   4.018   0.981  11.094  0.2075  0.6084  0.1392
    4MPD2    C5   56   3.934   1.037  11.191 -0.6891 -0.4609 -0.3986
    4MPD2     H   57   3.997   1.225  10.860  0.0602  1.3790 -0.0267
    4MPD2    H1   58   4.063   0.885  11.118  3.4288  1.7627 -1.2611
    4MPD2    H2   59   3.810   1.203  11.248 -0.5913  0.3738 -0.4162
    4MPD2    H3   60   3.915   0.977  11.279  1.9086 -1.4068 -0.4869
    4MPD2     N   61   4.123   0.993  10.875  0.4294  0.3900  0.2278
    4MPD2    H5   62   4.152   1.050  10.796 -2.4455  0.5651 -0.7060
    4MPD2    N1   63   3.842   1.352  11.026 -0.1889  0.0249  0.6376
    4MPD2    H7   64   3.869   1.398  10.939  2.5618  0.5420  1.7759
    5TCq1    O1   65   4.091   3.314  10.177 -0.1787  0.5110  0.0085
    5TCq1    C1   66   3.983   3.270  10.245  0.1174  0.0090  0.0045
    5TCq1    O2   67   3.864   3.295  10.232  0.2489  1.0159 -0.4406
    5TCq1    C2   68   4.033   3.186  10.353  0.0960  0.0074  0.0974
    5TCq1    C3   69   3.941   3.158  10.450 -0.9618 -0.8353 -0.0253
    5TCq1    C4   70   3.979   3.079  10.556 -0.8109  0.3993 -0.4762
    5TCq1    C5   71   4.107   3.023  10.559  0.1306  0.9932  0.5679
    5TCq1    C6   72   4.196   3.056  10.455  0.3169 -0.5873 -0.0159
    5TCq1    C7   73   4.160   3.142  10.353  0.7196  0.1059 -0.2131
    5TCq1    C8   74   4.324   2.982  10.438 -0.3623  1.0157 -0.3573
    5TCq1    O4   75   4.347   2.891  10.513  0.3330 -0.2750  0.3412
    5TCq1    C9   76   3.889   3.069  10.674  0.2111 -0.9102  0.5606
    5TCq1    O5   77   3.923   2.985  10.762  0.0022 -0.2131  0.5925
    5TCq1    O6   78   3.784   3.131  10.669  0.3577  0.4109  0.5574
    5TCq1    H1   79   4.179   3.316  10.222 -1.1766  0.6087  1.9344
    5TCq1    H2   80   3.838   3.191  10.443 -0.5107  0.1684 -2.1203
    5TCq1    H3   81   4.149   2.970  10.643  0.7268 -0.2617 -0.5341
    5TCq1    H4   82   4.212   3.139  10.258  2.0819  1.7265  0.4815
    6MPD2     C   83   4.623   3.087  10.242  0.1604 -0.5908 -0.3149
    6MPD2    C1   84   4.541   3.002  10.324 -0.2889  0.5183 -0.0404
    6MPD2    C2   85   4.592   2.877  10.355  0.0141  0.4569 -0.0247
    6MPD2    C3   86   4.721   2.833  10.314  0.1215 -0.2441  0.2315
    6MPD2    C4   87   0.070   2.917  10.238 -0.8316 -0.2514  0.4080
    6MPD2    C5   88   0.025   3.041  10.206  0.0049 -1.2812 -0.2318
    6MPD2     H   89   4.533   2.797  10.399  0.7578  0.3929  0.8499
    6MPD2    H1   90   0.167   2.882  10.203 -1.7129 -2.5076  0.1868
    6MPD2    H2   91   4.596   3.191  10.230  1.4160 -0.3364 -0.8916
    6MPD2    H3   92   0.092   3.113  10.160 -0.1153 -1.3946 -0.5803
    6MPD2     N   93   0.042   2.703  10.342 -0.0570 -0.1117 -0.2927
    6MPD2    H5   94   4.690   2.652  10.388  1.5270 -0.3805  1.9849
    6MPD2    N1   95   4.406   3.049  10.349 -0.3387 -0.6173 -0.1674
    6MPD2    H7   96   4.368   3.133  10.307  2.9085  1.7344  1.5810
    7TCq1    O1   97   2.025   2.845  12.819 -0.4431 -0.9511  0.4146
    7TCq1    C1   98   2.054   2.784  12.937  0.4366 -0.4639 -0.0438
    7TCq1    O2   99   2.152   2.814  13.006  0.4344 -0.5294 -0.3752
    7TCq1    C2  100   1.956   2.683  12.961  0.1609 -0.6414  0.6325
    7TCq1    C3  101   1.822   2.710  12.936  0.1297 -0.0283 -0.1057
    7TCq1    C4  102   1.728   2.613  12.982  0.0922  0.2313 -0.4497
    7TCq1    C5  103   1.772   2.495  13.036  0.4672 -0.2752 -1.2806
    7TCq1    C6  104   1.902   2.482  13.067  0.0002  0.0234 -0.3942
    7TCq1    C7  105   1.992   2.578  13.040  0.7310 -0.4542 -0.1101
    7TCq1    C8  106   1.949   2.349  13.111 -0.3760  0.1490 -0.3633
    7TCq1    O4  107   1.865   2.260  13.128 -0.2126  0.3578 -0.0824
    7TCq1    C9  108   1.585   2.634  12.953  0.6166  0.0511  0.2663
    7TCq1    O5  109   1.503   2.568  13.026  0.3975 -0.0935  0.1366
    7TCq1    O6  110   1.566   2.712  12.856 -0.0083  0.4885  1.0328
    7TCq1    H1  111   1.955   2.796  12.772  0.4764 -2.3839  0.5533
    7TCq1    H2  112   1.786   2.797  12.881 -2.7098 -0.7140  0.6643
    7TCq1    H3  113   1.696   2.421  13.061  0.5620 -0.1615 -0.6547
    7TCq1    H4  114   2.098   2.577  13.065  0.4889  0.2241  0.9100
    8MPD2     C  115   2.339   2.033  13.235  0.1889  0.0445 -0.1410
    8MPD2    C1  116   2.211   1.999  13.201  0.0803  0.3536 -0.0484
    8MPD2    C2  117   2.124   2.101  13.175 -0.3690 -0.7559  0.0409
    8MPD2    C3  118   2.164   2.235  13.168 -0.2414  0.1169 -0.3434
    8MPD2    C4  119   2.298   2.257  13.196  0.2641  0.3355 -0.6853
    8MPD2    C5  120   2.381   2.157  13.225  0.3835 -0.2228  0.0766
    8MPD2     H  121   2.022   2.075  13.151 -0.4991  0.5277 -0.8027
    8MPD2    H1  122   2.343   2.356  13.187 -0.7053  0.8449  0.1242
    8MPD2    H2  123   2.414   1.955  13.248  2.0381  1.4173 -2.4949
    8MPD2    H3  124   2.480   2.193  13.252  0.7917 -0.9763 -0.4114
    8MPD2     N  125   2.083   2.350  13.141  0.1142 -0.4160 -0.1421
    8MPD2    H5  126   2.128   2.441  13.148 -1.2448  0.3131 -0.9736
    8MPD2    N1  127   2.178   1.857  13.202  0.0972  0.0413 -0.0225
    8MPD2    H7  128   2.257   1.796  13.220 -0.4464 -0.7497 -0.3256
    9TCq1    O1  129   0.525   1.094  10.436 -0.2762 -0.2064 -0.3367
    9TCq1    C1  130   0.458   1.197  10.379  0.1077  0.8109 -0.1362
    9TCq1    O2  131   0.438   1.221  10.260 -0.1364  0.2564 -0.8261
    9TCq1    C2  132   0.363   1.221  10.484 -0.0368  0.1050  0.4464
    9TCq1    C3  133   0.233   1.238  10.451  0.1317  0.7667  0.2053
    9TCq1    C4  134   0.154   1.263  10.560  0.3175 -0.1127  0.1978
    9TCq1    C5  135   0.198   1.299  10.680 -0.0105 -0.4264 -0.5933
    9TCq1    C6  136   0.334   1.288  10.707  0.2087 -0.8221  0.5272
    9TCq1    C7  137   0.425   1.250  10.603 -1.0775  0.0486  0.5768
    9TCq1    C8  138   0.397   1.322  10.835 -0.2613 -0.2132 -0.4502
    9TCq1    O4  139   0.501   1.382  10.834  0.8396  0.3551 -0.2148
    9TCq1    C9  140   0.014   1.285  10.525 -0.9003  0.1775 -0.1285
    9TCq1    O5  141   4.691   1.259  10.411 -0.1251  0.2254  0.3201
    9TCq1    O6  142   4.652   1.309  10.615 -0.3532 -0.7858  0.0550
    9TCq1    H1  143   0.507   1.069  10.529 -2.2842  1.6682 -0.2073
    9TCq1    H2  144   0.185   1.230  10.354 -0.0954 -2.6592  0.5818
    9TCq1    H3  145   0.125   1.328  10.755 -0.6454 -2.1430 -0.5518
    9TCq1    H4  146   0.532   1.246  10.617 -1.0550 -0.9599  0.1512
   10MPD2     C  147   0.498   1.311  11.116  0.0643 -0.9363  0.2128
   10MPD2    C1  148   0.383   1.247  11.070 -0.9113 -0.9675  0.4365
   10MPD2    C2  149   0.306   1.180  11.157  0.0864 -0.1960  0.7837
   10MPD2    C3  150   0.333   1.179  11.297 -0.5037 -0.1730  0.5502
   10MPD2    C4  151   0.450   1.237  11.335 -0.2471  0.0072  1.1798
   10MPD2    C5  152   0.523   1.314  11.250 -0.8430  0.7534  0.4422
   10MPD2     H  153   0.210   1.148  11.119  0.4371 -1.3756  0.8803
   10MPD2    H1  154   0.470   1.244  11.442 -0.9297 -0.1450  1.3215
   10MPD2    H2  155   0.554   1.378  11.051  0.8853 -1.1599  0.6808
   10MPD2    H3  156   0.599   1.383  11.287  0.9532  1.2219 -4.1896
   10MPD2     N  157   0.254   1.114  11.394  0.0826  0.0539  1.0039
   10MPD2    H5  158   0.276   1.126  11.492 -0.4979 -0.2865  1.1756
   10MPD2    N1  159   0.348   1.244  10.933  0.5015  0.1484 -1.2536
   10MPD2    H7  160   0.267   1.188  10.909 -0.4132  0.1933  1.8278
   11TCq1    O1  161   1.249   0.843  13.886 -0.1200 -0.0649  0.0835
   11TCq1    C1  162   1.116   0.819  13.912 -0.0013  0.7502 -0.4702
   11TCq1    O2  163   1.029   0.804  13.829 -0.4359  0.7137 -0.1790
   11TCq1    C2  164   1.095   0.785  14.057  0.2287 -0.3900  0.3910
   11TCq1    C3  165   1.176   0.825  14.154 -0.5986  0.0231  0.5117
   11TCq1    C4  166   1.133   0.810  14.286  0.2538 -0.2349  0.1891
   11TCq1    C5  167   1.008   0.761  14.313 -0.1087  0.0203  0.2521
   11TCq1    C6  168   0.930   0.728  14.206 -0.8843  0.1074 -0.1105
   11TCq1    C7  169   0.970   0.732  14.074 -0.8816 -0.1973 -0.6962
   11TCq1    C8  170   0.790   0.748  14.242 -0.8488  0.1552  0.7989
   11TCq1    O4  171   0.770   0.797  14.354  0.0542 -0.1746 -0.4429
   11TCq1    C9  172   1.215   0.860  14.387  0.0595 -0.4585  0.0635
   11TCq1    O5  173   1.259   0.973  14.360  0.4682  0.0257 -0.0916
   11TCq1    O6  174   1.203   0.814  14.504  0.2418 -0.1543 -0.5391
   11TCq1    H1  175   1.313   0.840  13.960  0.9080  1.7169 -0.7143
   11TCq1    H2  176   1.271   0.868  14.126 -1.1465  2.0682  1.7854
   11TCq1    H3  177   0.972   0.756  14.414 -0.2261 -1.1691  0.1550
   11TCq1    H4  178   0.899   0.720  13.993  1.2114 -1.8754 -2.2943
   12MPD2     C  179   0.492   0.726  14.280 -0.1118 -0.5578 -0.3106
   12MPD2    C1  180   0.557   0.713  14.158 -0.4799  0.2249  0.3270
   12MPD2    C2  181   0.492   0.669  14.049  0.1474  0.5722 -0.1568
   12MPD2    C3  182   0.351   0.659  14.053 -0.4618  0.2316 -0.4877
   12MPD2    C4  183   0.285   0.685  14.173  0.4534  0.7428 -0.6531
   12MPD2    C5  184   0.358   0.708  14.287 -0.0453 -0.5377 -0.0878
   12MPD2     H  185   0.546   0.654  13.957  1.8610 -0.7149  1.0656
   12MPD2    H1  186   0.177   0.677  14.178  0.6266 -0.1858  1.4810
   12MPD2    H2  187   0.548   0.762  14.366  0.7037  0.5864 -1.3173
   12MPD2    H3  188   0.303   0.723  14.380 -0.8423 -1.4193 -0.4162
   12MPD2     N  189   0.270   0.621  13.945  0.5880 -0.4815  0.2659
   12MPD2    H5  190   0.175   0.599  13.972  1.1415 -3.7440 -0.3946
   12MPD2    N1  191   0.699   0.727  14.137  0.5831 -0.3914  0.1584
   12MPD2    H7  192   0.740   0.705  14.047  1.2827  0.9402  0.1416
   13TCq1    O1  193   0.062   0.732  10.320 -0.2497 -0.2053  0.0703
   13TCq1    C1  194   0.113   0.855  10.336  0.5408  0.6697  0.6468
   13TCq1    O2  195   0.055   0.955  10.289  0.0813 -0.1192  0.0785
   13TCq1    C2  196   0.156   0.845  10.471  0.0884 -0.2794  0.6389
   13TCq1    C3  197   0.285   0.873  10.514  0.0426 -0.1888 -0.2581
   13TCq1    C4  198   0.305   0.868  10.650  0.6139 -0.0422 -0.2466
   13TCq1    C5  199   0.209   0.831  10.738  0.4038 -0.1188  0.2403
   13TCq1    C6  200   0.093   0.789  10.687  0.3974  0.7779 -0.6317
   13TCq1    C7  201   0.057   0.802  10.555  0.4707 -0.8167  0.2830
   13TCq1    C8  202   4.704   0.763  10.773  0.8747  0.3027 -0.0188
   13TCq1    O4  203   4.702   0.830  10.879  0.1518  0.1840 -0.0660
   13TCq1    C9  204   0.437   0.887  10.709  0.2207 -0.0119 -0.3893
   13TCq1    O5  205   0.519   0.959  10.653 -0.1263 -0.2710 -0.0489
   13TCq1    O6  206   0.443   0.854  10.835  0.1131  0.3970 -0.3411
   13TCq1    H1  207   0.111   0.669  10.377 -0.4994  0.1157  0.6401
   13TCq1    H2  208   0.366   0.902  10.448  1.0130  1.8030  1.7863
   13TCq1    H3  209   0.230   0.827  10.844 -1.1523 -4.6375  0.3794
   13TCq1    H4  210   4.683   0.766  10.521  2.0632 -1.4414 -3.5501
   14MPD2     C  211   4.480   0.472  10.772 -0.0292  0.0189  0.2998
   14MPD2    C1  212   4.525   0.595  10.814  0.2904  0.3937  0.2257
   14MPD2    C2  213   4.488   0.636  10.942 -0.1206 -0.5148  0.3769
   14MPD2    C3  214   4.396   0.585  11.017 -0.2745  1.2055  0.3011
   14MPD2    C4  215   4.331   0.473  10.962  0.3826  0.8021  0.8506
   14MPD2    C5  216   4.381   0.414  10.847 -0.7533  0.7078  0.8921
   14MPD2     H  217   4.553   0.709  10.989  0.6259  0.1099 -1.6052
   14MPD2    H1  218   4.249   0.422  11.012 -0.6370  1.1412 -0.4858
   14MPD2    H2  219   4.512   0.427  10.678 -1.8355 -0.3804 -0.1204
   14MPD2    H3  220   4.346   0.319  10.808 -1.3700  0.7661  1.3053
   14MPD2     N  221   4.366   0.643  11.143 -0.1312  0.7249  0.0194
   14MPD2    H5  222   4.418   0.725  11.175 -0.9460  0.8328  1.0384
   14MPD2    N1  223   4.639   0.646  10.742  0.4075  0.1835 -0.0229
   14MPD2    H7  224   4.668   0.584  10.667  0.7013  0.7127 -0.3402
   15TCq1    O1  225   1.413   0.081   2.231 -0.3855 -0.1133 -0.4847
   15TCq1    C1  226   1.390   0.213   2.229 -0.0721  0.7105  0.5121
   15TCq1    O2  227   1.316   0.266   2.302 -0.9836  0.3224 -0.9017
   15TCq1    C2  228   1.421   0.255   2.095  0.1410  0.1415 -0.0716
   15TCq1    C3  229   1.391   0.387   2.070  0.1755 -0.1678  0.4487
   15TCq1    C4  230   1.392   0.425   1.937 -0.3323  0.2385  0.2772
   15TCq1    C5  231   1.430   0.348   1.827  0.4131 -0.0370 -0.5473
   15TCq1    C6  232   1.468   0.220   1.867 -0.3556 -0.0839 -0.2298
   15TCq1    C7  233   1.471   0.171   1.995 -0.6337  0.2840  0.6153
   15TCq1    C8  234   1.543   0.143   1.771  0.3838  0.3455 -0.0728
   15TCq1    O4  235   1.649   0.098   1.811 -0.0364 -0.1518  0.1999
   15TCq1    C9  236   1.322   0.546   1.904  0.3009 -0.6046 -0.2078
   15TCq1    O5  237   1.369   0.620   1.816 -0.2266  0.0443 -0.1769
   15TCq1    O6  238   1.228   0.582   1.980 -0.5128  0.3092  0.3158
   15TCq1    H1  239   1.498   0.058   2.188  0.1591 -0.5076  0.8156
   15TCq1    H2  240   1.354   0.452   2.149  0.2801  0.7481 -0.2520
   15TCq1    H3  241   1.418   0.390   1.728 -0.9452  0.7851 -0.0386
   15TCq1    H4  242   1.475   0.064   2.010 -2.3811  0.2834  1.0878
   16MPD2     C  243   1.416   0.064   1.425 -0.2015  0.0663 -0.0911
   16MPD2    C1  244   1.507   0.067   1.532 -0.8005 -0.5497 -0.0568
   16MPD2    C2  245   1.628   0.010   1.516 -0.3151  0.0958 -1.0972
   16MPD2    C3  246   1.657   4.670   1.396  0.2215 -0.0968 -1.0103
   16MPD2    C4  247   1.567   4.676   1.289 -0.3597  0.0996  0.4602
   16MPD2    C5  248   1.442   0.007   1.305 -0.3027  0.5412 -0.5256
   16MPD2     H  249   1.704   0.011   1.593  0.9050  1.2273 -2.3292
   16MPD2    H1  250   1.601   4.653   1.189  0.9364 -0.8587  1.1114
   16MPD2    H2  251   1.326   0.123   1.433 -0.6029 -1.1890  4.5843
   16MPD2    H3  252   1.374   0.003   1.220  0.1667 -0.8211 -0.8301
   16MPD2     N  253   1.782   4.617   1.382  0.1986  0.3439  0.1634
   16MPD2    H5  254   1.832   4.628   1.470  1.3347 -0.3294 -0.3974
   16MPD2    N1  255   1.473   0.139   1.651  0.5432  0.3036 -0.0700
   16MPD2    H7  256   1.377   0.172   1.658  0.4704  0.0785  0.0062
   17TCq1    O1  257   4.584   3.931  10.408 -0.7036 -0.0564  0.5106
   17TCq1    C1  258   4.582   3.833  10.498 -0.8931  0.4460  0.3927
   17TCq1    O2  259   4.574   3.713  10.476  1.1757 -0.1396  0.3354
   17TCq1    C2  260   4.588   3.893  10.633  0.8138  0.6420 -0.2877
   17TCq1    C3  261   4.546   3.828  10.748  0.1724 -0.0102 -0.3873
   17TCq1    C4  262   4.532   3.900  10.862  0.3883  0.7331  0.5406
   17TCq1    C5  263   4.574   4.032  10.869  0.1535  0.4044  0.0165
   17TCq1    C6  264   4.617   4.093  10.761  0.4650  0.4102 -0.4080
   17TCq1    C7  265   4.626   4.030  10.642  0.0587  0.3888 -0.3924
   17TCq1    C8  266   4.631   4.242  10.770  0.4315 -0.2429  0.2488
   17TCq1    O4  267   4.590   4.293  10.870 -0.3679  0.5612  0.4132
   17TCq1    C9  268   4.469   3.835  10.971  0.1679 -0.3030  0.6921
   17TCq1    O5  269   4.433   3.898  11.077  0.0949  0.4678 -0.5245
   17TCq1    O6  270   4.460   3.706  10.967  0.2806 -0.4535  0.0034
   17TCq1    H1  271   4.569   4.022  10.440 -3.5066 -0.4235  0.2389
   17TCq1    H2  272   4.519   3.724  10.738 -0.1186 -0.1057  1.3705
   17TCq1    H3  273   4.556   4.084  10.963 -0.7418  1.1217 -0.5636
   17TCq1    H4  274   4.672   4.084  10.560 -0.6744  1.5540 -0.0187
   18MPD2     C  275   4.641   4.530  10.723  0.2305 -0.4968  0.4251
   18MPD2    C1  276   4.696   4.436  10.638  0.0642  0.0316  0.0701
   18MPD2    C2  277   0.045   4.481  10.534 -0.4699  0.2919  0.2952
   18MPD2    C3  278   0.067   4.620  10.518  1.0284 -0.3690  0.8180
   18MPD2    C4  279   0.005   4.706  10.600  0.0481  0.3813 -0.4087
   18MPD2    C5  280   4.662   4.662  10.709  0.3261 -0.6490 -1.0405
   18MPD2     H  281   0.100   4.421  10.462 -1.4049  0.9174 -0.9394
   18MPD2    H1  282   0.010   0.092  10.590  1.2854  0.5718  2.3328
   18MPD2    H2  283   4.585   4.499  10.810  0.4287  0.5086  0.9113
   18MPD2    H3  284   4.609   0.007  10.775 -0.5777 -0.6887 -1.7113
   18MPD2     N  285   0.156   4.680  10.423  0.1791  0.6162  0.4813
   18MPD2    H5  286   0.165   0.058  10.427  0.2558  0.6684 -0.8363
   18MPD2    N1  287   4.681   4.303  10.657 -0.4227 -0.0376  0.1301
   18MPD2    H7  288   4.706   4.240  10.581  0.6015  0.5072  0.0250
   19TMC2    C1  289   1.369   0.615  13.661 -0.1233  0.0904  0.2494
   19TMC2    C2  290   1.315   0.713  13.585 -0.3322  0.2777  0.0591
   19TMC2    C3  291   1.177   0.722  13.577 -0.0704  0.5368  0.5927
   19TMC2    C4  292   1.286   0.522  13.723  0.3795 -0.3130 -0.4758
   19TMC2    C5  293   1.152   0.530  13.703  0.3005 -0.0583 -0.2669
   19TMC2    C6  294   1.098   0.625  13.626 -0.2667 -0.3344  0.7796
   19TMC2     C  295   1.502   0.640  13.710 -0.6304 -0.3213 -0.3681
   19TMC2     O  296   1.560   0.739  13.665 -0.0614 -0.4942  0.1103
   19TMC2     H  297   1.375   0.799  13.557 -0.3562  0.1285 -0.4443
   19TMC2    H1  298   1.332   0.451  13.791  0.9642  2.3799  1.9443
   19TMC2    H2  299   0.990   0.623  13.617 -0.3474 -1.0322  1.8999
   19TMC2    C7  300   1.059   0.421  13.743 -0.1658  0.3321  0.0607
   19TMC2    C8  301   1.119   0.834  13.512 -0.1982 -0.0700 -0.6351
   19TMC2    O1  302   1.109   0.309  13.733 -0.5042 -0.1175  0.2654
   19TMC2    O2  303   1.161   0.867  13.404 -0.8501 -0.2002  0.3725
   19TMC2    O5  304   1.008   0.871  13.574  0.5237 -0.4026  0.0209
   19TMC2    H5  305   1.012   0.837  13.666 -2.2097  1.1231  0.7215
   20MPD2     C  306   1.764   0.647  13.850 -0.2893  0.5161  0.3486
   20MPD2    C1  307   1.661   0.564  13.885  0.0499 -0.3513 -0.5124
   20MPD2    C2  308   1.674   0.476  13.992 -0.0257 -0.5068 -0.2746
   20MPD2    C3  309   1.785   0.473  14.066 -0.3456 -0.1066 -0.8081
   20MPD2    C4  310   1.891   0.559  14.033 -0.2376  0.2316 -0.1825
   20MPD2    C5  311   1.883   0.635  13.923 -0.3549 -0.3398  0.2187
   20MPD2     H  312   1.583   0.418  14.004 -0.2421  0.3026  2.0235
   20MPD2    H1  313   1.985   0.561  14.088 -0.0809  2.0092 -0.5052
   20MPD2    H2  314   1.764   0.714  13.765 -2.2921 -1.9859 -1.5703
   20MPD2    H3  315   1.972   0.680  13.881  0.8261 -0.0540  3.0050
   20MPD2     N  316   1.795   0.407  14.188  0.3643  0.0245 -0.3060
   20MPD2    H5  317   1.883   0.426  14.234 -0.0809 -2.8404  1.6792
   20MPD2    N1  318   1.537   0.558  13.816 -0.4534 -0.5449  0.0980
   20MPD2    H7  319   1.473   0.486  13.844 -1.2981 -0.1631 -0.8262
   21MPD2     C  320   3.714   0.842  14.102  0.7012  0.0819  0.0809
   21MPD2    C1  321   3.755   0.714  14.087  0.2526 -0.1187 -0.4013
   21MPD2    C2  322   3.667   0.617  14.129  0.1321 -0.2644  0.5633
   21MPD2    C3  323   3.539   0.650  14.168  0.1494  0.2535  0.3654
   21MPD2    C4  324   3.498   0.778  14.170 -0.1843  0.0638 -0.0564
   21MPD2    C5  325   3.587   0.877  14.131  0.1522  0.4937  0.5911
   21MPD2     H  326   3.690   0.512  14.117 -0.3105 -0.4272  1.1430
   21MPD2    H1  327   3.402   0.814  14.205 -0.5702  0.6558 -1.7132
   21MPD2    H2  328   3.783   0.920  14.071  1.0656  0.0719  0.8531
   21MPD2    H3  329   3.562   0.981  14.117  0.9841  1.1730  4.0735
   21MPD2     N  330   3.454   0.551  14.223 -0.1118 -0.6659 -0.3563
   21MPD2    H5  331   3.362   0.580  14.254  0.4872 -0.3054  1.0866
   21MPD2    N1  332   3.887   0.674  14.045  0.2864  0.0488  0.3943
   21MPD2    H7  333   3.911   0.575  14.052  2.6525  0.7862  2.5780
   22TCq2    C1  334   3.488   0.421  14.248 -0.0124 -0.2396 -0.4914
   22TCq2    O2  335   3.596   0.364  14.240 -0.1981 -0.2835 -0.0121
   22TCq2    C2  336   3.381   0.335  14.307 -0.3858 -0.8570  0.1311
   22TCq2    C3  337   3.410   0.206  14.338  0.6377  0.3247  0.0435
   22TCq2    C4  338   3.313   0.114  14.361  0.2798 -0.6555  0.2743
   22TCq2    C5  339   3.181   0.154  14.356  0.0583  0.0123  0.3996
   22TCq2    C6  340   3.151   0.284  14.319  0.0338  0.8687  0.6245
   22TCq2    C7  341   3.251   0.370  14.302 -0.0271  0.4248 -0.3387
   22TCq2    C8  342   3.005   0.307  14.304 -0.3076  0.7674 -0.1580
   22TCq2    O4  343   2.937   0.203  14.304  0.4444  0.0153 -0.8781
   22TCq2    C9  344   3.345   4.704  14.392  0.3201 -0.1942  0.7889
   22TCq2    O5  345   3.258   4.623  14.407 -0.2131  0.3632 -0.0317
   22TCq2    O6  346   3.461   4.688  14.440  0.1958  0.1189  0.0213
   22TCq2    H2  347   3.510   0.167  14.327  1.2138  1.6368  0.6418
   22TCq2    H3  348   3.114   0.069  14.365  1.7328 -1.2464  0.9845
   22TCq2    H4  349   3.227   0.464  14.253 -0.3730  0.3773 -0.2581
   23MPD2     C  350   0.012   1.592  14.480  0.2137 -0.2397  0.0572
   23MPD2    C1  351   0.006   1.678  14.589  0.3233 -0.0560 -0.0601
   23MPD2    C2  352   4.613   1.740  14.629 -0.3234  0.1536  0.1615
   23MPD2    C3  353   4.496   1.723  14.547  0.0691 -0.9817 -0.8077
   23MPD2    C4  354   4.503   1.634  14.444 -0.0300 -0.7536  0.5246
   23MPD2    C5  355   4.615   1.567  14.411 -0.0410 -0.1423 -0.2731
   23MPD2     H  356   4.612   1.787  14.727  1.8390  1.7582 -0.5972
   23MPD2    H1  357   4.415   1.633  14.381 -0.5320 -0.2593  1.2161
   23MPD2    H2  358   0.098   1.530  14.456  0.0641 -0.7385  0.8390
   23MPD2    H3  359   4.610   1.507  14.320  0.5038 -0.7127  0.0761
   23MPD2     N  360   4.379   1.782  14.579  0.8244  0.2580 -0.4625
   23MPD2    H5  361   4.299   1.769  14.517 -0.8300 -0.7455  1.8743
   23MPD2    N1  362   0.111   1.695  14.682  0.3779  0.1442 -0.1380
   23MPD2    H7  363   0.103   1.758  14.761  1.7726 -1.9156  1.6411
   24TCq2    C1  364   4.352   1.870  14.681 -0.7895 -0.2446 -0.2698
   24TCq2    O2  365   4.430   1.929  14.756  0.5478 -0.1100 -0.3462
   24TCq2    C2  366   4.208   1.900  14.707 -0.0946 -0.3240  0.3075
   24TCq2    C3  367   4.173   2.006  14.788  0.6715  0.3689  0.5890
   24TCq2    C4  368   4.054   2.001  14.854  0.2792  0.2809  0.1687
   24TCq2    C5  369   3.972   1.893  14.832 -1.1727 -0.5252 -0.4897
   24TCq2    C6  370   4.004   1.798  14.751 -0.2367 -0.6629 -0.0533
   24TCq2    C7  371   4.121   1.795  14.683 -0.4397 -0.5172 -0.2897
   24TCq2    C8  372   3.912   1.687  14.753  0.5041 -0.3681 -0.3969
   24TCq2    O4  373   3.958   1.576  14.762 -0.5505 -0.1273  0.0766
   24TCq2    C9  374   4.020   2.114  14.946 -0.4406 -0.4277 -1.1604
   24TCq2    O5  375   4.097   2.213  14.947  0.0651  0.2356 -0.3324
   24TCq2    O6  376   3.911   2.115  15.003 -0.7787  0.2388 -0.1531
   24TCq2    H2  377   4.245   2.084  14.809  0.8728  0.6821 -1.2408
   24TCq2    H3  378   3.879   1.896  14.889  1.2205 -0.3640  3.4163
   24TCq2    H4  379   4.151   1.702  14.636  0.6419 -0.3318  0.0393
   25TMC2    C1  380   4.249   4.463  11.357 -0.6677  0.1148 -0.1769
   25TMC2    C2  381   4.378   4.497  11.393 -0.1862  0.6022 -0.2931
   25TMC2    C3  382   4.414   4.479  11.526 -0.2587  0.1959  0.3678
   25TMC2    C4  383   4.151   4.427  11.451 -0.7257 -0.4504  0.1990
   25TMC2    C5  384   4.189   4.421  11.583 -0.0658 -0.2888  0.0092
   25TMC2    C6  385   4.317   4.446  11.623 -0.2310  0.2227 -0.2644
   25TMC2     C  386   4.206   4.472  11.213  0.5615  0.2950 -0.1600
   25TMC2     O  387   4.274   4.550  11.142  0.0124 -0.1882 -0.2359
   25TMC2     H  388   4.447   4.538  11.320 -0.8906 -0.6834 -1.6753
   25TMC2    H1  389   4.054   4.399  11.413 -1.5520  0.7177  1.4503
   25TMC2    H2  390   4.331   4.438  11.731  2.6580 -1.3510 -0.7626
   25TMC2    C7  391   4.084   4.441  11.681  0.1352 -0.0218 -0.5506
   25TMC2    C8  392   4.539   4.525  11.576 -0.3883 -0.5430 -0.2777
   25TMC2    O1  393   4.099   4.392  11.791 -0.0285 -0.1525  0.2231
   25TMC2    O2  394   4.541   4.591  11.678  0.4774  0.1429 -0.3119
   25TMC2    O5  395   4.621   4.544  11.467  0.0340  0.7295 -0.0358
   25TMC2    H5  396   4.619   4.465  11.409  1.5254  1.5152 -1.1706
   26MPD2     C  397   3.908   4.397  10.808 -0.4602 -0.4334 -0.1248
   26MPD2    C1  398   3.911   4.279  10.876 -0.4393  0.0349 -0.1348
   26MPD2    C2  399   3.981   4.273  10.997 -0.2656 -0.7109 -0.2486
   26MPD2    C3  400   4.059   4.380  11.047  0.9897  0.4887 -0.1263
   26MPD2    C4  401   4.053   4.495  10.973 -0.0403  1.0070 -0.1772
   26MPD2    C5  402   3.979   4.505  10.860 -0.3822 -0.1294 -0.1813
   26MPD2     H  403   3.991   4.177  11.048  0.7471 -0.5112 -0.0802
   26MPD2    H1  404   4.106   4.585  11.000  2.0306 -0.3288  0.2354
   26MPD2    H2  405   3.844   4.408  10.721 -0.1407  1.0674 -0.1731
   26MPD2    H3  406   3.972   4.599  10.806 -0.3093  0.3216  0.5878
   26MPD2     N  407   4.122   4.374  11.171  0.0345 -0.7136 -0.0700
   26MPD2    H5  408   4.100   4.298  11.235 -1.8505 -0.0996  0.0122
   26MPD2    N1  409   3.834   4.175  10.819 -0.0816  0.0832  0.7600
   26MPD2    H7  410   3.804   4.187  10.722 -0.3948  2.9771  1.2126
   27TMC2    C1  411   2.673   1.413  11.718  0.2562 -0.5978 -0.2289
   27TMC2    C2  412   2.571   1.412  11.631  0.2056  0.5379  0.7102
   27TMC2    C3  413   2.494   1.523  11.613 -0.1872  0.4099 -0.6070
   27TMC2    C4  414   2.696   1.535  11.776  0.0287  0.3011 -0.5237
   27TMC2    C5  415   2.622   1.646  11.760  0.7091 -0.5788 -0.5390
   27TMC2    C6  416   2.512   1.645  11.677  0.8133 -0.4771  0.1174
   27TMC2     C  417   2.660   1.302  11.818  0.2177  0.5109  0.3641
   27TMC2     O  418   2.636   1.189  11.780 -0.5333  0.4774 -0.1290
   27TMC2     H  419   2.550   1.325  11.570  2.4403  0.3474  0.1997
   27TMC2    H1  420   2.778   1.529  11.847  1.4402  0.4050 -2.1400
   27TMC2    H2  421   2.441   1.727  11.671 -0.0188 -1.1311  1.1047
   27TMC2    C7  422   2.603   1.701  11.886 -0.5825  0.1686  0.5812
   27TMC2    C8  423   2.413   1.522  11.493 -0.1775 -0.6463 -0.1503
   27TMC2    O1  424   2.644   1.630  11.972  0.0089 -0.2597  0.0045
   27TMC2    O2  425   2.370   1.419  11.442  0.6170 -0.0882  0.1664
   27TMC2    O5  426   2.436   1.634  11.419  0.3240  0.2628  0.2555
   27TMC2    H5  427   2.512   1.683  11.458  0.9189 -0.9726  0.6574
   28MPD2     C  428   2.411   1.169  12.252 -0.2533 -0.2225  0.2532
   28MPD2    C1  429   2.426   1.306  12.249  1.2745  0.1165  0.1559
   28MPD2    C2  430   2.500   1.360  12.149  0.6326 -0.1574  0.0013
   28MPD2    C3  431   2.543   1.288  12.041 -0.6744 -0.3292  0.0009
   28MPD2    C4  432   2.526   1.154  12.043  0.3891 -0.3071  0.4347
   28MPD2    C5  433   2.458   1.093  12.148  1.1149  0.2337 -0.3902
   28MPD2     H  434   2.514   1.467  12.140 -0.4473  0.0614  0.9912
   28MPD2    H1  435   2.555   1.092  11.959  1.1981 -0.3755  0.7616
   28MPD2    H2  436   2.354   1.117  12.329 -0.7876 -0.3956 -0.2597
   28MPD2    H3  437   2.436   0.987  12.151 -0.1862  0.5831  2.3576
   28MPD2     N  438   2.621   1.353  11.940  0.5579  0.3099  0.0178
   28MPD2    H5  439   2.631   1.452  11.958 -2.6716  0.3901  1.3592
   28MPD2    N1  440   2.360   1.372  12.355  0.1049 -0.4610  0.3622
   28MPD2    H7  441   2.308   1.321  12.426 -0.1910 -2.1278 -1.0583
   29MPD2     C  442   1.956   3.405  14.033  0.2391  0.1002  0.5553
   29MPD2    C1  443   2.061   3.397  14.119 -0.1104 -0.7882  0.9444
   29MPD2    C2  444   2.152   3.502  14.143  0.0963 -0.3729  1.0190
   29MPD2    C3  445   2.135   3.616  14.071 -0.8067 -1.0992  0.4627
   29MPD2    C4  446   2.041   3.621  13.977 -0.2300 -0.1325 -0.4356
   29MPD2    C5  447   1.950   3.521  13.956 -0.1312 -0.4570  0.2191
   29MPD2     H  448   2.228   3.487  14.220  1.0270  0.9295  0.3574
   29MPD2    H1  449   2.045   3.706  13.910 -2.6801  1.1643  1.0672
   29MPD2    H2  450   1.893   3.323  14.001 -0.1275  0.5523  0.1125
   29MPD2    H3  451   1.878   3.531  13.875 -0.7430 -0.1019  0.8063
   29MPD2     N  452   2.229   3.723  14.092  0.1379 -0.5031 -0.2047
   29MPD2    H5  453   2.238   3.786  14.013  1.6458 -0.3888  0.0620
   29MPD2    N1  454   2.094   3.269  14.168 -0.2466  0.0798  0.4226
   29MPD2    H7  455   2.186   3.264  14.210 -0.0441 -0.9770 -0.1386
   30TCq2    C1  456   2.290   3.747  14.213  0.3956 -0.3658  0.5763
   30TCq2    O2  457   2.263   3.699  14.322 -0.1926 -1.0000 -0.0734
   30TCq2    C2  458   2.378   3.858  14.217  0.5692 -0.0160 -0.3956
   30TCq2    C3  459   2.375   3.923  14.336 -0.2389 -1.0239 -0.1972
   30TCq2    C4  460   2.458   4.035  14.343 -0.1495 -0.6485 -0.0914
   30TCq2    C5  461   2.538   4.081  14.232  0.8266 -0.2898  0.0452
   30TCq2    C6  462   2.539   3.999  14.123 -0.4184 -0.4691 -0.8116
   30TCq2    C7  463   2.455   3.891  14.112 -0.9018 -0.2825  0.2931
   30TCq2    C8  464   2.633   4.020  14.016 -0.3464  0.3303  0.4490
   30TCq2    O4  465   2.636   3.930  13.933  0.1167 -0.3425  0.9534
   30TCq2    C9  466   2.414   4.128  14.447 -0.3502  0.0969 -0.0191
   30TCq2    O5  467   2.467   4.240  14.453 -0.3523  0.6952 -0.3460
   30TCq2    O6  468   2.318   4.086  14.518 -0.1752  0.7059  0.3709
   30TCq2    H2  469   2.312   3.887  14.416 -1.1870  0.5232 -0.2441
   30TCq2    H3  470   2.599   4.170  14.242  0.7105 -0.2179  0.1057
   30TCq2    H4  471   2.454   3.824  14.027 -0.1307  0.8610 -0.6247
   31MPD2     C  472   0.294   2.808  14.728  0.1244 -0.0835 -0.6425
   31MPD2    C1  473   0.165   2.839  14.699  0.2572 -0.2300 -0.5458
   31MPD2    C2  474   0.058   2.784  14.769 -0.0901 -0.5465 -0.1338
   31MPD2    C3  475   0.081   2.710  14.884 -0.6311  0.0008 -0.9119
   31MPD2    C4  476   0.211   2.686  14.918 -0.4269 -0.5909 -0.0184
   31MPD2    C5  477   0.318   2.726  14.834 -0.4980 -0.4945  0.5520
   31MPD2     H  478   4.681   2.802  14.729  1.0400  2.6572 -1.5110
   31MPD2    H1  479   0.236   2.630  15.008  2.9443 -1.7312 -1.6706
   31MPD2    H2  480   0.381   2.829  14.667  1.4228 -0.7661  0.9821
   31MPD2    H3  481   0.417   2.696  14.865 -0.9323 -0.7774  1.6954
   31MPD2     N  482   4.705   2.648  14.967  0.3731 -0.6038 -0.5992
   31MPD2    H5  483   0.018   2.597  15.048  1.3639 -0.7988 -1.1569
   31MPD2    N1  484   0.143   2.921  14.588  0.0712 -0.2447 -0.2550
   31MPD2    H7  485   0.222   2.974  14.553  1.7335 -3.2074 -0.9765
   32TCq2    C1  486   4.568   2.661  14.947 -0.0564 -0.3963  0.2927
   32TCq2    O2  487   4.497   2.723  14.864  0.6242  0.3835 -0.2290
   32TCq2    C2  488   4.504   2.608  15.065 -0.7788  0.0873  0.0179
   32TCq2    C3  489   4.370   2.582  15.058  0.5933 -0.0355 -0.5962
   32TCq2    C4  490   4.308   2.519  15.160 -0.0688 -0.6135 -0.6664
   32TCq2    C5  491   4.380   2.461  15.264 -0.3588 -0.2453 -0.0262
   32TCq2    C6  492   4.515   2.495  15.269 -0.0058 -0.2768 -0.4129
   32TCq2    C7  493   4.578   2.572  15.176  0.3500  0.4113 -0.4275
   32TCq2    C8  494   4.585   2.472  15.396 -0.0012 -0.1536 -0.5656
   32TCq2    O4  495   4.544   2.374  15.461 -0.0274  0.5888  0.0002
   32TCq2    C9  496   4.173   2.475  15.153 -0.4516  0.5397 -0.3634
   32TCq2    O5  497   4.133   2.400  15.245  0.1845  0.0736  0.4637
   32TCq2    O6  498   4.116   2.475  15.043 -0.1678 -0.5997  0.6790
   32TCq2    H2  499   4.315   2.605  14.967  1.9634  0.2927 -1.3571
   32TCq2    H3  500   4.330   2.400  15.338  0.0147  1.1942  1.4281
   32TCq2    H4  501   4.683   2.592  15.192  0.5808 -1.2684  0.1410
   33MPD2     C  502   0.517   0.655  10.255 -0.3837 -0.1529  0.4024
   33MPD2    C1  503   0.439   0.574  10.178 -0.4469  0.1800  0.3040
   33MPD2    C2  504   0.340   0.631  10.100 -0.0272  0.7360  0.2296
   33MPD2    C3  505   0.324   0.769  10.094  0.0541 -0.3888  0.5979
   33MPD2    C4  506   0.408   0.853  10.174 -0.1712  1.1481  0.4613
   33MPD2    C5  507   0.498   0.792  10.249  0.2923  0.1764  0.2514
   33MPD2     H  508   0.285   0.566  10.032 -0.0165 -0.4454  1.3618
   33MPD2    H1  509   0.402   0.961  10.172 -1.0952  1.1298  1.9372
   33MPD2    H2  510   0.575   0.612  10.336  0.2080 -0.1138  0.0003
   33MPD2    H3  511   0.562   0.857  10.308 -1.0677  0.3028  1.5759
   33MPD2     N  512   0.229   0.831  10.014 -0.5527  0.3788 -0.0297
   33MPD2    H5  513   0.241   0.931  10.008  0.5135  0.2696  0.3014
   33MPD2    N1  514   0.459   0.438  10.196  0.1867 -0.5395 -0.1457
   33MPD2    H7  515   0.539   0.419  10.255 -0.2151 -1.4917  0.0820
   34TCq2    C1  516   0.132   0.774   9.939 -0.8338 -0.4265  0.2092
   34TCq2    O2  517   0.087   0.665   9.943  0.1923 -0.1529  0.0566
   34TCq2    C2  518   0.073   0.863   9.840  0.6069 -0.3919  0.7056
   34TCq2    C3  519   4.682   0.819   9.776 -0.3671 -0.2385 -0.1514
   34TCq2    C4  520   4.642   0.886   9.666  0.6969  0.1876  0.5889
   34TCq2    C5  521   4.697   0.999   9.617 -0.7913 -0.0455  0.0570
   34TCq2    C6  522   0.088   1.046   9.682  0.0489 -0.6788 -0.0618
   34TCq2    C7  523   0.136   0.978   9.796 -0.2777 -0.3529  0.5891
   34TCq2    C8  524   0.165   1.152   9.626 -0.0717  0.1709 -0.2472
   34TCq2    O4  525   0.276   1.169   9.679  0.2492 -0.0029  0.2020
   34TCq2    C9  526   4.553   0.825   9.579 -0.1732  0.8542 -0.1784
   34TCq2    O5  527   4.494   0.887   9.485 -0.2932 -0.0266 -0.5148
   34TCq2    O6  528   4.542   0.701   9.601  0.7033 -0.1832 -0.3087
   34TCq2    H2  529   4.640   0.722   9.801 -2.4269  0.6259 -0.2008
   34TCq2    H3  530   4.658   1.037   9.524 -0.0063 -1.5116 -0.8700
   34TCq2    H4  531   0.218   1.015   9.857  0.1483  0.0778 -0.2408
   35MPD2     C  532   2.052   2.293  11.711  0.3857  0.8540  0.2477
   35MPD2    C1  533   2.036   2.183  11.793 -0.3661  0.0467  0.4428
   35MPD2    C2  534   1.981   2.064  11.743  0.0864  0.2164  0.4832
   35MPD2    C3  535   1.948   2.059  11.605 -0.2488  0.0212  0.2025
   35MPD2    C4  536   1.978   2.164  11.522 -0.5533 -0.1394 -0.0998
   35MPD2    C5  537   2.019   2.279  11.578  0.0578 -0.7675 -0.2666
   35MPD2     H  538   1.940   1.988  11.809  0.3977 -0.6778 -0.3358
   35MPD2    H1  539   1.962   2.166  11.415 -1.4184  1.6080  0.0542
   35MPD2    H2  540   2.097   2.385  11.746 -1.2544  2.2729 -1.4008
   35MPD2    H3  541   2.045   2.363  11.514  2.1387 -2.5235 -1.7527
   35MPD2     N  542   1.880   1.946  11.551  0.1052  0.3026  0.1337
   35MPD2    H5  543   1.829   1.885  11.613 -1.4657  0.4807 -1.0057
   35MPD2    N1  544   2.087   2.197  11.927  0.7052 -0.2703 -0.0829
   35MPD2    H7  545   2.100   2.291  11.964 -2.2966  0.6022 -1.2650
   36TCq2    C1  546   1.887   1.905  11.421  0.8621  0.3439 -0.0423
   36TCq2    O2  547   1.934   1.959  11.317 -0.1816 -0.2361  0.1028
   36TCq2    C2  548   1.818   1.773  11.395 -0.3668  0.1936  0.2968
   36TCq2    C3  549   1.806   1.753  11.256  0.2663  0.1366 -0.0102
   36TCq2    C4  550   1.705   1.678  11.213 -0.7434  0.6733 -0.5972
   36TCq2    C5  551   1.617   1.624  11.312 -0.0112  0.0835  0.5885
   36TCq2    C6  552   1.637   1.636  11.443 -0.2952  0.1628  0.4256
   36TCq2    C7  553   1.738   1.712  11.487  0.0140 -0.2049 -0.0858
   36TCq2    C8  554   1.544   1.569  11.526  0.1993 -0.1444  0.5620
   36TCq2    O4  555   1.434   1.547  11.480 -0.5152 -0.3394  0.4226
   36TCq2    C9  556   1.671   1.675  11.070  0.1428  0.6978  0.1253
   36TCq2    O5  557   1.548   1.690  11.037 -0.4238  0.1610 -0.1226
   36TCq2    O6  558   1.757   1.724  10.996 -0.2764 -0.5524  0.6884
   36TCq2    H2  559   1.869   1.806  11.186 -0.8820 -1.8544 -2.5541
   36TCq2    H3  560   1.525   1.575  11.280  0.2337  0.1611 -0.2173
   36TCq2    H4  561   1.753   1.734  11.592 -1.4213 -0.5309  0.1939
   37TMC2    C1  562   3.958   1.915  11.486 -1.1962  0.5836 -0.3697
   37TMC2    C2  563   3.926   1.935  11.356  0.2705  0.1925  0.1932
   37TMC2    C3  564   4.001   1.871  11.262  0.3459  0.3181  0.4368
   37TMC2    C4  565   4.064   1.834  11.528 -0.9012 -0.1330 -0.5733
   37TMC2    C5  566   4.144   1.788  11.428 -0.5544  0.9482 -0.0787
   37TMC2    C6  567   4.113   1.810  11.295 -0.7699  0.5758  0.2961
   37TMC2     C  568   3.858   1.951  11.586 -0.0904 -0.4929  0.0619
   37TMC2     O  569   3.784   2.047  11.561 -0.3912 -0.5815 -0.2736
   37TMC2     H  570   3.836   1.976  11.311  0.9796  1.3937 -0.1080
   37TMC2    H1  571   4.090   1.818  11.632 -0.7831  1.2769 -0.3867
   37TMC2    H2  572   4.170   1.777  11.208 -1.8836  1.8753 -0.9309
   37TMC2    C7  573   4.263   1.721  11.471 -0.0750  0.6620  0.2860
   37TMC2    C8  574   3.969   1.907  11.124 -0.0335 -0.2791  0.2652
   37TMC2    O1  575   4.257   1.637  11.561  0.0861 -0.0931 -0.3175
   37TMC2    O2  576   3.898   2.002  11.096  0.4811  0.7829 -0.2882
   37TMC2    O5  577   3.986   1.800  11.047 -0.2927  0.1320  0.6031
   37TMC2    H5  578   4.029   1.719  11.081 -0.4672  0.5107  1.7217
   38MPD2     C  579   3.613   1.879  12.049 -0.5800 -0.2122  0.3317
   38MPD2    C1  580   3.715   1.790  12.038 -0.6347  0.4448 -0.0034
   38MPD2    C2  581   3.794   1.787  11.919 -0.9753 -0.2515  0.3049
   38MPD2    C3  582   3.766   1.871  11.809 -0.4906  0.1243 -0.9634
   38MPD2    C4  583   3.663   1.960  11.823 -0.2783  0.3796 -0.6373
   38MPD2    C5  584   3.579   1.960  11.936  0.6533  0.0649  0.4999
   38MPD2     H  585   3.877   1.717  11.913 -1.7202 -1.2676  1.7781
   38MPD2    H1  586   3.631   2.035  11.752  1.3293  2.3310  0.7038
   38MPD2    H2  587   3.545   1.876  12.134 -0.4780 -0.2675  0.4103
   38MPD2    H3  588   3.492   2.023  11.941  0.1143 -0.7832  1.8310
   38MPD2     N  589   3.849   1.860  11.689 -0.5039 -0.8934 -0.2469
   38MPD2    H5  590   3.914   1.783  11.677  0.0099 -0.5579  0.3870
   38MPD2    N1  591   3.745   1.696  12.133 -0.7603 -0.3126 -0.2676
   38MPD2    H7  592   3.823   1.634  12.115  0.4068  0.7020  1.3781
   39MPD2     C  593   2.490   4.112   1.577  0.5126 -0.0018  0.3250
   39MPD2    C1  594   2.409   4.212   1.619  0.2867  0.8136  0.0963
   39MPD2    C2  595   2.276   4.211   1.592  0.8469 -0.1707  0.1160
   39MPD2    C3  596   2.217   4.105   1.525 -0.3781  0.3906 -0.2581
   39MPD2    C4  597   2.298   4.005   1.482 -0.0352 -0.0491 -0.4032
   39MPD2    C5  598   2.433   4.011   1.496 -1.1877  0.0196 -0.1601
   39MPD2     H  599   2.205   4.286   1.625  1.7274  0.9210 -0.4838
   39MPD2    H1  600   2.253   3.934   1.414 -1.8327 -0.3619  1.0860
   39MPD2    H2  601   2.595   4.112   1.604  0.7763 -0.2655 -0.7046
   39MPD2    H3  602   2.496   3.935   1.451 -1.2015  0.6569 -1.2349
   39MPD2     N  603   2.077   4.098   1.502  0.4709  0.3675 -0.1959
   39MPD2    H5  604   2.042   4.012   1.462 -1.3865  0.1574  1.8757
   39MPD2    N1  605   2.470   4.318   1.685 -0.5815  0.1886  0.1825
   39MPD2    H7  606   2.571   4.319   1.679 -0.5771 -2.7778 -0.2513
   40TCq2    C1  607   2.405   4.415   1.767  0.6192 -0.2654  0.7953
   40TCq2    O2  608   2.282   4.414   1.792  0.2928 -0.1713 -0.5954
   40TCq2    C2  609   2.493   4.516   1.818  0.0527 -0.5660  0.6303
   40TCq2    C3  610   2.457   4.580   1.931 -0.1363  0.0576 -0.8696
   40TCq2    C4  611   2.545   4.669   1.994  0.5140 -0.4655 -0.4137
   40TCq2    C5  612   2.669   4.682   1.945  0.7414  0.6465 -0.7212
   40TCq2    C6  613   2.705   4.612   1.830  0.5880 -0.0818 -0.1433
   40TCq2    C7  614   2.622   4.523   1.765  0.3878  0.5897  0.6325
   40TCq2    C8  615   2.839   4.629   1.777  0.6393  0.4688  0.4392
   40TCq2    O4  616   2.884   4.544   1.700 -0.0320  0.3236 -0.6271
   40TCq2    C9  617   2.504   4.717   2.129 -0.1499 -0.7828 -0.1034
   40TCq2    O5  618   2.390   4.687   2.170 -0.8165  0.1198  0.2996
   40TCq2    O6  619   2.596   0.033   2.204  0.0010 -0.4982  0.2805
   40TCq2    H2  620   2.362   4.558   1.977  0.3650 -2.4280 -0.9899
   40TCq2    H3  621   2.731   0.032   1.995  2.1853 -0.3740 -1.0311
   40TCq2    H4  622   2.641   4.496   1.662  0.4535 -0.2077  0.8567
   41TMC2    C1  623   1.390   2.083  13.745  0.2621  0.3152 -0.6856
   41TMC2    C2  624   1.331   2.209  13.758  0.0256  0.2654  0.5862
   41TMC2    C3  625   1.324   2.286  13.644  0.0257 -0.5786  0.3856
   41TMC2    C4  626   1.444   2.032  13.621  0.8316  0.3574 -0.2871
   41TMC2    C5  627   1.429   2.110  13.514 -0.3376  0.5650  0.7122
   41TMC2    C6  628   1.372   2.235  13.525 -0.1593 -0.0830 -0.4819
   41TMC2     C  629   1.337   1.985  13.835 -0.0956  0.3964  0.1880
   41TMC2     O  630   1.236   2.014  13.897  0.6550  0.6513 -0.4855
   41TMC2     H  631   1.300   2.244  13.855  1.1138  0.5058  0.8471
   41TMC2    H1  632   1.493   1.937  13.611 -1.6650 -0.9663  0.0052
   41TMC2    H2  633   1.363   2.302  13.440  0.9686  1.2921  0.4760
   41TMC2    C7  634   1.512   2.081  13.402  0.1694 -0.3954  1.1617
   41TMC2    C8  635   1.330   2.432  13.670  0.4287 -0.5042 -0.6615
   41TMC2    O1  636   1.617   2.026  13.424 -0.7823  0.0010  0.1570
   41TMC2    O2  637   1.264   2.491  13.752 -0.2830 -0.1518 -0.6607
   41TMC2    O5  638   1.456   2.463  13.637  0.0005 -0.0941  0.1143
   41TMC2    H5  639   1.513   2.393  13.598 -0.1767  0.6546 -1.4532
   42MPD2     C  640   1.486   1.665  13.899 -0.6613  0.6193 -1.0573
   42MPD2    C1  641   1.407   1.769  13.924  0.3172 -0.0606  0.6742
   42MPD2    C2  642   1.316   1.759  14.028 -0.4879  0.2659 -0.0881
   42MPD2    C3  643   1.301   1.639  14.096 -0.1657  0.1273  1.0404
   42MPD2    C4  644   1.370   1.532  14.058 -0.0974  0.1979  0.6619
   42MPD2    C5  645   1.471   1.548  13.971  0.6320  0.2943 -0.3997
   42MPD2     H  646   1.254   1.843  14.059  0.9578  1.0036  0.7706
   42MPD2    H1  647   1.365   1.437  14.109  0.5819 -0.6034 -0.7700
   42MPD2    H2  648   1.572   1.670  13.833 -0.1912  2.1734 -0.3295
   42MPD2    H3  649   1.546   1.470  13.961 -0.1015 -0.7895  2.3891
   42MPD2     N  650   1.206   1.612  14.195 -0.2028 -0.9931 -0.3021
   42MPD2    H5  651   1.205   1.515  14.226 -2.3632  0.4673  4.2009
   42MPD2    N1  652   1.425   1.889  13.847  0.3775  0.5567  0.5153
   42MPD2    H7  653   1.501   1.879  13.780 -1.0403 -2.0542 -0.7161
   43MPD2     C  654   2.289   0.592   0.429 -0.3865  0.1907  0.8014
   43MPD2    C1  655   2.391   0.588   0.518 -0.0296 -0.2332 -1.1990
   43MPD2    C2  656   2.367   0.596   0.653  0.0180 -0.1942  0.1205
   43MPD2    C3  657   2.243   0.618   0.700  0.2043  0.3238  0.6370
   43MPD2    C4  658   2.142   0.625   0.610 -0.3475 -1.0752  0.1815
   43MPD2    C5  659   2.164   0.608   0.476  0.2423  0.3912  0.7540
   43MPD2     H  660   2.449   0.602   0.723 -1.0121  0.6794  1.2461
   43MPD2    H1  661   2.040   0.628   0.648 -0.0493 -5.3950  1.3270
   43MPD2    H2  662   2.311   0.599   0.323 -1.1008  1.1372  0.7211
   43MPD2    H3  663   2.083   0.607   0.403  1.1435 -0.1634 -0.2455
   43MPD2     N  664   2.216   0.634   0.837  0.8547  0.0164 -0.7147
   43MPD2    H5  665   2.121   0.662   0.861  1.3119 -1.4017  2.8088
   43MPD2    N1  666   2.525   0.585   0.484 -0.5924 -0.6507 -0.0465
   43MPD2    H7  667   2.590   0.592   0.562  0.9400  1.2412 -1.4600
   44TCq2    C1  668   2.359   0.573   1.403 -0.7490 -0.0051 -0.7103
   44TCq2    O2  669   2.441   0.487   1.368  0.6388  0.4006  0.7956
   44TCq2    C2  670   2.264   0.613   1.305  0.3013  0.0637 -0.2531
   44TCq2    C3  671   2.197   0.725   1.329  0.3609  0.2958  0.2417
   44TCq2    C4  672   2.150   0.795   1.219  0.5125  1.0119  0.1041
   44TCq2    C5  673   2.187   0.765   1.087  0.0008  0.5044  0.5694
   44TCq2    C6  674   2.238   0.636   1.072  0.2705 -0.4576 -0.2778
   44TCq2    C7  675   2.287   0.567   1.181 -0.3222 -1.0029  0.6161
   44TCq2    C8  676   2.297   0.602   0.949 -0.3549 -0.2635  0.8152
   44TCq2    O4  677   2.393   0.520   0.947  0.2470  0.8094  0.0900
   44TCq2    C9  678   2.077   0.918   1.252 -0.1375  0.2791 -0.3933
   44TCq2    O5  679   2.051   0.991   1.155 -0.2138  0.3080  0.0735
   44TCq2    O6  680   2.060   0.946   1.372  0.2364  0.5416  0.0375
   44TCq2    H2  681   2.177   0.768   1.427  1.0356  0.5008  0.2886
   44TCq2    H3  682   2.171   0.837   1.007  0.4037  1.4766  1.3682
   44TCq2    H4  683   2.335   0.471   1.169  1.5102 -0.0326  0.1318
   45TMC2    C1  684   2.970   2.177   9.606  0.0042  0.0492 -0.3284
   45TMC2    C2  685   3.078   2.169   9.691  0.9853 -0.9661  0.6457
   45TMC2    C3  686   3.161   2.283   9.702 -0.7528 -0.7252 -0.3206
   45TMC2    C4  687   2.949   2.290   9.527 -0.5860 -0.7554  0.7386
   45TMC2    C5  688   3.034   2.395   9.544  0.0117 -0.6015  0.3763
   45TMC2    C6  689   3.144   2.395   9.626  0.7798 -0.7132  0.3919
   45TMC2     C  690   2.864   2.076   9.633  0.2994 -0.5724  0.4073
   45TMC2     O  691   2.897   1.969   9.682  0.0520  0.7802  0.1668
   45TMC2     H  692   3.087   2.088   9.762 -2.2091 -0.5878  1.4567
   45TMC2    H1  693   2.868   2.300   9.455  0.2132  1.5263  0.1355
   45TMC2    H2  694   3.228   2.463   9.621  0.6855 -0.5645  0.7693
   45TMC2    C7  695   2.998   2.525   9.491 -0.0100 -0.1059 -0.5028
   45TMC2    C8  696   3.279   2.273   9.782 -0.4686 -0.3062 -0.1327
   45TMC2    O1  697   2.900   2.533   9.417  0.1007 -0.2945 -0.6277
   45TMC2    O2  698   3.332   2.372   9.825 -0.4600 -0.2257  0.1470
   45TMC2    O5  699   3.340   2.157   9.754  0.1266 -0.3077 -0.0209
   45TMC2    H5  700   3.279   2.081   9.745 -1.0814  0.6139  0.3788
   46MPD2     C  701   2.646   1.888   9.631  0.4370 -0.2006  0.7009
   46MPD2    C1  702   2.631   2.027   9.615 -0.9053  0.2292 -0.5829
   46MPD2    C2  703   2.506   2.083   9.619  0.4130  0.0728  0.2017
   46MPD2    C3  704   2.400   2.002   9.637 -0.4175 -0.1160 -0.1687
   46MPD2    C4  705   2.418   1.863   9.650  0.0357  0.1367  0.2302
   46MPD2    C5  706   2.546   1.800   9.647 -0.0111  0.4417 -0.4740
   46MPD2     H  707   2.488   2.188   9.601 -0.2538 -0.7400 -3.7873
   46MPD2    H1  708   2.337   1.794   9.671  0.4064 -0.9144 -1.8175
   46MPD2    H2  709   2.743   1.841   9.622  0.1202 -0.1021 -3.1679
   46MPD2    H3  710   2.567   1.695   9.663  0.3437  0.5231 -0.4158
   46MPD2     N  711   2.275   2.059   9.651  0.3980  0.0962 -0.6746
   46MPD2    H5  712   2.274   2.159   9.629  1.9463  0.5938  1.5324
   46MPD2    N1  713   2.741   2.112   9.602  0.0691  0.0584 -0.2812
   46MPD2    H7  714   2.724   2.210   9.579 -1.8107  0.0069  0.9581
   47TMC2    C1  715   0.878   3.323   9.145  0.4396 -0.7110 -0.2923
   47TMC2    C2  716   0.893   3.296   9.017  0.4221 -0.5680  0.1145
   47TMC2    C3  717   0.790   3.319   8.937  0.1846  0.0579 -0.3099
   47TMC2    C4  718   0.765   3.383   9.195  0.2740 -0.1957 -0.2532
   47TMC2    C5  719   0.664   3.414   9.111  0.3376 -0.5990  0.1174
   47TMC2    C6  720   0.673   3.379   8.979  0.0822  0.6349  0.0493
   47TMC2     C  721   0.968   3.262   9.237  0.4284  0.3160  0.0133
   47TMC2     O  722   1.016   3.154   9.207 -0.2844 -0.0880  0.0558
   47TMC2     H  723   0.985   3.253   8.979  0.2342 -0.0840 -0.8939
   47TMC2    H1  724   0.753   3.393   9.302  1.2647  0.6749 -0.2275
   47TMC2    H2  725   0.600   3.410   8.904  0.8108  1.3474 -0.3718
   47TMC2    C7  726   0.528   3.459   9.154 -0.4428 -0.0453 -0.3279
   47TMC2    C8  727   0.821   3.332   8.803 -1.0630 -0.6438 -0.6648
   47TMC2    O1  728   0.436   3.453   9.074  0.4889 -0.0526 -0.1128
   47TMC2    O2  729   0.770   3.413   8.729 -0.5111  0.4104 -0.3387
   47TMC2    O5  730   0.886   3.225   8.760 -0.1101  0.5514 -0.6738
   47TMC2    H5  731   0.909   3.163   8.832  0.4102  0.9813 -0.4671
   48MPD2     C  732   1.172   3.423   9.514  1.2614  0.5712 -0.1269
   48MPD2    C1  733   1.107   3.317   9.442 -0.3676  0.3482  0.1718
   48MPD2    C2  734   1.133   3.189   9.474  0.2493 -0.0914  0.6174
   48MPD2    C3  735   1.221   3.154   9.572 -0.1228 -0.3591  0.3440
   48MPD2    C4  736   1.287   3.252   9.640  0.4320  0.1222 -0.1384
   48MPD2    C5  737   1.265   3.385   9.607 -0.7840 -0.4062 -0.4140
   48MPD2     H  738   1.080   3.106   9.427 -2.7028  1.6764  0.8346
   48MPD2    H1  739   1.365   3.237   9.713  1.0444  1.5136 -0.5138
   48MPD2    H2  740   1.150   3.527   9.493  0.3209  0.4434  0.2269
   48MPD2    H3  741   1.317   3.468   9.653 -0.6461 -0.5537 -0.3045
   48MPD2     N  742   1.209   3.015   9.618  0.0080 -0.0224 -0.6190
   48MPD2    H5  743   1.159   2.951   9.557  1.6986 -1.3831 -0.5725
   48MPD2    N1  744   1.016   3.351   9.336 -0.1472 -0.3332  0.1232
   48MPD2    H7  745   0.990   3.447   9.320  0.3709 -0.1078  0.6463
   49MPD2     C  746   3.679   4.469   9.800 -0.1155  0.6572  0.6355
   49MPD2    C1  747   3.702   4.446   9.935 -0.3024 -0.8223 -0.3712
   49MPD2    C2  748   3.700   4.554  10.024  0.3372  0.7714  0.2318
   49MPD2    C3  749   3.655   4.676   9.982  0.9833 -0.2103  0.0866
   49MPD2    C4  750   3.622   4.698   9.850 -0.4583 -0.4986  0.3714
   49MPD2    C5  751   3.633   4.591   9.763 -0.0913  0.3077 -0.4113
   49MPD2     H  752   3.742   4.537  10.123 -0.7371  0.3956  0.6240
   49MPD2    H1  753   3.589   0.071   9.811  0.6887 -0.0364  0.5169
   49MPD2    H2  754   3.680   4.395   9.720 -0.1247  0.6862  0.6086
   49MPD2    H3  755   3.601   4.613   9.662 -2.2634 -1.8170 -0.1858
   49MPD2     N  756   3.642   0.066  10.070  0.0526  0.1996 -0.0151
   49MPD2    H5  757   3.592   0.143  10.028 -2.9460 -1.2127  0.9635
   49MPD2    N1  758   3.754   4.321   9.974  0.2274 -0.1593  0.9751
   49MPD2    H7  759   3.814   4.322  10.056  3.4361 -0.7256 -1.4121
   50TCq2    C1  760   3.728   4.193   9.921 -0.7988  0.0644  0.1132
   50TCq2    O2  761   3.652   4.166   9.831  0.3212 -0.3559 -0.3613
   50TCq2    C2  762   3.788   4.084   9.985  0.2742 -0.8874  0.2446
   50TCq2    C3  763   3.794   3.961   9.929 -0.1798 -0.3640  0.7240
   50TCq2    C4  764   3.836   3.857  10.008 -0.6130 -0.0986  0.5928
   50TCq2    C5  765   3.857   3.869  10.142 -0.5986  0.0319  0.1501
   50TCq2    C6  766   3.843   3.994  10.200 -0.2050 -0.1304  0.0500
   50TCq2    C7  767   3.817   4.103  10.122  0.3851  0.2781  0.6825
   50TCq2    C8  768   3.878   4.023  10.338 -0.4655  0.0840  0.0132
   50TCq2    O4  769   3.879   4.135  10.372  0.3131 -0.5037  0.4630
   50TCq2    C9  770   3.842   3.725   9.960  0.9447  0.1624  0.5862
   50TCq2    O5  771   3.851   3.694   9.835  0.1052 -0.1835 -0.1559
   50TCq2    O6  772   3.832   3.638  10.051  0.0828 -0.0116  0.5026
   50TCq2    H2  773   3.759   3.948   9.828  1.4654 -0.1113  0.1155
   50TCq2    H3  774   3.898   3.784  10.194 -0.4967  1.1393  1.8995
   50TCq2    H4  775   3.780   4.190  10.175 -0.7821  0.8220 -1.0169
   51MPD2     C  776   3.473   4.019   0.639 -0.0010 -0.2394  0.1619
   51MPD2    C1  777   3.510   3.889   0.654  0.1233  0.3020 -0.7249
   51MPD2    C2  778   3.625   3.868   0.723 -0.3797 -0.3831  0.5977
   51MPD2    C3  779   3.686   3.976   0.780  0.2832 -0.4635 -1.0913
   51MPD2    C4  780   3.657   4.107   0.741 -0.9073  0.2895 -0.1039
   51MPD2    C5  781   3.544   4.127   0.670 -0.3039 -0.2884  0.1815
   51MPD2     H  782   3.647   3.764   0.742 -1.6987 -0.6654  0.5634
   51MPD2    H1  783   3.714   4.197   0.761 -0.2883  0.1985 -1.4710
   51MPD2    H2  784   3.392   4.047   0.572 -0.0286 -1.1037 -0.1581
   51MPD2    H3  785   3.518   4.227   0.637 -3.0468 -0.8118  0.8022
   51MPD2     N  786   3.785   3.934   0.871  0.1202  0.3033  0.0455
   51MPD2    H5  787   3.796   3.833   0.870 -0.6451  0.2584 -2.4054
   51MPD2    N1  788   3.456   3.783   0.578 -0.1437  0.6666 -0.8704
   51MPD2    H7  789   3.499   3.691   0.584  0.4097  0.8619 -1.7156
   52TCq2    C1  790   3.848   4.018   0.953  0.3549 -0.0162  0.0635
   52TCq2    O2  791   3.825   4.138   0.960  0.1477 -0.2842  0.1718
   52TCq2    C2  792   3.958   3.967   1.031 -0.8743  0.2267 -0.3548
   52TCq2    C3  793   3.968   3.833   1.040 -0.1385  0.3250 -1.5448
   52TCq2    C4  794   4.054   3.778   1.130  0.2549 -0.4218  0.9917
   52TCq2    C5  795   4.134   3.862   1.206  0.9912  0.1614  0.7320
   52TCq2    C6  796   4.118   3.999   1.199  0.7809 -0.7194 -0.0481
   52TCq2    C7  797   4.031   4.056   1.112  0.4755 -0.1555 -0.3330
   52TCq2    C8  798   4.175   4.083   1.299 -0.0192 -0.0279 -0.8129
   52TCq2    O4  799   4.149   4.199   1.287  0.1701  0.5349 -0.8101
   52TCq2    C9  800   4.070   3.636   1.137  0.5734 -1.6459 -0.1469
   52TCq2    O5  801   4.018   3.571   1.042  0.6928 -0.9054  0.2191
   52TCq2    O6  802   4.130   3.586   1.240 -0.1697  0.2325 -0.7875
   52TCq2    H2  803   3.913   3.764   0.977  1.3892 -1.4577 -0.9401
   52TCq2    H3  804   4.202   3.815   1.275 -1.1158 -1.2205  1.8655
   52TCq2    H4  805   4.008   4.162   1.116  1.9350  0.1035  0.8376
   53TMC2    C1  806   0.154   1.602  11.909 -0.0511  0.4410 -0.6893
   53TMC2    C2  807   0.270   1.642  11.962  0.2494 -0.0062  0.2072
   53TMC2    C3  808   0.276   1.644  12.100 -0.4469  0.3225  0.0044
   53TMC2    C4  809   0.042   1.575  11.993  0.5785  0.0463  0.4955
   53TMC2    C5  810   0.056   1.580  12.133  0.4980 -0.3783 -0.3622
   53TMC2    C6  811   0.175   1.621  12.185 -0.4402  1.0113  0.8548
   53TMC2     C  812   0.137   1.618  11.771 -0.2592  0.1191  0.0254
   53TMC2     O  813   0.240   1.617  11.703  0.3897 -0.3500 -0.7245
   53TMC2     H  814   0.353   1.665  11.895 -0.5544  1.4446 -0.2826
   53TMC2    H1  815   4.671   1.543  11.949  1.0071 -0.2805 -0.1891
   53TMC2    H2  816   0.204   1.623  12.289  2.1265  1.8009  0.1322
   53TMC2    C7  817   4.659   1.604  12.202 -0.6288 -0.6392 -0.0681
   53TMC2    C8  818   0.410   1.671  12.159 -0.2219  0.5074  0.7502
   53TMC2    O1  819   4.560   1.605  12.133  0.4221  1.0358  0.0165
   53TMC2    O2  820   0.454   1.782  12.158  0.2823  0.0434 -0.2996
   53TMC2    O5  821   0.488   1.566  12.127 -0.1504  0.5343 -0.0289
   53TMC2    H5  822   0.440   1.481  12.123 -0.5328  0.7581 -0.1823
   54MPD2     C  823   0.057   1.731  11.500  0.1644 -0.3117  0.1044
   54MPD2    C1  824   4.693   1.680  11.592  0.3929  0.4222  0.3520
   54MPD2    C2  825   4.558   1.682  11.554 -0.4300 -0.3053  0.2271
   54MPD2    C3  826   4.511   1.734  11.434  0.0202  0.2115 -0.5423
   54MPD2    C4  827   4.610   1.785  11.345  0.6493  0.3125  0.0227
   54MPD2    C5  828   0.015   1.782  11.381  0.1213  0.1817 -0.2192
   54MPD2     H  829   4.484   1.655  11.630 -1.0672  0.4906 -0.1119
   54MPD2    H1  830   4.579   1.826  11.249 -2.3070 -2.9468 -0.4034
   54MPD2    H2  831   0.163   1.738  11.523 -0.1453  2.6031  0.6726
   54MPD2    H3  832   0.088   1.810  11.306  0.0869  1.1668  0.1194
   54MPD2     N  833   4.375   1.757  11.396 -0.1228 -0.0921 -0.4039
   54MPD2    H5  834   4.355   1.807  11.310  1.0868 -0.6694 -1.0236
   54MPD2    N1  835   0.003   1.628  11.723 -0.3245 -0.2853  0.2891
   54MPD2    H7  836   4.652   1.622  11.793  0.2048  0.4276  0.9077
   55MPD2     C  837   0.500   4.615   0.427 -0.3980 -0.6259 -0.3636
   55MPD2    C1  838   0.452   4.504   0.498  0.1566  0.2186  0.3223
   55MPD2    C2  839   0.328   4.519   0.562 -0.2411 -0.5575 -0.5726
   55MPD2    C3  840   0.263   4.636   0.561 -0.6112  0.0416 -0.2953
   55MPD2    C4  841   0.329   0.024   0.517  0.8527 -0.1280 -0.0422
   55MPD2    C5  842   0.448   0.021   0.458 -0.2859 -0.6100  0.5308
   55MPD2     H  843   0.278   4.441   0.619  0.8758  0.8743  2.3352
   55MPD2    H1  844   0.287   0.123   0.534 -0.1044 -0.4327 -0.6861
   55MPD2    H2  845   0.593   4.608   0.371 -1.2088  0.7755 -1.8642
   55MPD2    H3  846   0.494   0.113   0.423  2.3210 -0.6108  3.9651
   55MPD2     N  847   0.130   4.643   0.620  0.0358  0.1431 -0.6840
   55MPD2    H5  848   0.098   4.574   0.688 -0.2758  1.0400  0.0821
   55MPD2    N1  849   0.516   4.379   0.485  0.5038 -0.1144 -0.2623
   55MPD2    H7  850   0.599   4.370   0.427  0.9906 -0.2982  0.4679
   56TCq2    C1  851   0.484   4.264   0.549  0.1567  0.2011  0.5040
   56TCq2    O2  852   0.404   4.238   0.638  0.3994 -0.7212  0.0751
   56TCq2    C2  853   0.558   4.153   0.505 -0.6697  0.3016  0.2117
   56TCq2    C3  854   0.560   4.117   0.366 -0.7425  0.0555  0.3244
   56TCq2    C4  855   0.599   3.991   0.327 -0.0449 -0.3007  0.0510
   56TCq2    C5  856   0.629   3.899   0.430  0.0821  0.4569  1.4336
   56TCq2    C6  857   0.609   3.937   0.558 -0.2130  0.2642 -0.8360
   56TCq2    C7  858   0.569   4.056   0.601 -0.0408  0.7392 -0.8779
   56TCq2    C8  859   0.590   3.821   0.652 -0.1437  0.0439 -0.2738
   56TCq2    O4  860   0.670   3.733   0.649  0.2051 -0.4494  0.3068
   56TCq2    C9  861   0.600   3.944   0.193 -0.0196 -0.0264 -0.4301
   56TCq2    O5  862   0.543   4.020   0.109 -0.1042  0.5945  0.2681
   56TCq2    O6  863   0.675   3.846   0.166  0.6293  0.0300 -0.3925
   56TCq2    H2  864   0.541   4.190   0.288 -0.3214  0.6170  0.7423
   56TCq2    H3  865   0.642   3.795   0.403  0.1432  0.7136  0.4591
   56TCq2    H4  866   0.556   4.091   0.702 -1.7010 -1.0881 -0.4758
   57TMC2    C1  867   4.408   0.929  13.692  0.1619  0.3361 -0.2842
   57TMC2    C2  868   4.486   0.907  13.805 -0.0882 -0.1173 -0.3137
   57TMC2    C3  869   4.614   0.856  13.792 -0.5252 -0.7254 -0.7393
   57TMC2    C4  870   4.465   0.907  13.569  0.2535  0.1131  0.0779
   57TMC2    C5  871   4.581   0.837  13.556  0.0471 -0.1427  0.5319
   57TMC2    C6  872   4.656   0.816  13.669 -0.5844  0.3322 -0.2142
   57TMC2     C  873   4.270   0.978  13.708  0.3688  0.4982 -0.0661
   57TMC2     O  874   4.253   1.049  13.807  0.5310 -0.1489 -0.2566
   57TMC2     H  875   4.442   0.919  13.904  1.7847  0.5393  0.4508
   57TMC2    H1  876   4.402   0.928  13.483 -1.5057 -2.4705  0.7333
   57TMC2    H2  877   0.031   0.771  13.660 -0.1066  1.8078 -2.4825
   57TMC2    C7  878   4.656   0.858  13.435 -0.9402 -0.1319 -0.7250
   57TMC2    C8  879   4.691   0.797  13.896 -0.0522 -0.5657 -0.7973
   57TMC2    O1  880   4.633   0.961  13.375 -0.4126  0.4160  0.5572
   57TMC2    O2  881   0.001   0.681  13.885  0.0662  0.3825  0.1452
   57TMC2    O5  882   4.663   0.845  14.013 -0.0238 -0.7411 -0.1712
   57TMC2    H5  883   4.616   0.931  14.016  3.0323  0.9258  0.0970
   58MPD2     C  884   3.786   0.921  13.563  0.0507 -0.2696 -0.1183
   58MPD2    C1  885   3.836   0.989  13.677  0.6743 -0.1274  0.5446
   58MPD2    C2  886   3.972   0.983  13.705 -0.0143  0.4495  0.2054
   58MPD2    C3  887   4.046   0.917  13.610  0.3739 -0.1110  0.0620
   58MPD2    C4  888   4.000   0.855  13.498  0.0807  0.6054 -0.1125
   58MPD2    C5  889   3.864   0.854  13.470  0.4211 -0.5011  0.6872
   58MPD2     H  890   4.007   1.038  13.791  0.1684  2.2532 -1.0215
   58MPD2    H1  891   4.072   0.812  13.430  0.2979  0.1049  0.4324
   58MPD2    H2  892   3.680   0.921  13.542  0.2484  1.0641 -1.1126
   58MPD2    H3  893   3.823   0.824  13.374  1.0089 -0.5143  0.4355
   58MPD2     N  894   4.184   0.916  13.619 -0.3929 -0.1256  0.1781
   58MPD2    H5  895   4.226   0.852  13.552 -0.1160  0.4815 -0.2281
   58MPD2    N1  896   3.754   1.040  13.784 -0.2112 -0.6705 -0.1197
   58MPD2    H7  897   3.806   1.070  13.865 -2.2037  3.1168 -0.2885
   59MPD2     C  898   1.805   1.168  12.790 -0.1205  0.6594 -0.1591
   59MPD2    C1  899   1.893   1.110  12.705  0.5992 -0.4062 -0.2021
   59MPD2    C2  900   2.009   1.062  12.752 -0.1102 -0.1311  0.0870
   59MPD2    C3  901   2.045   1.085  12.883 -0.4467 -0.0501 -0.9379
   59MPD2    C4  902   1.950   1.126  12.969 -0.0507 -0.1254  0.1162
   59MPD2    C5  903   1.826   1.167  12.928  0.6380  0.0354 -0.6172
   59MPD2     H  904   2.076   1.012  12.684 -1.6220 -0.7403 -0.9584
   59MPD2    H1  905   1.969   1.132  13.076 -0.2981 -1.4374  0.2354
   59MPD2    H2  906   1.715   1.215  12.753 -0.8468  0.8601  1.8552
   59MPD2    H3  907   1.756   1.215  12.996  1.1402  2.4446 -1.7998
   59MPD2     N  908   2.165   1.040  12.935 -0.6147  0.1252 -0.5227
   59MPD2    H5  909   2.193   1.077  13.025 -0.9216 -0.2596 -0.2688
   59MPD2    N1  910   1.869   1.095  12.569  0.2480  0.4052  0.0417
   59MPD2    H7  911   1.949   1.068  12.512  0.9891  0.5671  0.9927
   60TCq2    C1  912   1.752   1.128  12.508 -0.1701 -0.2255  0.0204
   60TCq2    O2  913   1.640   1.157  12.555 -0.1109  0.1950  0.0897
   60TCq2    C2  914   1.756   1.111  12.359  0.0589 -0.3612  0.4511
   60TCq2    C3  915   1.637   1.092  12.296 -0.5490 -0.1754  0.4110
   60TCq2    C4  916   1.652   1.058  12.161  0.1472 -0.0618  0.0871
   60TCq2    C5  917   1.764   1.085  12.084  0.0771 -0.2664  0.2638
   60TCq2    C6  918   1.878   1.125  12.150 -0.6211 -0.7347  0.4822
   60TCq2    C7  919   1.875   1.132  12.292  0.7076  0.3612  0.2253
   60TCq2    C8  920   1.991   1.183  12.087 -0.6157  0.1791 -0.3299
   60TCq2    O4  921   2.024   1.149  11.974  0.0268 -0.2530 -0.2508
   60TCq2    C9  922   1.543   0.995  12.087  0.6470  0.8506 -0.4915
   60TCq2    O5  923   1.583   0.947  11.979 -0.4957  0.4517 -0.0373
   60TCq2    O6  924   1.432   0.977  12.151 -0.1818 -0.1696 -0.3460
   60TCq2    H2  925   1.551   1.058  12.352 -2.1874  2.5202 -0.4689
   60TCq2    H3  926   1.773   1.054  11.980 -0.7909  1.2963 -0.2637
   60TCq2    H4  927   1.968   1.138  12.348 -0.9755  3.0959  2.6889
   61MPD2     C  928   1.176   2.104  14.366  0.1393  1.3389 -0.7458
   61MPD2    C1  929   1.221   2.184  14.470  0.4445 -0.3647  0.3503
   61MPD2    C2  930   1.187   2.318  14.469 -0.3754  0.1421  0.6204
   61MPD2    C3  931   1.087   2.366  14.387  0.1164  0.5931 -1.1356
   61MPD2    C4  932   1.028   2.281  14.299  0.5157  0.9440  0.2224
   61MPD2    C5  933   1.076   2.152  14.290 -0.0149  0.1958 -0.0287
   61MPD2     H  934   1.229   2.384  14.544 -0.4722  1.9870 -0.9220
   61MPD2    H1  935   0.941   2.309  14.240  0.7396  1.3271  0.0696
   61MPD2    H2  936   1.208   2.001  14.351 -0.6345  1.3736 -2.6211
   61MPD2    H3  937   1.031   2.078  14.226  1.4945 -2.4189  1.9348
   61MPD2     N  938   1.037   2.500  14.402  0.4388  0.2184  0.4052
   61MPD2    H5  939   0.940   2.511  14.375  1.3442  4.0690 -1.3453
   61MPD2    N1  940   1.309   2.141  14.568 -0.7110  0.3555 -0.1584
   61MPD2    H7  941   1.344   2.215  14.628 -0.2803  0.9420 -1.1443
   62TCq2    C1  942   1.359   2.012  14.579  1.2218  0.0706  0.0282
   62TCq2    O2  943   1.337   1.912  14.508 -0.2363 -0.0727  0.0836
   62TCq2    C2  944   1.435   2.001  14.706 -0.4692  0.4994 -0.1808
   62TCq2    C3  945   1.521   1.895  14.729  0.3376 -0.2441  0.3393
   62TCq2    C4  946   1.601   1.902  14.840 -0.0247  0.3235  0.7154
   62TCq2    C5  947   1.585   1.997  14.934  0.1685  0.5613 -0.0680
   62TCq2    C6  948   1.488   2.088  14.915 -0.3491 -0.0033  0.6047
   62TCq2    C7  949   1.410   2.092  14.808  0.5725  0.2067 -0.3322
   62TCq2    C8  950   1.442   2.174  15.028  0.7508  0.0207  0.1151
   62TCq2    O4  951   1.346   2.248  15.005 -0.3988  0.2296  0.4320
   62TCq2    C9  952   1.695   1.798  14.865  0.0972 -0.3422 -0.3914
   62TCq2    O5  953   1.767   1.810  14.964  0.8839  0.3169 -0.3269
   62TCq2    O6  954   1.697   1.700  14.784 -0.1099 -0.3691 -0.0482
   62TCq2    H2  955   1.557   1.827  14.652 -1.8732 -1.3251  0.2522
   62TCq2    H3  956   1.646   1.979  15.023  0.5778  0.2041 -0.4174
   62TCq2    H4  957   1.327   2.163  14.810  0.5336  0.1109  1.4031
   63TMC2    C1  958   0.616   2.433  10.135 -0.2873 -0.0850  0.1171
   63TMC2    C2  959   0.526   2.492  10.053 -0.4640  0.2445 -0.4944
   63TMC2    C3  960   0.517   2.630  10.068 -0.0772 -0.7379  0.2318
   63TMC2    C4  961   0.708   2.506  10.203 -0.0090  0.7256  0.4446
   63TMC2    C5  962   0.690   2.635  10.220  0.2917  0.4185  0.1591
   63TMC2    C6  963   0.593   2.708  10.155  0.6392  0.4408  0.0955
   63TMC2     C  964   0.627   2.292  10.118 -0.7018 -0.2799 -0.3952
   63TMC2     O  965   0.561   2.231  10.036 -0.2731  0.2876 -0.6781
   63TMC2     H  966   0.460   2.432   9.991  0.6497 -2.0500  0.5731
   63TMC2    H1  967   0.802   2.466  10.238 -0.3745  0.8789  1.6100
   63TMC2    H2  968   0.576   2.815  10.166 -1.5715  0.0490  0.3761
   63TMC2    C7  969   0.800   2.725  10.243 -0.0355 -0.5809  0.0674
   63TMC2    C8  970   0.429   2.694   9.974  0.2272 -0.3693 -0.1906
   63TMC2    O1  971   0.915   2.685  10.217  0.4701 -0.3970 -0.3340
   63TMC2    O2  972   0.414   2.657   9.861 -0.6223  0.0602 -0.5232
   63TMC2    O5  973   0.346   2.775  10.040 -0.1287  0.3994 -0.5478
   63TMC2    H5  974   0.350   2.757  10.136  1.5809  1.3442 -0.4523
   64MPD2     C  975   0.838   1.845  10.239  0.5058 -1.1369 -0.1909
   64MPD2    C1  976   0.855   1.937  10.340 -0.9292 -0.3725 -0.1157
   64MPD2    C2  977   0.799   2.067  10.336  0.3391 -0.2424  0.7403
   64MPD2    C3  978   0.736   2.106  10.222  0.2171  0.7119  1.2518
   64MPD2    C4  979   0.721   2.018  10.119 -0.3453  0.5164 -0.3933
   64MPD2    C5  980   0.768   1.890  10.133 -0.2482 -0.1340 -0.6087
   64MPD2     H  981   0.808   2.140  10.416 -0.4635  0.4250  0.2189
   64MPD2    H1  982   0.678   2.038  10.021 -1.4817  1.8643  0.3837
   64MPD2    H2  983   0.882   1.747  10.231 -4.0441 -3.2434  0.7350
   64MPD2    H3  984   0.752   1.827  10.047 -0.0783 -0.8310 -0.1275
   64MPD2     N  985   0.706   2.238  10.213 -0.1028 -0.0961 -0.0366
   64MPD2    H5  986   0.736   2.297  10.289  2.9691  0.8978 -2.0228
   64MPD2    N1  987   0.935   1.896  10.450  0.1013 -0.3877 -0.3935
   64MPD2    H7  988   0.940   1.960  10.529  0.0733 -1.4143  0.4286
   65MPD2     C  989   1.936   1.768  15.867  0.4324 -0.1004 -0.0832
   65MPD2    C1  990   1.967   1.745  15.735 -0.1132 -0.4182 -0.7456
   65MPD2    C2  991   2.007   1.616  15.693 -0.1639 -0.3243  0.0576
   65MPD2    C3  992   2.021   1.516  15.787  0.0305  0.2375  0.3899
   65MPD2    C4  993   1.987   1.537  15.917  0.0052 -0.5454  0.0380
   65MPD2    C5  994   1.941   1.658  15.961 -0.1116  0.0988 -0.1924
   65MPD2     H  995   2.031   1.604  15.588 -0.0472  1.4447 -0.1264
   65MPD2    H1  996   1.983   1.459  15.993  1.8858 -0.8508 -0.1642
   65MPD2    H2  997   1.903   1.865  15.903 -2.2806 -0.9203 -0.3964
   65MPD2    H3  998   1.913   1.675  16.064 -1.0657  0.0179 -0.4350
   65MPD2     N  999   2.047   1.385  15.749  0.0466  0.0999 -0.1479
   65MPD2    H5 1000   2.033   1.310  15.815  3.1231  0.3876  0.8091
   65MPD2    N1 1001   1.986   1.848  15.644  0.2231 -0.1305  0.5098
   65MPD2    H7 1002   2.024   1.826  15.553 -0.7072  1.0558 -0.1559
   66TCq2    C1 1003   1.936   1.974  15.659 -0.2316 -0.7909  0.2076
   66TCq2    O2 1004   1.887   2.031  15.756  0.4018 -0.5793  0.2688
   66TCq2    C2 1005   1.940   2.048  15.535 -0.8588  0.4889 -0.7881
   66TCq2    C3 1006   1.938   1.981  15.413 -0.1559 -0.0206 -0.1233
   66TCq2    C4 1007   1.952   2.049  15.299 -0.0846 -0.7466  0.0480
   66TCq2    C5 1008   1.962   2.183  15.303  0.4939  0.2432 -0.0230
   66TCq2    C6 1009   1.972   2.248  15.424  0.9341  0.2420 -0.0439
   66TCq2    C7 1010   1.963   2.184  15.543  0.2832  0.5720 -0.2278
   66TCq2    C8 1011   1.948   2.391  15.418 -0.7200  0.3009  0.1404
   66TCq2    O4 1012   1.928   2.440  15.307 -0.1436 -0.0575  0.1322
   66TCq2    C9 1013   1.928   1.983  15.174 -0.5560  0.8150 -0.2514
   66TCq2    O5 1014   1.950   1.862  15.186  0.1191 -0.3059 -0.6596
   66TCq2    O6 1015   1.922   2.048  15.067 -0.7124  0.5903 -0.0029
   66TCq2    H2 1016   1.910   1.876  15.411 -1.7775  0.4378 -1.0592
   66TCq2    H3 1017   1.949   2.245  15.215  0.4662  0.4329  0.1157
   66TCq2    H4 1018   1.948   2.229  15.640  1.9331  3.4321 -1.2797
   67MPD2     C 1019   2.029   1.072  14.076 -0.4624  1.0596 -0.1307
   67MPD2    C1 1020   1.939   1.135  14.160 -0.1994  0.3120  0.5381
   67MPD2    C2 1021   1.809   1.157  14.110 -0.0202  0.8362  0.3456
   67MPD2    C3 1022   1.775   1.123  13.980 -0.2472 -0.1389 -0.7613
   67MPD2    C4 1023   1.869   1.062  13.902  0.3016 -0.2845  0.6143
   67MPD2    C5 1024   1.997   1.041  13.948  0.1045  0.4530  0.0603
   67MPD2     H 1025   1.734   1.196  14.177  0.5229  0.0245  1.4231
   67MPD2    H1 1026   1.855   1.030  13.799 -2.1609  1.2841  0.4630
   67MPD2    H2 1027   2.134   1.053  14.098 -1.3744 -0.8225  2.5414
   67MPD2    H3 1028   2.068   0.998  13.879  1.6303  1.7430  0.8115
   67MPD2     N 1029   1.650   1.152  13.924  0.7919 -0.6070  0.4393
   67MPD2    H5 1030   1.622   1.124  13.830 -1.2627 -1.8526  1.4350
   67MPD2    N1 1031   1.970   1.161  14.297  0.0791  0.0348  0.3140
   67MPD2    H7 1032   1.898   1.216  14.342 -0.2827  1.1116 -1.5651
   68TCq2    C1 1033   2.093   1.137  14.355  0.2260  0.0602 -0.1977
   68TCq2    O2 1034   2.186   1.067  14.317 -0.2171 -0.1648 -0.4513
   68TCq2    C2 1035   2.099   1.199  14.492  0.5046  0.3507 -0.0815
   68TCq2    C3 1036   2.032   1.317  14.521 -0.5679 -0.3304  0.6573
   68TCq2    C4 1037   2.092   1.404  14.605 -0.6531  0.2047 -0.0582
   68TCq2    C5 1038   2.203   1.375  14.681 -0.0000  0.2689  0.7628
   68TCq2    C6 1039   2.253   1.247  14.664  0.2829  0.5656 -0.4553
   68TCq2    C7 1040   2.206   1.163  14.564 -0.7134 -0.0069 -0.2756
   68TCq2    C8 1041   2.378   1.194  14.725 -0.7151 -0.6679 -0.2838
   68TCq2    O4 1042   2.446   1.112  14.659 -0.4670 -0.8984  0.1211
   68TCq2    C9 1043   2.040   1.538  14.601  0.8306 -0.1787  0.7433
   68TCq2    O5 1044   1.941   1.568  14.522  0.0297 -0.0201 -0.5550
   68TCq2    O6 1045   2.080   1.616  14.688 -0.5587  0.2565 -0.0075
   68TCq2    H2 1046   1.950   1.357  14.461 -0.7777 -0.8019  0.6245
   68TCq2    H3 1047   2.235   1.440  14.762  1.5104 -0.8727  1.0772
   68TCq2    H4 1048   2.251   1.070  14.533 -1.6042 -0.4820 -0.1584
   69TMC2    C1 1049   4.185   2.435  11.911 -0.0697  0.3503  0.0259
   69TMC2    C2 1050   4.112   2.546  11.907  0.3357  0.8213  1.0464
   69TMC2    C3 1051   4.107   2.613  11.789  0.3371 -0.1459  0.2298
   69TMC2    C4 1052   4.263   2.399  11.798  0.1860  0.2290 -0.4229
   69TMC2    C5 1053   4.252   2.475  11.687  0.1463 -0.1981  0.4891
   69TMC2    C6 1054   4.178   2.583  11.677 -0.0458  0.3024 -0.2838
   69TMC2     C 1055   4.190   2.360  12.036 -0.0661  0.1717  0.4100
   69TMC2     O 1056   4.127   2.400  12.136  0.1450 -0.0577 -0.4497
   69TMC2     H 1057   4.069   2.578  12.002  0.3676  0.9720  1.0102
   69TMC2    H1 1058   4.304   2.299  11.802  3.2143  1.4803 -0.1307
   69TMC2    H2 1059   4.175   2.645  11.588  0.2435  1.1102  0.2768
   69TMC2    C7 1060   4.321   2.416  11.572  0.2148 -0.0102 -0.9744
   69TMC2    C8 1061   4.069   2.751  11.791  0.5187 -0.0661  0.1277
   69TMC2    O1 1062   4.395   2.325  11.601 -0.1283 -0.5432  0.1971
   69TMC2    O2 1063   4.116   2.840  11.723 -0.1006 -0.3098 -0.2751
   69TMC2    O5 1064   3.938   2.747  11.823  0.1004 -0.6645 -0.3046
   69TMC2    H5 1065   3.908   2.672  11.878 -3.0328  0.0369 -1.0822
   70MPD2     C 1066   4.477   2.148  12.121  0.0384 -0.5304  0.2022
   70MPD2    C1 1067   4.359   2.216  12.142  0.2532 -0.2197  0.3556
   70MPD2    C2 1068   4.300   2.206  12.269 -0.0467 -0.3431 -0.1583
   70MPD2    C3 1069   4.360   2.133  12.372 -0.2763  0.2453  0.1047
   70MPD2    C4 1070   4.483   2.076  12.348  0.1747 -0.0173 -0.0894
   70MPD2    C5 1071   4.540   2.087  12.225  0.7962  0.1502  0.3789
   70MPD2     H 1072   4.206   2.259  12.283  0.1405 -0.6771  2.3296
   70MPD2    H1 1073   4.535   2.026  12.428  1.4322 -1.1597 -1.6124
   70MPD2    H2 1074   4.515   2.138  12.020 -1.3656 -0.0538 -0.3610
   70MPD2    H3 1075   4.635   2.041  12.199  0.1461 -1.5059  0.9708
   70MPD2     N 1076   4.308   2.127  12.503 -0.0374  0.3769 -0.5144
   70MPD2    H5 1077   4.367   2.089  12.576 -1.0223 -1.4602 -0.6729
   70MPD2    N1 1078   4.299   2.279  12.030  0.1553  0.6126 -0.1442
   70MPD2    H7 1079   4.333   2.260  11.937  1.2300 -1.7269  0.7192
   71TMC2    C1 1080   2.143   3.612   2.012 -0.1233 -0.4170 -0.5808
   71TMC2    C2 1081   2.257   3.689   2.030  0.5281  0.1390  0.2565
   71TMC2    C3 1082   2.257   3.776   2.136 -0.8306  0.1379  0.0087
   71TMC2    C4 1083   2.038   3.618   2.103  0.4402  0.3828  0.1533
   71TMC2    C5 1084   2.043   3.712   2.206 -0.9572 -0.4228  1.2640
   71TMC2    C6 1085   2.151   3.792   2.232  0.3868  0.0274 -0.7948
   71TMC2     C 1086   2.134   3.538   1.890  0.3099 -0.1338 -1.0763
   71TMC2     O 1087   2.200   3.585   1.796  0.2097 -0.4892 -0.4422
   71TMC2     H 1088   2.336   3.686   1.956  0.3405  0.9458  0.0223
   71TMC2    H1 1089   1.955   3.551   2.080  0.7802 -0.6495  1.9417
   71TMC2    H2 1090   2.158   3.866   2.311  2.1063 -0.1459 -0.7869
   71TMC2    C7 1091   1.914   3.760   2.249 -0.0475 -0.1290  0.7920
   71TMC2    C8 1092   2.367   3.870   2.146 -0.5825 -0.7086 -0.3072
   71TMC2    O1 1093   1.903   3.806   2.364 -0.0656  0.2708 -0.1934
   71TMC2    O2 1094   2.401   3.925   2.250  0.3078 -0.1908  0.5676
   71TMC2    O5 1095   2.401   3.914   2.027  0.4268  0.4476 -0.5207
   71TMC2    H5 1096   2.352   3.870   1.954  1.6074  0.0026 -1.0592
   72MPD2     C 1097   1.906   3.228   1.553 -0.1041 -0.3435  0.0908
   72MPD2    C1 1098   1.968   3.357   1.533  0.3211  0.3359  0.1520
   72MPD2    C2 1099   2.006   3.421   1.649 -0.3052 -0.4797 -0.0221
   72MPD2    C3 1100   1.995   3.366   1.774  0.6346 -0.3311 -0.5836
   72MPD2    C4 1101   1.935   3.240   1.787 -0.2300  0.3718 -0.3968
   72MPD2    C5 1102   1.893   3.168   1.680  0.3014 -0.2280 -0.7615
   72MPD2     H 1103   2.061   3.513   1.634 -0.0898 -0.6442 -0.2541
   72MPD2    H1 1104   1.951   3.195   1.885 -1.4622 -0.4405 -0.5661
   72MPD2    H2 1105   1.895   3.167   1.464  1.2379 -0.4383 -0.0159
   72MPD2    H3 1106   1.850   3.070   1.700 -1.3362  0.5867 -0.2838
   72MPD2     N 1107   2.053   3.427   1.893 -0.2593 -0.8299 -0.3066
   72MPD2    H5 1108   2.023   3.386   1.981 -1.5312 -1.7521 -1.1578
   72MPD2    N1 1109   1.993   3.414   1.408 -0.2197  0.6337  0.1046
   72MPD2    H7 1110   2.038   3.504   1.399  0.2677  0.1493 -2.1657
   73TMC2    C1 1111   1.150   4.604  13.758 -0.6814  0.5404 -0.5863
   73TMC2    C2 1112   1.192   4.543  13.870 -0.6204 -0.6538  0.4300
   73TMC2    C3 1113   1.268   4.620  13.954  0.4071 -0.5257 -0.3480
   73TMC2    C4 1114   1.184   0.012  13.736  0.7839 -0.0361  0.0668
   73TMC2    C5 1115   1.265   0.079  13.824  0.2203  0.4045  0.4580
   73TMC2    C6 1116   1.313   0.024  13.935 -0.1176  0.3787  0.3703
   73TMC2     C 1117   1.200   4.530  13.636  0.1065 -0.3300  0.6072
   73TMC2     O 1118   1.282   4.600  13.574 -0.0634  0.6850 -0.1300
   73TMC2     H 1119   1.191   4.436  13.856 -0.3125 -0.7029  0.7620
   73TMC2    H1 1120   1.152   0.055  13.642  0.2696 -0.5482  0.0099
   73TMC2    H2 1121   1.374   0.075  14.009 -0.6233  0.6984  0.5689
   73TMC2    C7 1122   1.358   0.171  13.757 -0.1896  0.4453  0.4622
   73TMC2    C8 1123   1.286   4.570  14.087 -0.3354  0.0131 -0.3110
   73TMC2    O1 1124   1.430   0.239  13.825  0.4289  0.1176 -0.1937
   73TMC2    O2 1125   1.292   4.645  14.180 -0.2696  0.4549  0.4363
   73TMC2    O5 1126   1.218   4.456  14.087  0.1449 -0.3838 -0.2077
   73TMC2    H5 1127   1.252   4.393  14.020  1.3967  1.1934 -1.0786
   74MPD2     C 1128   1.257   4.144  13.319 -0.4656 -0.3466  0.4498
   74MPD2    C1 1129   1.331   4.253  13.330  0.7844 -0.7825  0.6484
   74MPD2    C2 1130   1.293   4.339  13.432  0.6133 -0.5528 -0.1173
   74MPD2    C3 1131   1.185   4.316  13.518 -0.3165  0.4990 -0.1463
   74MPD2    C4 1132   1.107   4.203  13.503 -0.1594 -1.0586 -0.4913
   74MPD2    C5 1133   1.148   4.126  13.400 -0.1525  0.3609  0.0969
   74MPD2     H 1134   1.346   4.431  13.451  0.4533 -0.1875 -1.4162
   74MPD2    H1 1135   1.024   4.168  13.562 -2.0029  3.0457 -0.6710
   74MPD2    H2 1136   1.279   4.065  13.249 -0.6004 -0.8342  0.9554
   74MPD2    H3 1137   1.092   4.035  13.384 -0.6187  0.5216  0.8091
   74MPD2     N 1138   1.148   4.404  13.621 -0.4603 -0.3935  0.3672
   74MPD2    H5 1139   1.075   4.374  13.685 -1.0729  0.5600  0.1201
   74MPD2    N1 1140   1.446   4.268  13.249 -0.1341  0.1815 -0.0672
   74MPD2    H7 1141   1.478   4.205  13.176  0.0830  0.7378 -0.4630
   75TCq2    C1 1142   1.539   1.206  13.990 -0.1819 -1.3624 -0.3502
   75TCq2    O2 1143   1.529   1.233  14.106  0.2323 -0.3600  0.3252
   75TCq2    C2 1144   1.421   1.201  13.912 -0.3186 -0.4152  0.7822
   75TCq2    C3 1145   1.303   1.184  13.984  0.0822 -0.1637 -0.2296
   75TCq2    C4 1146   1.186   1.229  13.928 -0.2414  0.1472 -0.2973
   75TCq2    C5 1147   1.186   1.286  13.803 -0.1840 -0.6572  0.5976
   75TCq2    C6 1148   1.303   1.297  13.738  0.0308 -0.6092 -0.4801
   75TCq2    C7 1149   1.420   1.257  13.790 -0.0929 -0.0076  0.0705
   75TCq2    C8 1150   1.307   1.383  13.616 -1.0900 -0.4222  0.7827
   75TCq2    O4 1151   1.195   1.408  13.572 -0.8782  0.6728 -0.5435
   75TCq2    C9 1152   1.070   1.233  14.012 -0.6110 -0.0947  0.1747
   75TCq2    O5 1153   0.953   1.248  13.961 -0.3591  0.3094  0.4441
   75TCq2    O6 1154   1.088   1.217  14.135 -0.0825 -0.4287  0.7913
   75TCq2    H2 1155   1.300   1.142  14.084  0.5870  1.0858  0.3111
   75TCq2    H3 1156   1.092   1.306  13.752  0.0754  1.2466  0.8841
   75TCq2    H4 1157   1.513   1.285  13.742  1.5575 -2.9209  1.5723
   76MPD2     C 1158   0.590   1.801  11.676 -0.1992  0.3298  0.5682
   76MPD2    C1 1159   0.626   1.860  11.559  0.3178 -0.0934 -0.0297
   76MPD2    C2 1160   0.765   1.879  11.539  0.6385  0.0339 -0.4704
   76MPD2    C3 1161   0.862   1.817  11.610 -0.4287 -0.7325 -0.8637
   76MPD2    C4 1162   0.823   1.759  11.727 -0.0023 -0.0518 -0.4989
   76MPD2    C5 1163   0.687   1.757  11.767 -0.6069  0.3052 -0.8943
   76MPD2     H 1164   0.794   1.931  11.448 -1.8858  2.4059  0.1004
   76MPD2    H1 1165   0.892   1.704  11.790  0.2867  1.9261  0.8813
   76MPD2    H2 1166   0.486   1.792  11.704 -0.9775  0.9043 -2.1267
   76MPD2    H3 1167   0.662   1.699  11.855 -0.5766 -1.1652 -1.8404
   76MPD2     N 1168   1.000   1.819  11.575  0.0232 -0.2766 -0.1150
   76MPD2    H5 1169   1.064   1.774  11.639  0.5532 -0.8137 -1.0254
   76MPD2    N1 1170   0.536   1.913  11.464  0.0379  1.0063  0.4781
   76MPD2    H7 1171   0.571   1.948  11.376 -0.4849  0.5198  0.0775
   77TCq2    C1 1172   1.048   1.877  11.455 -0.6408  0.0150  0.2879
   77TCq2    O2 1173   0.994   1.936  11.366 -0.1789  0.2515  0.3417
   77TCq2    C2 1174   1.193   1.901  11.457 -0.1845  0.3082  0.1119
   77TCq2    C3 1175   1.251   1.937  11.341 -0.6444 -0.0288  0.2303
   77TCq2    C4 1176   1.386   1.964  11.340 -0.2740 -0.0851  0.0645
   77TCq2    C5 1177   1.464   1.945  11.445  0.5091  0.6958  0.7927
   77TCq2    C6 1178   1.402   1.907  11.562  1.1508  0.1982 -1.0844
   77TCq2    C7 1179   1.268   1.891  11.569  0.2528 -0.2442 -0.8932
   77TCq2    C8 1180   1.484   1.890  11.683  0.0319  0.3040 -0.0808
   77TCq2    O4 1181   1.602   1.884  11.669 -0.6791 -0.0431 -0.6530
   77TCq2    C9 1182   1.447   1.982  11.210 -0.0636 -0.0523  0.1059
   77TCq2    O5 1183   1.573   1.998  11.206  0.0576 -0.3050  0.2730
   77TCq2    O6 1184   1.387   1.939  11.110  0.8222  0.1010  0.1774
   77TCq2    H2 1185   1.201   1.936  11.245  0.4400 -2.0352 -0.3235
   77TCq2    H3 1186   1.568   1.971  11.430  0.6826  0.9351  2.4438
   77TCq2    H4 1187   1.233   1.846  11.662  0.0984  1.4638 -0.1167
   78MPD1     C 1188   2.479   2.769  16.998 -0.3847 -0.5474  0.6863
   78MPD1    C1 1189   2.457   2.845  17.107 -0.3929  0.1127  0.2314
   78MPD1    C2 1190   2.518   2.805  17.224  0.2595  0.0279  0.1805
   78MPD1    C3 1191   2.581   2.681  17.234  0.1581 -0.0221 -0.6449
   78MPD1    C4 1192   2.610   2.613  17.119 -0.5139  0.7335  0.1959
   78MPD1    C5 1193   2.554   2.652  17.001  0.8369 -0.5563 -0.2599
   78MPD1     H 1194   2.502   2.873  17.307 -0.3028 -0.1420  0.2126
   78MPD1    H1 1195   2.668   2.521  17.126 -2.0609 -0.3690 -1.6079
   78MPD1    H2 1196   2.448   2.793  16.897  1.5712 -0.4122  0.1034
   78MPD1    H3 1197   2.567   2.589  16.914  0.3248 -1.0379  0.0079
   78MPD1     N 1198   2.621   2.620  17.356  0.5891  0.4807  0.0103
   78MPD1    H5 1199   2.669   2.531  17.349  3.1357  2.0938 -2.6460
   78MPD1    N1 1200   2.389   2.971  17.091 -0.1735 -0.7381 -0.4036
   78MPD1    H6 1201   2.384   3.031  17.173  0.3277 -0.1452 -0.8060
   78MPD1    H7 1202   2.310   2.955  17.029  0.9153 -3.2534 -1.1626
   79TCq2    C1 1203   2.597   2.674  17.482 -0.8373 -0.1860 -0.4138
   79TCq2    O2 1204   2.559   2.781  17.516 -0.0760  0.2217  0.1407
   79TCq2    C2 1205   2.611   2.566  17.583 -0.4063 -0.4790 -0.6392
   79TCq2    C3 1206   2.594   2.432  17.543 -0.0150  0.3869  0.0712
   79TCq2    C4 1207   2.595   2.334  17.637 -0.3778 -0.1203  0.0665
   79TCq2    C5 1208   2.620   2.366   0.075  0.3757 -0.0920  0.0257
   79TCq2    C6 1209   2.636   2.499   0.114  0.4484 -0.0293 -0.0233
   79TCq2    C7 1210   2.642   2.597   0.020 -0.4600  0.3650 -0.2840
   79TCq2    C8 1211   2.613   2.538   0.256  0.9880  0.4668 -0.5647
   79TCq2    O4 1212   2.601   2.449   0.340 -0.1520 -0.3926 -0.0763
   79TCq2    C9 1213   2.564   2.196  17.598 -0.0073 -0.2208  0.1348
   79TCq2    O5 1214   2.516   2.190  17.478 -0.1507  0.3213  0.0520
   79TCq2    O6 1215   2.565   2.109  17.690  0.4968  0.4087  0.1263
   79TCq2    H2 1216   2.574   2.402  17.441  2.0946 -0.3026 -0.1494
   79TCq2    H3 1217   2.616   2.282   0.143  0.1553  0.7937  1.1091
   79TCq2    H4 1218   2.689   2.691   0.045  0.3819 -0.4939  1.3550
   80MPD2     C 1219   4.536   1.379  12.617 -0.8109 -0.2786  0.1678
   80MPD2    C1 1220   4.489   1.359  12.488  0.2573  0.2585  0.1824
   80MPD2    C2 1221   4.357   1.390  12.453  0.6165 -0.1887 -0.2869
   80MPD2    C3 1222   4.273   1.431  12.555 -0.3496 -0.0948 -0.4795
   80MPD2    C4 1223   4.317   1.439  12.688 -0.4225 -0.1052 -0.0705
   80MPD2    C5 1224   4.449   1.418  12.717 -0.3725  0.8008  0.3341
   80MPD2     H 1225   4.310   1.371  12.357  1.3839 -1.7554 -0.3373
   80MPD2    H1 1226   4.256   1.475  12.770 -1.4110  1.0142 -1.2967
   80MPD2    H2 1227   4.638   1.353  12.643 -1.6279 -2.7597  0.8835
   80MPD2    H3 1228   4.478   1.422  12.821  1.3442  1.9812 -0.1757
   80MPD2     N 1229   4.136   1.449  12.531 -0.5601  1.0829 -0.1111
   80MPD2    H5 1230   4.084   1.469  12.616  1.4906  0.4987  1.2870
   80MPD2    N1 1231   4.566   1.311  12.384  0.3544 -0.0344  0.6443
   80MPD2    H7 1232   4.515   1.311  12.296  0.4889 -1.9722  0.5822
   81TCq2    C1 1233   4.695   1.278  12.381 -0.9940  0.0791 -0.1375
   81TCq2    O2 1234   0.055   1.290  12.472  0.2776 -0.5150  0.4901
   81TCq2    C2 1235   0.015   1.231  12.248 -0.6155 -0.7434  0.0249
   81TCq2    C3 1236   0.135   1.275  12.199 -0.0526  0.1526  0.3075
   81TCq2    C4 1237   0.177   1.237  12.074  1.2436  0.2921  0.3243
   81TCq2    C5 1238   0.101   1.156  12.001 -0.4281 -0.0623  0.5909
   81TCq2    C6 1239   4.711   1.099  12.054 -0.3840 -0.6859 -0.0511
   81TCq2    C7 1240   4.662   1.142  12.176  0.0583 -0.2113 -0.3647
   81TCq2    C8 1241   4.630   1.006  11.979  0.0503 -0.2025  0.4716
   81TCq2    O4 1242   4.642   1.006  11.858  1.4926  0.1239 -0.6471
   81TCq2    C9 1243   0.298   1.299  12.030  0.3925 -0.6711 -0.1163
   81TCq2    O5 1244   0.366   1.363  12.112 -0.1928  0.1758 -0.3208
   81TCq2    O6 1245   0.332   1.276  11.911  0.6645 -0.1609 -0.2076
   81TCq2    H2 1246   0.199   1.336  12.262 -1.2449  0.8004  0.8908
   81TCq2    H3 1247   0.136   1.131  11.901 -2.6846 -0.1482 -0.1731
   81TCq2    H4 1248   4.579   1.102  12.234 -0.3972 -1.6604 -2.0092
   82MPD2     C 1249   2.924   1.642  10.629  0.3941 -0.0689 -0.0098
   82MPD2    C1 1250   2.854   1.527  10.619 -0.4493 -0.2569  0.2824
   82MPD2    C2 1251   2.885   1.416  10.691  0.5633  0.7118 -0.3190
   82MPD2    C3 1252   2.996   1.414  10.775  0.5816 -0.0372  0.4966
   82MPD2    C4 1253   3.088   1.512  10.759 -0.0012  0.2674  0.0131
   82MPD2    C5 1254   3.049   1.626  10.694  1.0143  0.5576 -1.0626
   82MPD2     H 1255   2.824   1.327  10.680  2.0167 -0.2041 -1.0286
   82MPD2    H1 1256   3.184   1.510  10.808 -0.8923  0.4418  1.8024
   82MPD2    H2 1257   2.902   1.732  10.572 -2.0822 -0.0636  0.9637
   82MPD2    H3 1258   3.124   1.703  10.681  1.5601  0.2832  0.4707
   82MPD2     N 1259   3.025   1.300  10.850  0.4203 -0.2156  0.5385
   82MPD2    H5 1260   3.114   1.297  10.899  0.7962  4.3158  0.1684
   82MPD2    N1 1261   2.742   1.543  10.531  0.2423 -0.0907 -0.0610
   82MPD2    H7 1262   2.730   1.627  10.476  2.0340  1.3849  1.7988
   83TCq2    C1 1263   2.941   1.188  10.878  0.2469  0.6569 -0.1716
   83TCq2    O2 1264   2.831   1.160  10.828  0.3009 -0.5451 -0.4568
   83TCq2    C2 1265   2.996   1.102  10.977 -0.3956  0.3806 -1.0259
   83TCq2    C3 1266   3.109   1.138  11.053 -0.2399 -1.2253  0.4659
   83TCq2    C4 1267   3.141   1.064  11.165 -0.4058 -1.0324  0.3832
   83TCq2    C5 1268   3.053   0.966  11.209  0.0769  0.2467  0.4816
   83TCq2    C6 1269   2.957   0.923  11.122 -0.4558 -0.5117 -0.0174
   83TCq2    C7 1270   2.929   0.982  11.000 -0.3701 -0.0972  0.6153
   83TCq2    C8 1271   2.878   0.808  11.161  0.0199 -0.0721  0.5329
   83TCq2    O4 1272   2.846   0.804  11.276  0.2526 -0.6654 -0.8924
   83TCq2    C9 1273   3.236   1.107  11.261  0.3255  0.1975  0.9741
   83TCq2    O5 1274   3.231   1.066  11.382 -0.7372 -1.0890 -0.6424
   83TCq2    O6 1275   3.331   1.174  11.219 -0.5785 -0.2779 -0.0005
   83TCq2    H2 1276   3.166   1.227  11.030 -0.1879 -1.2810  0.3799
   83TCq2    H3 1277   3.080   0.911  11.299  1.5012  1.2896  0.6948
   83TCq2    H4 1278   2.843   0.946  10.945 -0.0399 -1.7550  1.1828
   84TCq2    C1 1279   3.661   0.072  10.206  0.2725  0.5744 -1.0065
   84TCq2    O2 1280   3.719   4.713  10.277  0.3730 -0.3166  0.7369
   84TCq2    C2 1281   3.619   0.204  10.261  0.0964 -0.4896 -0.4631
   84TCq2    C3 1282   3.621   0.309  10.173 -0.4184  0.3983  0.2402
   84TCq2    C4 1283   3.571   0.430  10.220 -0.7218  0.5538 -0.1358
   84TCq2    C5 1284   3.512   0.437  10.348  0.4498 -0.7729 -0.2672
   84TCq2    C6 1285   3.505   0.328  10.434  0.3391 -0.1278  0.1565
   84TCq2    C7 1286   3.561   0.208  10.388  0.1693  0.0423 -0.0421
   84TCq2    C8 1287   3.446   0.351  10.562 -0.2243 -0.3282  0.5440
   84TCq2    O4 1288   3.430   0.471  10.604 -0.4761 -0.1328  0.2300
   84TCq2    C9 1289   3.574   0.548  10.138  0.1634  0.4842  0.3566
   84TCq2    O5 1290   3.526   0.661  10.186 -0.0898  0.3335  0.4018
   84TCq2    O6 1291   3.625   0.534  10.019 -0.0641 -0.0178  0.2503
   84TCq2    H2 1292   3.660   0.315  10.072  0.0700  0.5438  0.4416
   84TCq2    H3 1293   3.469   0.531  10.380 -0.7382 -1.3253 -0.2503
   84TCq2    H4 1294   3.582   0.125  10.455 -0.6889  1.1469  1.5906
   85MPD2     C 1295   4.177   2.379  15.709 -0.2313  0.9133 -0.3556
   85MPD2    C1 1296   4.098   2.456  15.791  0.3812 -0.7812  0.3385
   85MPD2    C2 1297   4.115   2.591  15.797  0.2593  0.1272 -1.1184
   85MPD2    C3 1298   4.212   2.652  15.716  0.2872 -0.0307 -1.1608
   85MPD2    C4 1299   4.290   2.571  15.621 -0.2019 -0.2164  0.1780
   85MPD2    C5 1300   4.270   2.435  15.623  0.2043 -0.1801 -0.5437
   85MPD2     H 1301   4.075   2.644  15.882  1.0809 -0.8783 -0.1046
   85MPD2    H1 1302   4.361   2.609  15.548  1.8826 -3.0451  0.7564
   85MPD2    H2 1303   4.166   2.273  15.692 -2.0935  0.8482  1.1736
   85MPD2    H3 1304   4.328   2.373  15.555  0.7021  1.1898 -1.3689
   85MPD2     N 1305   4.232   2.793  15.725  0.5400  0.0602  0.6030
   85MPD2    H5 1306   4.175   2.849  15.789  0.6091 -0.3206  0.9927
   85MPD2    N1 1307   3.995   2.400  15.868  0.4019  0.3328  0.4287
   85MPD2    H7 1308   3.944   2.461  15.931  0.3184 -0.8581  1.5201
   86TCq2    C1 1309   4.326   2.865  15.652 -0.8790 -1.0873  0.4112
   86TCq2    O2 1310   4.416   2.824  15.578 -0.0201  0.5043  0.2058
   86TCq2    C2 1311   4.347   2.999  15.705 -0.1032  0.2418  0.2088
   86TCq2    C3 1312   4.251   3.090  15.707  0.2614  0.7477  0.0520
   86TCq2    C4 1313   4.277   3.219  15.747  0.4145 -0.4808  0.4090
   86TCq2    C5 1314   4.405   3.250  15.783  0.3216 -0.2232 -0.0584
   86TCq2    C6 1315   4.508   3.160  15.772 -0.0399  1.0210  0.2713
   86TCq2    C7 1316   4.478   3.026  15.740  0.0044  0.1356  1.0259
   86TCq2    C8 1317   4.603   3.206  15.674 -0.4276 -0.7275 -0.4856
   86TCq2    O4 1318   4.712   3.147  15.679  0.1884  0.2623  0.0246
   86TCq2    C9 1319   4.167   3.304  15.757  0.3069 -0.0960 -0.5691
   86TCq2    O5 1320   4.064   3.286  15.683 -0.4133 -0.7030  0.6505
   86TCq2    O6 1321   4.193   3.408  15.822 -0.2895  0.1754 -0.2949
   86TCq2    H2 1322   4.156   3.051  15.671 -0.2703  0.8799  1.3105
   86TCq2    H3 1323   4.434   3.351  15.811 -0.8968  0.4229 -1.1087
   86TCq2    H4 1324   4.557   2.960  15.707  1.4116  1.5769  1.4751
   87MPD2     C 1325   1.011   1.862   1.209  0.4091  0.7316  1.1486
   87MPD2    C1 1326   1.048   1.815   1.081  0.0252  0.3761  0.1737
   87MPD2    C2 1327   0.946   1.785   0.986 -0.3613 -0.2784  0.8715
   87MPD2    C3 1328   0.813   1.795   1.023  0.1337  0.3595  0.6536
   87MPD2    C4 1329   0.777   1.847   1.149 -0.4448 -0.1274 -0.0083
   87MPD2    C5 1330   0.877   1.879   1.236 -0.3859  0.1018  0.0673
   87MPD2     H 1331   0.969   1.757   0.884  0.4700 -0.4456  1.1005
   87MPD2    H1 1332   0.674   1.857   1.182  0.2287  2.7147  1.1853
   87MPD2    H2 1333   1.081   1.885   1.288 -2.1571  1.6066  3.1478
   87MPD2    H3 1334   0.860   1.927   1.332 -1.7869 -1.3691  0.5605
   87MPD2     N 1335   0.712   1.780   0.928 -0.9028  0.4779 -0.4076
   87MPD2    H5 1336   0.621   1.815   0.954 -1.2203 -0.6436 -0.0089
   87MPD2    N1 1337   1.186   1.796   1.051 -0.1508 -0.4357 -0.0095
   87MPD2    H7 1338   1.247   1.821   1.127  0.3489  0.5826 -0.7537
   88TCq2    C1 1339   1.246   1.746   0.939 -1.1106  0.1477  0.7846
   88TCq2    O2 1340   1.178   1.680   0.859 -0.3596  0.5064 -0.7843
   88TCq2    C2 1341   1.388   1.760   0.926 -0.0727 -0.5595  0.1469
   88TCq2    C3 1342   1.459   1.847   1.004 -0.6684 -0.4817  1.0548
   88TCq2    C4 1343   1.592   1.856   0.990  0.2167 -0.5896 -0.2447
   88TCq2    C5 1344   1.652   1.798   0.881  0.4773  0.2744  0.1687
   88TCq2    C6 1345   1.576   1.721   0.795  0.0605 -0.5939  0.0995
   88TCq2    C7 1346   1.448   1.696   0.820 -0.0720  0.4560  0.8496
   88TCq2    C8 1347   1.642   1.708   0.663 -0.1118  0.2187  0.2027
   88TCq2    O4 1348   1.752   1.766   0.657  0.0327  0.0805 -0.0841
   88TCq2    C9 1349   1.666   1.924   1.088  0.0831  0.1594 -0.7716
   88TCq2    O5 1350   1.790   1.939   1.071 -0.2999 -0.3743 -0.2229
   88TCq2    O6 1351   1.593   1.990   1.172 -0.4275 -0.0490  0.8329
   88TCq2    H2 1352   1.417   1.901   1.088 -0.4419 -2.3975  2.3991
   88TCq2    H3 1353   1.757   1.824   0.873  0.3084  0.6889 -0.7104
   88TCq2    H4 1354   1.384   1.634   0.759  2.3169 -0.4606 -0.7555
   89MPD2     C 1355   3.110   0.019   1.735 -0.1986 -0.5552 -0.0190
   89MPD2    C1 1356   3.019   0.074   1.821  0.1783 -0.4362 -0.1218
   89MPD2    C2 1357   3.051   0.194   1.888  0.0962  0.1806 -0.6661
   89MPD2    C3 1358   3.172   0.262   1.862 -0.1939  0.0378  0.7569
   89MPD2    C4 1359   3.258   0.205   1.766 -0.3441 -0.1063 -0.3834
   89MPD2    C5 1360   3.227   0.080   1.709 -0.1196  0.3190 -0.0596
   89MPD2     H 1361   2.980   0.241   1.955  2.4094 -0.2547  2.0727
   89MPD2    H1 1362   3.353   0.251   1.738  0.6589 -1.1395  1.3054
   89MPD2    H2 1363   3.100   4.646   1.685 -1.3419 -1.5596  2.1351
   89MPD2    H3 1364   3.297   0.034   1.640 -1.7029 -1.7136 -0.2948
   89MPD2     N 1365   3.190   0.392   1.917 -0.4885 -0.2187  0.2258
   89MPD2    H5 1366   3.120   0.424   1.983  1.1239  1.2381  1.2301
   89MPD2    N1 1367   2.889   0.025   1.826  0.6607 -0.3250 -0.7956
   89MPD2    H7 1368   2.816   0.077   1.874  4.2304  3.5962  0.3569
   90TCq2    C1 1369   3.252   0.493   1.845 -0.3609  0.0335  0.1684
   90TCq2    O2 1370   3.316   0.480   1.741 -0.2068  0.4577  0.6859
   90TCq2    C2 1371   3.224   0.624   1.894  0.4639 -0.2045  0.1474
   90TCq2    C3 1372   3.196   0.644   2.024 -0.2956 -0.0496  0.0120
   90TCq2    C4 1373   3.127   0.756   2.062 -0.1652  0.2617 -0.3421
   90TCq2    C5 1374   3.105   0.856   1.971 -0.2545  0.9095  0.2731
   90TCq2    C6 1375   3.141   0.839   1.841 -0.6242  0.4867 -0.1139
   90TCq2    C7 1376   3.197   0.718   1.799 -0.1180 -0.0364  0.2085
   90TCq2    C8 1377   3.100   0.941   1.740  0.2619 -0.0052 -0.5009
   90TCq2    O4 1378   2.990   0.990   1.756  0.1423 -0.6409  0.1974
   90TCq2    C9 1379   3.095   0.775   2.201 -0.2834  0.5400  0.3073
   90TCq2    O5 1380   3.117   0.686   2.287  0.0088 -0.1360 -0.1286
   90TCq2    O6 1381   3.063   0.890   2.237 -0.2036 -0.1090 -0.0634
   90TCq2    H2 1382   3.214   0.564   2.095  0.7744  0.4142  0.2550
   90TCq2    H3 1383   3.083   0.954   2.011 -1.3920  1.3480 -1.4374
   90TCq2    H4 1384   3.202   0.679   1.698  0.6411 -0.1823  0.3037
   91TMC2    C1 1385   4.205   3.799  16.095 -0.0675 -0.5510 -0.0221
   91TMC2    C2 1386   4.261   3.796  15.975 -0.3705 -0.0620 -0.8734
   91TMC2    C3 1387   4.202   3.720  15.877  0.4122  0.0433 -0.0372
   91TMC2    C4 1388   4.082   3.751  16.119 -0.2672  0.2273 -0.4139
   91TMC2    C5 1389   4.018   3.675  16.025  0.5801 -0.3757 -0.2203
   91TMC2    C6 1390   4.078   3.668  15.900  0.3125  0.1430 -0.3740
   91TMC2     C 1391   4.260   3.895  16.196 -0.0227 -0.3461  0.0155
   91TMC2     O 1392   4.179   3.936  16.281  0.4492 -0.0654  0.0440
   91TMC2     H 1393   4.361   3.837  15.973 -0.2336 -0.3809 -0.3834
   91TMC2    H1 1394   4.047   3.751  16.221 -0.5627  1.3582 -0.5155
   91TMC2    H2 1395   4.032   3.619  15.816 -0.6730 -0.3782  0.4675
   91TMC2    C7 1396   3.898   3.599  16.060  0.4317 -0.2724 -0.1619
   91TMC2    C8 1397   4.247   3.744  15.741 -0.2963 -0.3044  0.4168
   91TMC2    O1 1398   3.872   3.595  16.179  0.0319 -0.0320  0.2290
   91TMC2    O2 1399   4.308   3.840  15.700 -0.1151  0.3713  0.0669
   91TMC2    O5 1400   4.282   3.619  15.707 -0.1793 -0.0734 -0.0637
   91TMC2    H5 1401   4.246   3.541  15.754 -0.4515  0.3338  0.4008
   92MPD2     C 1402   4.419   3.933  16.445 -0.3197  0.0165  0.5125
   92MPD2    C1 1403   4.471   3.909  16.319  0.2729  0.0796 -0.3844
   92MPD2    C2 1404   4.603   3.875  16.317 -0.2074  0.3826  0.2588
   92MPD2    C3 1405   4.686   3.890  16.426 -0.4562 -0.6725  0.0439
   92MPD2    C4 1406   4.632   3.921  16.548 -0.6857 -1.0537 -0.7194
   92MPD2    C5 1407   4.503   3.941  16.554 -0.0660 -0.8030  0.8620
   92MPD2     H 1408   4.648   3.853  16.220  0.2699 -0.7080  0.7295
   92MPD2    H1 1409   4.683   3.924  16.643 -1.1417  0.2452 -0.5165
   92MPD2    H2 1410   4.314   3.949  16.463 -0.0070  1.7007  0.8122
   92MPD2    H3 1411   4.451   3.959  16.647  0.9664 -1.1411  1.5007
   92MPD2     N 1412   0.102   3.864  16.405 -0.1621  0.2216  0.0971
   92MPD2    H5 1413   0.131   3.832  16.314 -1.4611  1.4694 -0.7664
   92MPD2    N1 1414   4.396   3.888  16.203 -0.3142 -0.4276 -0.2209
   92MPD2    H7 1415   4.445   3.844  16.126 -0.3564  0.9045 -1.0064
   93MPD2     C 1416   1.238   3.768  13.501 -0.6700 -0.2627 -0.9985
   93MPD2    C1 1417   1.211   3.864  13.595 -0.3338 -0.2099  0.5008
   93MPD2    C2 1418   1.083   3.870  13.650 -0.2990  0.1421 -0.0446
   93MPD2    C3 1419   0.986   3.782  13.614 -0.4941 -0.2230  0.1882
   93MPD2    C4 1420   1.023   3.689  13.515  0.5130 -0.3228  0.5502
   93MPD2    C5 1421   1.144   3.683  13.459  0.0619 -0.3301  0.1748
   93MPD2     H 1422   1.071   3.944  13.728  0.7606  1.6416 -1.3133
   93MPD2    H1 1423   0.947   3.621  13.478  1.9048  0.0270 -2.9934
   93MPD2    H2 1424   1.331   3.749  13.450  0.6786  0.4519  1.1996
   93MPD2    H3 1425   1.163   3.603  13.389 -0.0677  0.0725 -0.3270
   93MPD2     N 1426   0.852   3.783  13.649  0.6248 -0.1055  0.3325
   93MPD2    H5 1427   0.804   3.698  13.622 -0.0167 -0.4194  2.4551
   93MPD2    N1 1428   1.309   3.964  13.623 -0.3133 -0.0099  0.2270
   93MPD2    H7 1429   1.269   4.048  13.665  0.3740  0.1345  0.5960
   94TCq2    C1 1430   1.429   3.979  13.566 -0.2665  0.1037 -0.2702
   94TCq2    O2 1431   1.489   3.906  13.483 -0.0594 -0.6429 -0.2955
   94TCq2    C2 1432   1.511   4.092  13.616  0.4027  0.0366  0.4886
   94TCq2    C3 1433   1.466   4.160  13.723 -0.2536 -0.3304  1.0108
   94TCq2    C4 1434   1.547   4.257  13.780 -0.1602  0.0368  0.7477
   94TCq2    C5 1435   1.675   4.276  13.732 -0.2022 -0.0192  0.0694
   94TCq2    C6 1436   1.717   4.198  13.636 -0.1584  0.5165 -0.6494
   94TCq2    C7 1437   1.636   4.103  13.578 -0.7866  0.1673  0.0748
   94TCq2    C8 1438   1.858   4.187  13.610  0.8333 -0.4106  0.7591
   94TCq2    O4 1439   1.901   4.076  13.579 -0.2335  0.0318 -0.0323
   94TCq2    C9 1440   1.495   4.338  13.891 -0.5238 -0.3643 -0.3209
   94TCq2    O5 1441   1.575   4.406  13.958 -0.0001  0.0425  0.0295
   94TCq2    O6 1442   1.378   4.314  13.926  0.0367 -0.3071 -0.0754
   94TCq2    H2 1443   1.364   4.155  13.760  0.1703 -2.5364  1.9006
   94TCq2    H3 1444   1.739   4.343  13.789 -1.4932  1.8478 -0.6765
   94TCq2    H4 1445   1.674   4.049  13.492  1.6598  1.0585  0.6130
   95TMC2    C1 1446   1.169   0.958  15.902  0.5446  0.1327  0.0105
   95TMC2    C2 1447   1.127   1.089  15.923 -0.3057  0.2699 -0.0457
   95TMC2    C3 1448   1.078   1.128  16.040 -0.3684  0.3701 -0.1781
   95TMC2    C4 1449   1.164   0.875  16.013 -0.5049  0.1018  0.0678
   95TMC2    C5 1450   1.112   0.920  16.131  0.4579 -0.1327 -0.4933
   95TMC2    C6 1451   1.070   1.049  16.149  0.0545 -0.5485 -0.0450
   95TMC2     C 1452   1.286   0.942  15.813  0.3309 -0.0447 -0.2046
   95TMC2     O 1453   1.351   1.040  15.788  0.0907 -0.0841  0.4010
   95TMC2     H 1454   1.132   1.159  15.841 -0.1232 -0.2081 -0.4454
   95TMC2    H1 1455   1.189   0.771  15.998 -0.7922  0.0681 -0.1962
   95TMC2    H2 1456   1.025   1.089  16.239  1.6575  0.2255  0.4138
   95TMC2    C7 1457   1.141   0.832  16.244  0.1771  0.1566 -0.3146
   95TMC2    C8 1458   1.012   1.257  16.035  0.4179  0.5578  0.2856
   95TMC2    O1 1459   1.184   0.718  16.224  0.0063  0.5114  0.3692
   95TMC2    O2 1460   0.991   1.328  16.132 -0.4553 -0.2766 -0.1915
   95TMC2    O5 1461   0.946   1.275  15.920  0.4957 -0.6672 -0.4789
   95TMC2    H5 1462   0.962   1.213  15.846  1.9736 -0.7096 -0.1225
   96MPD2     C 1463   1.665   0.670  15.602 -0.8199 -0.5749 -0.1446
   96MPD2    C1 1464   1.652   0.799  15.633  0.7050 -0.2747  0.3723
   96MPD2    C2 1465   1.537   0.850  15.689  0.4440  0.1657  0.1099
   96MPD2    C3 1466   1.431   0.769  15.719 -0.5171 -0.2468 -0.6826
   96MPD2    C4 1467   1.449   0.630  15.690 -0.4524 -0.8107  0.0759
   96MPD2    C5 1468   1.563   0.582  15.630 -0.4392 -0.8349 -0.1322
   96MPD2     H 1469   1.537   0.957  15.707  1.5310  0.0532  0.7555
   96MPD2    H1 1470   1.377   0.555  15.723 -0.3467 -0.6436  0.6912
   96MPD2    H2 1471   1.751   0.632  15.547 -0.0010 -1.3681  1.6920
   96MPD2    H3 1472   1.571   0.477  15.605  0.2777 -1.2891  2.0237
   96MPD2     N 1473   1.312   0.811  15.780 -0.3755  0.1057  0.4529
   96MPD2    H5 1474   1.234   0.750  15.803  0.6655 -0.6597  1.9862
   96MPD2    N1 1475   1.762   0.878  15.596  0.3427 -0.0150 -0.0946
   96MPD2    H7 1476   1.847   0.832  15.564 -0.4314  0.1885 -2.4732
   97MPD2     C 1477   2.558   3.588   0.733  0.4761 -0.2501 -0.2990
   97MPD2    C1 1478   2.688   3.635   0.736  0.3019  0.2950 -0.0335
   97MPD2    C2 1479   2.752   3.663   0.611  0.2368 -1.0337  0.2655
   97MPD2    C3 1480   2.691   3.644   0.493  0.9711 -0.4276  0.3372
   97MPD2    C4 1481   2.563   3.599   0.496 -0.0038 -0.0322  0.1901
   97MPD2    C5 1482   2.496   3.573   0.612 -0.1731 -0.2465  0.2938
   97MPD2     H 1483   2.854   3.698   0.603  0.2633 -0.7132  1.9944
   97MPD2    H1 1484   2.508   3.597   0.402  0.3546  1.6272 -0.0413
   97MPD2    H2 1485   2.496   3.568   0.820  0.6128 -0.8495 -0.3343
   97MPD2    H3 1486   2.393   3.536   0.611 -1.5484  3.7251 -1.6764
   97MPD2     N 1487   2.754   3.660   0.365  0.4411 -0.9519 -0.0091
   97MPD2    H5 1488   2.719   3.607   0.286 -0.8001  0.3990 -0.3539
   97MPD2    N1 1489   2.750   3.660   0.862  0.0551  0.4993  0.3038
   97MPD2    H7 1490   2.706   3.633   0.949  0.1366  0.4166  0.3184
   98TCq2    C1 1491   2.865   3.728   0.344  0.4823 -0.5144  0.0486
   98TCq2    O2 1492   2.926   3.803   0.419  0.1449 -0.3714 -0.1235
   98TCq2    C2 1493   2.915   3.709   0.211 -0.0058  0.1976  0.0779
   98TCq2    C3 1494   2.894   3.600   0.138  0.9973  0.6429 -0.4339
   98TCq2    C4 1495   2.972   3.579   0.028  0.3902 -0.1617  0.0180
   98TCq2    C5 1496   3.074   3.656  17.689  0.4143  0.7588 -0.1080
   98TCq2    C6 1497   3.103   3.759   0.081  0.1297  0.3049  0.2593
   98TCq2    C7 1498   3.021   3.793   0.181  0.0975 -0.3722  0.2548
   98TCq2    C8 1499   3.230   3.824   0.075  0.4900  0.1894  0.0156
   98TCq2    O4 1500   3.322   3.750   0.036  0.0518 -0.3571 -0.0242
   98TCq2    C9 1501   2.944   3.471  17.633 -0.6432  0.2176 -0.4804
   98TCq2    O5 1502   2.908   3.355  17.674  0.4238  0.6273 -0.5672
   98TCq2    O6 1503   2.988   3.484  17.513  0.1629 -0.0843 -0.0956
   98TCq2    H2 1504   2.823   3.520   0.155  1.5309 -0.0720 -1.6116
   98TCq2    H3 1505   3.143   3.638  17.607 -1.3734 -0.0398 -1.4408
   98TCq2    H4 1506   3.046   3.878   0.243 -2.2137  1.2846 -1.0682
   99MPD2     C 1507   2.591   0.624   1.862  1.2675  0.0707 -0.3689
   99MPD2    C1 1508   2.472   0.691   1.859 -0.1849 -0.5088  0.7732
   99MPD2    C2 1509   2.398   0.697   1.746 -0.2247  0.2818 -0.8280
   99MPD2    C3 1510   2.434   0.631   1.631 -0.8046 -0.4630  0.3896
   99MPD2    C4 1511   2.549   0.556   1.632 -0.8110  0.1732 -0.6533
   99MPD2    C5 1512   2.616   0.548   1.752  0.2951 -0.3044 -0.1515
   99MPD2     H 1513   2.299   0.740   1.746  0.7828  2.6251  0.2080
   99MPD2    H1 1514   2.589   0.499   1.549 -0.2948 -1.3465  0.6387
   99MPD2    H2 1515   2.656   0.632   1.949 -1.0016  0.2857  1.3272
   99MPD2    H3 1516   2.712   0.497   1.752  0.4754  0.0337 -0.9787
   99MPD2     N 1517   2.348   0.638   1.520 -0.4242  0.2266  0.0788
   99MPD2    H5 1518   2.277   0.711   1.522 -0.6062  0.1380 -2.6623
   99MPD2    N1 1519   2.417   0.763   1.966  0.0499 -0.0638 -0.1008
   99MPD2    H7 1520   2.334   0.819   1.952  1.2232  2.4512  2.9802
  100TCq2    C1 1521   2.464   0.767   2.097  0.2463 -0.3781 -0.1256
  100TCq2    O2 1522   2.549   0.701   2.152  0.4272 -0.0589 -0.7558
  100TCq2    C2 1523   2.374   0.849   2.176 -0.1522 -0.7648 -0.4079
  100TCq2    C3 1524   2.428   0.944   2.257 -0.0040 -0.8202 -0.0442
  100TCq2    C4 1525   2.345   1.029   2.328 -0.2557 -0.7028  0.5736
  100TCq2    C5 1526   2.208   1.005   2.326 -0.5283  0.3833  0.2009
  100TCq2    C6 1527   2.159   0.905   2.250  0.1348 -0.1656 -0.2914
  100TCq2    C7 1528   2.238   0.823   2.175  0.0523 -0.0101 -0.4448
  100TCq2    C8 1529   2.015   0.910   2.237  0.0588  0.4056 -0.1515
  100TCq2    O4 1530   1.950   0.973   2.321 -0.2998 -0.3273 -0.1151
  100TCq2    C9 1531   2.407   1.137   2.405 -0.3506 -0.1454 -0.2206
  100TCq2    O5 1532   2.332   1.204   2.478 -0.5740 -0.4560  0.2008
  100TCq2    O6 1533   2.527   1.168   2.367 -0.3416  0.2919 -0.0784
  100TCq2    H2 1534   2.535   0.962   2.263 -0.3456  1.2730  0.0084
  100TCq2    H3 1535   2.145   1.069   2.387  0.1606  3.1875 -2.0401
  100TCq2    H4 1536   2.197   0.734   2.128  1.0451 -1.7779  2.0219
  101MPD2     C 1537   3.072   1.200  12.724  0.1285 -0.6227  0.2280
  101MPD2    C1 1538   2.971   1.281  12.768 -0.1701 -1.1251 -0.1708
  101MPD2    C2 1539   2.858   1.220  12.819 -0.5616  0.8032  0.9415
  101MPD2    C3 1540   2.843   1.087  12.824  0.2867 -0.2205  0.1869
  101MPD2    C4 1541   2.939   1.005  12.775  0.3496  0.1587  0.0490
  101MPD2    C5 1542   3.052   1.063  12.721 -0.6441 -0.5531  0.5000
  101MPD2     H 1543   2.776   1.282  12.853 -0.4816  1.0607  0.6647
  101MPD2    H1 1544   2.915   0.899  12.772  2.0538 -0.2342  0.7075
  101MPD2    H2 1545   3.163   1.249  12.689 -0.3968  1.2164  1.4226
  101MPD2    H3 1546   3.110   0.995  12.660 -1.0884 -0.8578  0.4121
  101MPD2     N 1547   2.724   1.034  12.881  0.3840  0.3405 -0.0309
  101MPD2    H5 1548   2.638   1.086  12.866 -0.2052 -0.7743 -0.5176
  101MPD2    N1 1549   2.997   1.421  12.773 -0.3649  0.5228  0.4512
  101MPD2    H7 1550   3.091   1.448  12.744  0.4458 -0.9152  1.7411
  102TCq2    C1 1551   3.166   1.857  12.576  0.2980  0.2779 -0.0948
  102TCq2    O2 1552   3.262   1.785  12.573  0.3441  0.0423  0.2014
  102TCq2    C2 1553   3.064   1.816  12.675 -0.7998  0.3348  0.1158
  102TCq2    C3 1554   2.988   1.913  12.735 -0.2203  0.5825 -0.5499
  102TCq2    C4 1555   2.893   1.878  12.833 -0.4625  0.2130 -0.4078
  102TCq2    C5 1556   2.866   1.746  12.858  0.4286 -0.7412 -0.3209
  102TCq2    C6 1557   2.954   1.653  12.795  0.1442  0.3981  0.0737
  102TCq2    C7 1558   3.054   1.682  12.705  0.6315 -0.2594 -0.2749
  102TCq2    C8 1559   2.912   1.516  12.822 -0.0306 -0.9430 -0.7443
  102TCq2    O4 1560   2.811   1.505  12.892  0.1266  0.1167 -0.5784
  102TCq2    C9 1561   2.827   1.983  12.901  0.0811  0.0694  0.5666
  102TCq2    O5 1562   2.839   2.101  12.859  0.3797  0.1769  0.2999
  102TCq2    O6 1563   2.731   1.939  12.968 -0.1250 -0.3354  0.0189
  102TCq2    H2 1564   2.988   2.017  12.704 -1.8158  1.2570  1.6947
  102TCq2    H3 1565   2.801   1.715  12.938 -2.7954 -1.9454 -3.4176
  102TCq2    H4 1566   3.132   1.618  12.664  2.5143  2.0042 -0.2661
  103TMC2    C1 1567   1.183   1.972  12.432 -0.4451  0.3079 -0.2023
  103TMC2    C2 1568   1.046   1.953  12.430  0.4427 -0.8593  0.2716
  103TMC2    C3 1569   0.980   1.967  12.549  0.7222  0.5552 -0.0324
  103TMC2    C4 1570   1.250   1.999  12.550 -0.3127 -0.2595 -0.0099
  103TMC2    C5 1571   1.175   2.014  12.663 -0.0813 -0.3871 -0.0539
  103TMC2    C6 1572   1.039   1.991  12.669 -0.2920  0.8851 -0.5275
  103TMC2     C 1573   1.239   1.961  12.300  0.0234 -0.1618 -0.1263
  103TMC2     O 1574   1.161   1.975  12.207  0.5485  0.7759  0.4160
  103TMC2     H 1575   0.978   1.936  12.348  0.5470  0.8281 -0.1657
  103TMC2    H1 1576   1.357   2.020  12.552 -0.3059 -0.1315 -1.5213
  103TMC2    H2 1577   0.990   1.974  12.764  1.9685  3.2734  1.0600
  103TMC2    C7 1578   1.227   2.028  12.798 -0.3666 -0.6020 -0.1268
  103TMC2    C8 1579   0.853   1.906  12.559  0.1730  1.1703 -0.3327
  103TMC2    O1 1580   1.152   2.064  12.885 -0.0184 -0.4141  0.1106
  103TMC2    O2 1581   0.832   1.836  12.654  0.1971 -0.1956 -0.3656
  103TMC2    O5 1582   0.771   1.903  12.452 -0.4560  0.6742 -0.1598
  103TMC2    H5 1583   0.802   1.969  12.386 -0.8674 -0.5682 -1.6043
  104MPD2     C 1584   1.586   1.898  12.191  0.1625 -0.0203  0.3450
  104MPD2    C1 1585   1.450   1.920  12.179 -0.1017  0.5476  0.2684
  104MPD2    C2 1586   1.404   1.922  12.048  0.4971 -0.4877 -0.7452
  104MPD2    C3 1587   1.482   1.902  11.933 -0.0270  0.3813 -0.0562
  104MPD2    C4 1588   1.617   1.867  11.952  1.0120 -0.1714 -0.1752
  104MPD2    C5 1589   1.659   1.862  12.084  0.3154 -0.1648 -0.5496
  104MPD2     H 1590   1.299   1.945  12.037  0.3583  0.5303  2.8215
  104MPD2    H1 1591   1.698   1.854  11.881  0.4251 -1.0754 -0.6847
  104MPD2    H2 1592   1.636   1.900  12.287 -1.1115  0.6055  0.9776
  104MPD2    H3 1593   1.765   1.840  12.090 -0.2198 -2.6654 -0.0402
  104MPD2     N 1594   1.418   1.901  11.805  0.0748  0.0468 -0.0400
  104MPD2    H5 1595   1.317   1.908  11.799 -0.0702 -2.1087  0.1805
  104MPD2    N1 1596   1.375   1.943  12.295  0.2880 -1.0067 -0.1216
  104MPD2    H7 1597   1.420   1.940  12.386  0.0597  1.9898  0.1014
  105MPD2     C 1598   2.678   1.191  17.215  0.6740  0.7793 -0.2249
  105MPD2    C1 1599   2.600   1.302  17.161 -0.3040 -0.9255  0.4079
  105MPD2    C2 1600   2.512   1.358  17.246 -0.0493  0.6208 -0.0206
  105MPD2    C3 1601   2.485   1.310  17.375 -0.2786 -0.2655  0.9660
  105MPD2    C4 1602   2.564   1.207  17.423  0.1015 -0.7962 -0.2311
  105MPD2    C5 1603   2.656   1.152  17.339 -0.4012 -0.6456 -0.4487
  105MPD2     H 1604   2.451   1.436  17.202  1.2846  0.5951 -1.9456
  105MPD2    H1 1605   2.542   1.179  17.525 -1.0370  0.4014 -0.1357
  105MPD2    H2 1606   2.746   1.134  17.153  3.5953  0.3148  3.4528
  105MPD2    H3 1607   2.726   1.081  17.381 -1.5253 -1.4390  0.1178
  105MPD2     N 1608   2.395   1.378  17.459  0.0471 -0.3513  0.1182
  105MPD2    H5 1609   2.357   1.469  17.436  3.5175  0.9290 -0.5429
  105MPD2    N1 1610   2.611   1.350  17.029 -0.3007  0.8231 -0.3444
  105MPD2    H7 1611   2.554   1.430  17.004 -0.9126  0.2755 -0.7296
  106TCq2    C1 1612   2.338   1.326  17.574 -0.4424  0.1276 -0.4947
  106TCq2    O2 1613   2.330   1.209  17.613  0.1818  0.1169 -0.2178
  106TCq2    C2 1614   2.272   1.434  17.645  0.5862 -0.1166 -0.6942
  106TCq2    C3 1615   2.312   1.567  17.638  0.1091  0.4367 -0.3644
  106TCq2    C4 1616   2.246   1.652   0.030  0.3777 -0.4023  1.0051
  106TCq2    C5 1617   2.153   1.619   0.120 -0.2564  0.9094 -0.2624
  106TCq2    C6 1618   2.115   1.487   0.121  0.1242  0.5194  1.2317
  106TCq2    C7 1619   2.174   1.393   0.041  0.0579  0.2790 -0.3726
  106TCq2    C8 1620   1.978   1.450   0.172  0.4388  0.8659 -0.7389
  106TCq2    O4 1621   1.934   1.344   0.135 -0.0180  0.2675 -0.0020
  106TCq2    C9 1622   2.284   1.794   0.015 -0.2617 -0.4085 -0.0923
  106TCq2    O5 1623   2.223   1.879   0.078  0.3028 -0.4868 -0.0260
  106TCq2    O6 1624   2.381   1.828  17.640 -0.5016 -0.6145 -0.3451
  106TCq2    H2 1625   2.397   1.601  17.580 -0.0805  0.8045 -0.4292
  106TCq2    H3 1626   2.112   1.696   0.184  1.0152  1.3809 -0.0061
  106TCq2    H4 1627   2.149   1.287   0.047 -1.5390  0.8006  1.9519
  107TMC2    C1 1628   3.522   0.554  11.519 -0.6698  0.2118  0.6571
  107TMC2    C2 1629   3.640   0.621  11.486  0.4133 -0.2544  0.5672
  107TMC2    C3 1630   3.670   0.608  11.353  0.0269 -0.2273  1.1873
  107TMC2    C4 1631   3.440   0.484  11.433 -0.9244  0.2926 -0.2335
  107TMC2    C5 1632   3.477   0.475  11.299  0.4074 -0.4981  0.0042
  107TMC2    C6 1633   3.592   0.538  11.261  0.0194 -0.1113 -0.7125
  107TMC2     C 1634   3.461   0.585  11.650 -0.1695  0.2615  0.4499
  107TMC2     O 1635   3.376   0.506  11.688 -0.4647  0.5501 -0.1891
  107TMC2     H 1636   3.699   0.672  11.561  0.4721 -0.3776  0.6041
  107TMC2    H1 1637   3.351   0.430  11.464  0.8372 -2.1319  0.5070
  107TMC2    H2 1638   3.639   0.523  11.165  1.0547  1.3462 -0.4372
  107TMC2    C7 1639   3.403   0.384  11.208 -0.3490 -0.3055  0.0577
  107TMC2    C8 1640   3.770   0.695  11.307 -0.5454  0.5266  0.7523
  107TMC2    O1 1641   3.326   0.308  11.259 -0.7082  0.0407  0.2858
  107TMC2    O2 1642   3.870   0.652  11.252 -0.5915  0.5201 -0.5911
  107TMC2    O5 1643   3.697   0.794  11.247  0.4218 -0.4317 -0.9646
  107TMC2    H5 1644   3.603   0.801  11.275  0.3033 -1.7318 -1.0485
  108MPD2     C 1645   3.414   0.903  11.814 -0.0424  0.4344 -0.0989
  108MPD2    C1 1646   3.412   0.770  11.802  0.3557 -0.3348  0.1200
  108MPD2    C2 1647   3.331   0.700  11.892 -0.1613  0.2435 -0.9126
  108MPD2    C3 1648   3.253   0.771  11.986  0.3847  0.3492 -0.5931
  108MPD2    C4 1649   3.253   0.910  11.987  0.1124 -0.2757  0.1264
  108MPD2    C5 1650   3.332   0.966  11.898 -0.6285 -0.7888 -0.5045
  108MPD2     H 1651   3.323   0.592  11.884  1.4724  0.1073 -0.6993
  108MPD2    H1 1652   3.182   0.970  12.045  1.0980 -0.4141  1.4786
  108MPD2    H2 1653   3.470   0.972  11.753 -1.6676 -0.1617 -2.2609
  108MPD2    H3 1654   3.329   1.074  11.889  0.4643 -0.6773  0.4766
  108MPD2     N 1655   3.163   0.714  12.075  0.0746 -0.1706  0.2014
  108MPD2    H5 1656   3.104   0.782  12.122 -0.5440 -1.1390  0.8204
  108MPD2    N1 1657   3.487   0.713  11.694  0.2664  0.1492 -0.4517
  108MPD2    H7 1658   3.548   0.770  11.636  2.5818 -0.5750  1.2990
  109MPD2     C 1659   2.184   2.778   1.290 -0.4886 -0.3667  0.2918
  109MPD2    C1 1660   2.321   2.772   1.317  0.0965  1.0997 -0.9261
  109MPD2    C2 1661   2.380   2.832   1.425  0.5985  0.2426  0.8138
  109MPD2    C3 1662   2.298   2.881   1.522  0.3607 -0.9795  0.0028
  109MPD2    C4 1663   2.161   2.874   1.496 -0.1029  0.1370  0.3146
  109MPD2    C5 1664   2.107   2.837   1.378  0.5748  0.5038  0.0093
  109MPD2     H 1665   2.483   2.815   1.454  0.9190  0.8069 -0.0226
  109MPD2    H1 1666   2.091   2.915   1.568 -0.3320 -0.3662  0.3848
  109MPD2    H2 1667   2.141   2.741   1.198 -2.1744 -1.0692  1.3471
  109MPD2    H3 1668   2.002   2.858   1.362  0.1176 -0.3493  1.8795
  109MPD2     N 1669   2.344   2.947   1.636 -0.1191 -0.3249  0.0540
  109MPD2    H5 1670   2.443   2.963   1.646 -0.0203 -1.8691  1.6203
  109MPD2    N1 1671   2.394   2.697   1.224  0.4833  0.0193 -0.6055
  109MPD2    H7 1672   2.338   2.674   1.143 -0.4771  0.6053 -0.1134
  110TCq2    C1 1673   2.269   2.978   1.746 -0.2387  0.2555 -1.1124
  110TCq2    O2 1674   2.171   2.916   1.790  0.8186  0.1658 -0.5811
  110TCq2    C2 1675   2.333   3.084   1.822  0.4030  0.1470  0.6741
  110TCq2    C3 1676   2.317   3.094   1.962 -0.1165  0.6972  0.9797
  110TCq2    C4 1677   2.371   3.204   2.027 -0.3508 -0.9633  0.3316
  110TCq2    C5 1678   2.421   3.309   1.959 -0.0744  0.5007 -0.0115
  110TCq2    C6 1679   2.428   3.299   1.818 -0.7744  0.2353 -0.1109
  110TCq2    C7 1680   2.380   3.189   1.749  0.3734  0.2358 -0.9445
  110TCq2    C8 1681   2.492   3.404   1.737 -0.9588 -0.2284  0.6214
  110TCq2    O4 1682   2.500   3.387   1.614  0.9775 -0.1076 -0.4425
  110TCq2    C9 1683   2.380   3.195   2.170  0.8574  0.3840 -0.1006
  110TCq2    O5 1684   2.470   3.272   2.223  0.6357  0.9777 -0.2991
  110TCq2    O6 1685   2.317   3.103   2.232 -0.5174 -0.1471 -0.3533
  110TCq2    H2 1686   2.279   3.005   2.012  3.1498 -0.9127  0.6610
  110TCq2    H3 1687   2.465   3.391   2.015 -0.6014  0.2707  0.7449
  110TCq2    H4 1688   2.398   3.190   1.643  0.6107 -0.0467 -0.9062
  111TMC2    C1 1689   3.815   2.396  11.281 -0.0180  0.2440 -0.3768
  111TMC2    C2 1690   3.892   2.375  11.174  0.2465  0.2146  0.5719
  111TMC2    C3 1691   4.010   2.314  11.190  0.3359  0.2840 -0.4626
  111TMC2    C4 1692   3.858   2.362  11.406  0.4287  0.0553 -0.4012
  111TMC2    C5 1693   3.975   2.296  11.422 -0.1894  0.5833 -0.2686
  111TMC2    C6 1694   4.058   2.272  11.313  0.2344  0.2793  0.2230
  111TMC2     C 1695   3.689   2.465  11.257 -0.1590  0.1169 -0.1991
  111TMC2     O 1696   3.674   2.512  11.141 -0.5496  0.2118 -0.8042
  111TMC2     H 1697   3.857   2.406  11.076  0.1502  0.3332  0.6433
  111TMC2    H1 1698   3.808   2.403  11.493 -0.8077 -1.1138 -0.5517
  111TMC2    H2 1699   4.158   2.231  11.317 -1.0869 -2.9182  0.3193
  111TMC2    C7 1700   4.029   2.266  11.552  0.0148 -0.7518 -0.2893
  111TMC2    C8 1701   4.077   2.276  11.059  0.3707 -0.1369  0.3299
  111TMC2    O1 1702   3.962   2.304  11.648 -0.5845 -0.0611  0.1719
  111TMC2    O2 1703   4.143   2.175  11.041 -0.2290 -0.0072 -0.3074
  111TMC2    O5 1704   4.063   2.380  10.968 -0.0403 -0.0291  0.6074
  111TMC2    H5 1705   4.034   2.455  11.025 -1.5369  1.3295 -1.9681
  112MPD2     C 1706   3.205   2.597  11.321 -0.5239  0.2148  0.2720
  112MPD2    C1 1707   3.282   2.596  11.210 -0.3489  0.1803 -0.6598
  112MPD2    C2 1708   3.411   2.560  11.220  0.0806 -0.1025  0.5135
  112MPD2    C3 1709   3.467   2.501  11.338 -0.1642  0.1449  0.5180
  112MPD2    C4 1710   3.387   2.498  11.448 -0.2033  1.2688  0.2690
  112MPD2    C5 1711   3.257   2.552  11.437  0.0001 -0.0103 -0.6508
  112MPD2     H 1712   3.471   2.580  11.131  1.1790 -1.2382  1.0025
  112MPD2    H1 1713   3.425   2.464  11.543  1.7228 -1.3106 -1.4293
  112MPD2    H2 1714   3.111   2.650  11.326 -0.8117 -0.4359  1.9308
  112MPD2    H3 1715   3.201   2.564  11.529  0.7293 -0.3946 -0.1654
  112MPD2     N 1716   3.593   2.447  11.347 -0.3828 -0.6735 -0.5585
  112MPD2    H5 1717   3.616   2.391  11.429  2.8199  1.0677 -0.2862
  112MPD2    N1 1718   3.239   2.640  11.083  0.8091  0.1926 -0.1155
  112MPD2    H7 1719   3.312   2.645  11.012 -0.6462 -0.0170 -1.6242
  113MPD2     C 1720   1.692   0.771   1.336 -0.5113 -0.2627  0.2080
  113MPD2    C1 1721   1.573   0.840   1.363  0.1621 -0.0911  0.3040
  113MPD2    C2 1722   1.486   0.856   1.256  0.0214 -0.3801  0.4531
  113MPD2    C3 1723   1.500   0.792   1.138 -0.4928 -0.0929 -0.6498
  113MPD2    C4 1724   1.611   0.709   1.120  0.8740  0.3006  0.3736
  113MPD2    C5 1725   1.709   0.712   1.208  0.4190  0.4631 -0.1440
  113MPD2     H 1726   1.402   0.925   1.264  0.3769  0.2141 -0.8387
  113MPD2    H1 1727   1.647   0.657   1.032  1.1633 -0.6930  1.0692
  113MPD2    H2 1728   1.778   0.781   1.402 -0.8234 -0.3102  0.6200
  113MPD2    H3 1729   1.803   0.668   1.178  0.4683 -0.3687  1.1864
  113MPD2     N 1730   1.414   0.802   1.027  0.2445 -0.0496 -0.5658
  113MPD2    H5 1731   1.440   0.758   0.939 -1.2531 -0.7620 -0.6566
  113MPD2    N1 1732   1.546   0.911   1.478  0.4185  0.5180 -0.1875
  113MPD2    H7 1733   1.460   0.965   1.482  0.3689  0.3878  0.6355
  114TCq2    C1 1734   1.293   0.859   1.022  0.3119  0.9856  0.2068
  114TCq2    O2 1735   1.230   0.930   1.102  0.4145  0.5199 -0.5799
  114TCq2    C2 1736   1.235   0.834   0.893  0.2833 -0.5567  0.1802
  114TCq2    C3 1737   1.149   0.924   0.849 -0.1568 -0.0786  0.1837
  114TCq2    C4 1738   1.100   0.917   0.721 -0.6890 -0.1360  0.0576
  114TCq2    C5 1739   1.144   0.820   0.627  0.3210 -0.0401 -0.2065
  114TCq2    C6 1740   1.229   0.730   0.681  0.5626 -0.1385 -0.2096
  114TCq2    C7 1741   1.275   0.733   0.806 -0.5374 -0.0281 -0.3579
  114TCq2    C8 1742   1.219   0.599   0.627  0.6091 -0.3242  0.0385
  114TCq2    O4 1743   1.210   0.586   0.504 -0.7551 -0.1415 -0.5983
  114TCq2    C9 1744   1.027   1.034   0.663  0.5976  0.0530 -0.2186
  114TCq2    O5 1745   0.993   1.023   0.542 -0.0897 -0.0665  0.1167
  114TCq2    O6 1746   0.983   1.124   0.738 -0.0724  1.2273  0.6256
  114TCq2    H2 1747   1.123   1.011   0.907 -2.2486 -0.2593 -0.4713
  114TCq2    H3 1748   1.092   0.818   0.532  1.0561  1.6409 -0.6272
  114TCq2    H4 1749   1.344   0.654   0.832  0.2680  1.0483  0.8073
  115TMC2    C1 1750   1.862   3.465  17.399  0.0154 -0.3933 -0.0055
  115TMC2    C2 1751   1.786   3.523  17.304  0.1294  0.1778 -0.4626
  115TMC2    C3 1752   1.806   3.650  17.263 -0.0892  0.1322 -0.2183
  115TMC2    C4 1753   1.957   3.534  17.461  0.3725  0.2305 -0.1558
  115TMC2    C5 1754   1.985   3.657  17.412  0.5367  0.6816  0.5766
  115TMC2    C6 1755   1.916   3.712  17.311  0.0085  0.4299  0.4216
  115TMC2     C 1756   1.840   3.323  17.418  0.0178  0.0652  0.2350
  115TMC2     O 1757   1.758   3.273  17.340 -0.0315 -0.2298  0.1394
  115TMC2     H 1758   1.703   3.470  17.257 -0.3943  0.5804  0.0038
  115TMC2    H1 1759   2.014   3.490  17.542  1.7198 -0.2831 -1.3831
  115TMC2    H2 1760   1.945   3.811  17.279  2.1915 -1.1128 -2.3533
  115TMC2    C7 1761   2.089   3.728  17.478 -0.2778 -1.0536 -0.6475
  115TMC2    C8 1762   1.775   3.664  17.121  0.0062  0.5016 -0.7109
  115TMC2    O1 1763   2.102   3.694  17.594 -0.2579  0.4285 -0.7561
  115TMC2    O2 1764   1.858   3.732  17.058 -0.1821 -0.2085  0.2972
  115TMC2    O5 1765   1.640   3.665  17.111 -0.0971 -0.1881 -0.2522
  115TMC2    H5 1766   1.584   3.614  17.175 -0.3344 -0.4633 -0.6825
  116MPD2     C 1767   1.876   2.897   0.008  0.3553  0.2079  0.5147
  116MPD2    C1 1768   1.842   2.913  17.561  0.1142  0.4643  0.1781
  116MPD2    C2 1769   1.847   3.040  17.510  0.2745 -0.9133  0.1310
  116MPD2    C3 1770   1.897   3.150  17.588  0.1642 -0.4762 -0.2273
  116MPD2    C4 1771   1.928   3.131   0.027  0.2900  0.3876 -0.3454
  116MPD2    C5 1772   1.911   3.006   0.080 -0.9783  0.0849  0.7509
  116MPD2     H 1773   1.812   3.056  17.409  1.6576 -1.2919 -0.4082
  116MPD2    H1 1774   1.971   3.212   0.084  3.3100 -2.2474  1.0686
  116MPD2    H2 1775   1.863   2.803   0.060  0.7714  1.1141  2.2343
  116MPD2    H3 1776   1.934   2.997   0.185  1.5830  1.0085  0.2583
  116MPD2     N 1777   1.894   3.282  17.532  0.5352 -0.1246 -0.2225
  116MPD2    H5 1778   1.930   3.358  17.588  1.0360 -0.7240  0.2791
  116MPD2    N1 1779   1.796   2.803  17.476  0.0992  0.2501  0.7172
  116MPD2    H7 1780   1.796   2.712  17.521  1.6478  0.0543  0.2993
  117TMC2    C1 1781   0.707   4.380  14.055  0.8904  0.4163 -0.0467
  117TMC2    C2 1782   0.739   4.321  14.172  0.9484 -0.3863 -0.1788
  117TMC2    C3 1783   0.842   4.384  14.232  0.3649 -0.1156 -0.1523
  117TMC2    C4 1784   0.763   4.494  14.009 -0.1801  0.0355  0.0667
  117TMC2    C5 1785   0.868   4.547  14.073 -0.0036  0.2226  0.1561
  117TMC2    C6 1786   0.904   4.501  14.196 -0.6281  0.7007 -0.0877
  117TMC2     C 1787   0.575   4.344  14.003 -1.7107  0.0449 -0.0695
  117TMC2     O 1788   0.529   4.230  14.004 -0.4794  0.3186 -0.0631
  117TMC2     H 1789   0.679   4.240  14.213 -1.2241  2.7364  2.8145
  117TMC2    H1 1790   0.745   4.526  13.907  1.8886  0.8402 -0.0292
  117TMC2    H2 1791   0.985   4.542  14.254 -0.9120  1.0960  0.0267
  117TMC2    C7 1792   0.899   4.689  14.045 -0.1765  1.4858  0.3353
  117TMC2    C8 1793   0.850   4.372  14.373  0.0280  1.6308  0.3737
  117TMC2    O1 1794   1.012   0.008  14.054  0.3079  0.0981  0.3935
  117TMC2    O2 1795   0.839   4.461  14.455 -0.3054  0.4648  0.1891
  117TMC2    O5 1796   0.829   4.243  14.397 -0.3782 -0.0225 -0.3609
  117TMC2    H5 1797   0.861   4.194  14.318  0.0714 -0.5489  0.1437
  118MPD2     C 1798   0.656   0.227  13.992  0.6859  0.7785  0.5593
  118MPD2    C1 1799   0.781   0.170  13.978  0.2198  0.5294  0.1829
  118MPD2    C2 1800   0.878   0.250  13.917 -0.0316  0.0546  0.5747
  118MPD2    C3 1801   0.861   0.384  13.891 -0.5737  0.1760  0.3600
  118MPD2    C4 1802   0.737   0.441  13.920 -0.2505 -0.7696  0.0394
  118MPD2    C5 1803   0.633   0.365  13.965 -0.2782 -0.1211  0.6078
  118MPD2     H 1804   0.970   0.200  13.889  0.5806  1.9409 -0.8189
  118MPD2    H1 1805   0.723   0.546  13.897 -0.8654 -0.7357  0.5766
  118MPD2    H2 1806   0.569   0.176  14.031 -0.8554  3.5213  0.6665
  118MPD2    H3 1807   0.537   0.410  13.985 -0.0086 -0.0685  1.7861
  118MPD2     N 1808   0.955   0.464  13.824  0.3136  0.8866  0.6433
  118MPD2    H5 1809   0.939   0.565  13.821 -2.9671  0.4479  2.9039
  118MPD2    N1 1810   0.789   0.029  14.006  0.0700 -0.2815  0.5734
  118MPD2    H7 1811   0.701   4.710  14.034  0.1072 -0.7451  0.0044
  119MPD2     C 1812   3.830   1.606  13.672 -0.4148 -0.3387  0.4848
  119MPD2    C1 1813   3.699   1.578  13.657  0.0639  0.5339  0.5630
  119MPD2    C2 1814   3.645   1.597  13.533 -0.1643 -0.6139  0.5843
  119MPD2    C3 1815   3.723   1.616  13.420  0.1678 -0.3026  0.1644
  119MPD2    C4 1816   3.857   1.636  13.434 -0.7729 -0.1765 -0.2944
  119MPD2    C5 1817   3.908   1.633  13.564 -0.4306 -0.0779  0.6374
  119MPD2     H 1818   3.537   1.601  13.531 -0.1104 -0.3517 -1.4321
  119MPD2    H1 1819   3.927   1.650  13.352 -1.7729 -0.5641 -1.2108
  119MPD2    H2 1820   3.880   1.616  13.768  0.5496 -0.0349 -0.0471
  119MPD2    H3 1821   4.013   1.651  13.582 -0.2788  0.0007 -0.3169
  119MPD2     N 1822   3.689   1.610  13.281  0.4509 -0.0933 -0.5589
  119MPD2    H5 1823   3.764   1.603  13.213  3.3275  1.5820  2.4112
  119MPD2    N1 1824   3.622   1.517  13.761  0.3145  0.5261  0.1775
  119MPD2    H7 1825   3.673   1.510  13.849 -0.3990  1.2538  0.6491
  120TCq2    C1 1826   3.561   1.585  13.239 -0.5212 -0.2108 -0.3864
  120TCq2    O2 1827   3.463   1.593  13.313  0.4593  0.2532  0.1786
  120TCq2    C2 1828   3.551   1.537  13.100 -0.1629  0.1216  0.8049
  120TCq2    C3 1829   3.648   1.441  13.066  0.0664 -0.9244 -1.0023
  120TCq2    C4 1830   3.610   1.331  12.990  0.2587  1.1164  0.6392
  120TCq2    C5 1831   3.483   1.286  12.984  0.0061 -1.3341  0.5068
  120TCq2    C6 1832   3.391   1.376  13.017  0.1643 -0.5504 -0.1064
  120TCq2    C7 1833   3.423   1.503  13.063 -0.4949  0.3047 -0.2984
  120TCq2    C8 1834   3.257   1.337  13.035  0.0234 -0.4054  0.3834
  120TCq2    O4 1835   3.175   1.425  13.049 -0.2649  0.4137  0.5713
  120TCq2    C9 1836   3.721   1.241  12.960 -0.2775 -0.3512 -0.1361
  120TCq2    O5 1837   3.834   1.287  12.968 -0.0857  0.1945  0.2982
  120TCq2    O6 1838   3.684   1.122  12.971 -0.6559 -0.2904  0.0261
  120TCq2    H2 1839   3.748   1.447  13.107 -1.2657 -3.3000  2.5937
  120TCq2    H3 1840   3.458   1.188  12.945 -1.9862 -0.2630 -0.8983
  120TCq2    H4 1841   3.347   1.561  13.115 -1.6751  0.0928 -1.7786
  121TMC2    C1 1842   0.330   2.910  14.105 -0.2728 -0.0342  0.5075
  121TMC2    C2 1843   0.439   2.885  14.181  0.2429 -0.2381  0.3191
  121TMC2    C3 1844   0.410   2.803  14.285  0.1414  0.2975  0.5766
  121TMC2    C4 1845   0.209   2.845  14.120 -0.0859 -0.4562  0.0961
  121TMC2    C5 1846   0.189   2.753  14.220  0.9171 -0.0426 -0.5871
  121TMC2    C6 1847   0.292   2.727  14.304 -0.0371 -0.1544 -0.0067
  121TMC2     C 1848   0.335   3.022  14.015  0.6555  0.2424  0.1060
  121TMC2     O 1849   0.229   3.084  14.011  0.2402  0.3418 -0.5256
  121TMC2     H 1850   0.527   2.948  14.185  1.8415 -2.4086 -0.3743
  121TMC2    H1 1851   0.130   2.872  14.051 -1.2639  0.3391  1.7739
  121TMC2    H2 1852   0.293   2.641  14.370  0.3370  0.0622  0.2715
  121TMC2    C7 1853   0.105   2.631  14.201  1.1881  0.1363  0.4463
  121TMC2    C8 1854   0.522   2.774  14.370  0.6382 -0.2626 -0.4300
  121TMC2    O1 1855   0.116   2.546  14.284 -0.0656 -0.8342 -0.0484
  121TMC2    O2 1856   0.611   2.853  14.397  0.2096  0.6912  0.1835
  121TMC2    O5 1857   0.542   2.646  14.332  0.3333  0.9280 -0.1337
  121TMC2    H5 1858   0.476   2.622  14.264  1.8468  0.6355 -1.5079
  122MPD2     C 1859   0.413   3.265  13.884 -0.7025  0.3472  0.3842
  122MPD2    C1 1860   0.488   3.147  13.874 -0.6194  1.0083  0.5368
  122MPD2    C2 1861   0.585   3.136  13.773  0.6299  0.0155 -0.0777
  122MPD2    C3 1862   0.622   3.253  13.704 -0.1469 -0.7339  0.1500
  122MPD2    C4 1863   0.575   3.377  13.748  0.6271 -0.1982 -0.1028
  122MPD2    C5 1864   0.466   3.384  13.833 -0.0991 -0.3284 -1.1203
  122MPD2     H 1865   0.633   3.039  13.767 -1.1230 -0.9548  1.7300
  122MPD2    H1 1866   0.605   3.473  13.706 -1.4219  0.1700 -0.7148
  122MPD2    H2 1867   0.332   3.283  13.954 -1.7375  1.5525 -1.1172
  122MPD2    H3 1868   0.430   3.481  13.863  0.5365 -1.0063  1.7881
  122MPD2     N 1869   0.709   3.256  13.592 -0.7163  1.2864  0.0133
  122MPD2    H5 1870   0.740   3.349  13.567  2.4618  0.3896  0.5303
  122MPD2    N1 1871   0.452   3.037  13.954  0.2410  0.0653  0.0725
  122MPD2    H7 1872   0.511   2.954  13.953  0.4691  0.2222  1.6194
  123MPD2     C 1873   3.905   1.632   9.521  0.0879 -0.5843 -0.0272
  123MPD2    C1 1874   3.810   1.534   9.471  0.4065 -0.0145  0.3619
  123MPD2    C2 1875   3.709   1.587   9.381  0.1624 -0.1570  0.1113
  123MPD2    C3 1876   3.705   1.725   9.351  0.4722  0.2587  0.1339
  123MPD2    C4 1877   3.802   1.808   9.403  0.5940 -0.0026  0.0570
  123MPD2    C5 1878   3.899   1.758   9.477  0.4536 -0.1298 -0.6436
  123MPD2     H 1879   3.640   1.519   9.334  0.9637 -0.6457 -0.3689
  123MPD2    H1 1880   3.809   1.911   9.371  0.4400  0.2733  0.9264
  123MPD2    H2 1881   3.994   1.600   9.576 -0.5298  0.6462  1.6656
  123MPD2    H3 1882   3.971   1.831   9.512  0.3271  0.0385 -0.7355
  123MPD2     N 1883   3.608   1.759   9.257  0.4032  0.2987 -0.4801
  123MPD2    H5 1884   3.551   1.680   9.228 -1.8772  1.5910  0.5245
  123MPD2    N1 1885   3.809   1.402   9.524 -0.7786  0.6656  0.6047
  123MPD2    H7 1886   3.852   1.388   9.615  0.0165  1.4871  0.3498
  124TCq2    C1 1887   3.579   1.881   9.214  0.4058 -0.5261 -0.0996
  124TCq2    O2 1888   3.627   1.990   9.243 -0.5127  0.2685 -0.2947
  124TCq2    C2 1889   3.463   1.875   9.121  0.3536 -0.0331 -0.0615
  124TCq2    C3 1890   3.445   1.977   9.033 -0.9927  0.3819  0.4612
  124TCq2    C4 1891   3.346   1.957   8.939 -0.4643  0.6937  0.1566
  124TCq2    C5 1892   3.270   1.842   8.925 -0.2662 -0.6643 -0.6429
  124TCq2    C6 1893   3.303   1.743   9.011 -0.1705 -0.4410  0.4202
  124TCq2    C7 1894   3.400   1.754   9.106 -0.0435  0.0498  0.3095
  124TCq2    C8 1895   3.203   1.643   9.040  0.0012 -0.3215  0.2034
  124TCq2    O4 1896   3.234   1.540   9.097  0.7643  0.2226  0.2734
  124TCq2    C9 1897   3.315   2.062   8.850 -0.7299 -0.1652  0.2728
  124TCq2    O5 1898   3.222   2.040   8.765  0.2178  0.2518  0.2038
  124TCq2    O6 1899   3.362   2.172   8.882  0.4035 -0.3621  0.7361
  124TCq2    H2 1900   3.502   2.066   9.057  1.6901 -0.7693 -1.6529
  124TCq2    H3 1901   3.195   1.829   8.848 -1.9400 -2.3645  1.2664
  124TCq2    H4 1902   3.407   1.670   9.174  1.8364  0.2239  0.3280
  125TMC2    C1 1903   4.370   3.189   9.391  0.3073 -0.2775  0.0635
  125TMC2    C2 1904   4.345   3.215   9.254  0.7331  0.2172 -0.2959
  125TMC2    C3 1905   4.428   3.303   9.186 -0.1254 -0.6569 -0.1412
  125TMC2    C4 1906   4.482   3.244   9.451  0.2935 -0.0818 -0.3419
  125TMC2    C5 1907   4.559   3.332   9.382 -0.1121  0.4515  0.3912
  125TMC2    C6 1908   4.532   3.361   9.250  0.1694  0.8253 -0.1985
  125TMC2     C 1909   4.292   3.098   9.460 -0.1244 -1.1170  0.1609
  125TMC2     O 1910   4.328   3.072   9.578 -0.0125 -0.3016 -0.5348
  125TMC2     H 1911   4.264   3.172   9.196 -0.9756  2.0080  0.7441
  125TMC2    H1 1912   4.511   3.214   9.551 -1.3337 -1.4118 -0.2758
  125TMC2    H2 1913   4.586   3.438   9.196 -1.7032  0.6596 -2.2776
  125TMC2    C7 1914   4.665   3.383   9.451  0.3655 -0.4420 -0.1033
  125TMC2    C8 1915   4.421   3.306   9.044 -0.0099 -0.2254  0.0781
  125TMC2    O1 1916   4.666   3.393   9.575  0.0972 -0.0198  0.4220
  125TMC2    O2 1917   4.312   3.279   8.985 -0.0475  0.3019 -0.4521
  125TMC2    O5 1918   4.537   3.240   9.010  0.2584  0.2695  0.4152
  125TMC2    H5 1919   4.607   3.237   9.079  0.6655 -1.2806 -0.0643
  126MPD1     C 1920   3.921   2.755   9.472  0.1584  0.4714  0.6272
  126MPD1    C1 1921   3.917   2.807   9.342  0.2873  0.8580  0.1896
  126MPD1    C2 1922   4.015   2.900   9.318  0.2342  0.2372  0.8069
  126MPD1    C3 1923   4.095   2.950   9.414  0.3056  0.3551 -0.2945
  126MPD1    C4 1924   4.085   2.913   9.547  0.2866 -0.1025  0.2210
  126MPD1    C5 1925   3.995   2.815   9.569 -0.1655  0.0238 -0.4318
  126MPD1     H 1926   4.019   2.946   9.220  1.0020 -2.0627 -0.2389
  126MPD1    H1 1927   4.143   2.954   9.629 -0.2877  1.4889 -0.1668
  126MPD1    H2 1928   3.858   2.669   9.491  0.7575 -0.3620 -1.1585
  126MPD1    H3 1929   3.979   2.786   9.672 -1.2689 -0.6636 -0.8002
  126MPD1     N 1930   4.193   3.042   9.374  0.0025 -0.7897  0.2388
  126MPD1    H5 1931   4.181   3.065   9.276 -0.5908 -0.3267  0.4192
  126MPD1    N1 1932   3.839   2.747   9.245 -1.1708  0.1923  0.6283
  126MPD1    H6 1933   3.753   2.703   9.279 -0.9213  0.5724  1.7723
  126MPD1    H7 1934   3.805   2.812   9.176 -0.3981 -0.6787 -0.5708
  127MPD2     C 1935   0.912   2.174   9.281  0.1941  0.3025  0.8844
  127MPD2    C1 1936   0.905   2.164   9.420  0.1644  0.2730  0.2000
  127MPD2    C2 1937   0.984   2.247   9.495  0.5268 -0.0789  0.3776
  127MPD2    C3 1938   1.058   2.344   9.441 -0.4162 -0.1421  0.8448
  127MPD2    C4 1939   1.060   2.357   9.301  0.0767 -0.3239 -0.4730
  127MPD2    C5 1940   0.997   2.265   9.222 -0.3661  0.2885 -0.2157
  127MPD2     H 1941   0.992   2.231   9.602  0.2675 -1.4572  0.1942
  127MPD2    H1 1942   1.127   2.425   9.249  0.8099 -1.0339 -0.4567
  127MPD2    H2 1943   0.853   2.108   9.218  1.5904 -0.5206  0.4387
  127MPD2    H3 1944   1.008   2.273   9.115  0.9450  1.0546 -0.0321
  127MPD2     N 1945   1.130   2.422   9.528 -0.4420 -0.1052 -0.0698
  127MPD2    H5 1946   1.128   2.398   9.627  0.0706  1.0399  0.2167
  127MPD2    N1 1947   0.822   2.063   9.476  0.1947 -0.1865 -0.4159
  127MPD2    H7 1948   0.778   2.004   9.406 -0.7755  0.0931 -0.0548
  128TCq2    C1 1949   0.816   2.025   9.607 -0.1182 -0.7874  0.2658
  128TCq2    O2 1950   0.865   2.069   9.713 -0.0592 -0.3784  0.0551
  128TCq2    C2 1951   0.747   1.899   9.617  0.1400 -0.6264 -0.0167
  128TCq2    C3 1952   0.788   1.819   9.718  0.8459 -0.0496 -0.1016
  128TCq2    C4 1953   0.741   1.692   9.719 -0.2031 -0.2520 -0.0695
  128TCq2    C5 1954   0.640   1.649   9.634 -0.4805  0.3047  0.2347
  128TCq2    C6 1955   0.604   1.734   9.533  1.0189 -0.5265 -0.0795
  128TCq2    C7 1956   0.655   1.861   9.520 -0.0143 -0.6728  0.7698
  128TCq2    C8 1957   0.475   1.709   9.464  0.3474 -0.0677  0.0686
  128TCq2    O4 1958   0.431   1.795   9.387 -0.6973 -0.1312 -0.6948
  128TCq2    C9 1959   0.791   1.614   9.825  0.3522 -0.4421 -0.6002
  128TCq2    O5 1960   0.867   1.664   9.908 -0.2285 -0.5219 -0.0982
  128TCq2    O6 1961   0.729   1.505   9.844  0.1792 -0.2121  0.8637
  128TCq2    H2 1962   0.863   1.842   9.792  0.4511 -0.5286  0.4423
  128TCq2    H3 1963   0.596   1.553   9.657  1.5727 -0.2147  2.0052
  128TCq2    H4 1964   0.618   1.931   9.445 -0.3800 -1.0057  0.6366
  129MPD2     C 1965   2.698   3.259   0.775 -0.3446 -0.5509 -0.6759
  129MPD2    C1 1966   2.813   3.296   0.846 -0.9120  0.1512  0.0027
  129MPD2    C2 1967   2.918   3.352   0.775 -0.6613  0.3553 -0.0147
  129MPD2    C3 1968   2.909   3.365   0.641  0.8132  0.0948 -0.4359
  129MPD2    C4 1969   2.802   3.325   0.567 -0.0196 -0.9742  0.0126
  129MPD2    C5 1970   2.696   3.274   0.639  0.0253  0.1293 -0.4175
  129MPD2     H 1971   3.012   3.383   0.820  0.5669 -0.2438 -2.1731
  129MPD2    H1 1972   2.785   3.334   0.461  0.9772  1.3043  0.0636
  129MPD2    H2 1973   2.606   3.223   0.820  0.4401 -2.2487 -0.4175
  129MPD2    H3 1974   2.605   3.240   0.590  2.5711 -3.6514 -2.5238
  129MPD2     N 1975   3.010   3.437   0.571  0.1789 -0.7329 -0.3993
  129MPD2    H5 1976   3.087   3.481   0.622 -0.2043 -2.4706  1.6705
  129MPD2    N1 1977   2.817   3.306   0.988 -0.3399  0.7265  0.3478
  129MPD2    H7 1978   2.900   3.347   1.028 -0.4895  1.1007  0.2725
  130TCq2    C1 1979   2.723   3.252   1.070 -0.3430  0.8437 -0.6627
  130TCq2    O2 1980   2.624   3.184   1.052 -0.1415 -0.6180 -0.5168
  130TCq2    C2 1981   2.758   3.273   1.210 -0.0925 -0.5392 -0.2848
  130TCq2    C3 1982   2.867   3.354   1.237  0.2168  0.0801 -0.4149
  130TCq2    C4 1983   2.899   3.353   1.371  0.4009 -0.3433 -0.0718
  130TCq2    C5 1984   2.817   3.301   1.472 -0.1967  0.3818  0.0767
  130TCq2    C6 1985   2.712   3.225   1.437  0.4786 -0.2709 -0.5142
  130TCq2    C7 1986   2.692   3.196   1.300  0.2589  0.0402 -0.3838
  130TCq2    C8 1987   2.665   3.113   1.526 -0.1935  0.5549  0.6205
  130TCq2    O4 1988   2.617   3.017   1.465 -0.2335 -0.5272 -0.3404
  130TCq2    C9 1989   3.016   3.429   1.406 -0.7023  0.0557  0.6016
  130TCq2    O5 1990   3.054   3.417   1.525 -0.0783  0.3431  0.0462
  130TCq2    O6 1991   3.094   3.475   1.319 -0.1803  0.0907  0.4121
  130TCq2    H2 1992   2.923   3.420   1.172 -1.9872 -0.2347 -2.5928
  130TCq2    H3 1993   2.842   3.320   1.576 -1.9486  1.5317  0.2940
  130TCq2    H4 1994   2.610   3.131   1.275 -0.2798  0.1916  0.9615
  131MPD2     C 1995   2.954   0.945   9.738 -0.0588 -0.1301 -0.1553
  131MPD2    C1 1996   2.993   1.059   9.677  0.1441 -0.3687 -0.4337
  131MPD2    C2 1997   3.127   1.088   9.658  0.0012  1.1553 -0.3111
  131MPD2    C3 1998   3.225   0.991   9.694 -0.1192 -0.0780 -0.2886
  131MPD2    C4 1999   3.183   0.879   9.764  0.6593  0.8408  0.0597
  131MPD2    C5 2000   3.054   0.854   9.771 -0.5112 -0.5060  0.3808
  131MPD2     H 2001   3.171   1.171   9.604  0.3792 -1.2146 -3.6309
  131MPD2    H1 2002   3.245   0.791   9.771 -0.7376 -0.1260  0.1253
  131MPD2    H2 2003   2.848   0.923   9.751 -0.1579  1.4986  1.8819
  131MPD2    H3 2004   3.031   0.755   9.811  0.1104 -0.4708  0.8188
  131MPD2     N 2005   3.356   1.022   9.664  0.3970  0.6010 -0.3972
  131MPD2    H5 2006   3.369   1.105   9.607 -2.7093  1.2975 -0.0657
  131MPD2    N1 2007   2.890   1.150   9.639 -0.1444  0.2124 -0.3152
  131MPD2    H7 2008   2.802   1.146   9.689 -0.2634 -0.7011 -0.6044
  132TCq2    C1 2009   2.738   1.679   9.359 -0.8744  0.6332 -0.4236
  132TCq2    O2 2010   2.639   1.721   9.302 -0.6636  0.6160 -0.4942
  132TCq2    C2 2011   2.717   1.554   9.448  0.4545  0.0708  0.6085
  132TCq2    C3 2012   2.589   1.505   9.454 -0.6396 -1.1664 -0.2418
  132TCq2    C4 2013   2.560   1.383   9.508 -0.3258 -0.0638 -0.3852
  132TCq2    C5 2014   2.669   1.306   9.546 -0.2789  0.3008  0.0349
  132TCq2    C6 2015   2.799   1.351   9.535 -0.2439  0.0399 -0.0830
  132TCq2    C7 2016   2.823   1.480   9.483  0.3073  0.2253  0.3346
  132TCq2    C8 2017   2.911   1.263   9.557 -0.0142 -0.6568 -0.2138
  132TCq2    O4 2018   3.016   1.293   9.502 -1.1091  0.2841  0.0221
  132TCq2    C9 2019   2.431   1.332   9.503 -0.5157  0.3730  0.8781
  132TCq2    O5 2020   2.415   1.223   9.563  0.1154  0.5916 -0.3290
  132TCq2    O6 2021   2.357   1.380   9.417 -0.0340  0.0731 -0.7640
  132TCq2    H2 2022   2.501   1.558   9.419 -0.0231  0.4634  0.6587
  132TCq2    H3 2023   2.646   1.206   9.581 -1.9563  0.1368 -1.5299
  132TCq2    H4 2024   2.924   1.501   9.450  0.4398 -0.5957  0.2334
  133MPD2     C 2025   1.187   1.938   9.557 -0.1265  0.4057 -0.4642
  133MPD2    C1 2026   1.283   1.992   9.469  0.2749 -0.2018 -0.0623
  133MPD2    C2 2027   1.408   2.013   9.515  0.2932  0.7853 -0.0397
  133MPD2    C3 2028   1.453   1.972   9.641  0.6256  0.7727  0.2112
  133MPD2    C4 2029   1.360   1.906   9.725 -0.3279  0.3180 -0.4290
  133MPD2    C5 2030   1.228   1.882   9.675  0.1342  0.2960 -0.1374
  133MPD2     H 2031   1.480   2.058   9.448  0.9476 -0.9463 -0.4901
  133MPD2    H1 2032   1.378   1.873   9.827  0.5684  2.2597  0.0419
  133MPD2    H2 2033   1.085   1.913   9.534 -0.0382  0.3195 -0.7560
  133MPD2    H3 2034   1.158   1.839   9.746  0.8330 -0.7022 -0.0658
  133MPD2     N 2035   1.585   2.005   9.686 -0.6491 -0.6468  0.2030
  133MPD2    H5 2036   1.607   2.006   9.784  1.9035  2.2720 -0.4268
  133MPD2    N1 2037   1.242   2.019   9.337  0.0757 -0.0556 -0.2297
  133MPD2    H7 2038   1.153   2.001   9.292 -0.4516  1.5790  0.1325
  134TCq2    C1 2039   1.317   2.092   9.245  0.1910  0.1800 -0.4660
  134TCq2    O2 2040   1.427   2.152   9.259 -0.1939 -0.3368  0.3964
  134TCq2    C2 2041   1.254   2.111   9.120 -0.2640 -0.6146 -0.7983
  134TCq2    C3 2042   1.153   2.026   9.078  0.4427  0.3162 -0.0388
  134TCq2    C4 2043   1.092   2.049   8.963 -0.1834  0.0835 -0.6801
  134TCq2    C5 2044   1.129   2.147   8.877 -0.0176 -0.1750 -0.1170
  134TCq2    C6 2045   1.235   2.226   8.920  0.5049 -0.4347  0.2672
  134TCq2    C7 2046   1.299   2.217   9.047 -0.3382  0.2453 -0.0617
  134TCq2    C8 2047   1.313   2.284   8.817 -0.2741 -0.3573 -0.2476
  134TCq2    O4 2048   1.300   2.241   8.706  0.3371  0.5554  0.0444
  134TCq2    C9 2049   0.999   1.946   8.913 -0.2718 -0.0236  0.1703
  134TCq2    O5 2050   0.961   1.851   8.989  0.3994  0.2372  0.6673
  134TCq2    O6 2051   0.971   1.950   8.788 -0.1998  0.2037  0.1740
  134TCq2    H2 2052   1.144   1.924   9.113 -2.0265  0.1035 -1.2752
  134TCq2    H3 2053   1.086   2.152   8.778  0.5511  1.4205 -0.2794
  134TCq2    H4 2054   1.388   2.273   9.075 -0.6696  1.8766 -2.2890
  135MPD2     C 2055   0.549   4.030   9.425 -0.4914  0.0576 -0.9082
  135MPD2    C1 2056   0.481   3.944   9.342 -0.4366  1.2611 -0.8452
  135MPD2    C2 2057   0.539   3.891   9.231  0.2985 -0.5631  0.1734
  135MPD2    C3 2058   0.667   3.923   9.194  0.5357 -0.3749 -0.7055
  135MPD2    C4 2059   0.735   4.006   9.280  0.9185  0.0508 -0.1512
  135MPD2    C5 2060   0.676   4.057   9.391 -0.0293  0.4770  0.0672
  135MPD2     H 2061   0.493   3.814   9.170  0.1199  1.6667 -2.5106
  135MPD2    H1 2062   0.839   4.032   9.261  0.4675  0.2255 -2.3222
  135MPD2    H2 2063   0.503   4.070   9.515  1.1938  0.6347 -0.3209
  135MPD2    H3 2064   0.729   4.120   9.461 -1.5913 -0.4194  2.0516
  135MPD2     N 2065   0.734   3.868   9.079  0.0016 -0.0965  0.2522
  135MPD2    H5 2066   0.833   3.891   9.074  0.1868 -0.9581 -0.0060
  135MPD2    N1 2067   0.348   3.911   9.387  0.0864 -0.4554  0.1093
  135MPD2    H7 2068   0.310   3.960   9.467 -0.4173  0.6976 -0.8416
  136TCq2    C1 2069   0.263   3.833   9.317 -0.1907  0.4654 -0.6530
  136TCq2    O2 2070   0.281   3.784   9.205  0.0424  0.2872 -0.1010
  136TCq2    C2 2071   0.137   3.816   9.383  0.3799  0.9982 -0.0548
  136TCq2    C3 2072   0.128   3.834   9.517  0.3915  0.7915 -0.0236
  136TCq2    C4 2073   4.721   3.815   9.575 -0.2102  0.1399 -0.3491
  136TCq2    C5 2074   4.611   3.778   9.498  0.2813  0.5528 -0.9193
  136TCq2    C6 2075   4.630   3.768   9.362  0.4086 -0.0461 -0.1010
  136TCq2    C7 2076   0.034   3.780   9.307 -0.3417  0.3790  0.1815
  136TCq2    C8 2077   4.521   3.716   9.273 -0.0596  0.1615  0.7041
  136TCq2    O4 2078   4.549   3.713   9.156 -0.0957  0.3609 -0.1113
  136TCq2    C9 2079   4.703   3.827   9.713 -0.1270  1.0281 -0.1005
  136TCq2    O5 2080   0.075   3.875   9.772 -0.2606  0.3078  0.6046
  136TCq2    O6 2081   4.582   3.817   9.756  0.3565  0.0287  0.5618
  136TCq2    H2 2082   0.213   3.857   9.581  0.6204  0.1131 -0.0833
  136TCq2    H3 2083   4.512   3.761   9.537  0.4462 -2.7115 -1.8510
  136TCq2    H4 2084   0.040   3.781   9.199  2.9476 -0.7373  0.3544
  137MPD2     C 2085   0.054   1.895  10.035  0.1088 -0.6670 -0.1219
  137MPD2    C1 2086   4.646   1.943  10.040  0.0806 -0.0759 -0.7225
  137MPD2    C2 2087   4.626   2.081  10.044 -0.1086  0.4328  0.1720
  137MPD2    C3 2088   0.015   2.168  10.030 -0.4117  0.5322 -0.6470
  137MPD2    C4 2089   0.141   2.111  10.005 -0.7586  0.6789 -0.2776
  137MPD2    C5 2090   0.159   1.979  10.029 -0.2919 -1.1363 -0.1138
  137MPD2     H 2091   4.526   2.121  10.051  0.2854  1.6066 -0.8000
  137MPD2    H1 2092   0.231   2.171   9.993 -0.3736  0.1088 -0.2569
  137MPD2    H2 2093   0.071   1.791  10.058  1.4736 -0.4306 -0.0616
  137MPD2    H3 2094   0.256   1.930  10.029  0.4000  0.2439 -0.2720
  137MPD2     N 2095   4.714   2.303  10.031 -0.4240  0.4200  0.0731
  137MPD2    H5 2096   4.618   2.334  10.036 -0.3776  0.3689  1.1726
  137MPD2    N1 2097   4.542   1.849  10.056 -0.0734 -0.5386 -0.0000
  137MPD2    H7 2098   4.568   1.751  10.054  0.5970 -0.3920  1.9886
  138TCq2    C1 2099   4.410   1.880  10.076 -0.0080 -0.5521 -0.2013
  138TCq2    O2 2100   4.353   1.986  10.060  0.1495  0.3509  0.0100
  138TCq2    C2 2101   4.338   1.777  10.149 -0.1247  0.2622 -0.0053
  138TCq2    C3 2102   4.409   1.693  10.228 -0.3498  0.4592  1.2728
  138TCq2    C4 2103   4.340   1.590  10.298 -0.4893 -0.2940 -0.0767
  138TCq2    C5 2104   4.205   1.595  10.294 -0.3861  0.2472 -0.1284
  138TCq2    C6 2105   4.134   1.697  10.230 -0.2739  0.4047 -0.1415
  138TCq2    C7 2106   4.201   1.777  10.141  0.8648 -0.4358  0.5275
  138TCq2    C8 2107   3.987   1.685  10.227  0.1902  0.2568  0.2582
  138TCq2    O4 2108   3.943   1.615  10.318 -0.1577  0.0991  0.2991
  138TCq2    C9 2109   4.396   1.521  10.406  0.1706 -0.1997 -0.5065
  138TCq2    O5 2110   4.518   1.505  10.399 -0.0932 -0.5397 -0.0109
  138TCq2    O6 2111   4.328   1.462  10.497 -0.2511  0.0841 -0.5726
  138TCq2    H2 2112   4.513   1.695  10.260 -0.4773  0.8129  1.6692
  138TCq2    H3 2113   4.158   1.536  10.371 -1.2832  3.0052  1.4622
  138TCq2    H4 2114   4.155   1.861  10.090  1.3083 -0.0187  0.8123
  139TMC2    C1 2115   0.656   0.750  13.460  0.3189 -0.3614  0.3113
  139TMC2    C2 2116   0.685   0.799  13.342 -0.3337 -0.5259 -0.1319
  139TMC2    C3 2117   0.592   0.880  13.276 -0.5677 -0.1997 -0.1945
  139TMC2    C4 2118   0.551   0.788  13.535 -0.8012 -0.3527  0.2748
  139TMC2    C5 2119   0.461   0.868  13.475 -1.3142  0.6218 -1.0836
  139TMC2    C6 2120   0.480   0.918  13.343 -0.0372  0.3308 -0.3759
  139TMC2     C 2121   0.733   0.627  13.490 -0.5199  0.1934 -0.1815
  139TMC2     O 2122   0.848   0.618  13.444 -0.9762 -0.0698 -0.2336
  139TMC2     H 2123   0.780   0.774  13.296  1.6901  3.9280  1.5557
  139TMC2    H1 2124   0.547   0.743  13.634 -0.0714 -1.8808 -0.3868
  139TMC2    H2 2125   0.400   0.969  13.291  1.4772  2.9258 -0.1577
  139TMC2    C7 2126   0.340   0.908  13.539  0.2679 -0.5078 -0.0019
  139TMC2    C8 2127   0.637   0.929  13.145  0.6481 -0.0696  0.5608
  139TMC2    O1 2128   0.255   0.957  13.467  0.1734 -0.3669 -0.3356
  139TMC2    O2 2129   0.701   0.855  13.069 -0.6954  0.0416  0.4405
  139TMC2    O5 2130   0.570   1.039  13.107  0.7059 -0.4723 -0.0565
  139TMC2    H5 2131   0.549   1.100  13.181 -2.0785  0.1545 -1.3953
  140MPD2     C 2132   0.565   0.317  13.594  0.5041 -0.3593 -0.3645
  140MPD2    C1 2133   0.665   0.399  13.541 -0.2973 -0.6938 -0.1644
  140MPD2    C2 2134   0.774   0.332  13.495  0.0184 -0.4663  0.0464
  140MPD2    C3 2135   0.788   0.197  13.512  0.0194 -0.7397  0.1066
  140MPD2    C4 2136   0.689   0.121  13.578 -0.6371  0.1875  0.3265
  140MPD2    C5 2137   0.579   0.186  13.621 -0.8253  0.1896 -0.2171
  140MPD2     H 2138   0.857   0.384  13.450 -0.9324 -0.7970 -2.0665
  140MPD2    H1 2139   0.690   0.015  13.601 -0.4803  0.4031  1.3357
  140MPD2    H2 2140   0.472   0.364  13.627  0.2313 -0.6569 -0.7104
  140MPD2    H3 2141   0.495   0.127  13.655 -1.1103  1.0054  0.4814
  140MPD2     N 2142   0.901   0.135  13.451  0.1263 -0.0130 -0.2164
  140MPD2    H5 2143   0.953   0.196  13.389  0.8420 -0.7165 -0.3007
  140MPD2    N1 2144   0.642   0.537  13.547 -0.0230  0.1060  0.3636
  140MPD2    H7 2145   0.552   0.564  13.584  0.3591  3.5233 -1.2473
  141TCq2    C1 2146   1.123   1.706  14.251 -0.9082 -0.3862 -0.7432
  141TCq2    O2 2147   1.098   1.819  14.212  0.1247  0.6186 -0.1844
  141TCq2    C2 2148   1.048   1.656  14.370 -0.6132  0.8994  0.5788
  141TCq2    C3 2149   1.061   1.525  14.397  0.0555  0.7248 -0.0657
  141TCq2    C4 2150   1.028   1.477  14.524 -0.1969  0.3080 -0.3842
  141TCq2    C5 2151   0.998   1.560  14.621 -0.2155  0.0333 -0.4610
  141TCq2    C6 2152   1.001   1.692  14.590 -0.4737  0.3202 -0.8007
  141TCq2    C7 2153   1.025   1.746  14.467  0.0800 -0.5222 -0.1002
  141TCq2    C8 2154   0.988   1.778  14.705  0.3600  0.3685  0.6361
  141TCq2    O4 2155   1.023   1.728  14.810 -0.5521  0.0881 -0.1876
  141TCq2    C9 2156   1.016   1.345  14.548  0.4096 -0.1204 -0.1319
  141TCq2    O5 2157   1.017   1.269  14.446 -0.5283 -0.6917  0.3566
  141TCq2    O6 2158   0.980   1.308  14.666 -0.1272 -0.0348  0.3103
  141TCq2    H2 2159   1.072   1.448  14.322 -2.9675  3.4982 -3.3477
  141TCq2    H3 2160   0.950   1.526  14.713 -1.4389 -0.7255 -1.3737
  141TCq2    H4 2161   1.039   1.852  14.447 -0.6236 -0.1668  1.2967
  142MPD2     C 2162   3.373   0.540   9.596  0.6675  0.1147  0.1596
  142MPD2    C1 2163   3.243   0.507   9.627  0.2838  0.1517  0.2765
  142MPD2    C2 2164   3.145   0.595   9.576 -0.3784  0.1525 -0.6759
  142MPD2    C3 2165   3.175   0.697   9.488 -0.4226 -0.4040  0.6345
  142MPD2    C4 2166   3.311   0.727   9.468  0.3599  0.0645  0.0890
  142MPD2    C5 2167   3.404   0.648   9.522  0.5217 -0.1069  0.2162
  142MPD2     H 2168   3.042   0.574   9.602 -0.5907  1.2219 -0.6594
  142MPD2    H1 2169   3.348   0.809   9.408  1.2299  1.1963  2.1845
  142MPD2    H2 2170   3.451   0.474   9.632  2.2157  2.3704  0.8968
  142MPD2    H3 2171   3.509   0.660   9.497 -0.0725 -0.0256 -2.2300
  142MPD2     N 2172   3.080   0.788   9.439  0.9070 -0.0562  0.9760
  142MPD2    H5 2173   3.101   0.863   9.374 -2.1001 -0.4015 -0.4070
  142MPD2    N1 2174   3.214   0.384   9.701  0.8157  0.3898 -0.4006
  142MPD2    H7 2175   3.296   0.334   9.733 -0.6300 -0.6196  1.7327
  143TCq2    C1 2176   2.944   0.782   9.456 -0.7464  0.4919  0.3607
  143TCq2    O2 2177   2.881   0.705   9.525 -0.4753  0.1723 -0.0154
  143TCq2    C2 2178   2.868   0.878   9.376  0.1943  0.2029 -0.3993
  143TCq2    C3 2179   2.735   0.874   9.403  0.1157 -0.0810  0.0710
  143TCq2    C4 2180   2.651   0.965   9.354 -0.0493  0.1839  0.5749
  143TCq2    C5 2181   2.701   1.072   9.285  0.4623  0.1270  0.1800
  143TCq2    C6 2182   2.837   1.089   9.264  0.3053 -0.2985  0.0587
  143TCq2    C7 2183   2.928   0.992   9.313 -0.5785  0.0392 -0.2562
  143TCq2    C8 2184   2.890   1.211   9.207 -0.4326 -0.0626  0.6704
  143TCq2    O4 2185   3.012   1.215   9.184  0.4794 -0.0124  0.5032
  143TCq2    C9 2186   2.510   0.959   9.379  0.4709 -0.0807  0.4382
  143TCq2    O5 2187   2.465   0.868   9.451  0.2752  0.1030 -0.7746
  143TCq2    O6 2188   2.441   1.038   9.310  0.1735 -0.1244 -0.2592
  143TCq2    H2 2189   2.684   0.795   9.457  1.1391 -1.2414 -0.6549
  143TCq2    H3 2190   2.629   1.147   9.254 -0.2810 -0.0856  1.4124
  143TCq2    H4 2191   3.035   1.007   9.300 -0.4123 -0.7837  0.1775
  144MPD2     C 2192   1.262   4.539   0.782  0.2202  0.2585  0.5672
  144MPD2    C1 2193   1.324   4.439   0.704 -0.4741 -0.3379  0.3256
  144MPD2    C2 2194   1.458   4.414   0.727 -0.1737  0.7141 -0.3441
  144MPD2    C3 2195   1.538   4.483   0.822  0.4985  0.6194 -0.3195
  144MPD2    C4 2196   1.477   4.580   0.897  0.1067  0.2529  0.3155
  144MPD2    C5 2197   1.339   4.598   0.884  0.3585 -0.7052  0.2582
  144MPD2     H 2198   1.509   4.332   0.679 -0.6604  1.2305 -1.7641
  144MPD2    H1 2199   1.525   4.627   0.982  1.4518  1.9614 -1.4365
  144MPD2    H2 2200   1.154   4.548   0.780  0.3587  1.4498 -1.2139
  144MPD2    H3 2201   1.290   4.663   0.956 -1.4636 -1.5796 -0.1805
  144MPD2     N 2202   1.667   4.447   0.861  0.1414  0.4381  0.0457
  144MPD2    H5 2203   1.721   4.515   0.914 -0.0238  0.7780 -0.2165
  144MPD2    N1 2204   1.255   4.362   0.606  0.4456 -0.1293 -0.1683
  144MPD2    H7 2205   1.311   4.294   0.555  0.5050 -1.0112  1.0822
  145TCq2    C1 2206   1.746   4.348   0.810 -0.2305  0.0103 -0.0401
  145TCq2    O2 2207   1.699   4.251   0.755  0.3082  0.0650 -0.3352
  145TCq2    C2 2208   1.889   4.358   0.832  0.5540 -0.1070  0.1281
  145TCq2    C3 2209   1.966   4.276   0.760 -0.4905 -0.0844  0.3151
  145TCq2    C4 2210   2.100   4.320   0.730 -0.1554 -0.0131 -0.5889
  145TCq2    C5 2211   2.141   4.440   0.783 -0.2352  0.7990  0.2911
  145TCq2    C6 2212   2.060   4.520   0.859 -0.6690  0.7637  0.9288
  145TCq2    C7 2213   1.934   4.474   0.892  0.1938  0.2439  0.5730
  145TCq2    C8 2214   2.132   4.615   0.951  0.1347 -0.0423  0.3672
  145TCq2    O4 2215   2.251   4.594   0.967  0.0404  0.3684  0.1066
  145TCq2    C9 2216   2.178   4.250   0.633 -0.4156 -0.2589  0.5175
  145TCq2    O5 2217   2.119   4.187   0.537  0.2269 -0.2994 -0.4494
  145TCq2    O6 2218   2.300   4.260   0.634 -0.0318  0.0603  0.3310
  145TCq2    H2 2219   1.933   4.183   0.716  1.2962 -0.5529 -0.0499
  145TCq2    H3 2220   2.233   4.484   0.745  0.7492 -1.1734  0.3847
  145TCq2    H4 2221   1.873   4.542   0.951 -0.5611 -0.4831  0.6387
  146TMC2    C1 2222   2.741   3.020  12.290 -0.6935 -0.2737  0.1740
  146TMC2    C2 2223   2.642   3.104  12.246 -1.2832  0.6123  0.1488
  146TMC2    C3 2224   2.516   3.067  12.265  0.3238 -0.1456 -0.1121
  146TMC2    C4 2225   2.708   2.901  12.346 -0.0589  0.1946  0.3069
  146TMC2    C5 2226   2.580   2.862  12.352  0.7766 -0.3183  0.9534
  146TMC2    C6 2227   2.478   2.943  12.307 -0.5165 -0.7511 -1.1430
  146TMC2     C 2228   2.873   3.075  12.293  0.1278  0.1575  0.2722
  146TMC2     O 2229   2.906   3.145  12.201 -0.2759 -0.7665  0.2679
  146TMC2     H 2230   2.672   3.205  12.219  0.7159 -0.0948 -0.3116
  146TMC2    H1 2231   2.792   2.843  12.383  1.7690  1.2697 -2.1144
  146TMC2    H2 2232   2.378   2.901  12.298 -1.1720  0.1648  1.9073
  146TMC2    C7 2233   2.545   2.733  12.413 -0.1417 -0.6614 -1.5322
  146TMC2    C8 2234   2.425   3.175  12.286  0.3376 -0.1172  0.0925
  146TMC2    O1 2235   2.430   2.699  12.403  0.3305  0.2284  0.4696
  146TMC2    O2 2236   2.460   3.293  12.278 -0.9377 -1.0431 -0.3167
  146TMC2    O5 2237   2.322   3.134  12.366 -0.7022 -0.6920 -0.3134
  146TMC2    H5 2238   2.315   3.037  12.379 -1.7949 -0.5762 -0.0101
  147MPD2     C 2239   2.663   2.314  12.678  0.4833 -0.2553  0.3980
  147MPD2    C1 2240   2.772   2.398  12.678 -0.3153 -0.0401 -0.7988
  147MPD2    C2 2241   2.756   2.519  12.617  0.4618  0.0949  0.2474
  147MPD2    C3 2242   2.637   2.552  12.550 -0.4444  0.0925 -0.1048
  147MPD2    C4 2243   2.533   2.461  12.541  0.3345  0.1150  0.3805
  147MPD2    C5 2244   2.545   2.346  12.611  0.9136 -0.3413  0.7695
  147MPD2     H 2245   2.834   2.593  12.613 -0.1132  0.7722  1.3686
  147MPD2    H1 2246   2.443   2.474  12.481  0.9403  2.8490  0.0776
  147MPD2    H2 2247   2.661   2.216  12.725 -0.5706 -0.5031 -0.1777
  147MPD2    H3 2248   2.464   2.275  12.604  1.1301 -0.2936 -2.1514
  147MPD2     N 2249   2.650   2.669  12.478  0.0683 -0.2727  0.5110
  147MPD2    H5 2250   2.739   2.716  12.488  1.0508 -1.5715 -2.2013
  147MPD2    N1 2251   2.880   2.358  12.766  0.3139  0.1409  0.1097
  147MPD2    H7 2252   2.873   2.267  12.811  1.2220 -0.5230 -1.0933
  148MPD2     C 2253   3.852   1.023  10.627 -1.1662 -0.2325 -0.4791
  148MPD2    C1 2254   3.790   1.083  10.516 -0.3383  0.0757  0.5951
  148MPD2    C2 2255   3.658   1.097  10.490  0.3895  0.0191 -0.6894
  148MPD2    C3 2256   3.567   1.056  10.590 -0.0323  0.5959 -0.6862
  148MPD2    C4 2257   3.625   0.994  10.699 -0.0725  0.0476  0.0459
  148MPD2    C5 2258   3.762   0.968  10.715 -0.6432 -0.6376  0.1511
  148MPD2     H 2259   3.627   1.147  10.399  3.1622  0.6650 -1.2886
  148MPD2    H1 2260   3.562   0.967  10.783  2.5733  1.2898  2.4223
  148MPD2    H2 2261   3.956   0.992  10.632 -1.0111  0.1504 -1.2936
  148MPD2    H3 2262   3.809   0.920  10.800  0.5788 -0.8030 -0.6090
  148MPD2     N 2263   3.431   1.057  10.581  0.1562 -0.3432  0.3759
  148MPD2    H5 2264   3.379   1.027  10.663 -0.0178 -3.2311 -0.7817
  148MPD2    N1 2265   3.873   1.132  10.410 -0.1996 -0.7451 -0.2297
  148MPD2    H7 2266   3.827   1.147  10.321  0.1550 -1.3167 -0.5098
  149TCq2    C1 2267   4.007   1.163  10.422  0.3063  0.2478  0.3023
  149TCq2    O2 2268   4.083   1.151  10.516 -0.5218 -0.3045  0.1483
  149TCq2    C2 2269   4.060   1.208  10.291  0.1025  0.1506 -0.4380
  149TCq2    C3 2270   4.196   1.205  10.278 -0.2605 -0.2098  0.0303
  149TCq2    C4 2271   4.249   1.261  10.159 -0.4060 -0.6145  0.5203
  149TCq2    C5 2272   4.172   1.334  10.070 -0.6803 -0.1885 -0.0701
  149TCq2    C6 2273   4.039   1.338  10.097  0.2133 -0.2671 -0.7363
  149TCq2    C7 2274   3.983   1.277  10.206 -0.2148  0.2602 -0.1880
  149TCq2    C8 2275   3.956   1.405   9.993 -0.7276  0.3205 -0.0896
  149TCq2    O4 2276   4.017   1.461   9.902 -0.0853 -0.4122 -0.1537
  149TCq2    C9 2277   4.393   1.285  10.160  0.5332 -0.4396 -0.2566
  149TCq2    O5 2278   4.460   1.235  10.250 -0.0189 -0.2770  0.2317
  149TCq2    O6 2279   4.437   1.371  10.080  0.0741  0.3485  0.2338
  149TCq2    H2 2280   4.263   1.156  10.347 -1.0423  0.6784  1.4016
  149TCq2    H3 2281   4.219   1.400   9.998  0.1301  0.0810  0.7072
  149TCq2    H4 2282   3.875   1.280  10.220 -0.2420  0.3842 -0.4258
  150MPD2     C 2283   0.295   0.682  12.122 -0.7746 -0.3378 -0.8902
  150MPD2    C1 2284   0.322   0.786  12.035 -0.5143 -0.4366 -0.3644
  150MPD2    C2 2285   0.408   0.888  12.080 -0.5339  0.6003  0.4090
  150MPD2    C3 2286   0.463   0.880  12.206 -0.2558  0.1234  0.1184
  150MPD2    C4 2287   0.435   0.774  12.288 -0.0680 -0.2758  0.2755
  150MPD2    C5 2288   0.352   0.674  12.246 -0.4915 -0.4919  0.0724
  150MPD2     H 2289   0.438   0.975  12.022 -0.5056  0.2440 -0.1100
  150MPD2    H1 2290   0.490   0.765  12.381  1.9520 -0.3096 -0.9250
  150MPD2    H2 2291   0.221   0.610  12.089  0.6784 -2.8713  1.3886
  150MPD2    H3 2292   0.332   0.584  12.303  0.5587 -1.0663 -0.4642
  150MPD2     N 2293   0.536   0.993  12.238  0.2749  0.4786  0.4805
  150MPD2    H5 2294   0.539   1.064  12.164 -0.7180 -0.1562 -0.1680
  150MPD2    N1 2295   0.257   0.781  11.910  0.6776  0.2767  0.0213
  150MPD2    H7 2296   0.194   0.702  11.905  0.7292  0.3485 -1.6973
  151TCq2    C1 2297   0.603   1.009  12.361 -0.6512 -0.0478  0.3287
  151TCq2    O2 2298   0.625   0.933  12.451  0.5746  0.2530  0.1940
  151TCq2    C2 2299   0.676   1.143  12.364 -0.4990 -0.7437 -0.2813
  151TCq2    C3 2300   0.674   1.228  12.255 -0.1132 -0.5865  0.5210
  151TCq2    C4 2301   0.759   1.331  12.248  0.3159  0.2280 -0.1649
  151TCq2    C5 2302   0.841   1.362  12.345  0.0552  0.5879 -0.2691
  151TCq2    C6 2303   0.842   1.280  12.459 -0.5381 -0.9844 -0.1092
  151TCq2    C7 2304   0.765   1.165  12.465 -0.2034 -0.2260  0.3118
  151TCq2    C8 2305   0.952   1.304  12.549 -0.3306  0.9062 -0.0160
  151TCq2    O4 2306   1.018   1.409  12.536  0.1718 -0.2067  0.3849
  151TCq2    C9 2307   0.768   1.402  12.121 -0.0533  0.5965 -0.1125
  151TCq2    O5 2308   0.857   1.493  12.115 -0.2302 -0.2745  0.0060
  151TCq2    O6 2309   0.734   1.343  12.014  0.4043  0.2219  0.8891
  151TCq2    H2 2310   0.596   1.227  12.179 -0.7042 -0.1801  1.1263
  151TCq2    H3 2311   0.910   1.445  12.333  1.2470 -0.2050  1.1465
  151TCq2    H4 2312   0.758   1.102  12.553  1.6294 -1.5931 -0.5208
  152MPD2     C 2313   4.681   0.510  13.029 -0.0243 -0.3852  0.6704
  152MPD2    C1 2314   4.672   0.595  12.921 -0.7406 -0.1297 -0.2605
  152MPD2    C2 2315   4.550   0.599  12.852 -0.4507  0.3382  0.0235
  152MPD2    C3 2316   4.446   0.520  12.885 -0.7806  0.4375  0.4972
  152MPD2    C4 2317   4.457   0.428  12.987  0.2365 -0.1433  1.1051
  152MPD2    C5 2318   4.570   0.435  13.062  0.2565  0.0935 -0.2921
  152MPD2     H 2319   4.537   0.662  12.765  0.0962 -0.8394 -0.9094
  152MPD2    H1 2320   4.385   0.350  13.010 -0.6981 -0.0622 -1.5653
  152MPD2    H2 2321   0.042   0.520  13.098  1.0740 -0.1900 -0.6859
  152MPD2    H3 2322   4.591   0.365  13.141 -1.2286  0.9175  0.8222
  152MPD2     N 2323   4.337   0.536  12.792 -0.1104 -0.3453  0.2628
  152MPD2    H5 2324   4.335   0.616  12.731 -1.6295  0.8660  1.8955
  152MPD2    N1 2325   0.062   0.668  12.879 -0.3703 -0.3866 -0.5943
  152MPD2    H7 2326   0.146   0.636  12.926  0.1759  0.3342 -1.0924
  153TCq2    C1 2327   0.077   0.782  12.802 -0.7676  0.0905 -0.4932
  153TCq2    O2 2328   4.708   0.850  12.753 -0.3028  0.0953 -0.2137
  153TCq2    C2 2329   0.208   0.817  12.759  0.3641 -0.5459 -0.2257
  153TCq2    C3 2330   0.314   0.731  12.784 -0.1948 -0.6615 -0.2813
  153TCq2    C4 2331   0.439   0.776  12.749 -0.3540  0.2612  0.5147
  153TCq2    C5 2332   0.468   0.900  12.705  0.4224 -0.7831  0.3057
  153TCq2    C6 2333   0.358   0.971  12.659  0.0973 -0.3374  0.5192
  153TCq2    C7 2334   0.234   0.937  12.695 -0.0495  0.0505  0.3154
  153TCq2    C8 2335   0.375   1.103  12.595  0.5422 -0.1170  0.7070
  153TCq2    O4 2336   0.281   1.123  12.519 -0.6017 -0.2020  0.2883
  153TCq2    C9 2337   0.548   0.691  12.770 -0.4343  0.8446 -1.0559
  153TCq2    O5 2338   0.525   0.585  12.836 -0.2696  0.1165 -0.1641
  153TCq2    O6 2339   0.657   0.721  12.724  0.0515 -0.0337  0.1768
  153TCq2    H2 2340   0.302   0.628  12.812  0.6522 -0.7037 -0.0617
  153TCq2    H3 2341   0.567   0.929  12.673  0.7106 -0.8477  1.1618
  153TCq2    H4 2342   0.163   1.016  12.673  0.6535  0.5483 -0.1590
  154MPD2     C 2343   1.815   0.635   0.334  0.4925  0.1752  0.7135
  154MPD2    C1 2344   1.799   0.763   0.281 -0.0335 -0.2147 -0.7793
  154MPD2    C2 2345   1.730   0.855   0.356  0.3688  0.0066 -0.0328
  154MPD2    C3 2346   1.685   0.824   0.477  0.2447  1.1092 -0.1351
  154MPD2    C4 2347   1.711   0.700   0.536 -0.2687  1.0110 -0.2256
  154MPD2    C5 2348   1.769   0.605   0.456  0.7648  0.8083 -0.1265
  154MPD2     H 2349   1.704   0.950   0.312  2.6586  1.3450  1.5606
  154MPD2    H1 2350   1.665   0.674   0.631 -0.2156 -0.4204 -0.5927
  154MPD2    H2 2351   1.873   0.564   0.276 -0.7825  1.9968 -2.7339
  154MPD2    H3 2352   1.785   0.504   0.491 -0.6770  0.6297 -0.0046
  154MPD2     N 2353   1.605   0.927   0.542  0.2399  0.2853  0.1736
  154MPD2    H5 2354   1.606   1.019   0.498 -0.9349  0.5234  0.6570
  154MPD2    N1 2355   1.850   0.794   0.156 -0.0250 -0.0206  0.0714
  154MPD2    H7 2356   1.885   0.712   0.108 -0.7996 -1.4626  1.9919
  155TCq2    C1 2357   1.867   0.922   0.111 -0.3683  0.0029 -0.5774
  155TCq2    O2 2358   1.877   1.020   0.185  0.8223 -0.1288  0.0509
  155TCq2    C2 2359   1.899   0.930  17.663  0.0927  0.1299 -0.8613
  155TCq2    C3 2360   1.875   0.818  17.582 -0.2037  0.5352 -0.5905
  155TCq2    C4 2361   1.927   0.821  17.454  0.2198 -0.7073 -0.4298
  155TCq2    C5 2362   1.982   0.934  17.401 -0.2007 -0.0728 -0.1243
  155TCq2    C6 2363   1.993   1.044  17.484 -0.6698 -0.3290  1.1198
  155TCq2    C7 2364   1.942   1.045  17.612  0.0711 -0.3545 -0.0167
  155TCq2    C8 2365   2.019   1.170  17.418  0.6997 -0.3600 -1.0250
  155TCq2    O4 2366   2.074   1.159  17.305  0.1681 -0.2677  0.0874
  155TCq2    C9 2367   1.922   0.700  17.372 -0.0744 -0.5830 -0.7539
  155TCq2    O5 2368   1.876   0.597  17.436  0.1958 -0.4687 -0.8923
  155TCq2    O6 2369   1.991   0.695  17.262 -0.0846  0.0993  0.6751
  155TCq2    H2 2370   1.810   0.740  17.619 -0.0907 -0.2407 -2.0423
  155TCq2    H3 2371   2.024   0.932  17.302 -0.0061 -0.4476 -0.0333
  155TCq2    H4 2372   1.954   1.126  17.684  1.3109 -1.9211  1.5455
  156MPD2     C 2373   0.319   2.547  12.421  0.6088 -0.1909 -0.1857
  156MPD2    C1 2374   0.419   2.632  12.380  0.1864  0.1112  0.1810
  156MPD2    C2 2375   0.423   2.761  12.419 -0.2616 -0.5420  0.6317
  156MPD2    C3 2376   0.317   2.807  12.491  0.2604  0.0710  0.1493
  156MPD2    C4 2377   0.213   2.723  12.532 -0.2846  0.2080  0.1431
  156MPD2    C5 2378   0.211   2.589  12.496  0.1054  1.1528 -0.3223
  156MPD2     H 2379   0.507   2.827  12.398  0.5080 -1.1260  1.8277
  156MPD2    H1 2380   0.132   2.770  12.587 -0.4451  1.2218 -0.9745
  156MPD2    H2 2381   0.338   2.446  12.385 -0.5519  0.6555 -3.0801
  156MPD2    H3 2382   0.134   2.525  12.537  1.4979  1.0241  2.1037
  156MPD2     N 2383   0.322   2.950  12.513  0.9014  0.5177  0.2546
  156MPD2    H5 2384   0.408   2.995  12.484  0.2856  0.6520 -1.3633
  156MPD2    N1 2385   0.522   2.597  12.289  0.1516 -0.4135 -0.3681
  156MPD2    H7 2386   0.600   2.662  12.288  0.4912 -0.8064  0.9349
  157TCq2    C1 2387   0.526   2.495  12.198 -0.4479 -0.5000  0.2220
  157TCq2    O2 2388   0.437   2.415  12.165 -0.4044 -0.5928 -0.2544
  157TCq2    C2 2389   0.622   2.530  12.089  0.0343 -0.3317 -0.0378
  157TCq2    C3 2390   0.754   2.536  12.124 -0.4292 -0.0898 -0.1065
  157TCq2    C4 2391   0.829   2.639  12.074  0.6490  0.4482  0.2894
  157TCq2    C5 2392   0.780   2.708  11.962 -0.6948 -0.4857 -0.4847
  157TCq2    C6 2393   0.652   2.682  11.916 -0.2159  0.7855  0.3033
  157TCq2    C7 2394   0.567   2.603  11.990  0.3401  0.2383  0.4712
  157TCq2    C8 2395   0.591   2.779  11.824 -0.3205  0.2695  0.4232
  157TCq2    O4 2396   0.659   2.867  11.773 -0.2009 -0.3609 -0.1450
  157TCq2    C9 2397   0.969   2.653  12.109  0.6562  0.0487 -0.6464
  157TCq2    O5 2398   1.024   2.585  12.199  0.0728  0.6016  0.1278
  157TCq2    O6 2399   1.029   2.738  12.040  0.5220  0.3846 -0.0930
  157TCq2    H2 2400   0.808   2.486  12.204  0.0888  1.7188  0.6766
  157TCq2    H3 2401   0.836   2.791  11.921 -0.7145 -0.7826 -1.1217
  157TCq2    H4 2402   0.460   2.595  11.981  0.3482  0.7977 -0.0527
  158TMC2    C1 2403   0.721   1.977  13.521 -0.2538 -0.3997 -0.6868
  158TMC2    C2 2404   0.782   2.096  13.486 -0.1330  0.5820  1.2807
  158TMC2    C3 2405   0.738   2.162  13.372 -0.0582 -0.3439  0.7630
  158TMC2    C4 2406   0.604   1.936  13.461 -0.2414 -0.3264  0.9536
  158TMC2    C5 2407   0.564   2.008  13.348 -0.0476 -0.1083 -0.6353
  158TMC2    C6 2408   0.628   2.121  13.306 -0.3575 -0.2172 -0.5892
  158TMC2     C 2409   0.801   1.901  13.611  0.4373 -0.7701 -0.6688
  158TMC2     O 2410   0.922   1.930  13.620  0.0321 -0.4296  0.3301
  158TMC2     H 2411   0.877   2.128  13.527 -0.1943  1.2638  0.8854
  158TMC2    H1 2412   0.545   1.850  13.489  0.2334 -0.4290  1.6215
  158TMC2    H2 2413   0.591   2.181  13.224 -1.4004 -1.0692 -0.7448
  158TMC2    C7 2414   0.435   1.975  13.280  0.0831 -0.3505  0.7848
  158TMC2    C8 2415   0.779   2.305  13.370 -0.3340  0.3724 -0.7834
  158TMC2    O1 2416   0.414   2.048  13.181 -0.1156 -0.5073 -0.0850
  158TMC2    O2 2417   0.744   2.366  13.274 -0.5489  0.2922  0.7233
  158TMC2    O5 2418   0.754   2.343  13.501  0.4502 -0.4088  0.2370
  158TMC2    H5 2419   0.773   2.281  13.575  0.3878  0.4767  0.9840
  159MPD2     C 2420   0.919   1.551  13.965  0.1419 -0.2191  0.1944
  159MPD2    C1 2421   0.784   1.557  13.959 -0.3084  0.2329  0.3991
  159MPD2    C2 2422   0.729   1.646  13.861 -0.1710  0.8713 -0.5375
  159MPD2    C3 2423   0.811   1.714  13.771 -0.6019  0.6828  0.1175
  159MPD2    C4 2424   0.948   1.705  13.785  0.2112  0.2663  0.3981
  159MPD2    C5 2425   1.003   1.620  13.882 -0.5782  0.1606  0.1345
  159MPD2     H 2426   0.622   1.663  13.857 -0.1593  1.4057  1.5418
  159MPD2    H1 2427   1.021   1.756  13.724  0.8818 -1.2884 -0.0874
  159MPD2    H2 2428   0.959   1.493  14.047 -0.3224  0.2171  0.7269
  159MPD2    H3 2429   1.111   1.619  13.882 -0.5943 -1.0721  1.8411
  159MPD2     N 2430   0.740   1.796  13.678 -0.2164  0.4343 -0.2342
  159MPD2    H5 2431   0.639   1.790  13.685 -0.1146  0.9943  1.6400
  159MPD2    N1 2432   0.706   1.481  14.051  0.0190  0.7528 -0.5929
  159MPD2    H7 2433   0.750   1.452  14.138  2.6193  2.0540 -1.4679
  160TMC2    C1 2434   0.178   0.030   1.016 -0.1613  0.2048  0.1345
  160TMC2    C2 2435   0.197   4.640   1.092 -0.4942  0.2995 -0.0027
  160TMC2    C3 2436   0.294   4.548   1.067  0.4503  0.2931  0.3070
  160TMC2    C4 2437   0.278   0.068   0.928  0.2557 -0.4874 -0.3913
  160TMC2    C5 2438   0.384   4.703   0.912  0.2849 -0.0798 -0.2866
  160TMC2    C6 2439   0.391   4.584   0.978 -0.0806  0.4016 -0.0366
  160TMC2     C 2440   0.042   0.090   1.013  0.8820 -0.3388  0.0672
  160TMC2     O 2441   4.676   0.030   1.065  0.3101 -0.6762 -0.4166
  160TMC2     H 2442   0.120   4.617   1.165 -0.2875 -1.9971 -0.5137
  160TMC2    H1 2443   0.273   0.150   0.858  1.1985  1.4627  1.8354
  160TMC2    H2 2444   0.474   4.516   0.961 -0.2121  0.0572  0.7181
  160TMC2    C7 2445   0.498   0.017   0.828  0.2218 -0.7178 -0.4469
  160TMC2    C8 2446   0.343   4.473   1.189 -0.2115 -0.0195 -0.2144
  160TMC2    O1 2447   0.570   4.655   0.775 -0.2760  0.5010  0.2203
  160TMC2    O2 2448   0.438   4.506   1.259  0.0976 -0.4709  1.0763
  160TMC2    O5 2449   0.246   4.388   1.228 -0.9363  0.7189 -0.1684
  160TMC2    H5 2450   0.185   4.364   1.156  1.1734 -2.9012 -0.7706
  161MPD2     C 2451   4.499   0.201   0.940  0.5991 -0.2796 -0.1486
  161MPD2    C1 2452   4.619   0.246   0.885  0.1002  0.5470 -0.5500
  161MPD2    C2 2453   4.611   0.346   0.783 -0.0733  0.0115 -0.8392
  161MPD2    C3 2454   4.489   0.387   0.731  0.5907 -0.0582 -0.1596
  161MPD2    C4 2455   4.372   0.332   0.784 -0.0820 -0.4586 -0.3503
  161MPD2    C5 2456   4.379   0.245   0.890  0.7032 -0.7615 -0.0825
  161MPD2     H 2457   4.699   0.388   0.736  0.1584  1.8052  1.2451
  161MPD2    H1 2458   4.274   0.360   0.747  1.2677  3.3398 -1.0004
  161MPD2    H2 2459   4.494   0.133   1.025 -0.0509 -1.2854 -0.9796
  161MPD2    H3 2460   4.284   0.214   0.933  2.1109 -2.9468  1.5002
  161MPD2     N 2461   4.470   0.491   0.637  0.3181  0.8902  0.1713
  161MPD2    H5 2462   4.378   0.532   0.632 -1.2874 -2.7613 -0.5245
  161MPD2    N1 2463   0.024   0.194   0.925  0.4475 -0.0520 -0.2178
  161MPD2    H7 2464   0.101   0.246   0.883  0.4932 -0.9359 -1.2275
  162TMC2    C1 2465   2.566   2.245   0.693  0.1179  0.4380 -0.4396
  162TMC2    C2 2466   2.530   2.254   0.563  0.0863  0.0481 -1.0523
  162TMC2    C3 2467   2.404   2.298   0.535  0.3387 -0.2632  0.3120
  162TMC2    C4 2468   2.488   2.299   0.798 -0.1512  0.0633 -0.5312
  162TMC2    C5 2469   2.357   2.338   0.761 -0.5947 -0.4213  1.2618
  162TMC2    C6 2470   2.319   2.335   0.632  0.3201 -0.4286  0.3407
  162TMC2     C 2471   2.709   2.219   0.715 -0.0251 -0.0002  0.1230
  162TMC2     O 2472   2.783   2.227   0.619 -0.1912 -0.5601  0.2905
  162TMC2     H 2473   2.584   2.202   0.485 -0.2042  0.4053 -1.4900
  162TMC2    H1 2474   2.543   2.331   0.886  0.6166 -0.6203 -0.7606
  162TMC2    H2 2475   2.212   2.345   0.616  0.5914  2.0181  0.0814
  162TMC2    C7 2476   2.269   2.391   0.860 -0.2457  0.0607 -0.4442
  162TMC2    C8 2477   2.339   2.246   0.421  0.2563 -0.0059 -0.0563
  162TMC2    O1 2478   2.187   2.477   0.836 -0.2667  0.7059 -0.2158
  162TMC2    O2 2479   2.240   2.173   0.425  0.4689  0.5252 -0.1862
  162TMC2    O5 2480   2.408   2.277   0.313 -0.0941  0.0844 -0.6583
  162TMC2    H5 2481   2.482   2.339   0.327  1.4861 -1.1849 -3.2661
  163MPD2     C 2482   3.130   2.166   1.011 -0.7124 -0.0162  0.1235
  163MPD2    C1 2483   3.114   2.221   0.886  0.0058 -0.7373 -0.1998
  163MPD2    C2 2484   2.985   2.238   0.843 -0.4364  0.5844  0.2147
  163MPD2    C3 2485   2.873   2.188   0.910  0.5729 -0.7842  0.0146
  163MPD2    C4 2486   2.894   2.122   1.025 -0.4452 -0.6076  0.2701
  163MPD2    C5 2487   3.023   2.118   1.078  0.2379 -0.4840  0.0310
  163MPD2     H 2488   2.965   2.281   0.746  0.0679  2.1513  0.8050
  163MPD2    H1 2489   2.811   2.073   1.076 -0.7535  0.0419  0.3919
  163MPD2    H2 2490   3.230   2.152   1.050 -1.4756 -2.1064  1.3616
  163MPD2    H3 2491   3.019   2.069   1.175 -0.3310  1.0764  0.7904
  163MPD2     N 2492   2.746   2.197   0.850  0.0611  0.0246 -0.2508
  163MPD2    H5 2493   2.676   2.158   0.913 -0.7571  0.9339 -0.5843
  163MPD2    N1 2494   3.233   2.259   0.813  0.6142  0.0991 -0.7272
  163MPD2    H7 2495   3.326   2.241   0.851  1.4519  3.8247 -1.0425
  164TCq2    C1 2496   3.745   1.414  11.102  0.5222  0.1991 -0.1466
  164TCq2    O2 2497   3.683   1.383  11.200 -0.0944  0.8993  0.7143
  164TCq2    C2 2498   3.705   1.542  11.041 -0.9897 -0.1185 -0.1484
  164TCq2    C3 2499   3.704   1.554  10.900 -0.0797  0.8490 -0.5137
  164TCq2    C4 2500   3.655   1.670  10.849  0.1639 -0.1517 -0.5465
  164TCq2    C5 2501   3.591   1.767  10.921  0.6552  0.4658 -0.6538
  164TCq2    C6 2502   3.587   1.751  11.058 -1.0505 -0.2926  0.2934
  164TCq2    C7 2503   3.630   1.634  11.110 -0.0656  0.0195  0.0983
  164TCq2    C8 2504   3.526   1.854  11.143 -0.5881 -0.8151 -0.6257
  164TCq2    O4 2505   3.475   1.952  11.087 -0.4087  0.0193  0.3273
  164TCq2    C9 2506   3.663   1.682  10.706 -0.6246  1.0833  0.4320
  164TCq2    O5 2507   3.620   1.793  10.659 -0.0518 -0.1374  0.6773
  164TCq2    O6 2508   3.756   1.626  10.647  0.2149  0.4090  0.2159
  164TCq2    H2 2509   3.735   1.482  10.825 -2.0765 -0.5232 -0.0250
  164TCq2    H3 2510   3.539   1.853  10.881 -1.0459 -0.7975 -1.1407
  164TCq2    H4 2511   3.634   1.624  11.218 -1.0889 -1.0319  0.0304
  165MPD2     C 2512   4.368   3.987   1.588 -0.2332 -0.0427  0.1570
  165MPD2    C1 2513   4.315   4.071   1.494  0.1854 -0.1324 -0.5448
  165MPD2    C2 2514   4.338   4.203   1.507  0.2939  0.9151  0.0443
  165MPD2    C3 2515   4.403   4.259   1.613  0.1056 -0.2479 -0.7181
  165MPD2    C4 2516   4.470   4.174   1.701 -0.0217  0.2514  0.7041
  165MPD2    C5 2517   4.448   4.035   1.683 -0.0697 -0.0241  0.3890
  165MPD2     H 2518   4.296   4.266   1.430 -2.0352  0.6520  1.0948
  165MPD2    H1 2519   4.527   4.204   1.788  0.2300  1.2579  0.1961
  165MPD2    H2 2520   4.354   3.880   1.589 -0.0450 -0.0874 -1.5610
  165MPD2    H3 2521   4.499   3.968   1.750 -0.3703  0.4779  1.1200
  165MPD2     N 2522   4.421   4.397   1.638 -0.0564  0.3369 -0.4552
  165MPD2    H5 2523   4.487   4.427   1.709  0.4468  0.0048 -0.7818
  165MPD2    N1 2524   4.229   4.014   1.403  0.3582 -0.5509  0.7846
  165MPD2    H7 2525   4.219   3.913   1.405 -2.9114 -0.3047 -1.8344
  166TCq2    C1 2526   4.363   4.492   1.556  0.3239  0.3159  0.2192
  166TCq2    O2 2527   4.281   4.484   1.468 -0.0804  0.1524  0.1631
  166TCq2    C2 2528   4.428   4.617   1.590 -0.4824  0.2495  0.0302
  166TCq2    C3 2529   4.348   0.004   1.611  0.7082 -0.7131 -0.4439
  166TCq2    C4 2530   4.410   0.125   1.600  0.5003  0.1035  0.1692
  166TCq2    C5 2531   4.532   0.132   1.542 -0.5577  0.5086 -0.1202
  166TCq2    C6 2532   4.599   0.019   1.509  0.1015  0.3790  0.1272
  166TCq2    C7 2533   4.550   4.623   1.540  0.8106  0.3164  0.5579
  166TCq2    C8 2534   0.011   0.027   1.443 -0.2221  0.2326 -0.6452
  166TCq2    O4 2535   0.083   4.653   1.462 -0.6403  0.2178 -0.0337
  166TCq2    C9 2536   4.345   0.243   1.634 -0.3874  0.0979 -0.3568
  166TCq2    O5 2537   4.252   0.237   1.722  0.3005  0.2029  0.0574
  166TCq2    O6 2538   4.387   0.354   1.590 -0.0309 -0.2303  0.2757
  166TCq2    H2 2539   4.248   4.719   1.651  0.8010 -0.9822 -0.2631
  166TCq2    H3 2540   4.582   0.227   1.553  2.5202 -1.3764  1.9535
  166TCq2    H4 2541   4.608   4.532   1.530 -0.5964 -0.7835  2.4718
  167TMC2    C1 2542   2.636   1.789  12.592 -0.9642 -0.1802 -0.3905
  167TMC2    C2 2543   2.592   1.810  12.719 -0.4108  0.2498  0.6860
  167TMC2    C3 2544   2.540   1.700  12.788  1.1186 -0.7667 -0.0807
  167TMC2    C4 2545   2.668   1.662  12.539  0.2000 -0.5829  0.5516
  167TMC2    C5 2546   2.619   1.553  12.617 -0.2961  0.0374  0.5778
  167TMC2    C6 2547   2.549   1.573  12.733  0.3061 -0.3944 -0.4732
  167TMC2     C 2548   2.591   1.892  12.499 -0.3967  0.0407 -0.4925
  167TMC2     O 2549   2.601   2.009  12.532 -0.2067  0.3495 -0.8508
  167TMC2     H 2550   2.560   1.909  12.748  0.7171  0.5878  0.7756
  167TMC2    H1 2551   2.732   1.649  12.453 -0.0141  0.6193  0.2055
  167TMC2    H2 2552   2.495   1.487  12.769  0.0895 -1.0662 -2.3703
  167TMC2    C7 2553   2.648   1.416  12.587 -0.1527 -0.7748 -0.0214
  167TMC2    C8 2554   2.457   1.724  12.907  0.5184  0.5453  0.1219
  167TMC2    O1 2555   2.567   1.329  12.619 -0.5767 -0.5146 -0.0535
  167TMC2    O2 2556   2.363   1.645  12.931 -0.2727 -0.2497  0.3364
  167TMC2    O5 2557   2.508   1.822  12.987  0.0747 -0.0886 -0.0142
  167TMC2    H5 2558   2.592   1.864  12.956 -0.4563 -0.6115 -2.1512
  168MPD2     C 2559   2.543   2.051  12.243  0.4382 -0.4422 -0.2184
  168MPD2    C1 2560   2.535   1.913  12.256 -0.0743  0.3678 -0.0520
  168MPD2    C2 2561   2.532   1.842  12.138  0.8228  0.0338  0.8963
  168MPD2    C3 2562   2.541   1.905  12.010 -0.0561  0.0054 -0.0842
  168MPD2    C4 2563   2.532   2.040  12.005 -0.2771 -0.7017  0.1943
  168MPD2    C5 2564   2.528   2.112  12.119 -0.7051  0.4460 -0.2467
  168MPD2     H 2565   2.529   1.733  12.141 -4.0163  0.0794 -1.6608
  168MPD2    H1 2566   2.539   2.093  11.911  0.6388  1.6115  1.5475
  168MPD2    H2 2567   2.559   2.117  12.327  0.1777  0.0430 -0.5501
  168MPD2    H3 2568   2.534   2.220  12.117  1.8067  0.3120 -0.1657
  168MPD2     N 2569   2.560   1.836  11.888 -0.5110 -0.1121  0.0500
  168MPD2    H5 2570   2.570   1.886  11.801  1.8667  0.5589  0.7174
  168MPD2    N1 2571   2.556   1.840  12.379 -0.8597 -0.3407  0.2536
  168MPD2    H7 2572   2.552   1.743  12.348  1.7988  0.1546 -1.6609
  169MPD1     C 2573   4.662   1.456   8.821  0.2869 -0.3079  0.6849
  169MPD1    C1 2574   0.006   1.564   8.879  0.2399 -0.0031 -0.7111
  169MPD1    C2 2575   0.130   1.549   8.946 -0.2764 -0.0286  0.6133
  169MPD1    C3 2576   0.194   1.425   8.940 -0.3769 -0.4573 -0.4595
  169MPD1    C4 2577   0.121   1.322   8.881  0.1110 -0.0838 -0.2532
  169MPD1    C5 2578   0.000   1.338   8.828 -0.5398  0.0211 -0.0983
  169MPD1     H 2579   0.175   1.637   8.990 -1.7020  0.2410  1.5194
  169MPD1    H1 2580   0.164   1.223   8.866 -2.8029 -1.0979 -1.9480
  169MPD1    H2 2581   4.563   1.461   8.777  0.4480 -4.6780 -0.1092
  169MPD1    H3 2582   4.678   1.251   8.782 -0.7468 -0.0663  0.2773
  169MPD1     N 2583   0.315   1.393   9.007 -0.0557 -0.0849 -0.0863
  169MPD1    H5 2584   0.345   1.296   8.998  1.5037  0.5083 -1.2444
  169MPD1    N1 2585   4.653   1.685   8.889  0.4704  0.4620  0.2853
  169MPD1    H6 2586   4.572   1.700   8.829  0.7686  1.8755  0.2209
  169MPD1    H7 2587   4.714   1.767   8.894 -0.9862  1.5841 -0.4372
  170MPD1     C 2588   3.222   4.025  12.729 -0.2767  0.2327  0.4133
  170MPD1    C1 2589   3.270   4.147  12.762 -0.0707 -0.4271  0.3822
  170MPD1    C2 2590   3.333   4.162  12.887  0.4533 -0.7016 -0.0168
  170MPD1    C3 2591   3.373   4.053  12.960 -0.3256  0.2682  0.9983
  170MPD1    C4 2592   3.334   3.929  12.921 -0.2187 -0.8259  0.1993
  170MPD1    C5 2593   3.248   3.919  12.816  0.2316  0.3503 -0.0381
  170MPD1     H 2594   3.362   4.260  12.921 -1.1494  0.0398 -0.7801
  170MPD1    H1 2595   3.343   3.838  12.978 -1.0121 -2.4033 -2.1872
  170MPD1    H2 2596   3.161   4.003  12.642  0.9495  0.7175 -0.5708
  170MPD1    H3 2597   3.202   3.821  12.810 -0.8513  0.8477  0.1172
  170MPD1     N 2598   3.438   4.074  13.088 -0.2402  0.0178 -0.2341
  170MPD1    H5 2599   3.441   4.167  13.128  0.3826  0.3075 -0.9515
  170MPD1    N1 2600   3.233   4.257  12.686  0.0686  0.9720  0.3869
  170MPD1    H6 2601   3.208   4.230  12.591 -2.2480  1.0963  0.9606
  170MPD1    H7 2602   3.312   4.319  12.671  2.6124 -2.2092  0.5747
  171MPD1     C 2603   2.481   0.183  15.369 -0.0507  0.2320  0.1822
  171MPD1    C1 2604   2.411   0.071  15.346  0.4531  0.7062 -0.1755
  171MPD1    C2 2605   2.463   4.666  15.366 -0.2050  0.3029 -0.9138
  171MPD1    C3 2606   2.586   4.666  15.434  0.5408 -0.6901  0.2887
  171MPD1    C4 2607   2.657   0.062  15.450  0.6708  0.0026  0.6526
  171MPD1    C5 2608   2.603   0.180  15.422  0.6034  0.1189 -0.5058
  171MPD1     H 2609   2.406   4.576  15.350  1.7063 -1.1575  0.3762
  171MPD1    H1 2610   2.753   0.060  15.499  0.5354 -2.3411  0.8281
  171MPD1    H2 2611   2.427   0.272  15.340 -0.0070  0.2575  0.1781
  171MPD1    H3 2612   2.660   0.271  15.438  0.7342 -0.1057  0.3068
  171MPD1     N 2613   2.644   4.547  15.491  0.3108 -0.2164  0.0688
  171MPD1    H5 2614   2.734   4.564  15.535 -0.1660  3.3234 -0.3184
  171MPD1    N1 2615   2.301   0.091  15.264  0.1304 -0.3481  0.3442
  171MPD1    H6 2616   2.238   0.011  15.253  0.5608 -0.6769  0.2496
  171MPD1    H7 2617   2.249   0.178  15.257  1.0218  0.2513  1.1438
  172MPD1     C 2618   1.788   3.786   0.298 -0.1507 -0.4546 -0.0400
  172MPD1    C1 2619   1.690   3.885   0.281  0.2775 -0.5183  0.7975
  172MPD1    C2 2620   1.713   4.008   0.334  0.1925 -0.0613 -0.2556
  172MPD1    C3 2621   1.835   4.046   0.383  0.5562  0.7674 -0.4431
  172MPD1    C4 2622   1.929   3.947   0.408  0.0368  1.0702  0.1985
  172MPD1    C5 2623   1.904   3.817   0.374  0.5186  0.1600 -0.1955
  172MPD1     H 2624   1.635   4.080   0.313  2.1384  2.0342 -0.2302
  172MPD1    H1 2625   2.015   3.979   0.465  1.4425 -0.8601 -0.8778
  172MPD1    H2 2626   1.778   3.689   0.249  2.4693 -0.8448  0.1763
  172MPD1    H3 2627   1.975   3.738   0.391  1.2168  0.8978  0.3018
  172MPD1     N 2628   1.867   4.179   0.418 -0.3689  0.1221  0.5621
  172MPD1    H5 2629   1.954   4.194   0.469  1.0090 -0.9674 -1.4519
  172MPD1    N1 2630   1.582   3.863   0.192  0.0617 -0.0654 -0.2981
  172MPD1    H6 2631   1.500   3.912   0.227  0.4676 -0.4402  1.1807
  172MPD1    H7 2632   1.550   3.768   0.177  1.2759 -0.3663 -0.9619
  173MPD1     C 2633   2.453   3.106  13.840  0.0280  0.1348 -0.0026
  173MPD1    C1 2634   2.542   3.200  13.799  0.6411  0.1693 -0.8591
  173MPD1    C2 2635   2.579   3.298  13.890 -0.9091 -0.5262  0.5396
  173MPD1    C3 2636   2.524   3.305  14.016  0.5448 -0.0404 -0.2590
  173MPD1    C4 2637   2.436   3.209  14.055  0.0104  0.1765  0.2598
  173MPD1    C5 2638   2.410   3.102  13.975  0.0395 -0.5248  0.5815
  173MPD1     H 2639   2.657   3.370  13.869 -0.0818 -2.0281 -1.4806
  173MPD1    H1 2640   2.391   3.211  14.153 -1.2287 -0.4252 -0.2892
  173MPD1    H2 2641   2.413   3.032  13.771  0.6430  0.0580 -0.2708
  173MPD1    H3 2642   2.346   3.026  14.018 -0.9556 -2.0124 -3.5591
  173MPD1     N 2643   2.562   3.404  14.110 -0.0436 -0.3725 -0.0794
  173MPD1    H5 2644   2.631   3.467  14.070 -0.4668  0.9603  1.3267
  173MPD1    N1 2645   2.603   3.195  13.668  0.3109  0.7728 -0.9930
  173MPD1    H6 2646   2.625   3.291  13.642  2.5259  0.0112 -1.8854
  173MPD1    H7 2647   2.534   3.168  13.598 -1.1703 -1.3783  1.3129
  174MPD1     C 2648   3.230   3.659  13.923 -0.1837 -0.3512  0.6353
  174MPD1    C1 2649   3.233   3.734  14.037  0.2225 -0.7838 -0.1339
  174MPD1    C2 2650   3.119   3.736  14.116 -0.6206 -0.2469  0.2667
  174MPD1    C3 2651   2.994   3.708  14.058 -0.3071 -0.4354  0.3001
  174MPD1    C4 2652   2.988   3.643  13.940 -0.4376 -0.0708 -0.2815
  174MPD1    C5 2653   3.108   3.617  13.870 -0.1973 -0.1478 -0.4688
  174MPD1     H 2654   3.123   3.778  14.216 -0.7036  1.0156 -0.2577
  174MPD1    H1 2655   2.893   3.601  13.909 -1.2960  0.7984  1.1797
  174MPD1    H2 2656   3.322   3.645  13.869 -0.6950  1.0105 -0.5870
  174MPD1    H3 2657   3.099   3.552  13.784 -1.1642  0.7087 -1.0098
  174MPD1     N 2658   2.872   3.728  14.126 -0.8339 -0.0966 -0.5503
  174MPD1    H5 2659   2.786   3.698  14.081 -2.3373  0.2244  2.0760
  174MPD1    N1 2660   3.348   3.797  14.090 -0.3999  0.7582  0.3198
  174MPD1    H6 2661   3.316   3.883  14.133  1.2069  3.0441 -3.0529
  174MPD1    H7 2662   3.406   3.820  14.010 -0.4028  0.0222  0.1053
  175MPD1     C 2663   1.347   0.152  15.592  0.1536  0.5373  0.4590
  175MPD1    C1 2664   1.403   0.033  15.638  0.1174 -0.0728  0.2094
  175MPD1    C2 2665   1.384   4.714  15.768  0.0103  0.0558  0.2478
  175MPD1    C3 2666   1.317   0.079  15.852  1.1445  0.1190  0.2347
  175MPD1    C4 2667   1.267   0.201  15.800 -0.2183 -0.4038  0.0147
  175MPD1    C5 2668   1.272   0.233  15.670  0.2806  0.8439 -0.9792
  175MPD1     H 2669   1.420   4.621  15.808 -0.3419 -0.5772 -0.9102
  175MPD1    H1 2670   1.204   0.259  15.865  2.2634 -1.3835  3.2884
  175MPD1    H2 2671   1.356   0.186  15.489  2.2496 -1.2055  0.0591
  175MPD1    H3 2672   1.217   0.319  15.635  1.1560  2.9074  2.7104
  175MPD1     N 2673   1.287   0.058  15.988 -0.1798 -0.2413  0.0673
  175MPD1    H5 2674   1.238   0.130  16.041 -2.4295 -0.3203 -1.9410
  175MPD1    N1 2675   1.466   4.669  15.545  0.4834  0.0876  0.4317
  175MPD1    H6 2676   1.507   4.712  15.462  0.1794 -0.6251 -0.0934
  175MPD1    H7 2677   1.529   4.605  15.593 -0.1290 -1.5139 -0.8520
  176MPD1     C 2678   2.881   1.737  16.016 -0.4127  0.1083  0.8322
  176MPD1    C1 2679   2.755   1.733  16.066 -0.7154 -0.2306  0.4158
  176MPD1    C2 2680   2.726   1.786  16.188  0.1078 -0.4402  0.1199
  176MPD1    C3 2681   2.831   1.857  16.249 -0.3455 -0.5668  0.7444
  176MPD1    C4 2682   2.951   1.872  16.184 -0.4649 -0.3528  0.2780
  176MPD1    C5 2683   2.978   1.812  16.065 -0.1067 -0.3735 -0.3156
  176MPD1     H 2684   2.630   1.775  16.237 -0.0223 -0.1807 -0.0755
  176MPD1    H1 2685   3.038   1.923  16.223  0.0839  0.2545 -1.7396
  176MPD1    H2 2686   2.907   1.664  15.940 -1.4298 -0.3513  0.9343
  176MPD1    H3 2687   3.079   1.809  16.026  0.9736  0.3114  2.3829
  176MPD1     N 2688   2.816   1.905  16.382  0.0080  0.0379  0.8854
  176MPD1    H5 2689   2.724   1.893  16.424 -0.5988 -0.8165 -0.6988
  176MPD1    N1 2690   2.659   1.667  15.990  0.1511 -0.3429 -0.1066
  176MPD1    H6 2691   2.672   1.690  15.892  0.0203  0.8109  0.1464
  176MPD1    H7 2692   2.561   1.678  16.016 -0.1279  0.3324 -1.4858
  177MPD1     C 2693   1.625   2.142  10.141  0.4816 -0.1078  0.0771
  177MPD1    C1 2694   1.541   2.093  10.046 -0.0594  0.1463 -0.2951
  177MPD1    C2 2695   1.454   2.182   9.984 -0.1907 -0.1953 -0.6899
  177MPD1    C3 2696   1.482   2.317   9.993  0.4624 -1.0697  0.2528
  177MPD1    C4 2697   1.571   2.362  10.083  0.0779 -0.2910 -0.3265
  177MPD1    C5 2698   1.651   2.274  10.158 -0.7670 -0.4543 -0.5440
  177MPD1     H 2699   1.388   2.135   9.912 -0.0996 -0.0251 -0.8826
  177MPD1    H1 2700   1.570   2.467  10.107  0.7048 -0.5160  0.7276
  177MPD1    H2 2701   1.678   2.068  10.200 -0.6725 -1.7815 -0.9621
  177MPD1    H3 2702   1.728   2.314  10.222 -0.1899 -1.3691 -0.6619
  177MPD1     N 2703   1.407   2.412   9.916  0.2917 -0.1488 -0.2641
  177MPD1    H5 2704   1.330   2.366   9.869  0.7954 -0.3707 -0.8912
  177MPD1    N1 2705   1.508   1.959  10.042 -0.4148  0.3859  0.2630
  177MPD1    H6 2706   1.573   1.887  10.072  0.8970  1.6252  0.4130
  177MPD1    H7 2707   1.430   1.941  10.105  0.6652 -4.6997  0.1426
  178MPD1     C 2708   3.581   3.469  17.582 -0.2331  0.5915 -0.2660
  178MPD1    C1 2709   3.714   3.502  17.558  0.1555  0.3724  0.7182
  178MPD1    C2 2710   3.775   3.443  17.449  0.3632  0.5618  0.4538
  178MPD1    C3 2711   3.726   3.331  17.385 -0.1751  0.5393 -0.9094
  178MPD1    C4 2712   3.599   3.294  17.417 -0.1510  0.3547 -0.8281
  178MPD1    C5 2713   3.529   3.362  17.517 -1.2999 -0.5939  0.0203
  178MPD1     H 2714   3.872   3.484  17.422 -1.0041  2.5984 -1.3776
  178MPD1    H1 2715   3.550   3.219  17.357 -0.7385 -0.6231  0.8911
  178MPD1    H2 2716   3.536   3.527  17.661  1.0440  0.6384  0.4287
  178MPD1    H3 2717   3.429   3.325  17.538 -1.9465  0.7057 -0.6999
  178MPD1     N 2718   3.790   3.262  17.280 -0.0670  0.6561 -0.7596
  178MPD1    H5 2719   3.744   3.173  17.265 -1.5427  1.2989  0.0158
  178MPD1    N1 2720   3.777   3.604  17.623  0.0953  0.3153 -0.1985
  178MPD1    H6 2721   3.742   3.625   0.024 -0.4621  0.8917 -0.5307
  178MPD1    H7 2722   3.872   3.576  17.646 -0.0186  0.0547 -0.0486
  179MPD1     C 2723   3.200   1.571  15.845  0.3585  0.2484  0.0953
  179MPD1    C1 2724   3.168   1.523  15.727  0.9318 -0.1375  0.0655
  179MPD1    C2 2725   3.164   1.387  15.707  0.8775  0.8610  0.1886
  179MPD1    C3 2726   3.214   1.307  15.801 -0.4898  0.5550  0.4321
  179MPD1    C4 2727   3.257   1.354  15.924  0.1779  0.9500 -0.0754
  179MPD1    C5 2728   3.241   1.485  15.943  0.5749  0.3365  0.2374
  179MPD1     H 2729   3.137   1.344  15.611 -3.3795  4.8122 -0.4137
  179MPD1    H1 2730   3.295   1.292  16.004 -0.1389 -1.0488 -1.4746
  179MPD1    H2 2731   3.194   1.677  15.865 -0.5259  0.0433  0.9199
  179MPD1    H3 2732   3.283   1.523  16.035 -1.2555  1.4119  0.6169
  179MPD1     N 2733   3.213   1.162  15.787 -0.1244 -0.6597 -0.2475
  179MPD1    H5 2734   3.262   1.118  15.864 -1.3170 -1.9420 -0.2153
  179MPD1    N1 2735   3.106   1.609  15.632  0.1566 -0.0227 -0.2831
  179MPD1    H6 2736   3.136   1.706  15.637 -0.2742  0.1354 -0.7523
  179MPD1    H7 2737   3.098   1.575  15.536  0.1541 -1.9756  0.4023
  180MPD1     C 2738   3.629   2.166  15.319 -0.5038 -0.1566 -0.0848
  180MPD1    C1 2739   3.655   2.284  15.258  0.4920 -0.4371  0.0861
  180MPD1    C2 2740   3.563   2.319  15.166  0.0601  0.8124  0.0189
  180MPD1    C3 2741   3.452   2.247  15.141  0.4209  0.7418  0.5915
  180MPD1    C4 2742   3.421   2.136  15.213 -0.1936  0.0308 -0.9981
  180MPD1    C5 2743   3.514   2.096  15.299 -0.0877 -0.5662  0.0523
  180MPD1     H 2744   3.587   2.406  15.106  0.7821  0.6217  0.0328
  180MPD1    H1 2745   3.333   2.074  15.215 -1.3773  1.7611  1.6495
  180MPD1    H2 2746   3.693   2.108  15.384 -0.9629 -1.1737 -0.5490
  180MPD1    H3 2747   3.484   2.010  15.358 -1.2907 -2.0640 -2.7668
  180MPD1     N 2748   3.362   2.297  15.045 -0.1030 -0.0702 -0.3044
  180MPD1    H5 2749   3.387   2.377  14.987 -2.4452  1.0237  0.1839
  180MPD1    N1 2750   3.785   2.334  15.269  0.4559  0.2628 -0.4204
  180MPD1    H6 2751   3.786   2.435  15.269  1.0859  0.2587  0.5125
  180MPD1    H7 2752   3.828   2.314  15.359  1.7022  1.3363 -0.7943
  181MPD1     C 2753   0.389   0.459   9.249 -0.6953 -0.1507  0.3827
  181MPD1    C1 2754   0.480   0.365   9.220  0.6656 -0.9924 -0.3594
  181MPD1    C2 2755   0.612   0.389   9.253  0.0869 -0.6534 -0.6287
  181MPD1    C3 2756   0.648   0.493   9.332 -0.2326  0.1405  0.1711
  181MPD1    C4 2757   0.553   0.586   9.363 -0.3991  0.3444 -0.2436
  181MPD1    C5 2758   0.429   0.567   9.324 -0.4146  0.1124  0.2489
  181MPD1     H 2759   0.685   0.317   9.217 -1.8206 -1.5086 -2.8159
  181MPD1    H1 2760   0.570   0.669   9.431 -3.4352  0.8586 -0.1109
  181MPD1    H2 2761   0.284   0.436   9.239 -0.2906 -2.2054  0.8471
  181MPD1    H3 2762   0.364   0.646   9.358 -1.3214 -1.1099  1.3816
  181MPD1     N 2763   0.777   0.518   9.384  0.2609 -0.5981  0.3737
  181MPD1    H5 2764   0.779   0.607   9.433 -0.2683 -0.5670  0.3402
  181MPD1    N1 2765   0.454   0.256   9.140  0.0223  0.3503 -0.4483
  181MPD1    H6 2766   0.510   0.172   9.155  0.8480  1.2458  1.4789
  181MPD1    H7 2767   0.356   0.233   9.149  0.2444 -0.4723 -0.1224
  182MPD1     C 2768   1.853   4.002   1.854  0.0893 -0.6720  0.1509
  182MPD1    C1 2769   1.872   3.922   1.740  0.0937  0.3834 -0.5185
  182MPD1    C2 2770   1.767   3.909   1.648 -0.1134 -0.7612  0.2601
  182MPD1    C3 2771   1.651   3.988   1.656  0.7318  0.1490  0.4077
  182MPD1    C4 2772   1.633   4.062   1.775  0.3918  0.3873 -0.9649
  182MPD1    C5 2773   1.734   4.073   1.865  0.5645 -0.1661 -0.3295
  182MPD1     H 2774   1.780   3.844   1.562 -0.8652 -0.7877  0.1666
  182MPD1    H1 2775   1.537   4.106   1.797  0.4467  0.0201 -0.0025
  182MPD1    H2 2776   1.920   4.017   1.938 -0.2115 -3.7714  0.9617
  182MPD1    H3 2777   1.712   4.136   1.951  3.0827 -1.2796  1.1364
  182MPD1     N 2778   1.549   3.986   1.560  0.4589 -0.1650 -0.1340
  182MPD1    H5 2779   1.458   4.027   1.578  0.6385  0.6100 -0.9668
  182MPD1    N1 2780   1.990   3.854   1.725 -0.5638  0.2156  0.0501
  182MPD1    H6 2781   2.065   3.901   1.774  2.2286 -2.4228 -1.7096
  182MPD1    H7 2782   2.017   3.833   1.629 -1.9211 -1.0759 -0.0513
  183MPD1     C 2783   1.044   4.286   9.350 -0.1053  0.5926 -0.4569
  183MPD1    C1 2784   1.063   4.420   9.313  0.3640  0.4192 -0.6848
  183MPD1    C2 2785   1.179   4.486   9.337 -0.3521  0.6547  0.4450
  183MPD1    C3 2786   1.279   4.421   9.401  0.6061 -0.3906 -0.2384
  183MPD1    C4 2787   1.256   4.292   9.438  0.1002  0.9363  0.2125
  183MPD1    C5 2788   1.140   4.226   9.415 -0.2174  0.3532 -0.2406
  183MPD1     H 2789   1.194   4.591   9.315 -0.4378  0.7913  1.0394
  183MPD1    H1 2790   1.338   4.242   9.489 -0.8789 -0.3928  0.4707
  183MPD1    H2 2791   0.946   4.241   9.332 -1.2655  2.1663  1.9468
  183MPD1    H3 2792   1.135   4.119   9.434 -0.3482  0.3466 -0.3099
  183MPD1     N 2793   1.395   4.501   9.422  0.0838 -0.0207 -0.1259
  183MPD1    H5 2794   1.403   4.589   9.374  1.7998  0.8259  1.7122
  183MPD1    N1 2795   0.958   4.479   9.241 -0.6267  0.3469  0.1720
  183MPD1    H6 2796   0.868   4.448   9.278 -0.9686 -0.4017 -1.3052
  183MPD1    H7 2797   0.971   4.580   9.248  1.1734  0.0214  1.4795
  184MPD1     C 2798   0.257   1.444   9.850 -0.8941  0.0450  0.3580
  184MPD1    C1 2799   0.377   1.505   9.876 -1.0667 -0.2964 -0.0069
  184MPD1    C2 2800   0.393   1.639   9.855 -0.0667 -0.2446  0.1292
  184MPD1    C3 2801   0.289   1.709   9.795 -0.3246  0.8718  0.1680
  184MPD1    C4 2802   0.177   1.645   9.764 -0.0321 -0.0507 -0.5984
  184MPD1    C5 2803   0.151   1.519   9.801 -0.8303 -0.0039 -1.2590
  184MPD1     H 2804   0.490   1.683   9.874  1.0627 -1.6252 -2.4517
  184MPD1    H1 2805   0.089   1.692   9.722 -0.6706 -0.4851  0.2419
  184MPD1    H2 2806   0.239   1.341   9.878  2.1260 -1.7645 -4.3077
  184MPD1    H3 2807   0.052   1.477   9.783 -1.0143  0.0281 -0.2831
  184MPD1     N 2808   0.309   1.839   9.750  0.2069  0.2479 -0.7169
  184MPD1    H5 2809   0.238   1.871   9.685 -1.0876  0.5703  0.8212
  184MPD1    N1 2810   0.476   1.432   9.940  0.3354 -0.2933  0.0592
  184MPD1    H6 2811   0.567   1.449   9.896  1.0149 -1.1544  1.1632
  184MPD1    H7 2812   0.471   1.332   9.922 -2.2619 -0.3759  1.2364
  185MPD1     C 2813   4.586   2.133   9.123 -0.1988 -0.7655  0.6237
  185MPD1    C1 2814   4.701   2.200   9.090 -0.5200  0.1578  0.7263
  185MPD1    C2 2815   0.078   2.187   9.182 -0.2298 -0.5874  0.0239
  185MPD1    C3 2816   0.066   2.140   9.313 -0.1001 -0.2373 -0.3132
  185MPD1    C4 2817   4.660   2.111   9.351 -0.1594 -0.0490 -0.2652
  185MPD1    C5 2818   4.566   2.099   9.256 -1.0979  0.3412 -0.3702
  185MPD1     H 2819   0.178   2.208   9.145 -0.1239 -2.3241 -0.6630
  185MPD1    H1 2820   4.637   2.075   9.450 -1.0161  2.3379  0.3896
  185MPD1    H2 2821   4.508   2.114   9.052 -2.6044 -0.5407  3.2078
  185MPD1    H3 2822   4.472   2.055   9.286 -1.3235  0.4667 -0.8877
  185MPD1     N 2823   0.169   2.140   9.401 -0.0033 -0.0604 -0.3420
  185MPD1    H5 2824   0.147   2.109   9.495  1.2870  0.7424  0.2326
  185MPD1    N1 2825   0.016   2.226   8.952 -0.5764 -0.4936  0.5205
  185MPD1    H6 2826   0.097   2.287   8.949 -1.0759  0.0294 -2.4894
  185MPD1    H7 2827   4.660   2.259   8.897  2.8283  0.5872 -3.6311
  186MPD1     C 2828   3.748   0.876  16.013  0.5225  0.1813 -0.4547
  186MPD1    C1 2829   3.746   0.878  16.157  0.7092 -0.4141 -0.2096
  186MPD1    C2 2830   3.765   1.000  16.216  0.8576  0.1617  0.1246
  186MPD1    C3 2831   3.777   1.121  16.145 -0.8955 -0.9003 -0.0352
  186MPD1    C4 2832   3.773   1.112  16.010 -0.8750 -0.0417  0.7734
  186MPD1    C5 2833   3.746   0.995  15.947 -0.6184 -1.0029  0.7637
  186MPD1     H 2834   3.761   1.007  16.324  0.3687 -2.2372  0.2550
  186MPD1    H1 2835   3.776   1.199  15.945  0.5850 -1.6386 -1.2486
  186MPD1    H2 2836   3.735   0.784  15.959  1.4078 -0.0810 -0.2101
  186MPD1    H3 2837   3.730   0.994  15.839 -1.7994  0.6638  0.9352
  186MPD1     N 2838   3.799   1.252  16.208 -0.0919  0.2891 -0.1207
  186MPD1    H5 2839   3.805   1.329  16.143  1.2999  1.0772  0.9402
  186MPD1    N1 2840   3.756   0.761  16.227  0.0783  0.4118 -0.2930
  186MPD1    H6 2841   3.701   0.687  16.184 -0.5073  0.3449  0.5643
  186MPD1    H7 2842   3.721   0.775  16.322  2.3834 -0.1795  0.6497
  187MPD1     C 2843   2.333   3.883   0.402  0.0103 -0.0743 -0.1656
  187MPD1    C1 2844   2.445   3.959   0.398 -0.1994  0.4438 -0.7334
  187MPD1    C2 2845   2.536   3.939   0.297 -0.4313 -0.4325 -0.3318
  187MPD1    C3 2846   2.519   3.835   0.199 -0.2522 -0.2158 -0.4871
  187MPD1    C4 2847   2.404   3.765   0.202 -0.0746  0.2087 -0.7846
  187MPD1    C5 2848   2.316   3.787   0.302 -0.3746  0.4817 -0.1214
  187MPD1     H 2849   2.623   4.004   0.295 -1.3055  0.7556  0.3230
  187MPD1    H1 2850   2.379   3.691   0.126 -2.0289 -0.0851  0.1211
  187MPD1    H2 2851   2.241   3.898   0.458 -0.8381 -0.8302 -1.3475
  187MPD1    H3 2852   2.218   3.742   0.298 -0.6737  1.1189 -0.0786
  187MPD1     N 2853   2.610   3.807   0.096 -0.1822  0.4822  0.0571
  187MPD1    H5 2854   2.600   3.720   0.044 -1.1391  0.9690 -0.5653
  187MPD1    N1 2855   2.461   4.069   0.486  0.0488 -0.0657 -0.0927
  187MPD1    H6 2856   2.429   4.040   0.579  0.6326  2.6318  0.9300
  187MPD1    H7 2857   2.559   4.094   0.495 -0.2069  0.5767  0.9259
  188MPD1     C 2858   2.926   3.865   9.618  0.5276  0.4000 -0.0862
  188MPD1    C1 2859   3.018   3.784   9.679  0.1840  0.3067 -0.4762
  188MPD1    C2 2860   2.981   3.656   9.710 -0.2068 -0.0359 -0.0958
  188MPD1    C3 2861   2.854   3.602   9.684  0.2826  0.4502  0.2448
  188MPD1    C4 2862   2.768   3.674   9.612 -0.4088  0.0796 -0.0284
  188MPD1    C5 2863   2.801   3.809   9.590 -0.2073  0.3612  0.4751
  188MPD1     H 2864   3.049   3.586   9.758 -0.6728 -0.5324 -0.1611
  188MPD1    H1 2865   2.667   3.643   9.587 -0.9047  0.9262  0.9435
  188MPD1    H2 2866   2.936   3.973   9.624 -1.6423  0.5963  0.1768
  188MPD1    H3 2867   2.720   3.864   9.544  0.5018  1.5041  0.6067
  188MPD1     N 2868   2.813   3.472   9.722 -0.7159 -0.2570  0.2291
  188MPD1    H5 2869   2.730   3.437   9.675  0.5059 -1.2909 -1.1647
  188MPD1    N1 2870   3.134   3.841   9.741  0.1278  0.1246  0.9935
  188MPD1    H6 2871   3.203   3.768   9.755 -0.6416 -0.8469 -0.2079
  188MPD1    H7 2872   3.167   3.913   9.678  2.0805 -0.8685  0.8918
  189MPD1     C 2873   4.196   3.096   0.265  0.2597 -0.9095 -0.2574
  189MPD1    C1 2874   4.060   3.132   0.268 -0.5952 -0.2354 -0.4415
  189MPD1    C2 2875   4.028   3.264   0.284  1.2307  0.6661 -0.3842
  189MPD1    C3 2876   4.127   3.362   0.266  0.7467  0.3134 -0.5239
  189MPD1    C4 2877   4.257   3.322   0.244  0.1756  0.0845 -0.4970
  189MPD1    C5 2878   4.293   3.185   0.245 -0.7776 -0.0039  0.1003
  189MPD1     H 2879   3.927   3.297   0.303  0.9677  0.3608 -1.2856
  189MPD1    H1 2880   4.336   3.393   0.226  0.7678 -0.4293  0.0825
  189MPD1    H2 2881   4.223   2.991   0.263  0.6932 -0.8201  0.6504
  189MPD1    H3 2882   4.394   3.154   0.223 -1.7497 -1.5465 -2.1820
  189MPD1     N 2883   4.098   3.496   0.277  0.2318  0.1044  0.4661
  189MPD1    H5 2884   4.004   3.530   0.290  0.1162 -0.5007  1.2104
  189MPD1    N1 2885   3.961   3.035   0.272 -0.5067 -0.5355  0.2466
  189MPD1    H6 2886   3.870   3.064   0.238  0.5852 -0.5364 -2.6525
  189MPD1    H7 2887   3.987   2.952   0.219 -1.5424  0.1082 -1.2574
  190MPD1     C 2888   2.550   2.238  16.271 -0.1639  0.0293 -0.0061
  190MPD1    C1 2889   2.670   2.283  16.326 -0.5762  0.1684  0.1433
  190MPD1    C2 2890   2.784   2.279  16.248 -1.1611  0.6235  0.6769
  190MPD1    C3 2891   2.777   2.221  16.126  0.8034 -0.9671  0.9273
  190MPD1    C4 2892   2.662   2.167  16.081 -0.4218  0.0905 -0.3261
  190MPD1    C5 2893   2.544   2.178  16.148  0.6864 -1.2383 -0.3795
  190MPD1     H 2894   2.877   2.325  16.279 -1.1936  0.0324  1.6692
  190MPD1    H1 2895   2.673   2.134  15.979  0.5853  2.1986 -0.9133
  190MPD1    H2 2896   2.457   2.245  16.326  0.8928 -3.5892  2.2177
  190MPD1    H3 2897   2.449   2.140  16.111 -1.3936  2.0467  1.5256
  190MPD1     N 2898   2.902   2.216  16.069 -0.1743  0.1898 -0.7064
  190MPD1    H5 2899   2.984   2.233  16.127  0.0983  1.3317 -1.4366
  190MPD1    N1 2900   2.663   2.361  16.442  0.1352 -0.2912 -0.1853
  190MPD1    H6 2901   2.590   2.328  16.504  2.8683 -0.7921  2.7843
  190MPD1    H7 2902   2.746   2.375  16.499  1.0123  1.1644 -1.8224
  191MPD1     C 2903   2.836   3.900  12.526 -0.3716 -0.7316  0.7690
  191MPD1    C1 2904   2.712   3.968  12.533  0.7742  0.6145  0.3032
  191MPD1    C2 2905   2.709   4.095  12.475 -0.6961 -0.2732 -0.1254
  191MPD1    C3 2906   2.829   4.153  12.440 -0.1683 -0.2330  0.5474
  191MPD1    C4 2907   2.947   4.084  12.455 -0.4303 -0.1751 -1.0596
  191MPD1    C5 2908   2.956   3.958  12.500 -0.6097 -0.1739  0.2875
  191MPD1     H 2909   2.618   4.153  12.466 -1.4383 -1.5816 -1.0561
  191MPD1    H1 2910   3.048   4.123  12.447  0.7668 -2.4780  2.7619
  191MPD1    H2 2911   2.836   3.799  12.565  0.7493 -0.9180  0.2693
  191MPD1    H3 2912   3.045   3.896  12.502 -0.3093  0.2481 -0.3379
  191MPD1     N 2913   2.825   4.286  12.395 -0.0955  0.1436 -0.1879
  191MPD1    H5 2914   2.735   4.323  12.366 -2.0022 -4.1287  0.3350
  191MPD1    N1 2915   2.606   3.914  12.603 -0.2695  0.3811  0.3784
  191MPD1    H6 2916   2.520   3.965  12.582  0.5941  0.4804 -2.8300
  191MPD1    H7 2917   2.591   3.814  12.594  1.2391  0.3936 -2.0121
  192MPD1     C 2918   2.382   0.318  12.608 -0.6761 -0.4843 -0.1621
  192MPD1    C1 2919   2.410   0.334  12.473  0.2141  0.4988 -0.2457
  192MPD1    C2 2920   2.476   0.233  12.406 -0.5249 -0.0691  0.0005
  192MPD1    C3 2921   2.548   0.128  12.471 -0.1732 -0.0094  0.1533
  192MPD1    C4 2922   2.542   0.132  12.610  0.8255  0.0988 -0.2637
  192MPD1    C5 2923   2.458   0.218  12.671  0.8856  0.0017 -0.3535
  192MPD1     H 2924   2.473   0.223  12.299  2.9464  0.3449 -0.1334
  192MPD1    H1 2925   2.607   0.070  12.671  0.2420 -1.5462 -1.2951
  192MPD1    H2 2926   2.310   0.376  12.665 -0.2511 -0.2403  0.1315
  192MPD1    H3 2927   2.437   0.203  12.776  0.7215  2.3063 -0.0471
  192MPD1     N 2928   2.628   0.031  12.409 -0.4813  0.7268  0.2981
  192MPD1    H5 2929   2.678   4.692  12.473 -0.5069  1.0520  0.6346
  192MPD1    N1 2930   2.331   0.427  12.403  0.0842 -0.0704 -0.4669
  192MPD1    H6 2931   2.385   0.452  12.320  0.3848 -1.7246 -0.7592
  192MPD1    H7 2932   2.322   0.515  12.453  2.8290 -0.9024  1.4478
  193MPD1     C 2933   2.560   4.186  16.049  0.2354  0.3458 -0.7726
  193MPD1    C1 2934   2.545   4.320  16.058 -0.0880 -0.2077 -0.4377
  193MPD1    C2 2935   2.635   4.384  16.139  0.3956 -0.5191  0.3234
  193MPD1    C3 2936   2.727   4.310  16.216  0.4361 -0.5752 -0.4068
  193MPD1    C4 2937   2.727   4.172  16.214  0.5188  0.5388  0.0491
  193MPD1    C5 2938   2.642   4.111  16.127  0.4071 -0.0354  0.2494
  193MPD1     H 2939   2.640   4.492  16.135  0.0465 -0.4506  1.5048
  193MPD1    H1 2940   2.801   4.111  16.264  0.2243 -0.1792 -0.3966
  193MPD1    H2 2941   2.486   4.134  15.990 -0.2916 -1.1876  1.2544
  193MPD1    H3 2942   2.646   4.003  16.130  1.1388 -0.0150  0.0219
  193MPD1     N 2943   2.822   4.361  16.294  0.7361  0.6757 -0.5619
  193MPD1    H5 2944   2.894   4.298  16.330 -0.4366  0.8617  2.1571
  193MPD1    N1 2945   2.466   4.382  15.965  0.0092 -0.2558 -0.2956
  193MPD1    H6 2946   2.449   4.477  15.999 -1.6881 -0.4749 -0.5328
  193MPD1    H7 2947   2.379   4.332  15.950 -0.9403  1.4741 -0.6029
  194MPD1     C 2948   0.093   2.192  16.142 -0.1807  0.4644 -0.7560
  194MPD1    C1 2949   0.143   2.062  16.133  0.7070  0.4673 -0.1012
  194MPD1    C2 2950   0.131   1.980  16.246  0.0348  0.6257  0.6842
  194MPD1    C3 2951   0.091   2.023  16.367  0.0101  0.1711  0.3407
  194MPD1    C4 2952   0.065   2.161  16.377  0.5775 -0.1847  1.1223
  194MPD1    C5 2953   0.063   2.237  16.264 -0.4221 -0.5921  0.0791
  194MPD1     H 2954   0.158   1.875  16.237 -1.2625  0.2012  1.6879
  194MPD1    H1 2955   0.045   2.215  16.469  0.0597  1.5507 -0.0142
  194MPD1    H2 2956   0.078   2.264  16.063 -0.0072 -1.5734 -2.6493
  194MPD1    H3 2957   0.040   2.343  16.268 -1.2371 -0.7740  0.3174
  194MPD1     N 2958   0.104   1.930  16.475  0.6428  0.0169 -0.5856
  194MPD1    H5 2959   0.129   1.834  16.452  1.5688  0.0339  0.3582
  194MPD1    N1 2960   0.186   2.007  16.011 -0.1258 -0.0796 -0.4256
  194MPD1    H6 2961   0.243   2.077  15.964  0.1922 -0.8276 -1.1499
  194MPD1    H7 2962   0.255   1.934  16.025  1.2385  1.8765  3.0330
  195MPD1     C 2963   2.273   3.465  17.285  0.6635  0.7979  0.2089
  195MPD1    C1 2964   2.360   3.386  17.362  0.0583  0.0421 -0.3110
  195MPD1    C2 2965   2.308   3.257  17.389 -1.0969 -0.4990 -0.1456
  195MPD1    C3 2966   2.203   3.196  17.318 -1.1279  0.2634 -0.2062
  195MPD1    C4 2967   2.155   3.273  17.209  0.3768  0.4874 -1.0938
  195MPD1    C5 2968   2.170   3.409  17.218 -0.1161 -0.2540 -0.2731
  195MPD1     H 2969   2.376   3.199  17.451  0.2829  1.0693 -0.1822
  195MPD1    H1 2970   2.082   3.239  17.136 -0.7337  0.7258 -0.0854
  195MPD1    H2 2971   2.304   3.565  17.256 -0.4115  1.1505  0.2782
  195MPD1    H3 2972   2.121   3.469  17.142 -1.3866  0.3800  1.0401
  195MPD1     N 2973   2.164   3.061  17.338  0.0937  0.3298  0.0232
  195MPD1    H5 2974   2.092   3.037  17.270  0.1262  0.0865  0.0770
  195MPD1    N1 2975   2.462   3.444  17.431  0.3001  0.0531 -0.1812
  195MPD1    H6 2976   2.504   3.511  17.367  1.4845 -1.0060 -0.5231
  195MPD1    H7 2977   2.533   3.382  17.470  0.5758  0.6099  0.1964
  196MPD1     C 2978   2.022   2.997   0.506  0.2150  0.1116  0.8240
  196MPD1    C1 2979   2.118   3.102   0.499 -0.0442  0.6623 -0.1718
  196MPD1    C2 2980   2.094   3.193   0.604 -0.8485 -0.4253 -0.8229
  196MPD1    C3 2981   2.010   3.180   0.707 -0.5386  0.6084 -0.9615
  196MPD1    C4 2982   1.937   3.065   0.716  0.3328 -0.6785 -0.6603
  196MPD1    C5 2983   1.939   2.977   0.615 -0.0058 -0.0317 -0.4989
  196MPD1     H 2984   2.140   3.290   0.589 -0.6387 -0.2949  0.6660
  196MPD1    H1 2985   1.881   3.032   0.803 -1.6303  0.8211 -1.3627
  196MPD1    H2 2986   2.021   2.922   0.428  0.9727  2.1346 -1.1498
  196MPD1    H3 2987   1.868   2.895   0.611  0.9847 -0.9619  0.7789
  196MPD1     N 2988   2.007   3.275   0.814  0.0480 -0.5913 -0.7183
  196MPD1    H5 2989   1.946   3.252   0.892 -0.5293  1.9127 -0.4242
  196MPD1    N1 2990   2.169   3.143   0.375 -0.1106 -0.6758  0.5712
  196MPD1    H6 2991   2.207   3.070   0.315 -1.2919 -0.2899 -0.6403
  196MPD1    H7 2992   2.237   3.217   0.359 -2.5119  0.7433 -3.2213
  197MPD1     C 2993   1.510   0.995   0.187 -0.0656 -0.4464  0.4286
  197MPD1    C1 2994   1.488   0.865   0.155  0.3615  0.4678 -0.1934
  197MPD1    C2 2995   1.509   0.830   0.021 -0.3379  0.1027  0.5523
  197MPD1    C3 2996   1.556   0.919  17.616  0.6214  0.5372  0.0191
  197MPD1    C4 2997   1.587   1.044  17.661 -0.3148  0.1479 -0.0009
  197MPD1    C5 2998   1.565   1.086   0.095  0.4736  0.0267  0.4245
  197MPD1     H 2999   1.475   0.732  17.679  1.6569 -0.3659 -0.1400
  197MPD1    H1 3000   1.619   1.121  17.591 -1.5723 -0.2110 -0.9698
  197MPD1    H2 3001   1.491   1.038   0.285 -0.7265 -0.3084  0.2410
  197MPD1    H3 3002   1.587   1.190   0.119  1.2894 -0.4137  1.6435
  197MPD1     N 3003   1.545   0.902  17.473 -0.0440  0.3387 -0.2947
  197MPD1    H5 3004   1.574   0.977  17.411  0.6843  2.6879  2.8271
  197MPD1    N1 3005   1.414   0.779   0.238  0.4387  0.0206  0.1712
  197MPD1    H6 3006   1.434   0.685   0.205 -1.6577  0.2557 -1.8626
  197MPD1    H7 3007   1.451   0.790   0.332 -0.6692 -1.2658  0.7615
  198MPD1     C 3008   3.164   2.367  15.327  0.6393 -0.2487  0.0557
  198MPD1    C1 3009   3.260   2.384  15.420  0.2854 -0.1845  0.5774
  198MPD1    C2 3010   3.299   2.510  15.456  0.3060 -0.2752  0.4361
  198MPD1    C3 3011   3.264   2.625  15.381 -0.8091  0.5269 -0.2039
  198MPD1    C4 3012   3.184   2.602  15.276 -0.1716  0.1705 -0.0861
  198MPD1    C5 3013   3.132   2.482  15.255 -0.0174  0.2720 -0.0910
  198MPD1     H 3014   3.365   2.518  15.541 -1.7091 -1.2576  2.0822
  198MPD1    H1 3015   3.166   2.689  15.215 -1.1368 -0.0996 -0.1767
  198MPD1    H2 3016   3.116   2.272  15.308 -3.1848  1.7822 -0.5174
  198MPD1    H3 3017   3.071   2.456  15.168 -2.6404 -1.2928  2.2253
  198MPD1     N 3018   3.319   2.752  15.415 -0.0319  0.1336 -0.3505
  198MPD1    H5 3019   3.372   2.746  15.501 -1.1433  0.1771  0.3354
  198MPD1    N1 3020   3.287   2.273  15.498 -0.1905  0.7219  0.7645
  198MPD1    H6 3021   3.378   2.284  15.542  0.3121 -0.9806  0.1670
  198MPD1    H7 3022   3.273   2.182  15.454  1.7751  0.8667 -0.1441
  199MPD1     C 3023   1.028   1.087  10.627 -0.7447 -0.4333  0.0583
  199MPD1    C1 3024   1.119   1.004  10.569 -0.3931  0.2831  0.5296
  199MPD1    C2 3025   1.082   0.937  10.452 -0.7640  0.0890 -0.6680
  199MPD1    C3 3026   0.979   0.995  10.375  0.1989 -0.0230  0.4250
  199MPD1    C4 3027   0.904   1.098  10.424  0.5284 -0.2170 -0.1910
  199MPD1    C5 3028   0.926   1.136  10.553  0.6336 -0.3298 -0.0455
  199MPD1     H 3029   1.133   0.847  10.419  0.4160  0.0618  1.2301
  199MPD1    H1 3030   0.817   1.137  10.373 -0.0714  0.6570  1.5231
  199MPD1    H2 3031   1.036   1.133  10.725 -1.3609  1.0541 -0.5856
  199MPD1    H3 3032   0.864   1.213  10.598  2.5740  1.0875  0.1867
  199MPD1     N 3033   0.931   0.935  10.257 -0.0796 -0.1194  0.2971
  199MPD1    H5 3034   0.964   0.842  10.234 -2.6308 -1.0482  0.3304
  199MPD1    N1 3035   1.226   0.959  10.649  0.0238  0.5202  0.7126
  199MPD1    H6 3036   1.300   0.917  10.593  0.5667  0.5576  1.3922
  199MPD1    H7 3037   1.270   1.025  10.713  2.0226  0.2401 -0.3734
  200MPD1     C 3038   4.290   4.610  14.799 -0.6763  0.1803  0.3262
  200MPD1    C1 3039   4.293   4.570  14.673  0.3104  0.0296  0.8831
  200MPD1    C2 3040   4.397   4.594  14.587  0.5277  0.0533 -0.1945
  200MPD1    C3 3041   4.516   4.643  14.641  1.2324 -0.4409  0.9103
  200MPD1    C4 3042   4.518   4.686  14.771  0.2560 -0.0431 -0.2235
  200MPD1    C5 3043   4.408   4.655  14.851 -0.0902  0.9260  0.0210
  200MPD1     H 3044   4.387   4.557  14.485  0.0710  0.2164 -0.2104
  200MPD1    H1 3045   4.604   0.002  14.824 -0.0246 -1.4582  1.2721
  200MPD1    H2 3046   4.206   4.596  14.865  0.2507  1.4804  1.7858
  200MPD1    H3 3047   4.412   4.680  14.957  0.1669  0.7981  0.0413
  200MPD1     N 3048   4.630   4.644  14.557 -0.7550 -0.6826  0.3556
  200MPD1    H5 3049   4.614   4.588  14.474  0.5562 -0.8995  0.2471
  200MPD1    N1 3050   4.172   4.523  14.619 -0.0451 -0.6820  0.2130
  200MPD1    H6 3051   4.197   4.451  14.552 -0.3030  0.0498 -0.6699
  200MPD1    H7 3052   4.110   4.490  14.693  0.1588 -0.7563  0.3501
  201MPD1     C 3053   1.245   3.865  12.975  0.0274 -0.0497 -0.1863
  201MPD1    C1 3054   1.346   3.827  12.886  0.2992 -0.4683  0.3845
  201MPD1    C2 3055   1.444   3.749  12.933 -0.2921  0.1264 -0.6776
  201MPD1    C3 3056   1.440   3.699  13.063 -0.7738 -0.2366  0.1168
  201MPD1    C4 3057   1.329   3.723  13.142 -0.3813 -0.1888  0.3782
  201MPD1    C5 3058   1.230   3.804  13.097 -0.4703  0.0158 -0.1261
  201MPD1     H 3059   1.538   3.736  12.881 -0.9702 -1.3296 -1.5354
  201MPD1    H1 3060   1.317   3.690  13.244 -0.2225 -0.2942  0.3639
  201MPD1    H2 3061   1.168   3.935  12.944 -1.4525 -2.3800 -1.8364
  201MPD1    H3 3062   1.144   3.830  13.157 -2.2440 -2.6129 -1.5338
  201MPD1     N 3063   1.551   3.624  13.103 -0.1724  0.5212 -0.0908
  201MPD1    H5 3064   1.630   3.622  13.040 -0.3110 -3.8848 -0.1678
  201MPD1    N1 3065   1.374   3.898  12.772  0.0016  0.3672  0.2841
  201MPD1    H6 3066   1.290   3.931  12.724  1.6670  0.3558 -2.6180
  201MPD1    H7 3067   1.416   3.830  12.708 -1.1983  1.8348 -2.0378
  202MPD1     C 3068   1.900   3.255   9.277  0.2502  0.7409 -0.0132
  202MPD1    C1 3069   1.907   3.386   9.242  0.3917  0.1137 -0.3330
  202MPD1    C2 3070   1.955   3.469   9.343  0.0072  0.3286 -0.0188
  202MPD1    C3 3071   1.972   3.421   9.473 -0.0006  0.2657  0.1327
  202MPD1    C4 3072   1.958   3.292   9.499  0.5209 -0.7561 -0.2096
  202MPD1    C5 3073   1.913   3.206   9.401 -0.0526 -0.0044  0.2026
  202MPD1     H 3074   1.986   3.569   9.318  1.8384  0.1752  1.6935
  202MPD1    H1 3075   1.962   3.253   9.600  1.0053  1.6996  0.7390
  202MPD1    H2 3076   1.866   3.181   9.205  2.7422 -0.7019  0.2882
  202MPD1    H3 3077   1.888   3.104   9.427 -0.6253  0.1785  0.3786
  202MPD1     N 3078   2.028   3.497   9.580 -0.5241 -0.3129  0.5940
  202MPD1    H5 3079   2.047   3.459   9.672 -3.7471  3.0164  2.6415
  202MPD1    N1 3080   1.942   3.420   9.105  0.8385  0.1113  0.5146
  202MPD1    H6 3081   1.889   3.366   9.036 -2.3662 -0.9086  3.7586
  202MPD1    H7 3082   1.930   3.520   9.093  1.6549 -0.0632 -1.7695
  203MPD1     C 3083   0.552   4.485  12.563  0.2373 -0.2449 -0.6116
  203MPD1    C1 3084   0.603   4.437  12.444 -0.3811  0.3174 -0.4000
  203MPD1    C2 3085   0.687   4.328  12.438  0.1774 -0.8174 -0.5430
  203MPD1    C3 3086   0.706   4.250  12.547 -0.1603 -0.3520 -0.2633
  203MPD1    C4 3087   0.653   4.289  12.665 -0.5285  0.0457 -0.5497
  203MPD1    C5 3088   0.583   4.411  12.679  0.2223  1.1232  0.2912
  203MPD1     H 3089   0.741   4.304  12.347  1.6693  1.6776 -0.3320
  203MPD1    H1 3090   0.672   4.229  12.753  0.8659  0.3548 -0.6539
  203MPD1    H2 3091   0.503   4.582  12.563  0.5368 -0.0918 -1.3016
  203MPD1    H3 3092   0.544   4.442  12.775 -0.9598 -0.6704  0.3802
  203MPD1     N 3093   0.770   4.127  12.537 -0.2965 -0.2544 -0.0961
  203MPD1    H5 3094   0.825   4.118  12.452  0.8436 -0.0698  0.6223
  203MPD1    N1 3095   0.593   4.520  12.327 -0.0890  0.5614 -0.5239
  203MPD1    H6 3096   0.503   4.567  12.326 -1.2071 -1.6273 -2.3045
  203MPD1    H7 3097   0.613   4.476  12.238 -0.9175 -2.6717  0.8982
  204MPD1     C 3098   0.264   0.798   0.079  0.2808  0.1799  0.0285
  204MPD1    C1 3099   0.373   0.742   0.029  0.1314 -0.3050  0.2514
  204MPD1    C2 3100   0.374   0.608  17.682 -0.1110  0.2691 -1.0848
  204MPD1    C3 3101   0.259   0.539  17.690  0.3592 -0.5429  0.4427
  204MPD1    C4 3102   0.151   0.588   0.063 -0.2177 -0.2249 -0.1931
  204MPD1    C5 3103   0.151   0.716   0.105  0.1941  0.0948  1.5097
  204MPD1     H 3104   0.467   0.568  17.643 -0.5607  0.6382 -2.5274
  204MPD1    H1 3105   0.054   0.542   0.074 -0.1491 -0.3736 -0.2199
  204MPD1    H2 3106   0.266   0.899   0.119 -0.3990  0.2199 -0.0331
  204MPD1    H3 3107   0.059   0.756   0.145 -0.4956  1.3016 -1.2949
  204MPD1     N 3108   0.263   0.407  17.631 -0.4147  0.1467 -0.1109
  204MPD1    H5 3109   0.345   0.375  17.580 -2.0215  0.4729 -2.8850
  204MPD1    N1 3110   0.494   0.817   0.030  0.1938  0.0630 -0.1671
  204MPD1    H6 3111   0.558   0.795  17.646 -1.0509  1.4195 -1.5850
  204MPD1    H7 3112   0.548   0.775   0.106 -0.7781  1.6450  1.3836
  205MPD1     C 3113   4.091   3.857  17.131 -0.0757 -0.0966  0.1131
  205MPD1    C1 3114   4.116   3.744  17.209  0.0635  0.1002  0.0248
  205MPD1    C2 3115   4.232   3.721  17.276 -0.1296 -0.7398  0.4759
  205MPD1    C3 3116   4.327   3.819  17.270 -0.6644  0.1243  0.3639
  205MPD1    C4 3117   4.290   3.936  17.216 -0.5274 -0.2424  0.1065
  205MPD1    C5 3118   4.179   3.961  17.141  0.4983 -0.6884 -0.2760
  205MPD1     H 3119   4.247   3.624  17.324  0.2513 -1.9398 -2.0940
  205MPD1    H1 3120   4.366   4.012  17.205 -0.4689 -0.4495 -0.9880
  205MPD1    H2 3121   3.998   3.861  17.075  0.6104  1.9995 -0.9044
  205MPD1    H3 3122   4.171   4.055  17.088  1.5870 -1.4658 -1.8232
  205MPD1     N 3123   4.452   3.810  17.329  0.0419 -0.9009  0.1284
  205MPD1    H5 3124   4.514   3.890  17.324 -0.1512 -0.6824  1.2511
  205MPD1    N1 3125   4.000   3.661  17.224  0.0658 -0.4649 -1.0705
  205MPD1    H6 3126   3.928   3.668  17.153  1.0608 -0.3442 -2.0741
  205MPD1    H7 3127   4.009   3.562  17.246 -0.8985 -0.3370 -0.1038
  206MPD1     C 3128   0.348   2.284  16.771  0.3399 -0.0507  0.3655
  206MPD1    C1 3129   0.422   2.183  16.709  0.4688 -0.3594  0.2995
  206MPD1    C2 3130   0.452   2.193  16.570 -0.3964  0.2676 -1.0600
  206MPD1    C3 3131   0.373   2.288  16.501 -0.0287 -0.0438 -0.0521
  206MPD1    C4 3132   0.297   2.382  16.566 -0.5482 -0.2713 -0.9485
  206MPD1    C5 3133   0.292   2.384  16.700  0.4744 -0.5668 -1.1453
  206MPD1     H 3134   0.521   2.123  16.525 -0.5805  0.3824 -1.5222
  206MPD1    H1 3135   0.257   2.466  16.511  0.6991  0.7931 -0.2352
  206MPD1    H2 3136   0.331   2.289  16.878 -0.3905  0.0990  0.2426
  206MPD1    H3 3137   0.231   2.462  16.745  3.2074  0.9542 -0.0142
  206MPD1     N 3138   0.367   2.300  16.360  0.0540  0.8650 -0.5906
  206MPD1    H5 3139   0.305   2.367  16.315 -1.5798 -0.4095 -0.2560
  206MPD1    N1 3140   0.475   2.086  16.789 -0.5733 -0.3345 -0.2176
  206MPD1    H6 3141   0.509   2.001  16.745  0.3570 -0.0566 -0.0501
  206MPD1    H7 3142   0.419   2.051  16.866  0.2953  0.6940  0.8809
  207MPD1     C 3143   2.609   4.547   9.348 -0.2364 -0.4715 -0.0750
  207MPD1    C1 3144   2.699   4.463   9.407  0.5347 -0.2822  0.2207
  207MPD1    C2 3145   2.757   4.509   9.523 -0.4477  0.7077  0.5119
  207MPD1    C3 3146   2.714   4.623   9.583 -0.2668 -0.2220 -0.9895
  207MPD1    C4 3147   2.615   4.702   9.520 -0.1513 -0.5007  0.6774
  207MPD1    C5 3148   2.565   4.660   9.404  0.2297 -0.3618  0.2464
  207MPD1     H 3149   2.828   4.449   9.579 -0.3377  1.5053  1.2400
  207MPD1    H1 3150   2.579   0.071   9.566  1.0359  0.2495  0.1012
  207MPD1    H2 3151   2.564   4.531   9.250  1.6288 -2.5687 -0.6058
  207MPD1    H3 3152   2.494   0.000   9.352  1.1606  1.4948  1.2151
  207MPD1     N 3153   2.784   4.686   9.694  0.0321 -0.4904  0.2402
  207MPD1    H5 3154   2.773   0.062   9.717  0.7963  0.2578 -2.6016
  207MPD1    N1 3155   2.752   4.355   9.339  0.2590 -0.3552 -0.6572
  207MPD1    H6 3156   2.762   4.276   9.403 -2.2385  0.0124  0.1815
  207MPD1    H7 3157   2.708   4.331   9.251  0.7252  2.1366 -1.5558
  208MPD1     C 3158   0.968   4.208  17.474 -0.2706 -0.4817  0.6976
  208MPD1    C1 3159   0.847   4.187  17.538 -0.4146  0.4983 -0.3650
  208MPD1    C2 3160   0.847   4.083  17.629 -0.3933 -0.2190 -1.1010
  208MPD1    C3 3161   0.955   3.999  17.656 -0.0496 -0.2823  0.4822
  208MPD1    C4 3162   1.074   4.024  17.591  0.7058  0.3969 -0.2706
  208MPD1    C5 3163   1.080   4.124  17.498  0.2222  0.0102  0.2670
  208MPD1     H 3164   0.748   4.056  17.664 -0.1566 -2.2592 -2.0136
  208MPD1    H1 3165   1.153   3.950  17.585 -0.8740 -1.1633 -1.3114
  208MPD1    H2 3166   0.977   4.283  17.396  0.9444 -2.7186 -1.2937
  208MPD1    H3 3167   1.168   4.134  17.436  0.2647 -0.5895  0.2323
  208MPD1     N 3168   0.944   3.903   0.069  0.0425  0.0311  1.2544
  208MPD1    H5 3169   0.849   3.883   0.100 -0.1840  0.7407  1.0169
  208MPD1    N1 3170   0.731   4.239  17.486  1.4886 -0.3284 -0.8421
  208MPD1    H6 3171   0.655   4.254  17.552  2.0345 -2.5946  0.3034
  208MPD1    H7 3172   0.749   4.329  17.441  1.0943  0.1499 -0.0392
  209MPD1     C 3173   3.442   4.013  11.340 -0.5684  0.0343  0.4195
  209MPD1    C1 3174   3.418   4.145  11.372 -0.8131  0.3689  0.6404
  209MPD1    C2 3175   3.455   4.248  11.278 -0.2148  0.2088  0.3305
  209MPD1    C3 3176   3.510   4.219  11.154 -0.3526 -0.6951  0.5081
  209MPD1    C4 3177   3.530   4.083  11.130  0.0187 -0.3962  0.3014
  209MPD1    C5 3178   3.502   3.985  11.222  0.6455 -0.0833  0.9552
  209MPD1     H 3179   3.441   4.352  11.305  2.3964  0.4888  0.6569
  209MPD1    H1 3180   3.571   4.045  11.037  0.0067  2.6635 -0.9420
  209MPD1    H2 3181   3.411   3.934  11.407  0.5224  0.7854  1.8168
  209MPD1    H3 3182   3.521   3.883  11.190  1.6082  1.2372 -2.6197
  209MPD1     N 3183   3.543   4.324  11.063  0.7515  0.1128 -0.3326
  209MPD1    H5 3184   3.536   4.421  11.091  1.2998  0.2913 -0.8269
  209MPD1    N1 3185   3.374   4.171  11.501  0.5027 -0.3798  0.3387
  209MPD1    H6 3186   3.332   4.100  11.561  1.6103 -2.0003 -0.8019
  209MPD1    H7 3187   3.335   4.261  11.529  1.0683 -0.9603  2.9773
  210MPD1     C 3188   3.849   0.307  11.308 -0.4156 -0.4845  0.2438
  210MPD1    C1 3189   3.887   0.317  11.177  1.0877  0.1972  0.5072
  210MPD1    C2 3190   3.830   0.222  11.093  0.3903  0.7066 -0.3403
  210MPD1    C3 3191   3.733   0.130  11.134 -0.1937  0.5166  0.8079
  210MPD1    C4 3192   3.696   0.127  11.266 -0.2635 -0.0581  0.5968
  210MPD1    C5 3193   3.767   0.211  11.350 -0.4263  0.6184 -0.1137
  210MPD1     H 3194   3.865   0.224  10.991 -1.5529  1.6032 -0.9752
  210MPD1    H1 3195   3.611   0.079  11.314  0.0059 -1.9784 -0.8169
  210MPD1    H2 3196   3.884   0.379  11.381 -2.5712  1.2316 -0.3893
  210MPD1    H3 3197   3.734   0.209  11.453 -1.9890  1.3872 -0.6021
  210MPD1     N 3198   3.662   0.047  11.046 -0.1647 -0.3434  0.6611
  210MPD1    H5 3199   3.589   4.710  11.083 -0.3161 -1.1883 -0.9957
  210MPD1    N1 3200   3.980   0.409  11.136  0.0766  0.4759  0.1558
  210MPD1    H6 3201   3.975   0.430  11.037 -0.5513 -0.4125  0.0018
  210MPD1    H7 3202   3.961   0.493  11.191  1.2833 -0.1050  1.4701
  211MPD1     C 3203   0.905   3.799  17.000  0.0578 -0.1114  0.1456
  211MPD1    C1 3204   0.820   3.702  16.944  0.0048  0.2285  0.2588
  211MPD1    C2 3205   0.737   3.739  16.840  0.0266  0.1336  0.1076
  211MPD1    C3 3206   0.715   3.867  16.803 -0.4346 -0.2839  0.1586
  211MPD1    C4 3207   0.797   3.962  16.857 -0.4629  0.8618  0.1205
  211MPD1    C5 3208   0.888   3.930  16.955 -0.3539 -0.2268  0.6226
  211MPD1     H 3209   0.667   3.665  16.802  2.3823 -2.0837  0.1129
  211MPD1    H1 3210   0.806   4.066  16.828 -1.3041  1.5576  2.4278
  211MPD1    H2 3211   0.956   3.787  17.095 -2.2106 -0.9999  1.2504
  211MPD1    H3 3212   0.952   4.005  16.999  2.2777 -0.6455 -2.4677
  211MPD1     N 3213   0.620   3.907  16.710 -0.5628 -0.0954 -0.1490
  211MPD1    H5 3214   0.592   3.831  16.648  1.5270  0.1550 -1.3956
  211MPD1    N1 3215   0.809   3.572  16.999 -0.6358  0.4665 -0.1353
  211MPD1    H6 3216   0.892   3.535  17.045 -0.9556 -0.4898 -0.3157
  211MPD1    H7 3217   0.788   3.504  16.925  0.4606  0.5093 -0.4965
  212MPD1     C 3218   4.547   2.442  15.926 -0.0452  0.0537  0.9653
  212MPD1    C1 3219   4.531   2.524  16.038 -0.5329  0.4871  0.5676
  212MPD1    C2 3220   4.514   2.470  16.164 -0.3709 -0.2925  0.0098
  212MPD1    C3 3221   4.487   2.332  16.175  0.4338  0.1470  0.0654
  212MPD1    C4 3222   4.503   2.253  16.060  0.4804 -0.1475  0.1668
  212MPD1    C5 3223   4.539   2.311  15.939  0.2522  0.2820 -0.2533
  212MPD1     H 3224   4.520   2.533  16.252 -1.8524  0.4572 -0.4193
  212MPD1    H1 3225   4.494   2.146  16.067 -0.2029 -0.0158  1.3282
  212MPD1    H2 3226   4.586   2.480  15.832 -1.2034 -0.5572  0.2427
  212MPD1    H3 3227   4.561   2.251  15.852 -0.5562 -1.2453  0.5932
  212MPD1     N 3228   4.458   2.272  16.300 -0.6308  0.1784 -0.3338
  212MPD1    H5 3229   4.442   2.172  16.299 -0.3007  0.1376 -2.9118
  212MPD1    N1 3230   4.579   2.658  16.017 -0.2601  0.1699 -0.2187
  212MPD1    H6 3231   4.565   2.694  15.922 -0.6785 -1.5213 -0.7971
  212MPD1    H7 3232   4.547   2.716  16.094  2.0315 -0.7967  1.4364
  213MPD1     C 3233   2.702   2.508  15.521 -0.2572  0.0926  0.0766
  213MPD1    C1 3234   2.574   2.458  15.480 -0.3461 -0.1840 -0.9816
  213MPD1    C2 3235   2.499   2.549  15.411 -0.6013  0.4846 -0.2108
  213MPD1    C3 3236   2.550   2.659  15.354 -0.0726  0.6194  0.2512
  213MPD1    C4 3237   2.684   2.682  15.372  0.2080 -0.3280 -0.1616
  213MPD1    C5 3238   2.760   2.618  15.465 -0.5013 -0.2544 -0.2437
  213MPD1     H 3239   2.391   2.540  15.402 -0.6175 -0.5428  0.9866
  213MPD1    H1 3240   2.728   2.774  15.335  0.1100 -0.0709  0.3463
  213MPD1    H2 3241   2.771   2.460  15.590 -0.8873 -0.6500  0.1976
  213MPD1    H3 3242   2.860   2.655  15.485 -0.6781 -1.0604  2.1038
  213MPD1     N 3243   2.460   2.732  15.267  0.4528 -0.7894 -0.3984
  213MPD1    H5 3244   2.362   2.706  15.267  0.7126 -1.7555 -0.2717
  213MPD1    N1 3245   2.512   2.350  15.547  0.1920  0.1336  0.6759
  213MPD1    H6 3246   2.432   2.318  15.492  2.5940 -1.1162 -2.1268
  213MPD1    H7 3247   2.571   2.270  15.570  1.6583  0.7740 -0.7652
  214MPD1     C 3248   2.094   2.257  14.819 -0.5508  0.0648  0.0407
  214MPD1    C1 3249   2.069   2.366  14.736 -0.0797 -0.5293  0.7340
  214MPD1    C2 3250   2.066   2.492  14.784  0.2972 -0.9468  0.3765
  214MPD1    C3 3251   2.074   2.519  14.917 -0.3240 -0.0956  0.1359
  214MPD1    C4 3252   2.086   2.409  14.999  0.0978  0.7923  0.2612
  214MPD1    C5 3253   2.100   2.282  14.947  0.3415  0.1473 -0.4225
  214MPD1     H 3254   2.051   2.575  14.716 -1.0757 -0.2729  1.4958
  214MPD1    H1 3255   2.101   2.422  15.106  0.6826 -0.3880  0.3302
  214MPD1    H2 3256   2.088   2.156  14.781 -0.2909  0.3638 -0.8190
  214MPD1    H3 3257   2.115   2.196  15.012  2.8507  0.7795 -0.1744
  214MPD1     N 3258   2.084   2.645  14.980  0.1447  0.2404  0.5992
  214MPD1    H5 3259   2.095   2.637  15.081  1.5646 -0.5407  0.3830
  214MPD1    N1 3260   2.066   2.343  14.595 -0.6167  0.0523 -0.3878
  214MPD1    H6 3261   2.009   2.406  14.540  1.6221  1.5738 -0.9917
  214MPD1    H7 3262   2.033   2.249  14.575 -2.2304  0.2560  1.3217
  215MPD1     C 3263   3.210   3.510  10.471 -0.5237 -0.0260  0.3001
  215MPD1    C1 3264   3.270   3.549  10.585 -0.2725  0.0489  0.0512
  215MPD1    C2 3265   3.280   3.682  10.613 -0.4863  0.4069 -0.3851
  215MPD1    C3 3266   3.235   3.778  10.524 -0.6862  0.3572 -0.6707
  215MPD1    C4 3267   3.186   3.731  10.399 -0.1530 -0.2587  0.1243
  215MPD1    C5 3268   3.174   3.597  10.378 -0.1015 -0.0771 -0.0434
  215MPD1     H 3269   3.321   3.719  10.707  1.5422 -1.5764 -0.5000
  215MPD1    H1 3270   3.167   3.802  10.319  2.9218 -1.9770 -2.0842
  215MPD1    H2 3271   3.218   3.407  10.440 -1.1554  0.8932 -2.8768
  215MPD1    H3 3272   3.147   3.545  10.287 -0.6059 -0.7005  0.4597
  215MPD1     N 3273   3.241   3.915  10.561 -0.2137  0.0291 -0.3038
  215MPD1    H5 3274   3.273   3.941  10.654 -2.0456 -2.5019  1.0486
  215MPD1    N1 3275   3.313   3.453  10.679  0.0639 -0.6216  0.0178
  215MPD1    H6 3276   3.393   3.484  10.734 -1.0238  1.3091  0.5149
  215MPD1    H7 3277   3.338   3.368  10.629 -1.2915 -0.5199 -0.8299
  216MPD1     C 3278   4.488   1.208  16.782 -1.5442 -0.1886  0.1779
  216MPD1    C1 3279   4.468   1.192  16.913  0.3990  0.5778  0.6595
  216MPD1    C2 3280   4.548   1.106  16.982 -0.0208 -0.0040 -0.0920
  216MPD1    C3 3281   4.651   1.039  16.927 -0.3993  0.8574  0.3641
  216MPD1    C4 3282   4.671   1.055  16.789  0.0276  0.2940  0.0224
  216MPD1    C5 3283   4.592   1.140  16.721 -0.0163  0.3065 -0.5879
  216MPD1     H 3284   4.540   1.094  17.090  2.4794  1.7406  0.2898
  216MPD1    H1 3285   0.019   0.989  16.741  2.0994  2.5005  0.0315
  216MPD1    H2 3286   4.427   1.275  16.723 -0.6841  2.4290  2.2556
  216MPD1    H3 3287   4.605   1.166  16.617 -0.1099  0.9059 -0.4522
  216MPD1     N 3288   0.006   0.953  17.010  0.2412 -0.7140  0.1310
  216MPD1    H5 3289   4.694   0.932  17.103  0.3022  0.7276  0.4966
  216MPD1    N1 3290   4.349   1.244  16.968 -0.3062  0.6808 -0.3118
  216MPD1    H6 3291   4.355   1.271  17.066 -2.8865  2.2164 -0.5611
  216MPD1    H7 3292   4.309   1.320  16.912  0.4103  2.3307  1.3966
  217MPD1     C 3293   0.773   3.624   8.023  0.6415 -0.0337  0.3404
  217MPD1    C1 3294   0.701   3.718   8.091 -0.0786  0.9609  0.6504
  217MPD1    C2 3295   0.727   3.712   8.229 -0.0190 -0.5051  0.1772
  217MPD1    C3 3296   0.815   3.622   8.293  0.4887  1.0596  0.0353
  217MPD1    C4 3297   0.880   3.529   8.218 -1.2309  0.0928  0.2571
  217MPD1    C5 3298   0.857   3.534   8.087  0.5529 -0.7000 -0.6131
  217MPD1     H 3299   0.688   3.795   8.286  1.1729  0.4229 -0.3653
  217MPD1    H1 3300   0.946   3.453   8.259  3.5206  2.2069 -3.5321
  217MPD1    H2 3301   0.777   3.618   7.915  0.9776 -3.3203  0.5575
  217MPD1    H3 3302   0.907   3.468   8.017  1.8057  0.1910 -0.5600
  217MPD1     N 3303   0.837   3.625   8.432 -0.3888 -0.4899  0.5521
  217MPD1    H5 3304   0.904   3.559   8.469  1.2221  0.7269 -0.1859
  217MPD1    N1 3305   0.644   3.830   8.025 -0.2662  0.4260 -0.4680
  217MPD1    H6 3306   0.599   3.815   7.935 -2.9267  2.2620  0.5716
  217MPD1    H7 3307   0.582   3.883   8.086 -2.1704 -1.1839 -0.9774
  218MPD1     C 3308   1.738   3.825  12.298  0.1086  0.0485 -0.2969
  218MPD1    C1 3309   1.806   3.947  12.295 -0.3620 -0.3783 -0.1904
  218MPD1    C2 3310   1.942   3.944  12.286 -0.1702  0.4340 -0.4585
  218MPD1    C3 3311   2.015   3.826  12.307 -0.0253 -0.6399 -0.3248
  218MPD1    C4 3312   1.942   3.709  12.332 -0.0110 -0.5226 -0.5053
  218MPD1    C5 3313   1.806   3.711  12.323 -0.4820 -0.2032 -0.6453
  218MPD1     H 3314   1.999   4.033  12.261 -1.1101  0.5730 -2.1220
  218MPD1    H1 3315   1.987   3.616  12.365 -1.4111 -0.1141  2.5379
  218MPD1    H2 3316   1.630   3.821  12.292  0.2362  0.3969 -2.7225
  218MPD1    H3 3317   1.760   3.617  12.352  0.7417  0.0280  2.0470
  218MPD1     N 3318   2.160   3.832  12.306 -0.0393  0.0244 -0.1806
  218MPD1    H5 3319   2.215   3.916  12.295  2.3814 -1.5540 -0.2363
  218MPD1    N1 3320   1.737   4.063  12.286  0.4229  0.1259  0.2413
  218MPD1    H6 3321   1.777   4.142  12.336 -0.2668  1.8830 -1.9906
  218MPD1    H7 3322   1.644   4.054  12.326  0.1351  0.1125 -0.4217
  219MPD1     C 3323   2.893   4.350  11.933  0.1225  0.2627 -0.4433
  219MPD1    C1 3324   2.756   4.366  11.959 -0.9786 -0.5773 -0.2334
  219MPD1    C2 3325   2.686   4.264  12.021  0.5063  1.1272  0.0370
  219MPD1    C3 3326   2.759   4.160  12.078  0.4087 -0.9391 -0.7504
  219MPD1    C4 3327   2.898   4.151  12.069 -0.3024 -0.5138 -0.4305
  219MPD1    C5 3328   2.964   4.246  11.990  0.1221 -0.0521 -0.2304
  219MPD1     H 3329   2.578   4.272  12.027  0.6210  1.8899  0.9915
  219MPD1    H1 3330   2.947   4.066  12.116  2.5373  0.7506 -1.1252
  219MPD1    H2 3331   2.945   4.416  11.864  1.0766 -1.9371 -1.8097
  219MPD1    H3 3332   3.070   4.230  11.975  0.6689  1.2442  2.3090
  219MPD1     N 3333   2.710   4.055  12.154 -0.2379  0.4319 -0.2988
  219MPD1    H5 3334   2.771   3.975  12.167 -0.8360  0.1389  0.7564
  219MPD1    N1 3335   2.691   4.465  11.890 -1.0389 -0.3499  0.5424
  219MPD1    H6 3336   2.739   4.555  11.886  0.9832 -1.3893  1.5452
  219MPD1    H7 3337   2.595   4.480  11.923 -1.1951  0.3887 -0.2237
  220MPD1     C 3338   1.874   0.450   9.870 -0.3512  0.3163  0.2255
  220MPD1    C1 3339   1.989   0.451   9.951  0.3564 -0.5540  0.8554
  220MPD1    C2 3340   2.068   0.335   9.952 -0.2310 -0.3394  0.2278
  220MPD1    C3 3341   2.025   0.220   9.886 -0.2085 -0.3977  0.2654
  220MPD1    C4 3342   1.903   0.219   9.815 -0.0155 -0.6144 -0.7116
  220MPD1    C5 3343   1.828   0.338   9.807 -0.6630 -0.5766  0.1565
  220MPD1     H 3344   2.158   0.327  10.012 -0.6792 -0.2439  0.9211
  220MPD1    H1 3345   1.854   0.135   9.767 -0.9318 -1.0279  0.9029
  220MPD1    H2 3346   1.819   0.539   9.841  1.2355  1.6654  1.3060
  220MPD1    H3 3347   1.734   0.340   9.753  0.6503 -4.3487 -2.2144
  220MPD1     N 3348   2.120   0.114   9.887  0.1843  0.2278  0.0595
  220MPD1    H5 3349   2.206   0.127   9.939  1.0145  0.1515 -1.2957
  220MPD1    N1 3350   2.037   0.575  10.005 -0.4006 -0.0878  0.3977
  220MPD1    H6 3351   2.094   0.556  10.088  3.3098  1.1316 -1.8904
  220MPD1    H7 3352   1.964   0.635  10.044 -2.8328 -2.4764 -0.5225
  221MPD1     C 3353   4.590   3.685  15.818 -0.2267  0.6416 -0.1152
  221MPD1    C1 3354   4.649   3.743  15.924  0.2212 -0.4537  0.4181
  221MPD1    C2 3355   0.018   3.673  15.997  0.0666  0.0632 -0.3956
  221MPD1    C3 3356   0.063   3.551  15.952  0.4745  0.3104  0.1422
  221MPD1    C4 3357   0.003   3.497  15.839 -0.3813 -0.0795 -0.1756
  221MPD1    C5 3358   4.632   3.563  15.766  0.3793 -0.0918 -0.3388
  221MPD1     H 3359   0.070   3.722  16.079  0.4694 -0.8303 -0.1158
  221MPD1    H1 3360   0.022   3.392  15.818 -0.8125 -0.1181 -0.3731
  221MPD1    H2 3361   4.516   3.736  15.757  1.0015  0.3050 -1.8799
  221MPD1    H3 3362   4.587   3.530  15.673  0.4190 -0.6324 -0.1661
  221MPD1     N 3363   0.166   3.478  16.022 -0.1306 -0.2422 -0.0860
  221MPD1    H5 3364   0.194   3.393  15.973 -0.4108 -1.1061  1.2536
  221MPD1    N1 3365   4.606   3.866  15.967  0.1719 -0.1063  0.1524
  221MPD1    H6 3366   4.680   3.929  15.996 -2.7247  1.8395  3.2980
  221MPD1    H7 3367   4.563   3.924  15.896 -0.9263 -0.3441  0.6167
  222MPD1     C 3368   0.592   2.618  16.352  0.7856  0.5220  0.0319
  222MPD1    C1 3369   0.560   2.609  16.487 -0.1869 -0.3581 -0.1668
  222MPD1    C2 3370   0.446   2.684  16.524 -0.1896  0.3259  0.2134
  222MPD1    C3 3371   0.354   2.734  16.439 -0.7224 -0.1042 -0.3183
  222MPD1    C4 3372   0.385   2.727  16.303 -0.2476 -0.3350  0.0260
  222MPD1    C5 3373   0.511   2.678  16.261 -0.5227 -0.2080  0.4988
  222MPD1     H 3374   0.429   2.696  16.630  3.1432  0.6455  0.7035
  222MPD1    H1 3375   0.317   2.747  16.221 -0.1489  0.2392  0.0843
  222MPD1    H2 3376   0.686   2.579  16.314  0.8690 -0.5690  1.3450
  222MPD1    H3 3377   0.535   2.673  16.156 -1.5899  0.6913  0.2085
  222MPD1     N 3378   0.229   2.791  16.469 -0.0166 -0.4119  0.0571
  222MPD1    H5 3379   0.166   2.801  16.390  1.0924  1.7022 -0.5826
  222MPD1    N1 3380   0.654   2.570  16.583  0.5240  0.1259  0.0773
  222MPD1    H6 3381   0.709   2.494  16.544 -0.0825  0.4439 -1.4051
  222MPD1    H7 3382   0.609   2.549  16.672  1.3397 -2.9413 -0.2510
  223MPD1     C 3383   4.003   2.675  16.259  0.8011 -0.5275  0.1238
  223MPD1    C1 3384   3.986   2.779  16.346  0.1792 -0.0501 -0.0935
  223MPD1    C2 3385   4.100   2.824  16.414  0.1008 -0.2022 -0.6683
  223MPD1    C3 3386   4.231   2.775  16.380 -0.0190  0.2330 -0.1211
  223MPD1    C4 3387   4.249   2.684  16.281 -0.3568  0.3606  0.1384
  223MPD1    C5 3388   4.130   2.636  16.225  0.3540 -0.0492  0.6676
  223MPD1     H 3389   4.093   2.899  16.492  0.7286  0.6043 -1.3880
  223MPD1    H1 3390   4.344   2.634  16.270 -0.6392  0.2241 -1.6863
  223MPD1    H2 3391   3.914   2.624  16.224 -0.2936 -0.5185  2.8282
  223MPD1    H3 3392   4.146   2.557  16.153 -0.0843  0.4432  0.0258
  223MPD1     N 3393   4.345   2.840  16.442  0.4498  0.0836 -0.1706
  223MPD1    H5 3394   4.323   2.903  16.518 -0.1038 -0.2773 -0.0343
  223MPD1    N1 3395   3.861   2.819  16.390 -0.8488 -0.9191 -0.3189
  223MPD1    H6 3396   3.782   2.780  16.339 -1.4643 -1.1828  0.8185
  223MPD1    H7 3397   3.846   2.918  16.403 -0.0815 -0.5214 -2.5342
  224MPD1     C 3398   0.382   4.093   9.972  0.4452 -0.0370  0.0958
  224MPD1    C1 3399   0.424   4.029   9.863 -0.0191 -0.7708 -0.0887
  224MPD1    C2 3400   0.555   4.059   9.819 -0.1589  0.4430 -0.3272
  224MPD1    C3 3401   0.630   4.156   9.881  0.0687 -0.2396 -0.6104
  224MPD1    C4 3402   0.576   4.222   9.987  0.3231 -0.2865 -0.9289
  224MPD1    C5 3403   0.454   4.189  10.036 -0.4134  0.3849  0.2076
  224MPD1     H 3404   0.599   4.013   9.732 -1.9162 -1.1669 -0.3485
  224MPD1    H1 3405   0.629   4.303  10.036  2.2154 -1.6330 -0.7590
  224MPD1    H2 3406   0.288   4.061  10.016  1.2592 -1.8153  0.5690
  224MPD1    H3 3407   0.416   4.250  10.117 -1.2446 -2.2717  1.8274
  224MPD1     N 3408   0.759   4.191   9.831 -0.0859  0.0793 -0.5613
  224MPD1    H5 3409   0.803   4.268   9.881  1.8456 -2.1127  1.0600
  224MPD1    N1 3410   0.354   3.929   9.790 -0.1780 -0.3117  0.3646
  224MPD1    H6 3411   0.253   3.938   9.792 -0.3244 -1.6775 -0.6589
  224MPD1    H7 3412   0.368   3.835   9.828 -2.1655 -0.6982  0.1052
  225MPD1     C 3413   2.281   0.010  12.976  0.2401  0.5904 -0.7530
  225MPD1    C1 3414   2.177   0.093  12.956 -0.8184 -0.1619  0.2125
  225MPD1    C2 3415   2.134   0.115  12.827  0.5092  0.0302  0.0648
  225MPD1    C3 3416   2.186   0.043  12.720 -0.1093  0.1170 -0.3561
  225MPD1    C4 3417   2.291   4.678  12.744 -0.2838  0.1327 -0.0538
  225MPD1    C5 3418   2.339   4.666  12.873  0.2790  0.2625 -0.0041
  225MPD1     H 3419   2.060   0.193  12.814  2.2986  1.3642 -1.9785
  225MPD1    H1 3420   2.358   4.638  12.669  0.1365  2.5599 -0.9700
  225MPD1    H2 3421   2.314   4.721  13.079 -2.1539  0.0355 -0.0453
  225MPD1    H3 3422   2.426   4.601  12.881 -0.8470 -1.3482 -0.8562
  225MPD1     N 3423   2.147   0.074  12.589 -0.0075 -0.0817 -0.0401
  225MPD1    H5 3424   2.076   0.146  12.585 -0.1466 -0.2947 -1.5184
  225MPD1    N1 3425   2.127   0.175  13.064 -0.4241 -0.3216 -0.0529
  225MPD1    H6 3426   2.038   0.221  13.049 -0.1958  0.0127 -0.3693
  225MPD1    H7 3427   2.119   0.126  13.152 -0.4833 -1.5711 -0.7468
  226MPD1     C 3428   2.124   1.544   9.748 -0.3140  0.1134 -0.1511
  226MPD1    C1 3429   1.998   1.570   9.804 -0.3276  0.2933  0.3241
  226MPD1    C2 3430   1.910   1.467   9.822  0.1770 -0.1111  0.9501
  226MPD1    C3 3431   1.945   1.337   9.790 -0.1654 -0.5433 -0.2054
  226MPD1    C4 3432   2.070   1.310   9.750 -0.6355  0.0641 -0.3744
  226MPD1    C5 3433   2.158   1.411   9.731  0.3258  0.2228  0.4672
  226MPD1     H 3434   1.811   1.483   9.864 -0.2377  0.5501 -0.2846
  226MPD1    H1 3435   2.097   1.209   9.721  0.1191  0.7632 -2.1431
  226MPD1    H2 3436   2.198   1.621   9.731  1.1031 -1.7300 -2.2529
  226MPD1    H3 3437   2.256   1.385   9.692 -0.2529 -1.6442  0.2876
  226MPD1     N 3438   1.846   1.238   9.803 -0.0769  0.2523  0.4342
  226MPD1    H5 3439   1.753   1.269   9.829 -1.0281 -2.0519 -0.1731
  226MPD1    N1 3440   1.962   1.697   9.855 -0.5619  0.2178  0.2774
  226MPD1    H6 3441   1.861   1.712   9.853 -0.9765 -1.8680  4.7009
  226MPD1    H7 3442   2.006   1.762   9.790  1.5517 -3.8416 -2.3623
  227MPD1     C 3443   0.891   1.209   9.861  0.0277 -0.5711  0.2856
  227MPD1    C1 3444   0.917   1.126   9.752  0.3354 -0.1025  0.5251
  227MPD1    C2 3445   1.052   1.098   9.719  0.0150  0.6075 -0.1190
  227MPD1    C3 3446   1.149   1.141   9.799  0.4821 -0.1035 -0.7515
  227MPD1    C4 3447   1.120   1.205   9.917  0.5306 -0.8477  0.1874
  227MPD1    C5 3448   0.992   1.243   9.941  0.2566  0.3034  0.1764
  227MPD1     H 3449   1.071   1.047   9.625 -0.0526  1.1785 -0.4438
  227MPD1    H1 3450   1.193   1.234   9.991 -1.0188  1.5080  0.8163
  227MPD1    H2 3451   0.788   1.238   9.877  0.8575  2.4613  0.1881
  227MPD1    H3 3452   0.972   1.289  10.037  2.1603  1.2303  0.1315
  227MPD1     N 3453   1.279   1.118   9.755  0.3061 -0.6755  0.0202
  227MPD1    H5 3454   1.278   1.082   9.661 -1.6656  0.9219 -0.5717
  227MPD1    N1 3455   0.816   1.095   9.661 -0.8074  0.2667  0.6774
  227MPD1    H6 3456   0.847   1.017   9.604  0.3970  1.0408  0.2788
  227MPD1    H7 3457   0.736   1.059   9.713 -2.0458  0.3390 -1.2044
  228MPD1     C 3458   3.869   2.490  12.715 -0.3026 -0.1615  0.1079
  228MPD1    C1 3459   3.768   2.511  12.626  0.1090  0.4459 -0.2809
  228MPD1    C2 3460   3.641   2.505  12.671 -0.4689 -0.3723 -0.3621
  228MPD1    C3 3461   3.611   2.452  12.796  0.0915  0.3390 -0.0323
  228MPD1    C4 3462   3.716   2.431  12.883  0.6590  0.6550  0.4644
  228MPD1    C5 3463   3.841   2.445  12.838  0.4184  0.1788  0.7107
  228MPD1     H 3464   3.559   2.535  12.607  1.2063  0.2590 -2.1908
  228MPD1    H1 3465   3.697   2.402  12.985  0.5824  2.3512  0.9330
  228MPD1    H2 3466   3.972   2.510  12.686 -0.3801 -1.2283 -0.9128
  228MPD1    H3 3467   3.922   2.426  12.907  1.6126 -0.8023 -0.9539
  228MPD1     N 3468   3.478   2.438  12.840  0.5866  0.1869 -0.5057
  228MPD1    H5 3469   3.410   2.450  12.765 -0.9757 -1.5131  0.6513
  228MPD1    N1 3470   3.799   2.565  12.501  0.5154  0.0922 -0.5857
  228MPD1    H6 3471   3.886   2.515  12.479  0.3274 -0.1282 -0.8250
  228MPD1    H7 3472   3.740   2.541  12.422  0.7584 -0.7697 -0.5124
  229MPD1     C 3473   4.095   1.573  14.339 -0.3297  0.7742 -1.2143
  229MPD1    C1 3474   4.181   1.483  14.282 -0.6407  0.3996 -0.1192
  229MPD1    C2 3475   4.151   1.347  14.293 -0.1772 -0.2493  0.4476
  229MPD1    C3 3476   4.050   1.300  14.379  0.4511 -0.5473 -0.9760
  229MPD1    C4 3477   3.979   1.400  14.451  0.2568 -0.2664 -0.2913
  229MPD1    C5 3478   3.999   1.531  14.425 -0.7077 -0.2611  0.7516
  229MPD1     H 3479   4.213   1.278  14.237 -0.5157 -0.6623  0.5818
  229MPD1    H1 3480   3.905   1.371  14.524  0.5312  1.5506  0.7136
  229MPD1    H2 3481   4.116   1.678  14.329 -2.4769  1.4404  1.0883
  229MPD1    H3 3482   3.930   1.597  14.477  0.4196  1.1881  0.3895
  229MPD1     N 3483   4.018   1.165  14.404  0.7614  0.0821 -0.0122
  229MPD1    H5 3484   3.936   1.146  14.460  0.4621  1.5091  0.0228
  229MPD1    N1 3485   4.273   1.532  14.186 -0.0001 -0.1464 -0.2021
  229MPD1    H6 3486   4.343   1.464  14.158 -0.5166 -0.7589  0.0011
  229MPD1    H7 3487   4.309   1.628  14.186 -2.2001  0.6864 -1.7647
  230MPD1     C 3488   3.298   0.555  14.685 -0.2100 -0.0990  0.5045
  230MPD1    C1 3489   3.400   0.455  14.668  0.5863  0.7863  0.0257
  230MPD1    C2 3490   3.521   0.492  14.609 -0.7500 -0.1562 -0.4440
  230MPD1    C3 3491   3.535   0.623  14.571  0.6300 -0.0073  0.1373
  230MPD1    C4 3492   3.434   0.717  14.573  0.1749 -0.2615  0.3389
  230MPD1    C5 3493   3.315   0.675  14.616 -0.0337  0.1207  0.0205
  230MPD1     H 3494   3.609   0.430  14.622 -1.7251 -1.4719 -0.0949
  230MPD1    H1 3495   3.446   0.815  14.528 -0.4463  0.0543  0.8567
  230MPD1    H2 3496   3.204   0.542  14.738 -0.6739 -0.8296 -0.4866
  230MPD1    H3 3497   3.228   0.739  14.627  1.0109  1.6165 -0.3429
  230MPD1     N 3498   3.665   0.660  14.522  0.4205  0.2964  0.3529
  230MPD1    H5 3499   3.732   0.584  14.515  1.1230  0.8542  1.1356
  230MPD1    N1 3500   3.382   0.337  14.737 -0.0096  0.1872  0.0489
  230MPD1    H6 3501   3.435   0.261  14.694 -0.4807 -0.2551  0.2602
  230MPD1    H7 3502   3.286   0.305  14.729  0.4256 -1.0613 -0.0858
  231MPD1     C 3503   1.411   3.151  15.786 -0.3365  0.2941  0.4552
  231MPD1    C1 3504   1.370   3.089  15.667 -0.0631 -0.1855  0.2598
  231MPD1    C2 3505   1.452   3.102  15.563 -0.1477 -0.0892 -0.1356
  231MPD1    C3 3506   1.571   3.174  15.561  0.8642 -0.0972 -0.2409
  231MPD1    C4 3507   1.606   3.238  15.683  0.6300 -0.0619  0.3486
  231MPD1    C5 3508   1.523   3.229  15.790  0.0913 -0.2300 -0.0979
  231MPD1     H 3509   1.418   3.056  15.471 -0.4695  0.1613 -0.1396
  231MPD1    H1 3510   1.684   3.313  15.688  0.3187  0.2507  0.5223
  231MPD1    H2 3511   1.359   3.146  15.881 -1.1084 -2.4758 -0.1072
  231MPD1    H3 3512   1.535   3.287  15.881  0.7903 -2.1510  1.0302
  231MPD1     N 3513   1.648   3.182  15.445 -0.7966  0.4052  0.3343
  231MPD1    H5 3514   1.604   3.132  15.368 -0.3996  2.8525 -1.4914
  231MPD1    N1 3515   1.239   3.038  15.656 -0.0666 -0.0154  0.1922
  231MPD1    H6 3516   1.201   3.015  15.747 -1.8272  1.3915 -0.1891
  231MPD1    H7 3517   1.229   2.952  15.602  1.4555  0.3433 -0.6591
  232MPD1     C 3518   3.983   1.434   0.269 -0.1980  1.2479 -0.6051
  232MPD1    C1 3519   3.909   1.531   0.212  0.3718 -0.0313  0.1932
  232MPD1    C2 3520   3.809   1.482   0.128  1.5532 -0.4016 -0.4683
  232MPD1    C3 3521   3.786   1.345   0.104  0.1465  0.4401  0.1551
  232MPD1    C4 3522   3.872   1.253   0.162 -0.1780 -0.2190 -0.7540
  232MPD1    C5 3523   3.974   1.303   0.239  0.0753 -0.5650  0.7658
  232MPD1     H 3524   3.740   1.554   0.085  1.3006 -1.5046 -1.9140
  232MPD1    H1 3525   3.862   1.146   0.149  0.1839 -0.5020  1.3093
  232MPD1    H2 3526   4.062   1.461   0.338 -0.4008  0.2631  0.0197
  232MPD1    H3 3527   4.048   1.240   0.287  1.4851 -2.0972 -3.3914
  232MPD1     N 3528   3.675   1.306   0.028  0.4340 -0.0813 -0.1852
  232MPD1    H5 3529   3.615   1.385   0.008  0.0890 -0.7011 -1.5905
  232MPD1    N1 3530   3.913   1.671   0.240 -0.5361  0.5064 -0.1866
  232MPD1    H6 3531   4.002   1.709   0.271  0.5557 -1.9205 -0.3587
  232MPD1    H7 3532   3.883   1.728   0.161  2.5037 -0.0525 -1.7467
  233MPD1     C 3533   0.117   0.335   1.684 -0.1357 -0.3644 -0.0804
  233MPD1    C1 3534   0.242   0.321   1.629  0.4826  0.2960  0.5038
  233MPD1    C2 3535   0.305   0.199   1.636 -0.0795 -0.5076  0.1543
  233MPD1    C3 3536   0.248   0.094   1.701  0.0764  0.5007  0.3637
  233MPD1    C4 3537   0.129   0.117   1.763 -0.8842 -0.1305  0.1222
  233MPD1    C5 3538   0.060   0.234   1.748  0.3125  0.6571  1.0636
  233MPD1     H 3539   0.405   0.197   1.594 -0.2606  0.0409 -0.2958
  233MPD1    H1 3540   0.074   0.050   1.828 -0.2807  0.6388  1.4292
  233MPD1    H2 3541   0.061   0.428   1.681 -3.5884 -2.3864  0.4409
  233MPD1    H3 3542   4.692   0.251   1.805 -0.1470  0.8559  0.2730
  233MPD1     N 3543   0.313   4.696   1.717 -0.3303  0.7047  0.2647
  233MPD1    H5 3544   0.254   4.620   1.751 -1.6857  1.0435 -1.2947
  233MPD1    N1 3545   0.308   0.443   1.595 -0.5635 -0.2922  0.0685
  233MPD1    H6 3546   0.248   0.513   1.552 -0.5122 -1.1239 -1.3398
  233MPD1    H7 3547   0.398   0.437   1.549 -0.4483 -0.9066  0.3699
  234MPD1     C 3548   1.559   2.463   9.470  0.3912 -0.0140  0.7161
  234MPD1    C1 3549   1.494   2.522   9.355 -0.2125 -1.2725 -0.6727
  234MPD1    C2 3550   1.489   2.662   9.343  0.6445 -0.1706  0.5038
  234MPD1    C3 3551   1.538   2.745   9.444 -0.0814 -0.0755  0.1049
  234MPD1    C4 3552   1.600   2.690   9.554  0.4128  0.0749 -0.8053
  234MPD1    C5 3553   1.595   2.551   9.576 -0.0413  0.2881  0.1484
  234MPD1     H 3554   1.455   2.705   9.249  0.1144 -1.5378  0.0751
  234MPD1    H1 3555   1.630   2.759   9.632 -0.4114  0.1064 -0.5245
  234MPD1    H2 3556   1.591   2.359   9.463  1.5857  0.4015  0.0182
  234MPD1    H3 3557   1.638   2.506   9.664 -1.6785 -1.5018  0.0379
  234MPD1     N 3558   1.530   2.885   9.426 -0.3248  0.5268 -0.3681
  234MPD1    H5 3559   1.487   2.920   9.341 -0.1985  1.2070 -0.1464
  234MPD1    N1 3560   1.466   2.447   9.241 -0.0870  0.1681 -0.1014
  234MPD1    H6 3561   1.392   2.489   9.184  0.6325  2.0981  0.3930
  234MPD1    H7 3562   1.446   2.348   9.258  0.4842 -0.2134 -1.5778
  235MPD1     C 3563   4.101   0.870  10.273 -0.2188 -1.0412 -0.4066
  235MPD1    C1 3564   3.969   0.832  10.266  0.7871  0.2734 -0.0199
  235MPD1    C2 3565   3.910   0.849  10.139  0.1879  0.0334 -0.1440
  235MPD1    C3 3566   3.971   0.918  10.039 -0.3752 -0.1938 -0.1889
  235MPD1    C4 3567   4.100   0.959  10.054  0.1361  0.3429 -0.4106
  235MPD1    C5 3568   4.172   0.914  10.161 -0.2894  0.2398  0.1456
  235MPD1     H 3569   3.808   0.812  10.129 -0.1938  1.5398 -1.8667
  235MPD1    H1 3570   4.159   1.010   9.979  0.3409  0.0207 -0.4684
  235MPD1    H2 3571   4.162   0.842  10.359 -1.0301  0.7833  0.7717
  235MPD1    H3 3572   4.273   0.950  10.173 -0.6210  1.3055 -0.2405
  235MPD1     N 3573   3.887   0.953   9.933 -0.3911  0.3672  0.4738
  235MPD1    H5 3574   3.788   0.934   9.941 -0.3604  0.4894  1.0844
  235MPD1    N1 3575   3.904   0.754  10.362 -0.1166 -0.4360  0.4065
  235MPD1    H6 3576   3.804   0.777  10.364  0.3556  1.6880  0.3184
  235MPD1    H7 3577   3.936   0.753  10.459 -1.9165  2.3965  1.0593
  236MPD1     C 3578   2.999   1.891  10.260  0.1747  0.0735  0.7467
  236MPD1    C1 3579   2.894   1.801  10.245 -1.1957 -0.5125  0.0105
  236MPD1    C2 3580   2.928   1.667  10.264  0.0399  0.6044  0.1050
  236MPD1    C3 3581   3.054   1.621  10.310 -0.1150 -0.2169  0.6548
  236MPD1    C4 3582   3.155   1.720  10.319  0.1093  0.3729 -0.3640
  236MPD1    C5 3583   3.123   1.847  10.309  0.0544 -0.5293 -0.2468
  236MPD1     H 3584   2.851   1.592  10.247  0.9703 -0.3702  0.1966
  236MPD1    H1 3585   3.251   1.687  10.357  0.0990  1.0120  0.2195
  236MPD1    H2 3586   2.986   1.992  10.224 -1.1428 -0.4437 -0.2514
  236MPD1    H3 3587   3.195   1.925  10.333 -0.3152 -0.4743  0.6946
  236MPD1     N 3588   3.088   1.484  10.340 -0.4542 -0.1724 -0.5159
  236MPD1    H5 3589   3.178   1.475  10.385 -0.8696  1.3970  0.6323
  236MPD1    N1 3590   2.777   1.835  10.183 -0.2609 -0.6830  0.6918
  236MPD1    H6 3591   2.767   1.935  10.202  2.2954  0.3345 -3.1160
  236MPD1    H7 3592   2.698   1.791  10.229 -0.4858  0.8354  1.7691
  237MPD1     C 3593   3.045   4.298  14.469  0.7176  0.0371  0.0560
  237MPD1    C1 3594   3.041   4.312  14.607  0.5450  0.3948 -0.5621
  237MPD1    C2 3595   2.918   4.314  14.667  0.1560 -0.9839 -0.6143
  237MPD1    C3 3596   2.795   4.299  14.602 -0.1171  0.1429 -0.8903
  237MPD1    C4 3597   2.807   4.289  14.460 -0.2550  0.1140  0.0309
  237MPD1    C5 3598   2.929   4.284  14.401  0.3910 -0.4126  0.0214
  237MPD1     H 3599   2.912   4.326  14.774  0.4860  0.6277 -0.7690
  237MPD1    H1 3600   2.720   4.258  14.405  0.6442 -0.6294 -0.9799
  237MPD1    H2 3601   3.136   4.296  14.410  0.7280  0.1929  0.0666
  237MPD1    H3 3602   2.932   4.261  14.295  1.6033 -1.8014  0.3474
  237MPD1     N 3603   2.663   4.303  14.660 -0.0536  0.5645  0.6745
  237MPD1    H5 3604   2.592   4.264  14.599 -0.1424 -0.4903  1.4488
  237MPD1    N1 3605   3.156   4.334  14.677 -0.0278  0.3854  1.0891
  237MPD1    H6 3606   3.158   4.316  14.778  2.4301 -0.7388  0.8136
  237MPD1    H7 3607   3.244   4.301  14.639 -0.0059  0.4227  1.1072
  238MPD1     C 3608   3.813   2.777  15.379 -0.2486 -0.5509 -0.4649
  238MPD1    C1 3609   3.800   2.897  15.312 -0.2381  0.2672  0.1114
  238MPD1    C2 3610   3.717   2.900  15.199 -0.3157 -0.3912 -0.3850
  238MPD1    C3 3611   3.626   2.797  15.173 -0.7781  0.0890 -0.2582
  238MPD1    C4 3612   3.628   2.676  15.245 -0.7639  0.2095 -0.1403
  238MPD1    C5 3613   3.721   2.679  15.350 -0.8021 -0.6035 -0.0131
  238MPD1     H 3614   3.716   2.995  15.146  2.7639  1.0060  2.0729
  238MPD1    H1 3615   3.561   2.594  15.222  0.8975 -0.7063 -1.6159
  238MPD1    H2 3616   3.897   2.767  15.446  0.3852  1.4917 -0.9553
  238MPD1    H3 3617   3.730   2.590  15.410  0.0776 -0.0367  0.6992
  238MPD1     N 3618   3.529   2.802  15.065  0.0041 -0.0997  0.3102
  238MPD1    H5 3619   3.475   2.717  15.054 -0.3813  0.2989 -0.8560
  238MPD1    N1 3620   3.894   2.996  15.343  0.7124  0.6456 -0.2654
  238MPD1    H6 3621   3.857   3.083  15.305 -0.3463  0.1619 -0.3591
  238MPD1    H7 3622   3.904   3.002  15.444  2.5824 -0.6816 -0.3833
  239MPD1     C 3623   3.951   3.483  14.757  0.1434 -0.3459  0.2152
  239MPD1    C1 3624   4.066   3.519  14.694  0.3188 -0.5653 -0.2880
  239MPD1    C2 3625   4.057   3.613  14.588  0.6927 -0.5749 -0.0497
  239MPD1    C3 3626   3.935   3.675  14.566 -0.4520 -0.2966 -0.1618
  239MPD1    C4 3627   3.822   3.631  14.635 -0.1565  0.0264  0.0306
  239MPD1    C5 3628   3.830   3.535  14.728 -0.6914 -0.0350 -0.1383
  239MPD1     H 3629   4.139   3.642  14.523  0.1266 -0.1847 -0.5937
  239MPD1    H1 3630   3.719   3.665  14.629  0.3769  1.7839  0.8126
  239MPD1    H2 3631   3.955   3.411  14.839  1.3380  0.2847  0.7224
  239MPD1    H3 3632   3.746   3.493  14.783  0.1553 -2.3052 -0.5625
  239MPD1     N 3633   3.917   3.767  14.460  0.9860  0.1895 -0.6352
  239MPD1    H5 3634   3.822   3.768  14.425  0.0262  0.1263  1.9714
  239MPD1    N1 3635   4.184   3.447  14.714  0.6308  0.8035  0.1192
  239MPD1    H6 3636   4.195   3.402  14.805  0.7281  1.5418  0.4760
  239MPD1    H7 3637   4.269   3.500  14.693  1.5217  0.3586  2.5727
  240MPD1     C 3638   3.530   3.297  13.667  0.0170 -0.1672 -0.3644
  240MPD1    C1 3639   3.394   3.295  13.654  0.6756 -0.4132 -0.3671
  240MPD1    C2 3640   3.318   3.285  13.766 -0.0609 -0.5117  0.7987
  240MPD1    C3 3641   3.378   3.290  13.895 -0.3321  0.2896  0.5852
  240MPD1    C4 3642   3.518   3.295  13.910 -0.5852 -1.1111 -0.4117
  240MPD1    C5 3643   3.588   3.305  13.793  0.2754 -0.3353 -0.0160
  240MPD1     H 3644   3.211   3.293  13.753  0.0504 -0.3331 -0.0119
  240MPD1    H1 3645   3.572   3.306  14.003 -1.2950 -0.3805 -0.0788
  240MPD1    H2 3646   3.586   3.312  13.575  0.3003  0.7043 -0.0553
  240MPD1    H3 3647   3.696   3.317  13.793  0.0435  1.8551 -2.9390
  240MPD1     N 3648   3.292   3.266  14.008 -0.2815 -0.3244  0.2968
  240MPD1    H5 3649   3.195   3.243  13.994  0.4653 -2.7227 -0.9792
  240MPD1    N1 3650   3.331   3.324  13.537  0.3089  0.0538  0.1899
  240MPD1    H6 3651   3.234   3.297  13.526  0.2663  0.0966  0.4648
  240MPD1    H7 3652   3.373   3.277  13.457 -0.4377 -1.9335  0.9659
  241MPD1     C 3653   3.357   3.716  14.877 -0.5816  0.1618  0.2486
  241MPD1    C1 3654   3.283   3.602  14.913 -0.3318 -0.3105  0.7083
  241MPD1    C2 3655   3.242   3.510  14.813 -0.2480  0.5116 -0.3126
  241MPD1    C3 3656   3.275   3.529  14.681  0.2033 -0.5573 -0.1594
  241MPD1    C4 3657   3.358   3.636  14.647  0.1141 -0.1084 -1.8618
  241MPD1    C5 3658   3.388   3.730  14.744 -0.1804 -0.0938  0.1352
  241MPD1     H 3659   3.176   3.431  14.846  0.7289  0.2049  0.9223
  241MPD1    H1 3660   3.388   3.660  14.546  0.6926 -1.1608 -1.9429
  241MPD1    H2 3661   3.377   3.795  14.949 -0.9308 -1.3946  2.0434
  241MPD1    H3 3662   3.437   3.821  14.711  0.5969 -0.1711  1.1048
  241MPD1     N 3663   3.254   3.430  14.584 -0.2303  0.3241 -0.3627
  241MPD1    H5 3664   3.266   3.461  14.488 -0.7851  3.4556  0.5937
  241MPD1    N1 3665   3.230   3.590  15.046  0.2811  0.2320 -0.2655
  241MPD1    H6 3666   3.284   3.641  15.116 -1.9998  0.6261  1.2150
  241MPD1    H7 3667   3.202   3.494  15.068 -2.9827  1.3691  0.5205
  242MPD1     C 3668   2.677   1.906  15.494  0.4233 -0.6430  0.3250
  242MPD1    C1 3669   2.742   1.799  15.554 -0.2781  0.8872 -0.3240
  242MPD1    C2 3670   2.772   1.687  15.475 -1.1508  0.3385  0.0704
  242MPD1    C3 3671   2.735   1.682  15.345 -0.1664 -0.3008 -0.4014
  242MPD1    C4 3672   2.688   1.797  15.276  0.0815 -0.8362 -0.3477
  242MPD1    C5 3673   2.659   1.904  15.358  0.7256  0.9431  0.0256
  242MPD1     H 3674   2.817   1.598  15.517 -2.2768 -1.6740 -3.0208
  242MPD1    H1 3675   2.685   1.813  15.169 -1.8062  2.1531  0.1430
  242MPD1    H2 3676   2.643   1.993  15.549  1.1562 -0.3083  0.2622
  242MPD1    H3 3677   2.617   1.991  15.308 -0.0649 -1.0648 -2.7942
  242MPD1     N 3678   2.775   1.577  15.258 -0.4780  0.0813 -0.0574
  242MPD1    H5 3679   2.763   1.588  15.158 -1.4074  0.7071  0.1187
  242MPD1    N1 3680   2.776   1.795  15.693 -0.2457  0.2916  0.4711
  242MPD1    H6 3681   2.858   1.737  15.710  0.2261  1.4389  2.1081
  242MPD1    H7 3682   2.789   1.887  15.734  2.6157 -0.2389  0.7685
  243MPD1     C 3683   3.739   0.473  17.590  0.2375 -0.1331  0.2761
  243MPD1    C1 3684   3.825   0.562  17.527 -0.6250  0.2488 -0.2561
  243MPD1    C2 3685   3.960   0.526  17.528  0.1990 -0.3217  0.2435
  243MPD1    C3 3686   3.993   0.404  17.588  0.3282 -0.2895 -0.0104
  243MPD1    C4 3687   3.909   0.337  17.671  0.0988  0.5287 -0.8059
  243MPD1    C5 3688   3.777   0.364  17.664  0.1348 -0.1095 -0.3101
  243MPD1     H 3689   4.029   0.581  17.465 -1.5979  2.3346  0.6437
  243MPD1    H1 3690   3.932   0.243   0.027 -0.0221  0.8434 -0.1215
  243MPD1    H2 3691   3.632   0.476  17.580  0.3671 -0.2655 -1.1098
  243MPD1    H3 3692   3.700   0.303   0.018 -0.2328  0.0796 -0.6730
  243MPD1     N 3693   4.116   0.346  17.547  0.1803 -0.3329  0.1427
  243MPD1    H5 3694   4.166   0.396  17.474 -1.4825  1.4270  0.1849
  243MPD1    N1 3695   3.775   0.671  17.447 -0.1003 -0.7582 -0.1300
  243MPD1    H6 3696   3.843   0.746  17.435  2.0254 -2.5100  0.9512
  243MPD1    H7 3697   3.690   0.700  17.495  1.4692 -0.2880  2.3825
  244MPD1     C 3698   4.566   4.281   0.326  0.2685 -0.1855  0.5171
  244MPD1    C1 3699   4.625   4.400   0.366 -0.0401  0.3285  0.5227
  244MPD1    C2 3700   4.603   4.505   0.275 -1.0671  0.4813  0.1787
  244MPD1    C3 3701   4.547   4.493   0.155  0.0298 -0.6079  0.4571
  244MPD1    C4 3702   4.518   4.368   0.105 -0.0243 -0.2045 -0.0378
  244MPD1    C5 3703   4.527   4.265   0.192 -0.2921  0.0102 -0.0650
  244MPD1     H 3704   4.620   4.605   0.314 -1.3338  0.4420  0.3995
  244MPD1    H1 3705   4.477   4.338   0.009  0.6721  0.6408 -0.6062
  244MPD1    H2 3706   4.566   4.191   0.387 -1.9041  0.2262  1.1281
  244MPD1    H3 3707   4.486   4.174   0.151  0.6621  0.4335 -1.9210
  244MPD1     N 3708   4.524   4.613   0.080  0.5370  1.5160 -0.6461
  244MPD1    H5 3709   4.540   4.700   0.131 -1.7754  2.1140 -0.9444
  244MPD1    N1 3710   4.650   4.415   0.503  0.5618 -0.0129  0.6485
  244MPD1    H6 3711   0.003   4.483   0.506 -0.1702  0.8493 -0.0520
  244MPD1    H7 3712   4.688   4.337   0.555  2.0835  0.2210 -0.1135
  245MPD1     C 3713   1.341   1.136  13.246  0.3378 -0.2586  0.2632
  245MPD1    C1 3714   1.433   1.118  13.352 -0.5482 -0.5157 -0.4559
  245MPD1    C2 3715   1.550   1.193  13.353 -0.0790 -0.4303  0.3863
  245MPD1    C3 3716   1.575   1.288  13.260 -0.2261  0.8907  0.9172
  245MPD1    C4 3717   1.481   1.315  13.162  0.3028 -0.4599 -0.3107
  245MPD1    C5 3718   1.370   1.237  13.156 -0.4867  0.9550 -0.1623
  245MPD1     H 3719   1.635   1.152  13.407 -1.4331 -0.7734  2.2456
  245MPD1    H1 3720   1.500   1.381  13.079 -2.0726  1.3495  0.6059
  245MPD1    H2 3721   1.251   1.075  13.238  1.2520 -1.4688 -0.8678
  245MPD1    H3 3722   1.304   1.262  13.073  0.0374 -3.4044 -1.8509
  245MPD1     N 3723   1.698   1.356  13.272 -0.1649  0.3695 -0.1507
  245MPD1    H5 3724   1.739   1.352  13.365  2.1903  0.7825 -1.1626
  245MPD1    N1 3725   1.423   1.015  13.441  0.3656 -0.2690  0.5697
  245MPD1    H6 3726   1.329   0.983  13.462 -0.0826 -0.5101 -1.8351
  245MPD1    H7 3727   1.475   1.028  13.528  3.0464  2.4702 -1.4893
  246MPD1     C 3728   1.658   2.613   8.643  0.3510 -0.4176 -0.1002
  246MPD1    C1 3729   1.637   2.636   8.780 -0.1455  0.5436  0.0678
  246MPD1    C2 3730   1.550   2.560   8.846 -0.1640  0.3909 -0.3933
  246MPD1    C3 3731   1.483   2.451   8.780 -0.0412 -0.4460  0.2142
  246MPD1    C4 3732   1.511   2.423   8.646  0.1007 -0.1258  0.7598
  246MPD1    C5 3733   1.610   2.495   8.589 -0.3384  0.5126  0.5180
  246MPD1     H 3734   1.525   2.578   8.950  0.3384  0.8411 -0.3530
  246MPD1    H1 3735   1.464   2.336   8.600  1.0582  0.6867 -1.7461
  246MPD1    H2 3736   1.737   2.658   8.585 -0.8748  3.7709  1.4495
  246MPD1    H3 3737   1.616   2.468   8.484  0.3054  4.4239 -0.4785
  246MPD1     N 3738   1.385   2.391   8.862  0.0894 -0.4037 -0.0482
  246MPD1    H5 3739   1.374   2.418   8.959  1.3428  0.8158 -0.2378
  246MPD1    N1 3740   1.681   2.759   8.825 -0.7671  0.2855 -0.8274
  246MPD1    H6 3741   1.768   2.787   8.780 -1.2357 -0.7618 -2.3968
  246MPD1    H7 3742   1.697   2.772   8.924 -0.8000  2.8192 -1.1525
  247MPD1     C 3743   1.078   0.709  16.730 -0.3022 -0.4206 -0.2082
  247MPD1    C1 3744   1.068   0.626  16.616  0.1454 -0.4832  0.4523
  247MPD1    C2 3745   1.071   0.689  16.497  0.0257  0.3741  0.3402
  247MPD1    C3 3746   1.095   0.827  16.491 -0.0736 -0.2620  0.0352
  247MPD1    C4 3747   1.103   0.906  16.606  0.1161 -0.1956  0.4677
  247MPD1    C5 3748   1.092   0.841  16.727 -0.7161 -0.6793  0.7337
  247MPD1     H 3749   1.056   0.633  16.405  3.0389 -1.4321  0.9409
  247MPD1    H1 3750   1.114   1.014  16.607 -5.1031  0.3510  0.8824
  247MPD1    H2 3751   1.068   0.675  16.832 -2.0977  1.8310  0.3709
  247MPD1    H3 3752   1.084   0.892  16.823 -1.9490  1.1293 -0.3277
  247MPD1     N 3753   1.105   0.887  16.368 -0.0236 -0.1225  0.2812
  247MPD1    H5 3754   1.118   0.988  16.367  0.3258 -0.1676  0.2147
  247MPD1    N1 3755   1.032   0.494  16.628  0.4183  0.0275 -0.1180
  247MPD1    H6 3756   1.071   0.438  16.553  1.7653  1.4531 -0.4834
  247MPD1    H7 3757   1.062   0.454  16.717 -0.5201 -0.2265  0.0842
  248MPD1     C 3758   2.003   1.663  17.381 -0.0776  0.1590  0.5728
  248MPD1    C1 3759   1.923   1.631  17.491 -0.0372 -0.5827 -0.4246
  248MPD1    C2 3760   1.903   1.493  17.519 -0.1109 -0.5040  0.4167
  248MPD1    C3 3761   1.981   1.401  17.450 -0.0866 -0.4290 -0.3702
  248MPD1    C4 3762   2.077   1.442  17.360  0.9817  0.4918  0.5527
  248MPD1    C5 3763   2.087   1.572  17.329  1.0733  0.5492 -0.1233
  248MPD1     H 3764   1.830   1.460  17.593 -2.2262 -1.3236 -2.0458
  248MPD1    H1 3765   2.142   1.377  17.303  0.6323 -0.8114  1.6436
  248MPD1    H2 3766   2.016   1.766  17.349  0.4298 -0.4323 -1.1793
  248MPD1    H3 3767   2.163   1.589  17.254 -0.1323  1.6018 -1.0853
  248MPD1     N 3768   1.965   1.272  17.484  0.3556 -0.3934  0.6487
  248MPD1    H5 3769   1.906   1.244  17.561  0.3574  1.9478  1.5030
  248MPD1    N1 3770   1.848   1.729  17.553  0.1725 -0.3741  0.1117
  248MPD1    H6 3771   1.829   1.699  17.648  1.7801  0.4298  0.6975
  248MPD1    H7 3772   1.901   1.817  17.551 -1.6396  0.7202  0.8428
  249MPD1     C 3773   4.171   3.885  10.742 -0.4628 -0.2025  0.2778
  249MPD1    C1 3774   4.130   3.772  10.680  0.1136 -0.9106 -0.3909
  249MPD1    C2 3775   4.046   3.786  10.571 -0.2958  0.0093  0.0237
  249MPD1    C3 3776   3.997   3.907  10.529 -0.2284 -0.7310 -0.2252
  249MPD1    C4 3777   4.027   4.020  10.600 -0.1140 -0.2772 -0.2332
  249MPD1    C5 3778   4.107   4.006  10.711 -0.5154  0.8312 -0.2111
  249MPD1     H 3779   4.034   3.692  10.519  0.9227  0.7415 -1.5899
  249MPD1    H1 3780   3.987   4.120  10.585 -2.3420 -0.8960  1.4910
  249MPD1    H2 3781   4.248   3.884  10.819  0.2019 -0.9878 -0.3872
  249MPD1    H3 3782   4.120   4.099  10.765 -0.1527  0.5527  0.1732
  249MPD1     N 3783   3.928   3.911  10.409  0.5994 -0.0211  0.0122
  249MPD1    H5 3784   3.921   3.824  10.358  0.0066  0.7147 -1.1508
  249MPD1    N1 3785   4.195   3.650  10.691  0.0643  0.4072  0.8201
  249MPD1    H6 3786   4.131   3.576  10.662  0.8337  0.1533 -0.1870
  249MPD1    H7 3787   4.228   3.636  10.786  2.3891  2.2692  0.2759
  250MPD2     C 3788   0.572   4.362  13.011 -0.1184  0.0377  0.3533
  250MPD2    C1 3789   0.469   4.448  13.035  0.6992  0.1779  0.3646
  250MPD2    C2 3790   0.338   4.399  13.016  0.0513  0.4368  0.0550
  250MPD2    C3 3791   0.314   4.270  12.977 -0.7355  0.6006 -0.4491
  250MPD2    C4 3792   0.417   4.188  12.952 -0.0638  0.4035 -0.0837
  250MPD2    C5 3793   0.544   4.230  12.968  0.9635  0.3614  0.1920
  250MPD2     H 3794   0.262   4.474  13.034  0.5895  0.8076  0.7894
  250MPD2    H1 3795   0.400   4.082  12.934 -1.0213  0.5786 -0.2282
  250MPD2    H2 3796   0.675   4.394  13.023  1.2421 -2.9473 -3.4154
  250MPD2    H3 3797   0.626   4.161  12.955  1.0765  0.1485  2.0434
  250MPD2     N 3798   0.182   4.213  12.974 -0.6810  0.2930  0.1330
  250MPD2    H5 3799   0.172   4.113  12.962 -1.0460  0.3942 -0.4496
  250MPD2    N1 3800   0.498   4.580  13.070  0.4712  0.2285  0.4667
  250MPD2    H7 3801   0.593   4.615  13.056  0.1170 -0.1294 -2.8382
  251TMC3    C1 3802   0.455   0.082  13.141  0.0240  0.0746  0.0958
  251TMC3    C2 3803   0.388   0.161  13.233 -0.2338  0.7260  0.1139
  251TMC3    C3 3804   0.455   0.274  13.271 -0.1127 -0.1667  0.1546
  251TMC3    C4 3805   0.577   0.119  13.087 -0.2477  0.6619 -0.1117
  251TMC3    C5 3806   0.638   0.238  13.126  0.2491 -0.7654  0.2306
  251TMC3    C6 3807   0.576   0.320  13.227 -0.4542 -0.5958  0.4394
  251TMC3     C 3808   0.408   4.669  13.128  0.1102 -0.1723  0.8443
  251TMC3     O 3809   0.300   4.645  13.174  0.2113 -0.1827 -0.2198
  251TMC3     H 3810   0.284   0.150  13.259 -0.5738  2.7713 -0.3429
  251TMC3    H1 3811   0.628   0.047  13.024  1.6944  0.2670  1.9152
  251TMC3    H2 3812   0.637   0.397  13.273  0.0594 -0.8973  0.2617
  251TMC3    C7 3813   0.783   0.237  13.114 -0.4440 -0.3598  0.1181
  251TMC3    C8 3814   0.363   0.383  13.316 -0.1564  0.8358 -0.4974
  251TMC3    O1 3815   0.835   0.130  13.084  0.3956 -0.3123  0.1726
  251TMC3    O2 3816   0.270   0.350  13.388  0.3675 -0.2386 -0.2670
  252TMC3    C1 3817   0.497   1.426   9.171 -0.2817 -0.6227 -0.3560
  252TMC3    C2 3818   0.615   1.495   9.194 -0.2259 -0.4017 -0.3136
  252TMC3    C3 3819   0.709   1.425   9.266  0.1301  0.0116  0.5050
  252TMC3    C4 3820   0.471   1.302   9.225 -0.5514 -0.6056 -0.5432
  252TMC3    C5 3821   0.564   1.234   9.299  0.4207 -0.1193 -0.0739
  252TMC3    C6 3822   0.682   1.301   9.325 -0.1952 -0.0428  0.2385
  252TMC3     C 3823   0.399   1.483   9.073  0.0002 -0.4864  0.7609
  252TMC3     O 3824   0.398   1.606   9.070 -0.0829  0.5096  0.2245
  252TMC3     H 3825   0.636   1.590   9.147  0.1514 -0.3833 -0.1108
  252TMC3    H1 3826   0.373   1.258   9.207 -1.6736  0.7707  2.1557
  252TMC3    H2 3827   0.759   1.249   9.381 -0.2226 -0.0704  0.2509
  252TMC3    C7 3828   0.544   1.104   9.362 -0.1064 -0.0238  0.0432
  252TMC3    C8 3829   0.832   1.488   9.300 -0.2042 -0.6093 -0.9254
  252TMC3    O1 3830   0.641   1.034   9.397 -0.5637 -0.4874  0.6034
  252TMC3    O2 3831   0.868   1.577   9.224  0.4118  0.5817 -0.8003
  253MPD2     C 3832   1.647   4.303  15.337 -0.0948 -0.1975  0.4147
  253MPD2    C1 3833   1.510   4.292  15.341 -0.2778 -0.4851  0.0054
  253MPD2    C2 3834   1.455   4.304  15.469  0.2484  0.6487 -0.3018
  253MPD2    C3 3835   1.530   4.341  15.581  0.9326 -0.7117  0.4644
  253MPD2    C4 3836   1.666   4.346  15.571 -0.3004  0.5749 -0.3672
  253MPD2    C5 3837   1.722   4.322  15.451 -0.1855  0.0566  0.7387
  253MPD2     H 3838   1.348   4.285  15.476  0.3747 -0.1103 -0.5395
  253MPD2    H1 3839   1.731   4.357  15.658 -2.8991  0.2711  1.6312
  253MPD2    H2 3840   1.702   4.289  15.245 -2.0788  0.2343 -0.8526
  253MPD2    H3 3841   1.829   4.329  15.435 -0.1718  0.1797  0.8836
  253MPD2     N 3842   1.468   4.371  15.705  0.4957  1.0212 -0.4114
  253MPD2    H5 3843   1.531   4.372  15.785 -1.8200  2.1421  1.4016
  253MPD2    N1 3844   1.426   4.270  15.232  0.5479 -0.3516 -0.1322
  253MPD2    H7 3845   1.326   4.278  15.250  0.5731 -0.3099 -0.0171
  254TMC3    C1 3846   1.291   4.360  15.863  0.5857  0.3819  0.2909
  254TMC3    C2 3847   1.162   4.390  15.883 -0.3465 -0.6589  0.2338
  254TMC3    C3 3848   1.102   4.331  15.994  0.7646 -0.1187 -0.2924
  254TMC3    C4 3849   1.366   4.291  15.950  0.0774  0.4539 -0.8481
  254TMC3    C5 3850   1.307   4.238  16.063  0.0722 -0.0734 -0.8150
  254TMC3    C6 3851   1.173   4.253  16.082 -0.3024 -0.0960  0.5931
  254TMC3     C 3852   1.333   4.380  15.727  0.8119 -0.6469 -0.3190
  254TMC3     O 3853   1.250   4.404  15.643  0.2396  0.2998 -0.1392
  254TMC3     H 3854   1.110   4.462  15.821 -2.4299 -1.2065  1.3396
  254TMC3    H1 3855   1.462   4.250  15.921 -0.3205 -1.5013  0.5800
  254TMC3    H2 3856   1.126   4.206  16.167 -1.2410 -0.3601 -0.0620
  254TMC3    C7 3857   1.386   4.232  16.182 -0.8658  0.5379  0.5298
  254TMC3    C8 3858   0.971   4.373  16.042 -0.7334  0.3867  0.1959
  254TMC3    O1 3859   1.342   4.161  16.274 -0.6173 -0.4254  0.4684
  254TMC3    O2 3860   0.922   4.319  16.142 -0.7591  0.3577 -0.2216
  255MPD2     C 3861   3.983   2.913  10.151  0.6152 -0.4713 -0.3656
  255MPD2    C1 3862   4.048   2.971  10.049  0.3226  0.1434 -0.1180
  255MPD2    C2 3863   4.186   2.945  10.030 -0.4627 -0.0932  0.3118
  255MPD2    C3 3864   4.247   2.849  10.104 -0.4336  0.2727 -0.1514
  255MPD2    C4 3865   4.176   2.796  10.207  0.0913 -0.5527  0.3918
  255MPD2    C5 3866   4.045   2.824  10.231  0.0459  0.0710 -0.6940
  255MPD2     H 3867   4.232   2.990   9.942  0.4970 -3.1285 -0.7279
  255MPD2    H1 3868   4.212   2.704  10.252 -0.3283 -1.1367 -0.4630
  255MPD2    H2 3869   3.876   2.916  10.163  0.5513 -0.3592 -0.9730
  255MPD2    H3 3870   3.985   2.770  10.303 -0.3591  0.8713 -0.4244
  255MPD2     N 3871   4.378   2.802  10.057 -0.4270 -0.6999  0.4455
  255MPD2    H5 3872   4.417   2.837   9.971 -0.4494 -1.1217  0.2625
  255MPD2    N1 3873   3.965   3.053   9.961  0.0831  0.7955 -0.2741
  255MPD2    H7 3874   3.870   3.068   9.993 -0.3733 -0.2579 -1.1385
  256TMC3    C1 3875   3.898   3.162   9.762  0.5936 -0.2855  0.0920
  256TMC3    C2 3876   3.951   3.235   9.655  0.3011  0.0303  0.0327
  256TMC3    C3 3877   3.888   3.224   9.535 -0.7476  0.3018  0.3778
  256TMC3    C4 3878   3.791   3.078   9.753 -0.1624 -0.1369  0.0758
  256TMC3    C5 3879   3.742   3.063   9.626 -0.9386 -0.6465  0.0281
  256TMC3    C6 3880   3.785   3.134   9.521  0.1980 -0.4534 -0.3217
  256TMC3     C 3881   4.007   3.123   9.852  0.7780  0.3154 -0.9787
  256TMC3     O 3882   4.124   3.153   9.813 -0.3637 -0.1102  0.1742
  256TMC3     H 3883   4.021   3.315   9.674  0.9113 -0.2210 -1.1340
  256TMC3    H1 3884   3.764   3.007   9.830  1.6763 -0.6123  0.2623
  256TMC3    H2 3885   3.733   3.137   9.426 -0.2728  1.2622 -0.0080
  256TMC3    C7 3886   3.683   2.936   9.598  1.2029  0.2507  0.0293
  256TMC3    C8 3887   3.924   3.299   9.417 -0.2626 -0.4075 -0.6413
  256TMC3    O1 3888   3.680   2.853   9.690 -0.4353  0.1330  0.0486
  256TMC3    O2 3889   3.855   3.293   9.317  0.3024 -0.8185  0.4135
  257MPD2     C 3890   3.932   0.053  13.237  0.4541 -0.3693  0.1289
  257MPD2    C1 3891   3.875   4.702  13.129  0.7473  0.1345  0.3045
  257MPD2    C2 3892   3.823   4.578  13.163 -0.1029 -0.1952 -0.4710
  257MPD2    C3 3893   3.823   4.521  13.287  0.5768 -0.4738  0.4439
  257MPD2    C4 3894   3.865   4.595  13.394  0.4670 -1.0512 -0.3998
  257MPD2    C5 3895   3.916   0.003  13.365  0.2100  0.2487 -0.5074
  257MPD2     H 3896   3.774   4.517  13.088  1.4238 -2.3057  0.2486
  257MPD2    H1 3897   3.847   4.561  13.496 -0.0707  3.0008  0.8569
  257MPD2    H2 3898   3.976   0.152  13.229  1.7927 -0.9519  0.2984
  257MPD2    H3 3899   3.955   0.067  13.443  3.3666 -1.4910 -0.6619
  257MPD2     N 3900   3.772   4.390  13.290 -0.5213  0.2105 -0.6207
  257MPD2    H5 3901   3.725   4.356  13.207 -0.6350 -0.8467 -0.1285
  257MPD2    N1 3902   3.876   0.042  12.997 -0.3584  0.2497 -0.5132
  257MPD2    H7 3903   3.903   0.139  12.982  0.4324 -0.2128 -2.1422
  258TMC3    C1 3904   3.726   4.175  13.392 -0.6329  0.1852  0.6060
  258TMC3    C2 3905   3.638   4.150  13.289 -0.4520 -0.2445  0.1786
  258TMC3    C3 3906   3.574   4.028  13.280  0.2040 -0.1164  0.2193
  258TMC3    C4 3907   3.761   4.077  13.483 -0.3313 -0.4407  0.4549
  258TMC3    C5 3908   3.701   3.957  13.469  0.5344  0.4294  0.3656
  258TMC3    C6 3909   3.602   3.936  13.378  0.4237 -0.3328  0.3317
  258TMC3     C 3910   3.787   4.311  13.399  0.0247  0.2295 -0.4667
  258TMC3     O 3911   3.856   4.332  13.499  0.5185  0.0327  0.6715
  258TMC3     H 3912   3.621   4.233  13.221  0.1862 -1.1947 -1.1440
  258TMC3    H1 3913   3.822   4.106  13.568 -0.2137  1.4742 -0.2858
  258TMC3    H2 3914   3.554   3.839  13.372 -1.2501  0.3384  2.9728
  258TMC3    C7 3915   3.715   3.854  13.583 -0.6075 -1.2181  0.1615
  258TMC3    C8 3916   3.502   3.980  13.162  0.4360  0.7191 -0.1088
  258TMC3    O1 3917   3.634   3.763  13.586  0.6659  0.2519  0.4179
  258TMC3    O2 3918   3.504   3.858  13.140  0.3682 -0.5110 -0.0095
  259MPD2     C 3919   2.632   0.757   1.286 -0.1385 -0.7025  0.4425
  259MPD2    C1 3920   2.642   0.893   1.287  0.3062 -0.1412  0.2479
  259MPD2    C2 3921   2.651   0.956   1.166  0.9712  0.5182 -0.1932
  259MPD2    C3 3922   2.646   0.888   1.043 -0.0346  0.0975  0.0101
  259MPD2    C4 3923   2.623   0.753   1.046  0.2633  0.0891  0.1956
  259MPD2    C5 3924   2.615   0.690   1.166 -0.5904 -0.0428  0.5528
  259MPD2     H 3925   2.654   1.065   1.164 -1.8277  0.6206  0.8944
  259MPD2    H1 3926   2.616   0.704   0.950 -1.3747  0.9605 -0.1343
  259MPD2    H2 3927   2.639   0.692   1.372 -3.4231 -3.1002 -1.0686
  259MPD2    H3 3928   2.606   0.582   1.172 -3.1096  0.0775 -1.1524
  259MPD2     N 3929   2.648   0.966   0.929 -0.1503  0.3018 -0.3962
  259MPD2    H5 3930   2.655   1.066   0.948 -1.4859  0.7822 -2.4294
  259MPD2    N1 3931   2.625   0.963   1.410  0.3671  0.0036 -0.3955
  259MPD2    H7 3932   2.622   0.913   1.498  1.5467 -0.5120 -0.6538
  260TMC3    C1 3933   2.653   1.017   0.693  0.1912  0.0727 -0.5652
  260TMC3    C2 3934   2.717   1.140   0.708 -0.2935 -0.1050  0.5514
  260TMC3    C3 3935   2.710   1.221   0.600 -0.1398 -0.1653  0.2801
  260TMC3    C4 3936   2.596   0.971   0.572 -0.0774 -0.0217 -0.1659
  260TMC3    C5 3937   2.609   1.050   0.467  0.6258 -0.5069  0.1422
  260TMC3    C6 3938   2.669   1.172   0.482  0.2399 -0.4998 -0.7321
  260TMC3     C 3939   2.658   0.923   0.797 -0.7877  0.0635 -0.0492
  260TMC3     O 3940   2.667   0.806   0.753 -0.0453 -0.4550 -0.4773
  260TMC3     H 3941   2.745   1.189   0.800  3.2184  1.3085 -1.2577
  260TMC3    H1 3942   2.541   0.878   0.570 -0.2895  0.0972  0.1199
  260TMC3    H2 3943   2.673   1.233   0.393 -0.5139  1.4017  0.5347
  260TMC3    C7 3944   2.596   0.996   0.334 -0.1017 -0.2655  0.7292
  260TMC3    C8 3945   2.813   1.323   0.589 -0.1869  0.4823  0.5388
  260TMC3    O1 3946   2.674   1.046   0.257  0.3101  0.1359 -0.2859
  260TMC3    O2 3947   2.816   1.419   0.659  0.2629  0.2878  0.6234
  261MPD2     C 3948   4.334   4.209  12.473 -0.0569 -0.3952  0.0640
  261MPD2    C1 3949   4.443   4.274  12.538  0.4269 -0.0056  0.5380
  261MPD2    C2 3950   4.531   4.350  12.454 -0.3373 -0.0077 -0.4890
  261MPD2    C3 3951   4.511   4.354  12.318  0.6882 -1.1794  0.0301
  261MPD2    C4 3952   4.403   4.292  12.258  0.9408  0.2353 -0.1222
  261MPD2    C5 3953   4.319   4.216  12.334  0.0053 -0.4136  0.0334
  261MPD2     H 3954   4.620   4.389  12.502 -0.6527 -1.3454  1.1883
  261MPD2    H1 3955   4.389   4.288  12.150  1.0467 -1.6502 -0.0619
  261MPD2    H2 3956   4.258   4.158  12.530  0.2387 -1.7667 -0.7578
  261MPD2    H3 3957   4.231   4.175  12.286  0.1054 -0.8989  0.2691
  261MPD2     N 3958   4.609   4.413  12.239 -0.0676  0.0267  1.0915
  261MPD2    H5 3959   4.607   4.397  12.139  0.0478 -2.2088  1.4430
  261MPD2    N1 3960   4.469   4.256  12.674  0.5769  0.1733  0.5369
  261MPD2    H7 3961   4.548   4.307  12.711  1.6912  0.6386 -2.5148
  262TMC3    C1 3962   0.029   4.562  12.144 -0.0682  0.2595  0.6050
  262TMC3    C2 3963   4.722   4.696  12.108 -0.0131 -0.5888  0.3239
  262TMC3    C3 3964   0.024   0.005  11.981  0.0764 -0.5513 -0.1154
  262TMC3    C4 3965   0.068   4.476  12.046  0.4679 -0.1003  0.6176
  262TMC3    C5 3966   0.084   4.515  11.916 -0.1769 -0.0047  0.1655
  262TMC3    C6 3967   0.060   4.642  11.883  0.2891  0.3502  0.2781
  262TMC3     C 3968   4.682   4.526  12.265 -0.1201  0.6180  0.1042
  262TMC3     O 3969   4.662   4.621  12.341  0.0918 -0.2978 -0.3128
  262TMC3     H 3970   4.668   0.039  12.177  2.4370  0.2318  1.4736
  262TMC3    H1 3971   0.089   4.373  12.071  3.0028  0.3723  0.4719
  262TMC3    H2 3972   0.067   4.674  11.780  1.8000 -1.4632 -0.1641
  262TMC3    C7 3973   0.134   4.419  11.820  0.2651  1.1687  0.1744
  262TMC3    C8 3974   4.679   0.123  11.932 -1.0432  0.6114 -0.3753
  262TMC3    O1 3975   0.115   4.300  11.846  0.0658 -0.3314 -0.5678
  262TMC3    O2 3976   4.684   0.216  12.009  0.3578 -0.1216  0.4543
  263MPD2     C 3977   0.590   3.420  11.173  0.2933  0.3353  0.2162
  263MPD2    C1 3978   0.651   3.535  11.220 -0.3606 -0.5630  0.0524
  263MPD2    C2 3979   0.650   3.652  11.142  0.1185  0.7207  0.5265
  263MPD2    C3 3980   0.585   3.656  11.022  0.4485  0.5405 -0.2913
  263MPD2    C4 3981   0.519   3.540  10.979 -0.7468 -0.8308 -0.4375
  263MPD2    C5 3982   0.525   3.421  11.054 -0.0091 -0.3610  0.4852
  263MPD2     H 3983   0.706   3.739  11.175  3.4893 -1.4136  0.3814
  263MPD2    H1 3984   0.455   3.537  10.891 -0.8471 -1.3593 -0.3471
  263MPD2    H2 3985   0.585   3.330  11.234 -1.1119  0.5032  0.3505
  263MPD2    H3 3986   0.484   3.330  11.011 -0.0900 -1.8419  3.7060
  263MPD2     N 3987   0.586   3.770  10.944 -0.0010  0.3592  0.6925
  263MPD2    H5 3988   0.608   3.862  10.982  1.4635  0.7346 -1.0540
  263MPD2    N1 3989   0.717   3.523  11.340 -0.0892 -0.2300  0.5253
  263MPD2    H7 3990   0.727   3.440  11.397  2.1303 -0.4192 -0.1197
  264TMC3    C1 3991   0.600   3.889  10.738  0.0335 -0.6655 -0.1052
  264TMC3    C2 3992   0.563   4.004  10.793  0.3768 -0.7973  0.0109
  264TMC3    C3 3993   0.601   4.123  10.727  0.2088  0.6865  1.0453
  264TMC3    C4 3994   0.673   3.885  10.619  0.3318 -0.1792  0.1497
  264TMC3    C5 3995   0.697   3.998  10.550  0.0554 -1.1314  0.1225
  264TMC3    C6 3996   0.656   4.121  10.603  0.3152 -0.1270  0.4793
  264TMC3     C 3997   0.561   3.769  10.808 -0.5432 -0.3372 -0.4464
  264TMC3     O 3998   0.549   3.677  10.729  0.0852 -0.3948 -0.2192
  264TMC3     H 3999   0.499   4.002  10.881  0.5677 -0.6975  0.1519
  264TMC3    H1 4000   0.698   3.786  10.582  2.2068 -0.3355  1.8783
  264TMC3    H2 4001   0.680   4.216  10.555 -0.8131  0.0172  0.1983
  264TMC3    C7 4002   0.807   3.979  10.449  0.3584 -0.2542  0.7462
  264TMC3    C8 4003   0.600   4.247  10.800  0.8132 -0.5635 -0.0134
  264TMC3    O1 4004   0.878   3.883  10.475 -0.3912 -0.2266  0.1184
  264TMC3    O2 4005   0.635   4.344  10.736 -0.2526  0.5037 -0.4224
  265MPD2     C 4006   2.794   3.705  15.481 -0.0803  0.2365  0.0702
  265MPD2    C1 4007   2.784   3.828  15.414  0.2489 -0.2787  0.3958
  265MPD2    C2 4008   2.830   3.839  15.282  0.3942 -0.1400 -0.1926
  265MPD2    C3 4009   2.885   3.726  15.225 -0.4675  0.0712 -1.3207
  265MPD2    C4 4010   2.887   3.609  15.295 -0.0072  0.2214  1.2194
  265MPD2    C5 4011   2.832   3.587  15.418 -0.6320 -0.2138  0.2071
  265MPD2     H 4012   2.812   3.928  15.222 -0.7939 -0.6369 -0.5719
  265MPD2    H1 4013   2.929   3.523  15.243 -1.3562 -0.0379  0.5791
  265MPD2    H2 4014   2.761   3.694  15.584  2.9277  0.5308  1.0522
  265MPD2    H3 4015   2.829   3.489  15.464 -0.0801  0.0595  0.8259
  265MPD2     N 4016   2.926   3.729  15.085  0.0321  0.3680  0.2434
  265MPD2    H5 4017   2.942   3.641  15.036 -1.7516  1.2220 -1.8724
  265MPD2    N1 4018   2.737   3.948  15.477 -0.0457 -0.1712  0.7317
  265MPD2    H7 4019   2.717   4.027  15.417  1.5186 -1.1654 -1.0962
  266TMC3    C1 4020   2.706   4.106  15.646 -0.2579  0.5150 -0.0619
  266TMC3    C2 4021   2.767   4.149  15.761 -0.9210  0.3869 -0.3304
  266TMC3    C3 4022   2.784   4.285  15.777  0.1704  0.4671 -0.6538
  266TMC3    C4 4023   2.647   4.192  15.564  0.1534  0.6419 -0.4815
  266TMC3    C5 4024   2.662   4.327  15.589  0.5466  0.1282 -0.1201
  266TMC3    C6 4025   2.723   4.374  15.698 -0.1778  0.0092  0.3977
  266TMC3     C 4026   2.740   3.969  15.613  0.4080 -0.1671 -0.3031
  266TMC3     O 4027   2.775   3.896  15.707  0.1014 -0.5778 -0.1410
  266TMC3     H 4028   2.813   4.083  15.835  0.1594  0.8997 -0.5487
  266TMC3    H1 4029   2.601   4.153  15.474  0.6054  0.1390 -0.4954
  266TMC3    H2 4030   2.734   4.480  15.715 -0.6190  0.0594  0.3469
  266TMC3    C7 4031   2.587   4.422  15.503 -0.5687  0.4895 -0.7470
  266TMC3    C8 4032   2.900   4.326  15.853  0.2678 -0.0063  0.2321
  266TMC3    O1 4033   2.493   4.372  15.444  0.0829 -0.3046  0.0252
  266TMC3    O2 4034   2.994   4.248  15.852  0.0965 -0.6500 -0.4058
  267MPD2     C 4035   0.836   0.792  17.619 -0.1914 -0.1861 -0.8522
  267MPD2    C1 4036   0.786   0.895  17.542  0.6056 -0.0007  0.0275
  267MPD2    C2 4037   0.706   0.865  17.430  0.7328  0.7970 -0.0625
  267MPD2    C3 4038   0.673   0.734  17.407 -0.3898  0.4732 -0.2522
  267MPD2    C4 4039   0.727   0.632  17.484  0.6214 -0.2871  0.7082
  267MPD2    C5 4040   0.808   0.665  17.587 -0.1656 -0.2198  0.2575
  267MPD2     H 4041   0.675   0.942  17.361 -0.0758 -1.0882 -1.7828
  267MPD2    H1 4042   0.708   0.527  17.467 -0.2505  0.2047 -1.2692
  267MPD2    H2 4043   0.891   0.808   0.019 -1.9519 -0.0050  0.1640
  267MPD2    H3 4044   0.840   0.584  17.652 -0.8195 -1.0096 -0.4100
  267MPD2     N 4045   0.576   0.696  17.311  0.2562 -0.0195  0.2557
  267MPD2    H5 4046   0.553   0.598  17.314  0.7516 -0.1423 -0.0062
  267MPD2    N1 4047   0.811   1.029  17.580  0.2052  0.1072 -0.2404
  267MPD2    H7 4048   0.859   1.046  17.668 -2.0161  0.8063  0.8296
  268TMC3    C1 4049   0.773   1.250  17.605  0.6408  0.1016  0.8396
  268TMC3    C2 4050   0.717   1.359  17.547  0.7931 -0.3866 -0.5487
  268TMC3    C3 4051   0.679   1.454  17.640 -0.4474 -0.0409 -1.0114
  268TMC3    C4 4052   0.775   1.227   0.049  0.9135 -0.2807 -1.0215
  268TMC3    C5 4053   0.736   1.327   0.137  0.0787  0.1660  0.3152
  268TMC3    C6 4054   0.692   1.443   0.089  0.3392  0.3527  0.3428
  268TMC3     C 4055   0.773   1.141  17.511 -0.1325  0.0671  0.0478
  268TMC3     O 4056   0.728   1.163  17.401  0.2673 -0.4653  0.4926
  268TMC3     H 4057   0.730   1.396  17.446  1.2314  0.4416 -0.1856
  268TMC3    H1 4058   0.800   1.133   0.096 -0.4130 -0.1077  0.0682
  268TMC3    H2 4059   0.669   1.530   0.149  2.8352  2.2993 -1.5229
  268TMC3    C7 4060   0.753   1.309   0.279  0.1443  0.6074 -0.2853
  268TMC3    C8 4061   0.640   1.587  17.595 -0.5631 -0.2650  0.4812
  268TMC3    O1 4062   0.827   1.224   0.326  0.3898 -0.4861  0.6330
  268TMC3    O2 4063   0.685   1.679  17.663  0.0396 -0.4038 -0.1163
  269MPD2     C 4064   0.682   0.058  15.392 -0.5172  0.2272  0.7871
  269MPD2    C1 4065   0.568   0.048  15.476 -0.1417 -0.7133 -0.4602
  269MPD2    C2 4066   0.486   0.159  15.500  0.3633  0.3734 -0.3107
  269MPD2    C3 4067   0.516   0.275  15.422 -0.1312 -0.1515  0.4324
  269MPD2    C4 4068   0.623   0.283  15.338  0.5419  0.4924  0.1936
  269MPD2    C5 4069   0.705   0.176  15.324  0.8734  0.1593 -0.0278
  269MPD2     H 4070   0.403   0.160  15.569 -1.1550 -0.5529 -2.1605
  269MPD2    H1 4071   0.648   0.366  15.272 -3.3285  1.7885  0.3850
  269MPD2    H2 4072   0.751   4.699  15.376 -1.3977  0.0283 -1.9388
  269MPD2    H3 4073   0.791   0.189  15.258 -0.2519  0.2709 -1.4701
  269MPD2     N 4074   0.436   0.388  15.442 -0.8328  0.3386  0.8356
  269MPD2    H5 4075   0.358   0.369  15.505 -2.4540 -0.0826 -1.3046
  269MPD2    N1 4076   0.548   4.647  15.539  0.2326 -0.4600  0.5537
  269MPD2    H7 4077   0.613   4.572  15.518 -0.6179 -1.4138  1.3436
  270TMC3    C1 4078   0.449   4.477  15.669 -0.1797 -0.0264  0.3934
  270TMC3    C2 4079   0.336   4.398  15.699  1.1367  0.0606 -0.2123
  270TMC3    C3 4080   0.362   4.277  15.766  0.2237  0.9213  0.4676
  270TMC3    C4 4081   0.577   4.436  15.695 -0.1528  0.2619 -0.3372
  270TMC3    C5 4082   0.601   4.317  15.758 -0.2369 -0.3487  0.1558
  270TMC3    C6 4083   0.490   4.243  15.788 -0.0245 -0.0354  0.4664
  270TMC3     C 4084   0.434   4.611  15.611 -0.0474  0.2847  0.1022
  270TMC3     O 4085   0.324   4.665  15.620  0.3897 -0.0179  0.4929
  270TMC3     H 4086   0.238   4.436  15.675  1.9335  2.2118 -0.0622
  270TMC3    H1 4087   0.666   4.492  15.669  1.6120 -1.1046  2.6454
  270TMC3    H2 4088   0.501   4.144  15.832  0.0559 -0.7956 -1.2508
  270TMC3    C7 4089   0.730   4.259  15.744  0.0711 -0.0252 -1.1089
  270TMC3    C8 4090   0.285   4.160  15.746  0.5767  0.0007  0.8870
  270TMC3    O1 4091   0.811   4.322  15.672 -0.3483  0.7600 -0.3953
  270TMC3    O2 4092   0.288   4.075  15.831  0.0109 -0.2270 -1.0467
  271MPD2     C 4093   4.372   4.505  13.831  0.1666  0.6325  0.3743
  271MPD2    C1 4094   4.297   4.416  13.909  0.3941  0.3383 -0.5580
  271MPD2    C2 4095   4.157   4.415  13.892  1.1832 -0.8245 -0.4371
  271MPD2    C3 4096   4.104   4.510  13.805  0.6803 -0.8638  0.6619
  271MPD2    C4 4097   4.176   4.597  13.734  0.3968 -0.0504  0.9552
  271MPD2    C5 4098   4.312   4.589  13.737 -0.1813  0.1070  0.3261
  271MPD2     H 4099   4.096   4.346  13.950 -1.6615  1.2607 -0.9526
  271MPD2    H1 4100   4.127   4.665  13.665 -2.6474 -1.5742  1.5810
  271MPD2    H2 4101   4.477   4.520  13.857  0.6570 -0.7691 -0.8213
  271MPD2    H3 4102   4.373   4.661  13.684  0.6684 -0.7474  0.1508
  271MPD2     N 4103   3.966   4.509  13.785 -0.4818  0.5077  0.3576
  271MPD2    H5 4104   3.933   4.592  13.737  1.0071  2.0080  1.8851
  271MPD2    N1 4105   4.361   4.318  13.993  0.1398  0.0275  0.0905
  271MPD2    H7 4106   4.307   4.263  14.059 -0.6013  0.7873  0.1110
  272TMC3    C1 4107   4.535   4.195  14.086 -0.8087  0.2440 -0.5136
  272TMC3    C2 4108   4.667   4.169  14.083  0.7404  0.6413  0.5094
  272TMC3    C3 4109   0.005   4.141  14.196 -0.6836 -0.2778  0.6117
  272TMC3    C4 4110   4.463   4.208  14.202 -0.3819  0.4596  0.3760
  272TMC3    C5 4111   4.532   4.199  14.317 -1.2548  0.3730  0.0289
  272TMC3    C6 4112   4.662   4.150  14.320 -0.4504  0.7988  0.0633
  272TMC3     C 4113   4.496   4.284  13.981  1.0895  0.2443  0.0938
  272TMC3     O 4114   4.585   4.309  13.898 -0.0874  0.0160  0.2965
  272TMC3     H 4115   4.719   4.155  13.989 -2.0341 -0.9601 -0.7752
  272TMC3    H1 4116   4.357   4.227  14.215 -0.4207 -0.8456  2.0805
  272TMC3    H2 4117   4.717   4.124  14.410  1.3666 -1.4146 -1.6914
  272TMC3    C7 4118   4.459   4.216  14.440 -0.2426  0.7864  0.4746
  272TMC3    C8 4119   0.146   4.097  14.190 -0.1344 -0.6132  0.3805
  272TMC3    O1 4120   4.338   4.205  14.436 -0.3577 -0.0852  0.2609
  272TMC3    O2 4121   0.211   4.126  14.093  0.3094 -0.0848  0.1201
  273MPD2     C 4122   1.171   2.457  11.902  0.5548 -0.4168 -0.1243
  273MPD2    C1 4123   1.257   2.548  11.850 -0.3243 -0.1255  0.5505
  273MPD2    C2 4124   1.267   2.569  11.717 -0.0073  0.1358  0.3917
  273MPD2    C3 4125   1.169   2.516  11.636  0.2449 -0.3483 -0.0899
  273MPD2    C4 4126   1.069   2.448  11.689  0.3331  0.6930  0.2948
  273MPD2    C5 4127   1.077   2.408  11.821 -0.1696 -0.1182 -0.0507
  273MPD2     H 4128   1.348   2.630  11.678 -0.3391  3.0743  4.3027
  273MPD2    H1 4129   0.986   2.422  11.625  0.8084 -0.2367  0.0605
  273MPD2    H2 4130   1.171   2.419  12.003  4.2881 -1.5159 -0.5330
  273MPD2    H3 4131   1.002   2.354  11.879  2.3124 -2.0298  1.3655
  273MPD2     N 4132   1.174   2.541  11.493 -0.0711 -0.9451 -0.0306
  273MPD2    H5 4133   1.119   2.482  11.431 -1.6281 -0.6101  1.0468
  273MPD2    N1 4134   1.347   2.608  11.938  0.1568  0.6139 -0.2673
  273MPD2    H7 4135   1.338   2.590  12.037 -1.4061  2.5892 -0.0495
  274TMC3    C1 4136   1.282   2.616  11.294 -0.5538  0.4534 -0.2096
  274TMC3    C2 4137   1.190   2.559  11.216  0.3816  0.4847  0.6003
  274TMC3    C3 4138   1.183   2.607  11.083  0.4341 -0.1028  0.1966
  274TMC3    C4 4139   1.383   2.702  11.241 -0.0402  0.0989  0.2254
  274TMC3    C5 4140   1.358   2.761  11.120  0.2349 -0.0352 -0.1717
  274TMC3    C6 4141   1.264   2.710  11.040 -0.8405  0.1067  0.6413
  274TMC3     C 4142   1.271   2.618  11.435 -0.4841  0.5183 -0.0961
  274TMC3     O 4143   1.318   2.716  11.488 -0.1393  0.3921  0.6517
  274TMC3     H 4144   1.122   2.480  11.246 -1.2203  1.5705 -0.1699
  274TMC3    H1 4145   1.455   2.746  11.308 -0.1114 -0.6443  0.7838
  274TMC3    H2 4146   1.235   2.781  10.963  0.3444  1.8910  1.8405
  274TMC3    C7 4147   1.323   2.901  11.143  0.0105  0.3119  0.0896
  274TMC3    C8 4148   1.062   2.573  11.010  0.3544 -0.6532  0.1102
  274TMC3    O1 4149   1.214   2.929  11.185 -0.6118 -0.3905  0.6277
  274TMC3    O2 4150   0.962   2.569  11.077  0.2209 -0.2449  0.3132
  275MPD2     C 4151   1.364   0.429  14.236  0.1049  0.1285  0.4222
  275MPD2    C1 4152   1.292   0.476  14.342 -0.2531 -0.1141 -0.6644
  275MPD2    C2 4153   1.155   0.457  14.342  0.0033  0.3016  0.2028
  275MPD2    C3 4154   1.084   0.397  14.239 -0.1570  0.1925  0.0667
  275MPD2    C4 4155   1.151   0.372  14.122  0.0834  0.1919  0.1306
  275MPD2    C5 4156   1.291   0.385  14.124 -1.6477 -0.6256 -0.4083
  275MPD2     H 4157   1.104   0.494  14.430  0.2862  0.4138  0.3204
  275MPD2    H1 4158   1.103   0.322  14.038  1.3594  0.9054 -1.0259
  275MPD2    H2 4159   1.472   0.434  14.241  0.2395 -0.9059 -1.3604
  275MPD2    H3 4160   1.350   0.350  14.040 -1.0597 -1.7059  0.4508
  275MPD2     N 4161   0.944   0.368  14.241 -0.2135 -0.6261  0.1018
  275MPD2    H5 4162   0.899   0.317  14.166 -0.5181  0.6981 -0.6062
  275MPD2    N1 4163   1.345   0.543  14.453  0.1976 -0.1909  0.1073
  275MPD2    H7 4164   1.275   0.554  14.525  1.3684 -1.1374  1.3705
  276TMC3    C1 4165   1.503   0.578  14.615  0.4659  0.1519  0.3999
  276TMC3    C2 4166   1.411   0.509  14.692  0.0824 -0.3467 -0.7110
  276TMC3    C3 4167   1.401   0.549  14.828  0.3932 -0.2117 -0.5838
  276TMC3    C4 4168   1.588   0.672  14.666 -0.2508  0.3716  0.1198
  276TMC3    C5 4169   1.568   0.712  14.795  0.2376 -0.2830 -0.1182
  276TMC3    C6 4170   1.476   0.649  14.872 -0.0526  0.4254 -0.0957
  276TMC3     C 4171   1.475   0.579  14.476  0.0637  0.5332  0.4768
  276TMC3     O 4172   1.560   0.595  14.390  0.1959 -0.5924  0.6835
  276TMC3     H 4173   1.344   0.434  14.650 -1.9338  0.6770  0.7021
  276TMC3    H1 4174   1.656   0.717  14.594  0.5314 -2.1155 -0.6964
  276TMC3    H2 4175   1.463   0.682  14.975 -0.0900  1.3600 -0.3945
  276TMC3    C7 4176   1.641   0.824  14.855  1.1365 -0.5395 -0.5341
  276TMC3    C8 4177   1.333   0.467  14.927 -0.2643 -0.1288 -0.3184
  276TMC3    O1 4178   1.604   0.876  14.962 -0.0597 -0.1420  0.2308
  276TMC3    O2 4179   1.321   0.512  15.044  0.6676 -0.4128  0.4147
  277MPD2     C 4180   2.898   3.753  12.888  0.1372 -0.1408  0.1403
  277MPD2    C1 4181   2.876   3.883  12.931  0.4170 -0.5740  0.5122
  277MPD2    C2 4182   2.841   3.899  13.062  0.5469 -0.0789 -0.0163
  277MPD2    C3 4183   2.822   3.795  13.151  0.3196 -0.2775 -0.8743
  277MPD2    C4 4184   2.846   3.667  13.105  0.0339  0.5945 -0.0656
  277MPD2    C5 4185   2.887   3.649  12.978 -0.1420 -0.1152 -0.4541
  277MPD2     H 4186   2.822   4.001  13.091  0.4706 -0.9729  3.1213
  277MPD2    H1 4187   2.832   3.582  13.171  2.3025 -0.7232 -1.2915
  277MPD2    H2 4188   2.904   3.739  12.781 -0.6887 -1.1820  0.2248
  277MPD2    H3 4189   2.891   3.546  12.944  0.5017  0.3257 -1.7119
  277MPD2     N 4190   2.792   3.816  13.291 -0.0039 -0.2238 -0.0025
  277MPD2    H5 4191   2.804   3.738  13.355 -2.7831 -1.2526 -0.7632
  277MPD2    N1 4192   2.867   3.987  12.838  0.1573 -0.1711  0.4312
  277MPD2    H7 4193   2.841   3.960  12.744 -2.2486 -0.1339  1.0831
  278TMC3    C1 4194   2.743   3.924  13.494  0.2425 -0.2604  0.2382
  278TMC3    C2 4195   2.674   3.810  13.536  0.0580  0.3080  1.0294
  278TMC3    C3 4196   2.555   3.817  13.601 -0.4295  0.4539 -0.0060
  278TMC3    C4 4197   2.698   4.045  13.537  0.0576 -0.2518  0.1511
  278TMC3    C5 4198   2.595   4.050  13.621 -0.3077 -0.1795  0.3020
  278TMC3    C6 4199   2.522   3.939  13.651  0.2401 -0.1512  0.0228
  278TMC3     C 4200   2.771   3.938  13.353 -0.0861 -0.0428 -0.3328
  278TMC3     O 4201   2.772   4.051  13.307  0.1901  0.7318 -0.0683
  278TMC3     H 4202   2.713   3.712  13.512 -2.1599 -0.2445 -0.3082
  278TMC3    H1 4203   2.758   4.132  13.515  1.3717 -1.3046 -0.4711
  278TMC3    H2 4204   2.440   3.940  13.722 -0.8040 -0.5839 -1.1701
  278TMC3    C7 4205   2.531   4.179  13.613  0.6970  0.1799  0.0407
  278TMC3    C8 4206   2.503   3.697  13.655 -0.0264 -0.9308  0.1948
  278TMC3    O1 4207   2.593   4.284  13.595 -0.2773 -0.0932  0.0468
  278TMC3    O2 4208   2.580   3.617  13.707  0.6566  0.2818 -0.0722
  279MPD2     C 4209   2.340   0.158   0.310  0.2822 -0.4781 -0.2428
  279MPD2    C1 4210   2.294   0.025   0.299 -0.3330  0.3211 -0.1605
  279MPD2    C2 4211   2.341   4.674   0.187  0.1594  0.5753  0.5654
  279MPD2    C3 4212   2.419   0.007   0.087 -0.6434  0.4067 -0.5905
  279MPD2    C4 4213   2.454   0.140   0.097  0.0831  0.2249 -0.2727
  279MPD2    C5 4214   2.415   0.210   0.209  0.2923  0.0540  0.2535
  279MPD2     H 4215   2.313   4.572   0.163  1.7237  0.0270  1.1096
  279MPD2    H1 4216   2.516   0.201   0.032  1.1204 -0.0999  0.4031
  279MPD2    H2 4217   2.322   0.227   0.391 -1.5923 -0.2760 -0.8264
  279MPD2    H3 4218   2.459   0.308   0.221  1.5757 -0.2229 -2.1324
  279MPD2     N 4219   2.466   4.655  17.662  0.0549  0.5311 -0.1135
  279MPD2    H5 4220   2.508   4.719  17.595  0.6207  0.2344 -0.0422
  279MPD2    N1 4221   2.201   4.693   0.389  0.0177 -0.3535  0.2377
  279MPD2    H7 4222   2.164   0.039   0.454 -1.1845 -2.1888  1.4637
  280TMC3    C1 4223   2.040   4.543   0.461 -0.2196 -0.3450 -0.2047
  280TMC3    C2 4224   1.981   4.418   0.446  0.3590  0.1026  0.4939
  280TMC3    C3 4225   1.842   4.405   0.464  0.6460 -0.4382  0.8512
  280TMC3    C4 4226   1.961   4.652   0.495 -0.4235 -0.2028 -0.5468
  280TMC3    C5 4227   1.834   4.624   0.521  0.1398  0.1795  0.1019
  280TMC3    C6 4228   1.763   4.505   0.515  0.7282  0.1142 -0.6838
  280TMC3     C 4229   2.165   4.564   0.386 -0.1105 -0.0589  0.0085
  280TMC3     O 4230   2.219   4.466   0.336  0.6592 -0.0532 -0.6356
  280TMC3     H 4231   2.037   4.344   0.390 -1.5319 -2.7110  2.3086
  280TMC3    H1 4232   1.999   0.031   0.496  0.4316 -0.5055 -1.5901
  280TMC3    H2 4233   1.655   4.498   0.510  0.8227 -1.3275 -0.8120
  280TMC3    C7 4234   1.756   0.022   0.561 -0.4930  0.7568  0.1070
  280TMC3    C8 4235   1.781   4.278   0.439 -0.6857 -0.2255  0.1225
  280TMC3    O1 4236   1.813   0.101   0.633  0.0547 -0.3260 -0.1284
  280TMC3    O2 4237   1.658   4.271   0.454 -0.2626 -0.1906 -0.1818
  281TMC3    C1 4238   1.039   4.680  13.382 -0.0441  0.2947 -0.4219
  281TMC3    C2 4239   1.127   0.052  13.328 -0.2906 -0.5500 -0.2684
  281TMC3    C3 4240   1.189   0.014  13.211 -0.2577  0.0091  0.1422
  281TMC3    C4 4241   1.025   4.554  13.332 -0.8964 -0.0250  0.6509
  281TMC3    C5 4242   1.093   4.522  13.219  0.3962 -0.1839 -0.2466
  281TMC3    C6 4243   1.177   4.611  13.158 -0.0956 -0.4100 -0.2876
  281TMC3     C 4244   0.927   0.002  13.465  0.1465  0.3953  0.2081
  281TMC3     O 4245   0.872   4.636  13.522 -0.2761 -0.2865  0.4459
  281TMC3     H 4246   1.144   0.144  13.382  2.4412 -0.5367 -1.1723
  281TMC3    H1 4247   0.970   4.484  13.394 -1.9515  0.9087  0.7653
  281TMC3    H2 4248   1.225   4.584  13.064  0.0945  2.2866 -0.9789
  281TMC3    C7 4249   1.068   4.392  13.157  0.6976 -0.1378 -0.0454
  281TMC3    C8 4250   1.301   0.099  13.154  0.5988  0.2899 -0.2936
  281TMC3    O1 4251   1.130   4.355  13.057  0.7118 -0.3599  0.0656
  281TMC3    O2 4252   1.393   0.044  13.094 -0.4119  0.4711  0.1658
  282MPD2     C 4253   2.646   1.097  15.147 -0.5255  0.1181  0.2004
  282MPD2    C1 4254   2.537   1.174  15.176 -0.2437 -0.0056 -0.2475
  282MPD2    C2 4255   2.464   1.223  15.070  0.3402 -0.0304 -0.1244
  282MPD2    C3 4256   2.486   1.190  14.936 -0.3914 -0.4616  0.1784
  282MPD2    C4 4257   2.597   1.116  14.910 -0.0701  0.1503  0.7627
  282MPD2    C5 4258   2.674   1.073  15.014 -0.0215 -0.0002  0.2439
  282MPD2     H 4259   2.382   1.290  15.088  0.2953 -0.1164 -0.0092
  282MPD2    H1 4260   2.622   1.082  14.810 -2.0125 -1.0147  0.6828
  282MPD2    H2 4261   2.715   1.061  15.223 -2.1488 -2.7482  0.2891
  282MPD2    H3 4262   2.755   1.007  14.984 -3.0365 -3.4118 -0.4917
  282MPD2     N 4263   2.396   1.241  14.849 -0.1933 -0.1954  0.0142
  282MPD2    H5 4264   2.326   1.297  14.895  1.7667  0.3705  2.2958
  282MPD2    N1 4265   2.510   1.213  15.311  0.0405  0.4075  0.3590
  282MPD2    H7 4266   2.439   1.285  15.322 -0.2800  0.4390 -1.9246
  283TMC3    C1 4267   2.511   1.188  15.550  0.2031  0.3612  0.0566
  283TMC3    C2 4268   2.489   1.326  15.566 -0.6607 -0.4661 -1.0597
  283TMC3    C3 4269   2.439   1.365  15.695  0.1001 -0.1016 -0.4210
  283TMC3    C4 4270   2.486   1.096  15.647 -0.4184  0.3575  0.2928
  283TMC3    C5 4271   2.432   1.140  15.768 -0.1845 -0.4091  0.2955
  283TMC3    C6 4272   2.416   1.272  15.790 -0.4542 -0.3053 -0.2553
  283TMC3     C 4273   2.546   1.140  15.422  0.3531 -0.1393 -0.5167
  283TMC3     O 4274   2.602   1.028  15.420  0.1821 -0.4931 -0.1364
  283TMC3     H 4275   2.505   1.400  15.488 -1.4191  1.7773  0.9192
  283TMC3    H1 4276   2.499   0.994  15.616 -0.0995  0.8236 -1.1124
  283TMC3    H2 4277   2.375   1.304  15.885 -0.0648 -0.6990  0.0515
  283TMC3    C7 4278   2.328   1.051  15.827 -0.2106  0.1150  0.1988
  283TMC3    C8 4279   2.409   1.500  15.727 -0.5070  0.2065  0.2487
  283TMC3    O1 4280   2.230   1.101  15.887  0.1883  0.2073  0.1005
  283TMC3    O2 4281   2.413   1.527  15.844  0.7579 -0.3874 -0.1985
  284MPD2     C 4282   0.754   0.678  12.098 -0.4862 -0.4860 -0.3273
  284MPD2    C1 4283   0.808   0.625  11.984 -0.4456 -0.7575  0.0747
  284MPD2    C2 4284   0.802   0.491  11.965 -0.2348  0.9750  0.1473
  284MPD2    C3 4285   0.747   0.405  12.058 -0.0698 -0.4998  0.1131
  284MPD2    C4 4286   0.685   0.454  12.173  0.7673 -0.6546  0.3261
  284MPD2    C5 4287   0.693   0.590  12.189 -0.2277  0.0548  0.2649
  284MPD2     H 4288   0.837   0.461  11.867  0.0531  0.4515  0.4098
  284MPD2    H1 4289   0.627   0.398  12.245  1.7589 -0.4636  1.2799
  284MPD2    H2 4290   0.742   0.786  12.111 -1.0803 -0.6662  0.6588
  284MPD2    H3 4291   0.639   0.637  12.271 -1.3249  0.6127 -0.7623
  284MPD2     N 4292   0.736   0.271  12.021  0.2586  0.0041 -0.1853
  284MPD2    H5 4293   0.770   0.255  11.927 -0.6005  1.6182 -0.7787
  284MPD2    N1 4294   0.866   0.702  11.875  0.5039 -0.6009 -0.2566
  284MPD2    H7 4295   0.910   0.642  11.806 -2.3476 -1.2785 -1.4539
  285TMC3    C1 4296   0.968   0.880  11.756  0.2222 -0.2633  0.3858
  285TMC3    C2 4297   0.980   0.798  11.649  0.7783 -0.4421 -0.3798
  285TMC3    C3 4298   1.046   0.841  11.536 -0.4285  0.1825  0.8778
  285TMC3    C4 4299   1.030   1.001  11.760 -0.2699  0.1817  0.1983
  285TMC3    C5 4300   1.109   1.036  11.651 -0.3585 -0.2634 -0.0057
  285TMC3    C6 4301   1.110   0.962  11.537  0.2117 -0.2761  0.8613
  285TMC3     C 4302   0.881   0.841  11.866 -0.2594 -0.3811 -0.8705
  285TMC3     O 4303   0.854   0.919  11.955 -0.0419 -0.3001  0.0580
  285TMC3     H 4304   0.926   0.704  11.637 -0.8453  0.5878 -1.2463
  285TMC3    H1 4305   1.030   1.056  11.853 -1.7975 -1.0607  0.9327
  285TMC3    H2 4306   1.177   1.007  11.465 -1.3198  0.1432 -0.2952
  285TMC3    C7 4307   1.188   1.156  11.649  0.2454  0.4264  0.2349
  285TMC3    C8 4308   1.054   0.752  11.420 -0.0029  0.0140  0.4232
  285TMC3    O1 4309   1.206   1.207  11.541  0.0219  0.4303 -0.0686
  285TMC3    O2 4310   0.973   0.659  11.402 -0.5420  1.1207  0.7139
  286MPD2     C 4311   1.132   4.488   1.621  0.3792 -0.0312  0.7729
  286MPD2    C1 4312   1.157   4.499   1.488 -0.2373  0.2888  0.3864
  286MPD2    C2 4313   1.271   4.437   1.444 -0.0903  0.0623  0.1924
  286MPD2    C3 4314   1.361   4.380   1.532 -0.4515  0.3397  0.3786
  286MPD2    C4 4315   1.337   4.378   1.668 -0.7143  0.5148 -0.1563
  286MPD2    C5 4316   1.210   4.418   1.714  0.8377 -0.1856  0.3322
  286MPD2     H 4317   1.297   4.442   1.339 -0.7464  1.4283  0.0919
  286MPD2    H1 4318   1.409   4.333   1.735 -0.6273  0.0998 -0.5258
  286MPD2    H2 4319   1.039   4.524   1.663 -0.2397 -0.2629 -0.3896
  286MPD2    H3 4320   1.183   4.408   1.818 -1.6050  0.1712 -0.2648
  286MPD2     N 4321   1.484   4.318   1.483 -0.0698  0.3940  0.1427
  286MPD2    H5 4322   1.547   4.292   1.558  1.0430  6.0160  1.0998
  286MPD2    N1 4323   1.068   4.566   1.403 -0.4451  0.0919  0.7669
  286MPD2    H7 4324   1.083   4.561   1.303 -2.2194 -1.2336  0.5815
  287TMC3    C1 4325   1.667   4.264   1.347 -0.0964 -1.1044 -0.7531
  287TMC3    C2 4326   1.689   4.215   1.226  0.0843  0.6117  0.1541
  287TMC3    C3 4327   1.811   4.160   1.210 -0.3601 -0.9311  0.5794
  287TMC3    C4 4328   1.752   4.255   1.461  0.2472 -0.5553  0.0436
  287TMC3    C5 4329   1.868   4.184   1.430 -0.6122  0.4387  0.7158
  287TMC3    C6 4330   1.897   4.131   1.306  0.4795  0.0334  0.0378
  287TMC3     C 4331   1.528   4.312   1.353 -0.2368 -0.1833 -0.3998
  287TMC3     O 4332   1.463   4.324   1.253 -0.2792 -0.2359  0.4792
  287TMC3     H 4333   1.622   4.220   1.141  0.8658 -0.2637 -0.5159
  287TMC3    H1 4334   1.733   4.303   1.556  2.6779 -1.6346  1.0705
  287TMC3    H2 4335   1.990   4.080   1.283  0.6583  0.0705  0.6710
  287TMC3    C7 4336   1.979   4.192   1.522  0.3717  0.0836  0.3695
  287TMC3    C8 4337   1.817   4.059   1.100 -0.2900  0.3517 -0.3330
  287TMC3    O1 4338   1.990   4.300   1.583  0.0066  0.7845  0.1859
  287TMC3    O2 4339   1.709   4.024   1.052 -0.3437  0.0292  0.0764
  288TMC3    C1 4340   2.721   3.711  14.303  0.4706  0.0547  0.3950
  288TMC3    C2 4341   2.678   3.747  14.429 -0.0902 -0.1087 -0.1081
  288TMC3    C3 4342   2.591   3.662  14.497  0.1114  0.6587 -0.2669
  288TMC3    C4 4343   2.686   3.593  14.248  0.4135  0.2862  0.4450
  288TMC3    C5 4344   2.595   3.524  14.307  0.4533 -0.8712  0.7971
  288TMC3    C6 4345   2.540   3.556  14.428  0.1241  0.3614 -1.0328
  288TMC3     C 4346   2.847   3.769  14.256 -0.3420  0.3870 -0.4007
  288TMC3     O 4347   2.911   3.820  14.347  0.0116 -0.2207  0.3635
  288TMC3     H 4348   2.721   3.838  14.470  1.7439 -0.1036 -2.0777
  288TMC3    H1 4349   2.734   3.558  14.157  3.2213 -1.7905  2.6968
  288TMC3    H2 4350   2.464   3.492  14.471  0.3202  0.9531  0.1802
  288TMC3    C7 4351   2.523   3.415  14.241  0.1458  0.0512  0.3923
  288TMC3    C8 4352   2.559   3.690  14.634 -1.1730  0.4046 -0.5614
  288TMC3    O1 4353   2.428   3.366  14.298  0.0290  0.3933 -0.1109
  288TMC3    O2 4354   2.631   3.780  14.678 -0.3103 -0.1599  0.4947
  289MPD2     C 4355   2.861   2.731  14.447 -0.1881 -0.7743  1.2192
  289MPD2    C1 4356   2.832   2.848  14.379  0.6593  0.3859 -0.5879
  289MPD2    C2 4357   2.700   2.869  14.356 -0.5897 -0.2430 -0.1641
  289MPD2    C3 4358   2.596   2.780  14.388 -0.1382 -0.1319 -0.6738
  289MPD2    C4 4359   2.625   2.670  14.463 -0.5879  0.8680  0.4467
  289MPD2    C5 4360   2.757   2.653  14.499  0.2151  0.0405  0.4133
  289MPD2     H 4361   2.674   2.964  14.312  3.8579  1.3778  0.6949
  289MPD2    H1 4362   2.558   2.600  14.511  1.8435 -1.9253 -0.1579
  289MPD2    H2 4363   2.959   2.701  14.482  0.8132 -0.7630 -1.5624
  289MPD2    H3 4364   2.777   2.573  14.570 -2.7124 -1.3146 -0.3022
  289MPD2     N 4365   2.453   2.807  14.377 -0.1103  0.2252  0.2732
  289MPD2    H5 4366   2.387   2.739  14.413 -0.1396 -0.0582 -0.3189
  289MPD2    N1 4367   2.936   2.943  14.354 -0.0946 -0.1536 -0.4433
  289MPD2    H7 4368   3.026   2.936  14.401 -0.1013  0.1517 -0.3888
  290TMC3    C1 4369   2.250   2.925  14.319  0.3931  0.3614 -0.4650
  290TMC3    C2 4370   2.199   3.043  14.285 -0.0002  0.2231  0.1040
  290TMC3    C3 4371   2.066   3.042  14.244 -0.2060 -0.3717 -0.1890
  290TMC3    C4 4372   2.178   2.809  14.320  0.9833  0.0458 -0.5819
  290TMC3    C5 4373   2.047   2.820  14.287 -0.9840  0.6923 -0.3774
  290TMC3    C6 4374   1.982   2.938  14.253 -1.2172  0.1365  0.0639
  290TMC3     C 4375   2.395   2.920  14.333 -1.0813 -0.1849  0.2497
  290TMC3     O 4376   2.457   3.029  14.306  0.2554  0.0789 -0.0511
  290TMC3     H 4377   2.262   3.131  14.291  0.3772 -0.1140  1.1774
  290TMC3    H1 4378   2.222   2.712  14.340  2.0812  0.5971 -0.2646
  290TMC3    H2 4379   1.877   2.942  14.228 -1.3611  1.8267  0.9619
  290TMC3    C7 4380   1.970   2.700  14.279 -0.3742  0.1451 -0.3724
  290TMC3    C8 4381   2.009   3.162  14.183  0.1014  0.4672 -0.2557
  290TMC3    O1 4382   1.850   2.718  14.310  0.4743  0.1958 -0.1458
  290TMC3    O2 4383   1.887   3.170  14.177 -1.0212  0.5582 -0.3863
  291MPD2     C 4384   2.114   2.512   0.438  0.5273 -0.0655  0.2431
  291MPD2    C1 4385   2.057   2.433   0.343 -0.1012  0.3096  0.1399
  291MPD2    C2 4386   2.104   2.454   0.218 -0.5061 -0.2799  0.1178
  291MPD2    C3 4387   2.188   2.558   0.186 -0.0445 -0.4382  0.3294
  291MPD2    C4 4388   2.224   2.646   0.281 -0.5363  0.2426 -0.1835
  291MPD2    C5 4389   2.190   2.621   0.408  0.0880 -0.5210  0.7242
  291MPD2     H 4390   2.067   2.387   0.142  0.6024  0.6633 -1.2591
  291MPD2    H1 4391   2.288   2.727   0.249 -0.6407  0.3293 -0.1723
  291MPD2    H2 4392   2.075   2.508   0.539 -0.4959 -1.5130 -0.2039
  291MPD2    H3 4393   2.226   2.682   0.490  0.1160 -1.9401  1.7699
  291MPD2     N 4394   2.224   2.592   0.055  0.4793 -0.6096 -0.2143
  291MPD2    H5 4395   2.292   2.667   0.047 -1.0756  0.7629 -0.5893
  291MPD2    N1 4396   1.962   2.331   0.371 -0.4384  0.3391  0.3305
  291MPD2    H7 4397   1.921   2.287   0.290  0.5644 -3.4596  1.8765
  292TMC3    C1 4398   1.833   2.187   0.501 -0.4692  0.1008 -0.3548
  292TMC3    C2 4399   1.746   2.190   0.606  0.8021 -0.2412  0.4966
  292TMC3    C3 4400   1.626   2.123   0.593 -0.0730  0.3503  0.2094
  292TMC3    C4 4401   1.801   2.115   0.387 -0.4798 -0.3973 -0.0353
  292TMC3    C5 4402   1.686   2.043   0.388  0.0201  0.3895  0.1619
  292TMC3    C6 4403   1.594   2.051   0.484  0.4253  0.0499 -0.0391
  292TMC3     C 4404   1.929   2.286   0.498  0.4919  0.5517  0.6964
  292TMC3     O 4405   1.967   2.325   0.606  0.1452  0.1938 -0.1978
  292TMC3     H 4406   1.773   2.246   0.694  2.3063 -1.3294  0.7331
  292TMC3    H1 4407   1.869   2.105   0.303  1.9096 -0.0916  1.8717
  292TMC3    H2 4408   1.498   2.001   0.482  0.5386 -0.2535  2.7608
  292TMC3    C7 4409   1.671   1.951   0.279 -0.2882  0.0539  0.1447
  292TMC3    C8 4410   1.525   2.152   0.698 -0.2616  0.2310 -0.1874
  292TMC3    O1 4411   1.763   1.929   0.205 -0.3436 -0.2613 -0.0984
  292TMC3    O2 4412   1.574   2.179   0.807 -0.2334 -0.3295  0.4966
  293MPD2     C 4413   4.053   4.470  12.400 -0.3919 -0.0023 -0.4700
  293MPD2    C1 4414   3.940   4.457  12.473 -0.6661 -1.2068  0.7511
  293MPD2    C2 4415   3.949   4.460  12.608  0.3476  0.4333 -0.0329
  293MPD2    C3 4416   4.075   4.451  12.666  0.4853 -0.5465  0.5778
  293MPD2    C4 4417   4.191   4.471  12.589  0.1216  0.0579  0.0945
  293MPD2    C5 4418   4.177   4.495  12.457  0.0606  0.2218  0.0943
  293MPD2     H 4419   3.862   4.444  12.672  0.2424  0.2344 -0.2225
  293MPD2    H1 4420   4.293   4.469  12.627  0.4947  0.3880 -0.8954
  293MPD2    H2 4421   4.038   4.476  12.293  1.0411  1.7732 -0.5656
  293MPD2    H3 4422   4.263   4.505  12.392  0.3151 -0.1178  0.3774
  293MPD2     N 4423   4.085   4.438  12.810 -0.0664 -0.0921 -0.2297
  293MPD2    H5 4424   3.995   4.427  12.856 -0.2431 -1.0344 -0.8099
  293MPD2    N1 4425   3.821   4.441  12.403  0.3279  0.2095  0.0734
  293MPD2    H7 4426   3.819   4.436  12.301 -2.2763  1.9280  0.0210
  294TMC3    C1 4427   3.593   4.400  12.356 -0.0895 -0.3712  0.2558
  294TMC3    C2 4428   3.487   4.319  12.373  0.2670 -0.1015  0.6151
  294TMC3    C3 4429   3.411   4.299  12.261  0.6774  0.1544  1.3699
  294TMC3    C4 4430   3.614   4.470  12.240  0.3516 -1.2149  0.1736
  294TMC3    C5 4431   3.523   4.450  12.141 -0.0125  0.2510 -0.0115
  294TMC3    C6 4432   3.415   4.368  12.146 -0.1154 -0.1818  0.3015
  294TMC3     C 4433   3.701   4.408  12.456  0.5981 -0.7286 -0.1267
  294TMC3     O 4434   3.662   4.385  12.572 -0.2926  0.5924  0.0074
  294TMC3     H 4435   3.479   4.255  12.460  0.6275  0.5451  1.1234
  294TMC3    H1 4436   3.680   4.556  12.242 -1.3578  0.0826  1.3853
  294TMC3    H2 4437   3.343   4.354  12.066 -0.0359 -2.4048  0.6315
  294TMC3    C7 4438   3.544   4.532  12.027  0.1808 -0.2325 -0.3286
  294TMC3    C8 4439   3.325   4.183  12.266  0.0758 -0.3906  0.3190
  294TMC3    O1 4440   3.444   4.552  11.966  0.1462  0.3426  0.4414
  294TMC3    O2 4441   3.288   4.132  12.372 -0.3243  0.1762  0.2262
  295MPD2     C 4442   3.664   3.007  17.643 -0.4992 -0.5980  0.2711
  295MPD2    C1 4443   3.727   3.108   0.016  0.1152  0.4786 -0.0188
  295MPD2    C2 4444   3.648   3.192   0.091  0.3418 -0.0768  0.0867
  295MPD2    C3 4445   3.508   3.181   0.098  0.3849  0.5117  0.2139
  295MPD2    C4 4446   3.451   3.077   0.028 -0.2220  0.4948  0.1506
  295MPD2    C5 4447   3.529   2.992  17.647 -0.3564 -0.0320 -0.3539
  295MPD2     H 4448   3.685   3.288   0.126 -0.1895  0.3982 -0.6444
  295MPD2    H1 4449   3.343   3.067   0.017 -0.5659  1.4418  2.7465
  295MPD2    H2 4450   3.720   2.951  17.570 -0.2552 -1.0311  0.7907
  295MPD2    H3 4451   3.476   2.920  17.584  0.2288  1.0660 -2.1030
  295MPD2     N 4452   3.431   3.278   0.156 -0.2657  0.0368 -0.2235
  295MPD2    H5 4453   3.331   3.265   0.145 -0.1918 -0.4003 -0.4096
  295MPD2    N1 4454   3.851   3.165  17.675  1.0168 -0.1175 -0.1561
  295MPD2    H7 4455   3.884   3.242   0.040  0.8872 -0.0432 -0.1811
  296TMC3    C1 4456   3.361   3.470   0.294  0.3039 -0.1709  0.8897
  296TMC3    C2 4457   3.399   3.589   0.360  0.0878 -0.4233 -0.3872
  296TMC3    C3 4458   3.312   3.655   0.440 -0.2201 -0.5100  1.2452
  296TMC3    C4 4459   3.228   3.438   0.300  0.7984  0.3177  0.8416
  296TMC3    C5 4460   3.140   3.506   0.379  0.0073 -0.2450 -0.3111
  296TMC3    C6 4461   3.178   3.615   0.447  0.6568  0.6692 -0.0706
  296TMC3     C 4462   3.467   3.383   0.237  0.1497  0.4760 -0.0439
  296TMC3     O 4463   3.580   3.406   0.274  0.2352 -0.2114 -0.1930
  296TMC3     H 4464   3.501   3.623   0.359 -0.2581  0.5814 -1.7780
  296TMC3    H1 4465   3.199   3.345   0.252  1.0842  1.1490 -0.9430
  296TMC3    H2 4466   3.103   3.659   0.512  1.4674  1.1330  0.5613
  296TMC3    C7 4467   3.031   3.419   0.436 -0.3356 -0.1371  0.1375
  296TMC3    C8 4468   3.344   3.782   0.508 -0.5463  0.5500 -0.0469
  296TMC3    O1 4469   2.994   3.332   0.358  0.1069 -0.0676 -0.0815
  296TMC3    O2 4470   3.253   3.860   0.530 -0.7134  0.3494 -0.6086
  297MPD2     C 4471   1.736   0.063  16.664 -0.3131 -0.6066  0.7675
  297MPD2    C1 4472   1.698   0.110  16.540 -0.5772  0.4309  0.1823
  297MPD2    C2 4473   1.779   0.191  16.464 -0.8697  0.7271 -0.3517
  297MPD2    C3 4474   1.908   0.227  16.517  0.0804  0.8250  0.4226
  297MPD2    C4 4475   1.949   0.182  16.640  0.0836  0.0097 -0.0084
  297MPD2    C5 4476   1.863   0.106  16.711  1.1782  0.4062  1.1348
  297MPD2     H 4477   1.750   0.233  16.368 -2.6458 -0.0596 -0.1546
  297MPD2    H1 4478   2.040   0.217  16.686 -0.0975 -2.3003  2.0787
  297MPD2    H2 4479   1.673   4.721  16.725  1.0326 -0.9204  1.8279
  297MPD2    H3 4480   1.893   0.073  16.810 -0.9121 -0.1178  1.5789
  297MPD2     N 4481   1.981   0.323  16.440  0.9103  0.3227 -0.4570
  297MPD2    H5 4482   1.937   0.349  16.352  0.5775 -1.4547 -0.8170
  297MPD2    N1 4483   1.586   0.067  16.475  0.1613  0.0025 -0.0986
  297MPD2    H7 4484   1.581   0.096  16.378  2.2240  1.5612  0.2718
  298TMC3    C1 4485   1.373   4.719  16.430 -0.4113 -0.3258  0.2469
  298TMC3    C2 4486   1.402   4.698  16.300  0.3008 -0.3529  0.9875
  298TMC3    C3 4487   1.304   4.702  16.208  0.7770 -0.1967  1.3196
  298TMC3    C4 4488   1.250   0.032  16.479 -0.4970  0.1022 -0.0757
  298TMC3    C5 4489   1.156   0.033  16.388 -0.9928 -0.3006  0.1308
  298TMC3    C6 4490   1.183   0.018  16.252  0.2204 -0.4171  0.8801
  298TMC3     C 4491   1.475   0.004  16.530  0.4543 -0.2660 -0.2100
  298TMC3     O 4492   1.450   4.682  16.641 -0.1596  0.0927 -0.5996
  298TMC3     H 4493   1.499   4.661  16.268 -0.7560 -0.9304 -1.5546
  298TMC3    H1 4494   1.234   0.063  16.581  0.0891 -1.7883  0.5995
  298TMC3    H2 4495   1.105   0.018  16.176 -0.4789 -0.3010  1.6033
  298TMC3    C7 4496   1.034   0.108  16.421 -0.3262  0.0141  0.8837
  298TMC3    C8 4497   1.338   4.679  16.064 -0.1555 -0.4317  0.2202
  298TMC3    O1 4498   1.027   0.137  16.541  0.1758 -0.3217  0.2035
  298TMC3    O2 4499   1.404   4.578  16.035 -0.2230 -0.1444  0.2166
  299MPD2     C 4500   2.443   4.535  10.369  0.3014 -0.3731  0.2316
  299MPD2    C1 4501   2.419   4.672  10.356 -0.4037 -0.7387  0.2499
  299MPD2    C2 4502   2.290   4.710  10.322  0.1660 -1.0553 -0.0418
  299MPD2    C3 4503   2.193   4.610  10.322 -0.1299  0.1271 -0.3833
  299MPD2    C4 4504   2.223   4.475  10.348  0.0996  0.4729  0.2016
  299MPD2    C5 4505   2.351   4.436  10.349 -0.4676 -0.2680  0.0176
  299MPD2     H 4506   2.279   0.096  10.322 -0.9467 -1.1626 -1.0672
  299MPD2    H1 4507   2.146   4.400  10.338  1.3917 -1.2007  2.8626
  299MPD2    H2 4508   2.546   4.504  10.381  0.9323  1.6235  0.0067
  299MPD2    H3 4509   2.377   4.331  10.358  0.6985 -0.0418 -0.7411
  299MPD2     N 4510   2.060   4.640  10.287 -0.2434 -0.8972  0.2644
  299MPD2    H5 4511   2.003   4.556  10.289  0.8891 -1.6792 -0.3046
  299MPD2    N1 4512   2.527   0.036  10.384 -0.0269 -0.3788  0.5025
  299MPD2    H7 4513   2.603   4.712  10.433  0.1416 -1.4195 -0.7383
  300TMC3    C1 4514   1.877   0.049  10.225 -0.0223 -0.3111 -0.1735
  300TMC3    C2 4515   1.830   0.178  10.205  0.4738 -0.1283 -1.0911
  300TMC3    C3 4516   1.693   0.194  10.175 -0.3906 -0.1849 -0.0359
  300TMC3    C4 4517   1.793   4.663  10.206  0.0105 -0.0239 -0.5226
  300TMC3    C5 4518   1.660   4.681  10.181  0.0144  0.5087 -0.8320
  300TMC3    C6 4519   1.613   0.087  10.150  0.7486 -1.1090 -0.2186
  300TMC3     C 4520   2.019   0.040  10.245 -0.6870  0.2830  0.0058
  300TMC3     O 4521   2.086   0.142  10.236 -0.3909 -0.2060 -0.4655
  300TMC3     H 4522   1.897   0.263  10.208 -0.0276  0.1167  3.7840
  300TMC3    H1 4523   1.825   4.560  10.220  0.9987  0.4717  0.8982
  300TMC3    H2 4524   1.507   0.106  10.136  1.1938  2.2716  1.1097
  300TMC3    C7 4525   1.575   4.579  10.217 -0.3819 -0.5211  0.3176
  300TMC3    C8 4526   1.648   0.324  10.120 -0.6154 -0.4269  0.3300
  300TMC3    O1 4527   1.615   4.463  10.205  0.4531  0.6822 -0.2014
  300TMC3    O2 4528   1.570   0.325  10.027 -0.3081  0.4171  0.0483
  301MPD2     C 4529   0.101   1.335   0.807  0.3490  0.4362  0.2781
  301MPD2    C1 4530   4.702   1.356   0.747  0.4779  1.0361  0.5703
  301MPD2    C2 4531   4.645   1.257   0.667 -0.4221  0.0526  0.2923
  301MPD2    C3 4532   4.712   1.143   0.637  0.1032 -0.1441 -0.3106
  301MPD2    C4 4533   0.122   1.127   0.678  0.2685  0.3139 -0.4966
  301MPD2    C5 4534   0.167   1.219   0.769 -0.9064  0.0295 -0.0340
  301MPD2     H 4535   4.547   1.273   0.624 -0.1733 -1.6889 -0.9441
  301MPD2    H1 4536   0.170   1.030   0.670  0.7988  0.6164 -1.0515
  301MPD2    H2 4537   0.136   1.398   0.889  0.7576  1.1211 -0.4140
  301MPD2    H3 4538   0.260   1.202   0.822 -1.6233  0.8584  1.4861
  301MPD2     N 4539   4.656   1.032   0.568  0.3012 -0.6861 -0.2904
  301MPD2    H5 4540   4.721   0.954   0.560  0.1727 -0.8456  0.2100
  301MPD2    N1 4541   4.615   1.468   0.760 -0.3209 -0.0603 -0.2105
  301MPD2    H7 4542   4.524   1.454   0.716 -2.2643  4.5270  2.3435
  302TMC3    C1 4543   4.495   0.894   0.447  0.5121  0.8917 -0.4322
  302TMC3    C2 4544   4.555   0.783   0.505  0.4044  0.0724  0.6068
  302TMC3    C3 4545   4.502   0.661   0.486 -0.8152  0.2133  0.4751
  302TMC3    C4 4546   4.365   0.884   0.409 -0.2446  0.5171 -0.2577
  302TMC3    C5 4547   4.306   0.757   0.408 -0.6961  0.1440  0.0481
  302TMC3    C6 4548   4.371   0.645   0.444 -0.1336 -0.2129 -0.1252
  302TMC3     C 4549   4.528   1.028   0.508  0.0496 -0.0805  0.3746
  302TMC3     O 4550   4.447   1.121   0.493  0.0242  0.9844  0.1044
  302TMC3     H 4551   4.657   0.783   0.542  0.6385 -1.3338 -0.0116
  302TMC3    H1 4552   4.302   0.962   0.367 -1.5754 -0.4728 -0.1178
  302TMC3    H2 4553   4.332   0.544   0.432  2.0050 -1.0821  0.2500
  302TMC3    C7 4554   4.191   0.730   0.323 -0.3965 -0.2326 -0.0985
  302TMC3    C8 4555   4.565   0.559   0.564 -0.5660  0.0112  0.3804
  302TMC3    O1 4556   4.199   0.641   0.242  0.4876 -0.0940 -0.2949
  302TMC3    O2 4557   4.684   0.545   0.561  0.0134 -0.0201  0.0691
  303MPD2     C 4558   4.536   0.125  10.140  0.0536  0.4420 -0.0292
  303MPD2    C1 4559   4.557   4.714  10.179  0.0049  0.1263  0.1453
  303MPD2    C2 4560   4.665   4.651  10.122 -0.2074  0.1187  0.5139
  303MPD2    C3 4561   0.031   4.707  10.033 -0.2813 -0.1289  0.3466
  303MPD2    C4 4562   4.721   0.117   9.993  0.2948 -0.0442  0.4737
  303MPD2    C5 4563   4.615   0.184  10.053  0.1217 -0.3382 -0.3669
  303MPD2     H 4564   4.691   4.550  10.151 -1.3487  0.2154  1.8984
  303MPD2    H1 4565   0.061   0.158   9.914 -0.5335  1.4438  0.5900
  303MPD2    H2 4566   4.448   0.179  10.171 -0.5664 -0.6705  0.1464
  303MPD2    H3 4567   4.588   0.282  10.016  0.2875 -0.6967 -1.4452
  303MPD2     N 4568   0.149   4.649   9.977  0.2997  0.3630  0.3046
  303MPD2    H5 4569   0.209   4.712   9.924  0.6741 -1.1172 -1.0338
  303MPD2    N1 4570   4.466   4.661  10.269  0.2095 -0.1725  0.0360
  303MPD2    H7 4571   4.403   0.002  10.316  0.4420  0.4272 -0.4709
  304TMC3    C1 4572   4.326   4.509  10.381 -0.0000 -0.6748 -0.5015
  304TMC3    C2 4573   4.231   4.547  10.296  0.4442  0.2130  0.0581
  304TMC3    C3 4574   4.114   4.472  10.293 -0.3839  0.5002 -0.1393
  304TMC3    C4 4575   4.325   4.390  10.451  0.1088  0.1112  0.2295
  304TMC3    C5 4576   4.222   4.304  10.438 -0.1071  0.1896  0.1598
  304TMC3    C6 4577   4.112   4.351  10.370  0.7594  0.8327 -0.4630
  304TMC3     C 4578   4.459   4.534  10.317 -0.7841  0.1716 -0.1876
  304TMC3     O 4579   4.523   4.438  10.286  0.1420 -0.1368  0.5583
  304TMC3     H 4580   4.238   4.634  10.232 -1.1268  1.0204  0.9767
  304TMC3    H1 4581   4.417   4.352  10.495  1.2594 -0.3370 -2.5619
  304TMC3    H2 4582   4.015   4.303  10.367  1.2699 -0.0926 -2.3233
  304TMC3    C7 4583   4.259   4.171  10.419  0.2355  0.1746  0.5310
  304TMC3    C8 4584   4.055   4.444  10.163  0.5584 -0.6872  0.1575
  304TMC3    O1 4585   4.359   4.133  10.475 -0.5334 -0.0729 -0.0925
  304TMC3    O2 4586   4.011   4.330  10.140 -0.1718  0.3126  0.5760
  305MPD2     C 4587   2.531   1.404  13.557 -0.3084 -0.2361 -0.3570
  305MPD2    C1 4588   2.522   1.272  13.598 -0.1861 -0.4664  0.4120
  305MPD2    C2 4589   2.480   1.174  13.509  0.7159 -0.3009 -0.6471
  305MPD2    C3 4590   2.471   1.201  13.373 -0.0016  0.1780  1.1256
  305MPD2    C4 4591   2.466   1.333  13.336 -0.0408  0.3135  0.2740
  305MPD2    C5 4592   2.492   1.434  13.432  0.5931 -0.3546 -0.2631
  305MPD2     H 4593   2.487   1.072  13.544  0.3042  0.7570  2.5689
  305MPD2    H1 4594   2.446   1.348  13.230 -0.3876  1.4560  0.4921
  305MPD2    H2 4595   2.561   1.479  13.630 -2.0399 -1.9173  2.1165
  305MPD2    H3 4596   2.505   1.538  13.405  2.6212 -0.3286  0.8056
  305MPD2     N 4597   2.466   1.097  13.279 -0.2194  0.1345  0.1282
  305MPD2    H5 4598   2.450   1.121  13.181  0.6902 -0.4419 -0.1587
  305MPD2    N1 4599   2.573   1.253  13.726  0.6034 -0.0481 -0.4476
  305MPD2    H7 4600   2.590   1.334  13.785 -0.7033  0.0572 -0.2261
  306TMC3    C1 4601   2.629   1.131  13.929 -0.1672  0.2444 -0.0954
  306TMC3    C2 4602   2.637   1.010  13.993 -0.4572  0.0709  0.1752
  306TMC3    C3 4603   2.689   1.011  14.120  1.0043  0.3748  0.7169
  306TMC3    C4 4604   2.654   1.243  13.992  0.9147  0.3910 -0.0049
  306TMC3    C5 4605   2.701   1.241  14.116 -0.4078  0.4082 -0.0791
  306TMC3    C6 4606   2.723   1.123  14.181  0.6409 -0.4990 -0.5235
  306TMC3     C 4607   2.572   1.131  13.792 -0.4867 -0.0568  0.7340
  306TMC3     O 4608   2.514   1.023  13.767  0.6659 -0.1430  0.0321
  306TMC3     H 4609   2.610   0.917  13.944 -1.9853  0.6967 -0.1668
  306TMC3    H1 4610   2.644   1.338  13.942 -0.8722 -0.8142 -1.9343
  306TMC3    H2 4611   2.765   1.111  14.280 -1.3317 -1.4109  0.2083
  306TMC3    C7 4612   2.655   1.344  14.207  0.8649  0.1548 -0.9864
  306TMC3    C8 4613   2.747   0.899  14.183  0.3982  1.0089  1.0312
  306TMC3    O1 4614   2.559   1.405  14.158 -0.2055 -0.2549 -0.3698
  306TMC3    O2 4615   2.861   0.909  14.225  0.3795 -1.0642  0.2937
  307MPD2     C 4616   0.502   3.648   0.887 -0.0485 -1.1339 -0.6785
  307MPD2    C1 4617   0.424   3.733   0.812  0.3412  0.5884 -0.1052
  307MPD2    C2 4618   0.285   3.735   0.845  0.2838 -0.2533 -0.7134
  307MPD2    C3 4619   0.232   3.649   0.941  0.0423  0.0480  0.2678
  307MPD2    C4 4620   0.317   3.557   1.006  0.6220  0.1294 -0.6712
  307MPD2    C5 4621   0.454   3.564   0.984 -0.1792 -0.1288 -0.4756
  307MPD2     H 4622   0.225   3.795   0.777  0.3879  0.2872 -0.3258
  307MPD2    H1 4623   0.269   3.485   1.072  1.7807  0.5405  0.6128
  307MPD2    H2 4624   0.610   3.650   0.876  0.2937  0.7722  3.1920
  307MPD2    H3 4625   0.529   3.506   1.036  0.5280 -1.2856 -2.7597
  307MPD2     N 4626   0.096   3.652   0.968 -0.2091 -0.4910  0.0109
  307MPD2    H5 4627   0.046   3.725   0.917  2.6621  1.0416 -0.6091
  307MPD2    N1 4628   0.468   3.822   0.716 -0.2299 -0.1905  0.4964
  307MPD2    H7 4629   0.404   3.891   0.679 -2.4069 -1.6783  1.5296
  308TMC3    C1 4630   4.437   3.739   0.936  0.4701  0.5858  0.6048
  308TMC3    C2 4631   4.418   3.837   1.035  0.0918  0.6608 -0.2701
  308TMC3    C3 4632   4.496   3.822   1.149 -0.6780 -0.1759 -0.3398
  308TMC3    C4 4633   4.536   3.642   0.942 -0.0936 -0.8013  0.1411
  308TMC3    C5 4634   4.606   3.631   1.061  0.1452 -0.1371 -0.5577
  308TMC3    C6 4635   4.593   3.723   1.160  0.0285 -0.4443  0.0457
  308TMC3     C 4636   4.325   3.718   0.844 -0.0504 -0.1006  0.3947
  308TMC3     O 4637   4.314   3.612   0.779 -0.3594  0.4980  0.2425
  308TMC3     H 4638   4.334   3.905   1.047 -0.4850 -0.0748 -0.1436
  308TMC3    H1 4639   4.529   3.557   0.875  2.6693 -1.0006  0.1008
  308TMC3    H2 4640   4.663   3.736   1.241  0.4047  0.7922 -0.4803
  308TMC3    C7 4641   0.021   3.577   1.058  0.1073 -0.6343  1.0943
  308TMC3    C8 4642   4.537   3.948   1.216  0.2111  0.2593  0.1844
  308TMC3    O1 4643   0.050   3.492   1.138  0.5356 -0.0838 -0.1974
  308TMC3    O2 4644   4.602   3.933   1.319 -0.4118 -0.3857  0.1622
  309MPD2     C 4645   4.327   4.566  17.190 -0.3080  0.0285 -0.3856
  309MPD2    C1 4646   4.281   4.660  17.105 -0.1021 -0.5625 -0.7109
  309MPD2    C2 4647   4.182   0.027  17.141  0.1069  0.0004 -0.7233
  309MPD2    C3 4648   4.124   0.026  17.264  0.2063 -0.1243 -0.0537
  309MPD2    C4 4649   4.165   4.646  17.347 -0.8763 -0.1987 -0.1989
  309MPD2    C5 4650   4.266   4.557  17.311 -0.3197  0.3101 -0.1828
  309MPD2     H 4651   4.149   0.097  17.066 -1.8280  1.0412  1.1093
  309MPD2    H1 4652   4.118   4.652  17.444 -0.9635 -0.4000 -0.2282
  309MPD2    H2 4653   4.401   4.495  17.156  0.7050  0.8545  0.0939
  309MPD2    H3 4654   4.299   4.481  17.382  0.6302  1.1040  0.2226
  309MPD2     N 4655   4.019   0.113  17.299  0.2756 -0.2910 -0.7995
  309MPD2    H5 4656   3.968   0.092  17.384  1.3577 -1.9547 -0.5604
  309MPD2    N1 4657   4.324   4.671  16.972 -0.4177 -0.6284 -0.1101
  309MPD2    H7 4658   4.267   0.014  16.920 -0.9072 -0.8798  0.1165
  310TMC3    C1 4659   4.463   4.690  16.789 -0.4483 -0.4570 -0.2126
  310TMC3    C2 4660   4.364   0.014  16.705  0.2348 -0.0821 -0.1152
  310TMC3    C3 4661   4.399   0.056  16.575  0.5784 -0.3319 -0.4800
  310TMC3    C4 4662   4.592   4.677  16.742  0.0570  1.0117 -0.4830
  310TMC3    C5 4663   4.618   4.716  16.613 -0.0365 -0.3528  0.1807
  310TMC3    C6 4664   4.526   0.052  16.529  0.2325  0.0145 -0.8092
  310TMC3     C 4665   4.431   4.615  16.908  0.5768  0.6174  0.5721
  310TMC3     O 4666   4.504   4.523  16.944 -1.0690 -0.0181  0.5151
  310TMC3     H 4667   4.260   4.714  16.726  0.1972 -0.1126 -0.3363
  310TMC3    H1 4668   4.659   4.633  16.815  1.0154  1.2314 -1.2439
  310TMC3    H2 4669   4.565   0.110  16.446  0.4021  0.2215 -0.5876
  310TMC3    C7 4670   0.016   4.667  16.559 -0.2014  0.1371  0.4306
  310TMC3    C8 4671   4.305   0.116  16.492  0.5850 -0.0088  0.5341
  310TMC3    O1 4672   0.085   4.600  16.637 -0.3288  0.9056  0.3804
  310TMC3    O2 4673   4.335   0.104  16.372 -0.4534  0.8450 -0.2277
  311MPD2     C 4674   1.670   1.492  12.431 -0.6998 -0.3542  0.0357
  311MPD2    C1 4675   1.705   1.521  12.564 -0.0794 -0.0743  0.6202
  311MPD2    C2 4676   1.606   1.575  12.646  0.0325 -0.7641  0.1318
  311MPD2    C3 4677   1.476   1.593  12.601  0.2883  0.1331  0.4431
  311MPD2    C4 4678   1.446   1.570  12.471 -0.2767  0.1229  0.8081
  311MPD2    C5 4679   1.541   1.515  12.387  0.0955  0.5707  0.1837
  311MPD2     H 4680   1.634   1.592  12.749 -1.6889 -1.7755  0.7766
  311MPD2    H1 4681   1.344   1.576  12.434 -0.1776 -1.1502  0.3113
  311MPD2    H2 4682   1.733   1.455  12.351 -0.9262 -0.8161  0.0646
  311MPD2    H3 4683   1.507   1.491  12.287  1.0697  1.3732 -0.3316
  311MPD2     N 4684   1.380   1.642  12.696 -0.2407 -0.1956  0.0366
  311MPD2    H5 4685   1.408   1.649  12.793 -2.7699  0.9665  0.6644
  311MPD2    N1 4686   1.843   1.502  12.620 -0.0118 -0.0416 -0.2817
  311MPD2    H7 4687   1.862   1.521  12.717 -1.1697 -0.9786  0.1242
  312TMC3    C1 4688   1.160   1.678  12.789 -0.0282 -0.0303 -0.5511
  312TMC3    C2 4689   1.033   1.635  12.764  0.0033  0.3442  0.7107
  312TMC3    C3 4690   0.965   1.576  12.865 -0.3964  0.7254 -0.4898
  312TMC3    C4 4691   1.219   1.675  12.910  0.0837 -0.6231 -0.2427
  312TMC3    C5 4692   1.153   1.614  13.011 -0.1193  0.3782  0.0128
  312TMC3    C6 4693   1.026   1.553  12.984  0.5217  1.1667  0.4176
  312TMC3     C 4694   1.247   1.672  12.672 -0.2908 -0.1123  0.3016
  312TMC3     O 4695   1.196   1.692  12.562 -0.4787  0.4347  0.1740
  312TMC3     H 4696   1.000   1.633  12.661 -0.5720 -0.0466  0.8996
  312TMC3    H1 4697   1.322   1.707  12.921  0.4604 -2.1229  0.6221
  312TMC3    H2 4698   0.968   1.516  13.067 -0.4360  0.6099 -0.4914
  312TMC3    C7 4699   1.218   1.578  13.136  0.0097  0.3484 -1.3144
  312TMC3    C8 4700   0.841   1.501  12.836 -0.5990  0.1651  1.0875
  312TMC3    O1 4701   1.151   1.509  13.210 -0.4321 -0.2244 -0.6499
  312TMC3    O2 4702   0.816   1.409  12.912  0.8285  0.2955  0.1301
  313MPD2     C 4703   0.874   0.795  11.075  0.2491 -0.1381 -0.1227
  313MPD2    C1 4704   0.991   0.862  11.046 -0.0467 -0.1282  0.3109
  313MPD2    C2 4705   1.067   0.812  10.943 -0.2982  0.0991 -0.2337
  313MPD2    C3 4706   1.027   0.707  10.864 -0.6452  0.1730 -0.0439
  313MPD2    C4 4707   0.915   0.641  10.899  0.1693 -0.4603  0.0525
  313MPD2    C5 4708   0.833   0.692  10.998 -0.4968 -0.6707 -0.0537
  313MPD2     H 4709   1.163   0.857  10.919 -0.7157  1.0667 -0.0911
  313MPD2    H1 4710   0.872   0.567  10.833  1.4727 -1.9275  0.8578
  313MPD2    H2 4711   0.811   0.824  11.158 -0.0887 -1.8178  0.2025
  313MPD2    H3 4712   0.740   0.645  11.025  0.1764 -0.9947  1.6837
  313MPD2     N 4713   1.121   0.673  10.765  0.2620  0.1893  0.0357
  313MPD2    H5 4714   1.195   0.740  10.749 -0.4067  0.4678 -1.8964
  313MPD2    N1 4715   1.034   0.979  11.108 -0.0048  0.6739  0.6147
  313MPD2    H7 4716   1.122   1.015  11.073  0.1338  0.4948  0.7849
  314TMC3    C1 4717   1.009   1.176  11.217 -0.5833 -0.1077 -0.2205
  314TMC3    C2 4718   1.147   1.175  11.217  0.3353 -0.8017  0.0837
  314TMC3    C3 4719   1.210   1.290  11.180 -0.6277 -0.4559  1.0594
  314TMC3    C4 4720   0.943   1.276  11.159 -0.3627  0.7022 -0.0569
  314TMC3    C5 4721   1.012   1.374  11.083 -0.4245  0.4655  0.7001
  314TMC3    C6 4722   1.148   1.383  11.097  0.2587  0.3540  0.6274
  314TMC3     C 4723   0.953   1.052  11.191  0.2767 -0.4623  0.9711
  314TMC3     O 4724   0.836   1.041  11.229  0.2903  0.6689  0.8104
  314TMC3     H 4725   1.196   1.092  11.267  0.0476 -0.3285  1.1664
  314TMC3    H1 4726   0.836   1.255  11.152 -0.5478  1.2748  1.0133
  314TMC3    H2 4727   1.205   1.471  11.068 -0.4589  0.4512 -0.4945
  314TMC3    C7 4728   0.943   1.405  10.962 -0.0767  0.3330 -0.3583
  314TMC3    C8 4729   1.354   1.299  11.201 -0.4940  0.1870 -0.8218
  314TMC3    O1 4730   0.821   1.398  10.969 -0.1171 -0.2307 -0.4537
  314TMC3    O2 4731   1.415   1.361  11.116  0.2364 -0.3308 -0.1762
  315MPD2     C 4732   0.670   4.577   0.107 -0.1870  0.0877  0.4163
  315MPD2    C1 4733   0.800   4.534   0.091  0.4145 -0.1840  0.2248
  315MPD2    C2 4734   0.895   4.621   0.038  0.0321 -0.0037 -0.0636
  315MPD2    C3 4735   0.859   0.025   0.004 -0.7546  0.6698 -0.2226
  315MPD2    C4 4736   0.732   0.064   0.016 -0.1227 -0.2216  0.5555
  315MPD2    C5 4737   0.637   4.702   0.065  0.0435 -0.4360  0.5798
  315MPD2     H 4738   0.997   4.587   0.027  0.4455  1.2271  0.0545
  315MPD2    H1 4739   0.706   0.165  17.679  2.7780  0.1594 -0.7189
  315MPD2    H2 4740   0.602   4.504   0.150  1.1471 -1.3273  0.1203
  315MPD2    H3 4741   0.533   0.008   0.073 -0.2651 -2.1344  2.6321
  315MPD2     N 4742   0.962   0.110  17.654 -0.0848 -0.1459 -0.2351
  315MPD2    H5 4743   1.055   0.072  17.661  0.6192  1.3959 -1.2835
  315MPD2    N1 4744   0.863   4.415   0.137  1.0301 -0.0564  0.4318
  315MPD2    H7 4745   0.964   4.411   0.131  0.8993 -2.7155 -0.2810
  316TMC3    C1 4746   1.067   0.318  17.589 -0.2670 -0.2683 -0.1229
  316TMC3    C2 4747   1.157   0.302   0.001  0.3832 -0.3405 -0.6255
  316TMC3    C3 4748   1.255   0.398   0.007 -0.8891 -0.3526 -0.0455
  316TMC3    C4 4749   1.052   0.430  17.519  0.0978  0.5182 -0.4435
  316TMC3    C5 4750   1.132   0.535  17.547 -0.1810  0.4899  0.3149
  316TMC3    C6 4751   1.242   0.516  17.635  0.0890 -0.5078 -0.5841
  316TMC3     C 4752   0.942   0.239  17.598  0.5039  0.4546  0.9526
  316TMC3     O 4753   0.839   0.292  17.561 -0.2131 -0.0441 -0.4740
  316TMC3     H 4754   1.163   0.207   0.053 -1.3759 -0.3097 -0.3869
  316TMC3    H1 4755   0.962   0.449  17.462  1.0592  1.0400 -1.7682
  316TMC3    H2 4756   1.308   0.599  17.659 -2.0036  1.3446 -1.1673
  316TMC3    C7 4757   1.125   0.657  17.472  0.2523 -0.5821 -1.1938
  316TMC3    C8 4758   1.327   0.413   0.130  0.3478 -0.6661  0.0855
  316TMC3    O1 4759   1.162   0.750  17.539 -0.8602  0.1380 -0.3377
  316TMC3    O2 4760   1.360   0.525   0.161  0.8096  0.1227 -0.0809
  317MPD2     C 4761   3.136   3.174  12.399  1.2083  1.1161 -0.0326
  317MPD2    C1 4762   3.060   3.075  12.459 -0.5257  0.6936  0.0430
  317MPD2    C2 4763   3.123   3.011  12.569 -0.2187 -0.8553 -0.1514
  317MPD2    C3 4764   3.242   3.070  12.624 -0.5801  0.3620 -0.0846
  317MPD2    C4 4765   3.306   3.175  12.564  0.0480  0.0005 -0.0258
  317MPD2    C5 4766   3.248   3.227  12.448  0.2022  0.5890 -0.3118
  317MPD2     H 4767   3.077   2.933  12.628 -0.0807 -0.8672 -0.0598
  317MPD2    H1 4768   3.397   3.227  12.592 -1.3184  1.1003  2.3288
  317MPD2    H2 4769   3.086   3.227  12.318 -1.4687 -2.4612 -0.7217
  317MPD2    H3 4770   3.288   3.319  12.406 -2.5961  2.5658  1.3423
  317MPD2     N 4771   3.306   3.015  12.738  0.3100  0.2143  0.0915
  317MPD2    H5 4772   3.262   2.937  12.786 -0.0058  0.6893  0.5616
  317MPD2    N1 4773   2.928   3.044  12.425 -0.6725  0.1551 -0.4452
  317MPD2    H7 4774   2.873   2.983  12.485  0.1057 -0.0147  0.0872
  318TMC3    C1 4775   3.464   2.955  12.906  0.4722  0.2513  0.3077
  318TMC3    C2 4776   3.364   2.892  12.978 -0.9537  0.4042  0.8584
  318TMC3    C3 4777   3.403   2.816  13.086 -0.3001 -0.4701 -0.1402
  318TMC3    C4 4778   3.595   2.936  12.919 -0.0984  0.2185  0.4998
  318TMC3    C5 4779   3.630   2.860  13.025 -0.1174  0.2204 -0.1382
  318TMC3    C6 4780   3.535   2.795  13.110  0.5332  0.3295 -0.1506
  318TMC3     C 4781   3.425   3.044  12.795  0.3395 -0.9576  0.1375
  318TMC3     O 4782   3.524   3.095  12.737 -0.4509 -0.5061  0.2512
  318TMC3     H 4783   3.264   2.932  12.967 -0.6678  0.4882 -1.5218
  318TMC3    H1 4784   3.674   2.979  12.859 -1.1707 -0.3876 -1.3558
  318TMC3    H2 4785   3.570   2.758  13.206  0.6592  0.3165 -0.2006
  318TMC3    C7 4786   3.772   2.844  13.049 -0.1210  0.6774  0.8032
  318TMC3    C8 4787   3.309   2.731  13.162 -1.3087  0.5473 -0.2318
  318TMC3    O1 4788   3.837   2.946  13.033  0.0584  0.4413 -0.1720
  318TMC3    O2 4789   3.345   2.700  13.273  0.1614 -0.5016  0.2499
  319MPD2     C 4790   4.115   4.219  16.008  0.6257  0.6250 -0.0241
  319MPD2    C1 4791   3.999   4.201  16.072 -0.0469 -0.8352 -0.3031
  319MPD2    C2 4792   3.909   4.104  16.026  0.3345 -0.7008 -0.2254
  319MPD2    C3 4793   3.927   4.041  15.901  0.7925  0.6930  0.1073
  319MPD2    C4 4794   4.044   4.077  15.833  0.3737  0.6657 -0.2889
  319MPD2    C5 4795   4.131   4.163  15.883 -0.2268 -0.2057 -0.0246
  319MPD2     H 4796   3.820   4.087  16.086  0.5483  1.2560  0.6371
  319MPD2    H1 4797   4.063   4.044  15.731 -2.3121 -1.1073 -0.1982
  319MPD2    H2 4798   4.193   4.285  16.043 -1.2978  3.1964 -0.6213
  319MPD2    H3 4799   4.220   4.187  15.826  0.6655  0.8804  1.8057
  319MPD2     N 4800   3.828   3.962  15.841 -0.4879  0.9921  0.1938
  319MPD2    H5 4801   3.834   3.937  15.742  1.3230  1.3537  0.2236
  319MPD2    N1 4802   3.955   4.268  16.188 -0.4350  0.6507 -0.6337
  319MPD2    H7 4803   3.869   4.234  16.231  1.3491  0.0812  2.4579
  320TMC3    C1 4804   3.604   3.885  15.839 -0.2177 -0.2928  0.1488
  320TMC3    C2 4805   3.560   3.970  15.744 -0.4492 -0.0434  0.3757
  320TMC3    C3 4806   3.446   3.939  15.675 -0.0637 -0.3986 -0.0637
  320TMC3    C4 4807   3.531   3.774  15.876  0.0961  0.3959  0.4572
  320TMC3    C5 4808   3.420   3.742  15.809  0.2298  0.5699 -0.8614
  320TMC3    C6 4809   3.379   3.822  15.703  0.2736 -0.4258  0.1812
  320TMC3     C 4810   3.724   3.911  15.915 -0.6243  0.4041 -0.4517
  320TMC3     O 4811   3.721   3.886  16.032  0.1536 -0.0529 -0.0772
  320TMC3     H 4812   3.617   4.062  15.733  1.4061 -1.3725 -1.2803
  320TMC3    H1 4813   3.568   3.712  15.957  0.3609  0.4529  0.3818
  320TMC3    H2 4814   3.275   3.816  15.672 -0.0938 -1.4431  1.6184
  320TMC3    C7 4815   3.342   3.625  15.847  0.4548 -0.4688 -0.2456
  320TMC3    C8 4816   3.377   4.056  15.639  0.2484  0.7404 -0.7737
  320TMC3    O1 4817   3.289   3.552  15.764  0.0848  0.2724  0.4282
  320TMC3    O2 4818   3.440   4.161  15.658  0.1761  0.4494 -0.1430
  321TMC3    C1 4819   3.955   4.410  16.380 -0.2451  0.0002  0.2039
  321TMC3    C2 4820   3.838   4.344  16.407  0.0414 -0.2081  0.1072
  321TMC3    C3 4821   3.739   4.416  16.470 -0.4820  0.3030  1.3882
  321TMC3    C4 4822   3.976   4.539  16.417 -0.1866 -0.0341  0.4423
  321TMC3    C5 4823   3.881   4.609  16.485 -0.1321  0.9706 -0.0858
  321TMC3    C6 4824   3.751   4.553  16.484 -0.3172  0.5669 -0.4617
  321TMC3     C 4825   4.023   4.364  16.263 -0.2632 -0.2537  0.4021
  321TMC3     O 4826   4.135   4.414  16.238  0.4164  0.5864 -0.7055
  321TMC3     H 4827   3.823   4.237  16.404  0.6730 -0.3518  1.9481
  321TMC3    H1 4828   4.068   4.593  16.400 -2.1936  3.6716  1.4088
  321TMC3    H2 4829   3.667   4.599  16.535 -0.2363  0.0529  0.1470
  321TMC3    C7 4830   3.924   4.659  16.614  0.1830  0.1069  0.1936
  321TMC3    C8 4831   3.654   4.357  16.573  0.1953  0.1787 -0.2667
  321TMC3    O1 4832   4.036   4.631  16.655 -0.2111 -0.6820  0.2317
  321TMC3    O2 4833   3.625   4.426  16.672  0.5306  0.0032 -0.0764
  322MPD2     C 4834   2.629   0.492  13.143  0.0572  0.6563 -0.1378
  322MPD2    C1 4835   2.588   0.419  13.249 -0.1466 -0.2260 -0.2518
  322MPD2    C2 4836   2.563   0.281  13.236  0.4113  0.6488  0.0657
  322MPD2    C3 4837   2.604   0.218  13.119 -0.1940 -0.1358  0.4362
  322MPD2    C4 4838   2.652   0.290  13.016 -0.8332 -1.0678 -0.8927
  322MPD2    C5 4839   2.651   0.425  13.029 -0.2318  0.8969  0.6827
  322MPD2     H 4840   2.517   0.224  13.316 -0.7007 -0.9419 -1.6856
  322MPD2    H1 4841   2.680   0.253  12.918 -0.4208 -0.7742 -0.8833
  322MPD2    H2 4842   2.657   0.596  13.151  3.1216 -0.0219 -1.8479
  322MPD2    H3 4843   2.695   0.481  12.948 -0.5987 -1.6266 -1.2435
  322MPD2     N 4844   2.598   0.080  13.121  0.4054 -0.1228  0.5759
  322MPD2    H5 4845   2.561   0.035  13.204 -1.9401  2.0650  0.7054
  322MPD2    N1 4846   2.591   0.492  13.372  0.0378  0.5507 -0.1220
  322MPD2    H7 4847   2.638   0.581  13.355 -0.9599  1.1276  0.1253
  323TMC3    C1 4848   2.590   0.521  13.613 -0.5073 -0.2153  0.2058
  323TMC3    C2 4849   2.638   0.648  13.602  0.0724 -0.2718 -0.3235
  323TMC3    C3 4850   2.673   0.702  13.721  0.6379  0.3406  0.1496
  323TMC3    C4 4851   2.600   0.445  13.729 -0.8057 -0.0222  0.3858
  323TMC3    C5 4852   2.645   0.506  13.841 -0.2701 -0.4334 -0.5906
  323TMC3    C6 4853   2.668   0.640  13.840 -0.1530  0.0524  0.5150
  323TMC3     C 4854   2.553   0.439  13.499 -0.1156  0.5880 -0.3953
  323TMC3     O 4855   2.521   0.324  13.518  0.3042 -0.0930  0.0263
  323TMC3     H 4856   2.660   0.690  13.505 -0.4129 -1.5062 -0.9764
  323TMC3    H1 4857   2.584   0.338  13.731  0.4474 -0.1870  1.3308
  323TMC3    H2 4858   2.691   0.688  13.934  1.3488 -0.2100  0.2767
  323TMC3    C7 4859   2.761   0.435  13.893  0.4701  0.1098  0.6663
  323TMC3    C8 4860   2.778   0.805  13.714  0.2115  0.0792 -0.5372
  323TMC3    O1 4861   2.744   0.311  13.889  0.5748 -0.2824  0.2394
  323TMC3    O2 4862   2.852   0.798  13.812  0.0366 -0.3905  0.3942
  324MPD2     C 4863   3.687   1.503  14.737 -0.1983  0.0966  0.0236
  324MPD2    C1 4864   3.686   1.633  14.683  0.3622 -0.4349 -0.0837
  324MPD2    C2 4865   3.577   1.675  14.607  0.3592 -0.2931 -0.0654
  324MPD2    C3 4866   3.475   1.578  14.597 -0.5319 -0.2722  1.0147
  324MPD2    C4 4867   3.480   1.449  14.649  0.1935 -0.0357  0.3828
  324MPD2    C5 4868   3.584   1.407  14.723 -0.2187  0.3933 -0.2751
  324MPD2     H 4869   3.564   1.774  14.566  0.4489  0.4095  1.6251
  324MPD2    H1 4870   3.407   1.371  14.635  0.1408  0.3313 -1.3610
  324MPD2    H2 4871   3.766   1.468  14.803 -0.5499  0.0236  0.4093
  324MPD2    H3 4872   3.590   1.308  14.765  1.6491  1.3696  1.7180
  324MPD2     N 4873   3.361   1.611  14.519 -0.1960  0.1907 -0.2653
  324MPD2    H5 4874   3.292   1.538  14.527  2.4486 -2.4494 -1.6466
  324MPD2    N1 4875   3.790   1.724  14.708  0.8568 -0.3700  0.2585
  324MPD2    H7 4876   3.793   1.813  14.659 -0.1201  0.3417  1.5027
  325TMC3    C1 4877   3.212   1.748  14.382  0.0108  0.3476  0.0272
  325TMC3    C2 4878   3.137   1.645  14.325 -0.0994 -0.0912  0.0829
  325TMC3    C3 4879   3.022   1.688  14.251 -0.3639 -0.8980 -0.0634
  325TMC3    C4 4880   3.189   1.880  14.356  0.2039  0.6519 -0.5438
  325TMC3    C5 4881   3.082   1.915  14.273 -0.7800  0.6195 -0.0449
  325TMC3    C6 4882   2.997   1.818  14.226 -0.5321  0.2689  0.1992
  325TMC3     C 4883   3.348   1.723  14.431  0.3741 -0.0368 -0.0877
  325TMC3     O 4884   3.438   1.793  14.384  0.6421 -0.1320  0.2691
  325TMC3     H 4885   3.148   1.540  14.349 -2.8384  0.0519  1.9327
  325TMC3    H1 4886   3.269   1.945  14.389  2.0952 -1.8772 -0.0799
  325TMC3    H2 4887   2.912   1.849  14.166 -1.6953 -0.7657  1.2964
  325TMC3    C7 4888   3.028   2.050  14.269 -0.0175 -0.3184 -0.4106
  325TMC3    C8 4889   2.945   1.586  14.172  0.0028 -0.8261 -0.2072
  325TMC3    O1 4890   2.916   2.069  14.221  0.2972  0.0227  0.6658
  325TMC3    O2 4891   3.004   1.490  14.129 -0.3070 -0.1385 -0.2077
  326MPD2     C 4892   0.558   3.044  11.245  0.4014 -0.4299  0.0449
  326MPD2    C1 4893   0.594   3.029  11.115 -0.2773 -0.2521  0.2113
  326MPD2    C2 4894   0.723   3.061  11.075  0.3491  0.0617 -0.4050
  326MPD2    C3 4895   0.815   3.106  11.168  1.3299 -0.0916  0.2821
  326MPD2    C4 4896   0.771   3.125  11.295 -0.0830 -0.0692 -0.0598
  326MPD2    C5 4897   0.641   3.101  11.335 -0.6937  0.6144  0.1401
  326MPD2     H 4898   0.756   3.054  10.973 -0.8750  2.9120 -1.0060
  326MPD2    H1 4899   0.840   3.172  11.365 -0.8762  0.5619  0.2921
  326MPD2    H2 4900   0.460   3.017  11.283  1.0251 -2.3505  0.2671
  326MPD2    H3 4901   0.612   3.115  11.439  0.9997 -1.3314  0.8687
  326MPD2     N 4902   0.942   3.149  11.126  0.2064  0.2245  0.0067
  326MPD2    H5 4903   1.000   3.207  11.186  0.1742  1.0413 -0.7582
  326MPD2    N1 4904   0.509   2.983  11.008 -0.8421  0.4688 -0.1881
  326MPD2    H7 4905   0.564   2.961  10.925 -0.9996 -0.9676  0.0868
  327TMC3    C1 4906   0.342   2.870  10.894  0.0645  0.6396  0.2444
  327TMC3    C2 4907   0.246   2.924  10.819 -0.0616 -0.5840 -0.1211
  327TMC3    C3 4908   0.233   2.882  10.687 -0.6811 -0.2757  0.1988
  327TMC3    C4 4909   0.438   2.792  10.836  0.0738  1.0352 -0.5154
  327TMC3    C5 4910   0.443   2.778  10.702 -0.4421 -0.0124 -0.0300
  327TMC3    C6 4911   0.334   2.823  10.627  0.0703  0.2156 -0.1474
  327TMC3     C 4912   0.378   2.936  11.024  0.0335  0.4783  0.4557
  327TMC3     O 4913   0.280   2.975  11.089 -0.4212  0.0621 -0.2423
  327TMC3     H 4914   0.166   2.976  10.871  0.5006  0.0811  0.0804
  327TMC3    H1 4915   0.523   2.770  10.899  0.2594  0.3649 -1.0044
  327TMC3    H2 4916   0.328   2.823  10.518  0.4956 -1.2080 -0.1691
  327TMC3    C7 4917   0.552   2.718  10.633  0.1077  0.0748 -0.4211
  327TMC3    C8 4918   0.159   2.987  10.608  0.2398  0.3372  0.0476
  327TMC3    O1 4919   0.571   2.751  10.514  0.5133  0.1483 -0.4646
  327TMC3    O2 4920   0.219   3.033  10.507  0.4123  0.8498 -0.2457
  328MPD2     C 4921   3.011   2.365  17.180 -0.2758 -0.2692 -0.0522
  328MPD2    C1 4922   2.994   2.364  17.042 -0.7320  0.4121 -0.5097
  328MPD2    C2 4923   2.965   2.483  16.981 -1.1363  0.1022  0.5620
  328MPD2    C3 4924   2.972   2.605  17.046  0.5889 -0.4923  0.1397
  328MPD2    C4 4925   2.988   2.606  17.183  0.9433 -0.7353 -0.3001
  328MPD2    C5 4926   3.010   2.482  17.244  0.8854  0.1520 -0.1187
  328MPD2     H 4927   2.923   2.482  16.880  1.1261 -0.4909 -0.3755
  328MPD2    H1 4928   2.995   2.700  17.236 -2.0920 -0.4337 -0.4578
  328MPD2    H2 4929   3.017   2.276  17.242  1.3126 -1.2103 -1.5685
  328MPD2    H3 4930   3.022   2.488  17.352 -2.8374 -1.0618  0.3667
  328MPD2     N 4931   2.950   2.732  16.985 -0.7902 -0.3144 -0.9241
  328MPD2    H5 4932   2.956   2.811  17.048 -0.2689 -0.9802 -0.1491
  328MPD2    N1 4933   2.987   2.236  16.978 -0.0031 -0.3201  0.5366
  328MPD2    H7 4934   2.966   2.152  17.030 -3.0462 -0.3830 -0.8214
  329TMC3    C1 4935   2.903   2.134  16.784 -0.2239  0.0357 -0.0769
  329TMC3    C2 4936   2.768   2.154  16.803  0.0896 -0.0520  0.5581
  329TMC3    C3 4937   2.680   2.103  16.709 -0.5878  0.2228  0.9846
  329TMC3    C4 4938   2.946   2.077  16.666 -0.4868 -0.0111  0.2110
  329TMC3    C5 4939   2.852   2.027  16.582  0.5751 -0.4700  0.8421
  329TMC3    C6 4940   2.723   2.039  16.596 -0.2184 -0.1453  0.5264
  329TMC3     C 4941   2.997   2.228  16.839  0.5703  0.0879  0.0472
  329TMC3     O 4942   3.055   2.305  16.758  0.4163 -0.3959  0.1240
  329TMC3     H 4943   2.748   2.226  16.881 -1.7062 -0.5497  0.5468
  329TMC3    H1 4944   3.051   2.049  16.657 -0.5589 -0.4656  0.8118
  329TMC3    H2 4945   2.648   2.015  16.521  0.4631 -0.6951  0.0303
  329TMC3    C7 4946   2.901   1.984  16.452  0.1769  0.2775  0.4212
  329TMC3    C8 4947   2.543   2.160  16.710 -0.0093 -0.5094  0.6699
  329TMC3    O1 4948   3.015   2.020  16.421 -0.4613 -0.1814 -0.9137
  329TMC3    O2 4949   2.484   2.162  16.602  0.2103 -0.3451 -0.2119
  330TMC3    C1 4950   1.271   2.816   9.719  0.2644  0.5948  0.4606
  330TMC3    C2 4951   1.204   2.757   9.621 -1.1933 -0.4599 -1.3948
  330TMC3    C3 4952   1.214   2.620   9.622 -0.0484 -0.9403  0.0610
  330TMC3    C4 4953   1.347   2.752   9.814 -0.2646 -0.0365  0.8451
  330TMC3    C5 4954   1.352   2.617   9.807 -0.0739 -0.2199  0.4007
  330TMC3    C6 4955   1.283   2.547   9.714 -0.7194  0.0808  0.3185
  330TMC3     C 4956   1.272   2.962   9.721  0.2474 -0.0842  0.2947
  330TMC3     O 4957   1.331   3.014   9.811  0.1243  0.2789  0.0748
  330TMC3     H 4958   1.133   2.797   9.550 -1.6043 -0.4172 -0.9630
  330TMC3    H1 4959   1.391   2.813   9.892  0.5953  1.0991 -0.5372
  330TMC3    H2 4960   1.295   2.440   9.698 -2.2575 -0.0478 -0.0006
  330TMC3    C7 4961   1.437   2.546   9.899  0.3937  0.2671 -0.3690
  330TMC3    C8 4962   1.163   2.552   9.501 -0.5241  0.0527  0.6039
  330TMC3    O1 4963   1.518   2.618   9.953  0.2271  0.0441  0.2100
  330TMC3    O2 4964   1.134   2.616   9.399  0.0019 -0.0214  0.0304
  331MPD2     C 4965   3.554   1.007  12.593  0.0497  0.5513  0.0928
  331MPD2    C1 4966   3.676   1.041  12.547  0.3406 -0.1027 -0.2074
  331MPD2    C2 4967   3.771   0.943  12.520  0.6047 -0.4923 -0.0648
  331MPD2    C3 4968   3.745   0.813  12.547  0.1396  0.1896  0.1082
  331MPD2    C4 4969   3.626   0.779  12.598 -0.3924  0.1770  0.2001
  331MPD2    C5 4970   3.533   0.876  12.623  0.7740 -0.5986 -0.4398
  331MPD2     H 4971   3.868   0.966  12.476  1.8643 -3.6887  1.0296
  331MPD2    H1 4972   3.599   0.675  12.619 -2.0014  0.7045  0.8178
  331MPD2    H2 4973   3.480   1.083  12.613 -1.1107 -0.5089 -0.1552
  331MPD2    H3 4974   3.442   0.844  12.673  0.7087  1.9155  1.0596
  331MPD2     N 4975   3.850   0.723  12.520  0.1307 -0.0039  0.5748
  331MPD2    H5 4976   3.939   0.753  12.482  0.0706 -2.4142 -1.3885
  331MPD2    N1 4977   3.724   1.175  12.530  0.0040 -0.3349  0.3987
  331MPD2    H7 4978   3.822   1.183  12.507  0.1184  0.8595  1.3350
  332TMC3    C1 4979   3.973   0.536  12.548  0.4284  0.8740  0.2319
  332TMC3    C2 4980   4.042   0.554  12.432 -0.3838  0.6230  0.1893
  332TMC3    C3 4981   4.178   0.519  12.432 -0.1420 -0.6521  0.2104
  332TMC3    C4 4982   4.030   0.479  12.658  0.2017 -0.2953  0.7070
  332TMC3    C5 4983   4.162   0.460  12.655 -0.1524 -0.9666 -0.1902
  332TMC3    C6 4984   4.235   0.479  12.547 -0.7410 -0.0713 -0.0975
  332TMC3     C 4985   3.847   0.599  12.585  0.6146 -0.1011 -0.7722
  332TMC3     O 4986   3.774   0.554  12.678  0.2289 -0.5902 -0.2751
  332TMC3     H 4987   4.002   0.617  12.353  0.4930 -1.2664 -1.7605
  332TMC3    H1 4988   3.971   0.456  12.747  1.5155 -0.9822  1.4040
  332TMC3    H2 4989   4.342   0.457  12.546 -0.9043 -0.7797 -1.7134
  332TMC3    C7 4990   4.229   0.446  12.784  0.0344 -0.7085 -0.2526
  332TMC3    C8 4991   4.263   0.605  12.350  0.4333  0.9470 -1.0452
  332TMC3    O1 4992   4.202   0.357  12.863  0.4580  0.0433  0.2225
  332TMC3    O2 4993   4.361   0.655  12.401 -0.9866  0.4883  0.3484
  333MPD2     C 4994   4.676   1.349  11.533 -0.1508  0.2608 -0.4636
  333MPD2    C1 4995   4.648   1.327  11.398  0.5083 -0.7934 -0.0312
  333MPD2    C2 4996   4.556   1.224  11.364  0.0498 -1.1292  0.4054
  333MPD2    C3 4997   4.503   1.152  11.469 -0.1714  0.4663 -0.6559
  333MPD2    C4 4998   4.550   1.165  11.598  0.8000 -0.1714 -0.2759
  333MPD2    C5 4999   4.640   1.264  11.633 -0.9415 -0.1877  0.2919
  333MPD2     H 5000   4.532   1.201  11.262  1.4118  0.2887 -0.2405
  333MPD2    H1 5001   4.526   1.087  11.670  3.3321 -1.3475 -0.7302
  333MPD2    H2 5002   0.028   1.421  11.565 -0.1079  0.9268 -2.0990
  333MPD2    H3 5003   4.680   1.283  11.733  4.4365 -2.4622 -1.4001
  333MPD2     N 5004   4.403   1.046  11.445  0.2407  0.8789  0.1921
  333MPD2    H5 5005   4.384   1.014  11.351  2.7358  0.1404 -0.0742
  333MPD2    N1 5006   4.703   1.419  11.311  0.0564 -0.3529 -0.2106
  333MPD2    H7 5007   0.063   1.470  11.341  0.2959 -0.2892 -0.9830
  334TMC3    C1 5008   0.041   1.503  11.099  0.5827  0.5834  0.6152
  334TMC3    C2 5009   0.160   1.525  11.159  0.2762  0.4843  0.6046
  334TMC3    C3 5010   0.242   1.618  11.102 -0.1641  0.0456  0.5912
  334TMC3    C4 5011   0.014   1.549  10.975 -0.0223  0.6848  0.0704
  334TMC3    C5 5012   0.096   1.633  10.916  0.5242  0.1095 -0.0127
  334TMC3    C6 5013   0.216   1.676  10.980 -0.9592  0.0290  0.0277
  334TMC3     C 5014   4.658   1.435  11.178  0.3609  0.1754 -0.6362
  334TMC3     O 5015   4.566   1.388  11.115 -0.5953 -0.0267  0.5410
  334TMC3     H 5016   0.198   1.476  11.248 -0.5972 -2.9007 -0.8664
  334TMC3    H1 5017   4.638   1.539  10.932 -0.4273 -0.1080  1.1871
  334TMC3    H2 5018   0.275   1.758  10.943 -1.1539 -0.4941 -1.4575
  334TMC3    C7 5019   0.061   1.718  10.799  0.1816  0.3527  0.9087
  334TMC3    C8 5020   0.366   1.651  11.168  0.5855 -0.5765 -0.0130
  334TMC3    O1 5021   0.160   1.745  10.728 -0.0240  0.6492 -1.1106
  334TMC3    O2 5022   0.368   1.641  11.291 -0.2724  0.0197  0.1890
  335TMC3    C1 5023   3.964   3.214  17.105  0.3695  0.3367 -0.2608
  335TMC3    C2 5024   3.880   3.130  17.039 -0.1318 -0.4549 -0.0271
  335TMC3    C3 5025   3.918   3.076  16.920 -0.3101 -0.0180 -0.5937
  335TMC3    C4 5026   4.077   3.257  17.045 -0.2611 -0.5528 -0.1001
  335TMC3    C5 5027   4.108   3.212  16.916 -0.3384  0.9249 -0.1633
  335TMC3    C6 5028   4.035   3.115  16.852 -0.1061  0.2301 -0.9204
  335TMC3     C 5029   3.917   3.293  17.225  0.0495 -0.5966  0.2868
  335TMC3     O 5030   3.985   3.395  17.247 -0.3304  0.3171 -0.0735
  335TMC3     H 5031   3.789   3.091  17.084  0.0370  0.0043  0.7085
  335TMC3    H1 5032   4.135   3.331  17.099  0.3556  0.3298 -1.9731
  335TMC3    H2 5033   4.053   3.082  16.750  1.7530  0.6857 -0.7440
  335TMC3    C7 5034   4.205   3.294  16.839 -0.2025 -0.2681  0.0393
  335TMC3    C8 5035   3.817   3.003  16.847  0.4394  0.2770 -0.2985
  335TMC3    O1 5036   4.258   3.251  16.741 -0.2139 -0.1139  1.3450
  335TMC3    O2 5037   3.821   3.018  16.728  0.3059 -0.0655 -0.2644
  336MPD2     C 5038   3.554   0.555  16.090  0.6635 -0.2743 -0.0408
  336MPD2    C1 5039   3.528   0.511  15.965 -0.2238  0.1163  0.3561
  336MPD2    C2 5040   3.598   0.404  15.912 -0.0055 -0.4461 -0.0776
  336MPD2    C3 5041   3.689   0.338  15.997  0.6035  0.2143  0.1538
  336MPD2    C4 5042   3.704   0.375  16.128 -0.1226 -0.6035  0.4514
  336MPD2    C5 5043   3.639   0.481  16.171  0.9209  0.1755 -0.3520
  336MPD2     H 5044   3.569   0.389  15.808  0.7476  0.3540 -0.4035
  336MPD2    H1 5045   3.762   0.320  16.202  0.6121  2.4361  2.1242
  336MPD2    H2 5046   3.497   0.636  16.133  0.6485 -0.6667  0.6881
  336MPD2    H3 5047   3.653   0.496  16.277 -1.3069  1.1321 -0.1872
  336MPD2     N 5048   3.755   0.220  15.946  0.0576  0.0222  0.0103
  336MPD2    H5 5049   3.805   0.158  16.009 -0.4146  0.8574  1.1799
  336MPD2    N1 5050   3.441   0.589  15.879 -0.4513 -1.2228  0.1199
  336MPD2    H7 5051   3.415   0.542  15.793  0.9018  0.3027 -1.1199
  337TMC3    C1 5052   3.297   0.762  15.809  0.5497 -0.2719  0.1461
  337TMC3    C2 5053   3.216   0.674  15.737  0.7374 -0.2873 -0.9181
  337TMC3    C3 5054   3.117   0.725  15.659 -0.8299  0.3877  0.1320
  337TMC3    C4 5055   3.288   0.897  15.790 -1.2349  0.3763 -0.2826
  337TMC3    C5 5056   3.189   0.944  15.707  0.2969 -0.8330  0.1546
  337TMC3    C6 5057   3.095   0.863  15.649  0.1768  0.2474  0.8661
  337TMC3     C 5058   3.398   0.719  15.904  0.0965  0.6242 -0.3329
  337TMC3     O 5059   3.434   0.797  15.992 -0.0524  0.5496 -0.3070
  337TMC3     H 5060   3.228   0.567  15.745 -0.5170 -0.2714  1.1225
  337TMC3    H1 5061   3.368   0.956  15.832 -1.9260  0.3669  1.0500
  337TMC3    H2 5062   3.000   0.912  15.629 -0.1698 -0.6168  0.3791
  337TMC3    C7 5063   3.160   1.087  15.685 -0.2215 -0.5745  0.3246
  337TMC3    C8 5064   3.006   0.638  15.635 -0.2485 -0.0879  0.0158
  337TMC3    O1 5065   3.095   1.121  15.589  0.1683 -0.0795  0.2637
  337TMC3    O2 5066   3.014   0.524  15.689 -0.3030 -0.7776 -0.0233
  338MPD2     C 5067   3.581   4.697   1.012 -0.0812 -0.7066  0.1805
  338MPD2    C1 5068   3.603   0.023   0.887  0.6337 -0.8614  0.5094
  338MPD2    C2 5069   3.552   0.146   0.859  0.0573  0.0749 -0.3109
  338MPD2    C3 5070   3.518   0.233   0.966  0.3112 -0.2454  0.1773
  338MPD2    C4 5071   3.510   0.184   1.094 -0.5993  0.7188 -0.5763
  338MPD2    C5 5072   3.534   0.052   1.112 -0.2283 -0.5546  0.0106
  338MPD2     H 5073   3.557   0.197   0.763 -0.6576 -1.5374 -1.2061
  338MPD2    H1 5074   3.480   0.244   1.179  0.8119  2.1387 -1.0892
  338MPD2    H2 5075   3.612   4.599   1.048  0.1317  0.1996  2.4552
  338MPD2    H3 5076   3.533   0.018   1.215 -1.4253 -0.6484 -0.0272
  338MPD2     N 5077   3.480   0.366   0.923  0.4700 -0.0814 -0.2035
  338MPD2    H5 5078   3.476   0.385   0.824 -1.9772  0.2170 -0.0633
  338MPD2    N1 5079   3.653   4.674   0.773  0.0900 -0.3250  0.1162
  338MPD2    H7 5080   3.651   0.006   0.688 -0.7802  0.2580  0.5061
  339TMC3    C1 5081   3.421   0.600   0.934 -0.3456  0.2327  0.4118
  339TMC3    C2 5082   3.387   0.708   1.013 -1.1331  0.2812  0.2725
  339TMC3    C3 5083   3.345   0.822   0.953  0.1204  0.2189 -0.1466
  339TMC3    C4 5084   3.411   0.606   0.795 -0.9336  0.3014 -0.3249
  339TMC3    C5 5085   3.378   0.723   0.735  0.1656  0.7111 -0.1064
  339TMC3    C6 5086   3.341   0.828   0.815 -0.4190  0.5441  0.8862
  339TMC3     C 5087   3.457   0.477   1.006  0.4134  0.4858 -0.2092
  339TMC3     O 5088   3.468   0.484   1.127  0.1565 -0.1614  0.8435
  339TMC3     H 5089   3.385   0.693   1.121  0.7269 -1.7867  0.0225
  339TMC3    H1 5090   3.452   0.522   0.740  0.1805  0.7501 -0.1835
  339TMC3    H2 5091   3.321   0.922   0.766 -1.4116 -1.2808 -2.2051
  339TMC3    C7 5092   3.367   0.734   0.586  0.5337 -0.2063  0.1272
  339TMC3    C8 5093   3.275   0.920   1.033  0.1610  0.6857  0.1268
  339TMC3    O1 5094   3.359   0.850   0.546 -0.3261  0.5754  0.2718
  339TMC3    O2 5095   3.218   1.008   0.976  0.1142 -0.0724  0.3826
  340MPD2     C 5096   3.378   2.651   9.298 -0.3610 -0.1750 -0.1539
  340MPD2    C1 5097   3.472   2.616   9.395 -0.1709  0.7207  0.1977
  340MPD2    C2 5098   3.546   2.712   9.469 -0.3007 -0.3168  0.2733
  340MPD2    C3 5099   3.532   2.843   9.429  0.1383 -0.0553  0.0960
  340MPD2    C4 5100   3.456   2.877   9.314 -0.1251  0.3276  0.4419
  340MPD2    C5 5101   3.384   2.781   9.259 -0.1369 -0.4300  0.3927
  340MPD2     H 5102   3.615   2.680   9.546  1.9051  1.5075 -0.9476
  340MPD2    H1 5103   3.457   2.974   9.265  1.8890  0.8009  1.4052
  340MPD2    H2 5104   3.314   2.578   9.248 -2.3430  2.1574 -1.0299
  340MPD2    H3 5105   3.323   2.813   9.175  0.9903  1.6187  0.3764
  340MPD2     N 5106   3.607   2.946   9.488 -0.3293  0.0212 -0.3107
  340MPD2    H5 5107   3.599   3.040   9.451  0.8221 -0.6308 -2.2121
  340MPD2    N1 5108   3.469   2.476   9.421 -0.6007 -0.6762  0.2268
  340MPD2    H7 5109   3.416   2.422   9.353  1.5222 -0.2308 -1.7668
  341TMC3    C1 5110   3.539   2.269   9.507 -0.5681  0.1987 -0.3169
  341TMC3    C2 5111   3.434   2.198   9.449  0.0976 -0.3725  0.2059
  341TMC3    C3 5112   3.411   2.066   9.485  0.7174 -0.3847  0.0062
  341TMC3    C4 5113   3.617   2.205   9.600 -0.1151 -0.2327 -0.0252
  341TMC3    C5 5114   3.604   2.070   9.619 -0.3907  0.6853 -0.2534
  341TMC3    C6 5115   3.508   1.997   9.562  0.0400 -0.1775 -0.2929
  341TMC3     C 5116   3.542   2.418   9.521  0.1615 -0.6142  0.1870
  341TMC3     O 5117   3.597   2.468   9.618  0.6820  0.5215 -0.0654
  341TMC3     H 5118   3.378   2.247   9.370  0.7136 -1.9782 -1.2239
  341TMC3    H1 5119   3.684   2.272   9.652  0.8852 -1.4927  0.2939
  341TMC3    H2 5120   3.516   1.890   9.575 -0.2909 -0.3510 -1.4960
  341TMC3    C7 5121   3.674   2.009   9.729  0.2281 -0.3217  0.3567
  341TMC3    C8 5122   3.306   1.990   9.428  0.2358  0.1842 -0.3402
  341TMC3    O1 5123   3.794   2.036   9.745  0.3735 -0.9467 -0.7030
  341TMC3    O2 5124   3.312   1.869   9.451 -0.5916 -0.2061  0.3061
  342MPD2     C 5125   1.820   0.821  16.844 -0.0625 -0.3078  0.2184
  342MPD2    C1 5126   1.870   0.836  16.971  0.2271  0.5772  0.5411
  342MPD2    C2 5127   1.804   0.914  17.071 -0.1590 -0.6406 -0.2230
  342MPD2    C3 5128   1.710   1.004  17.025  0.0612  0.1487  0.3134
  342MPD2    C4 5129   1.662   0.979  16.899 -0.5618  0.4385 -0.0123
  342MPD2    C5 5130   1.710   0.894  16.808  0.2273 -0.0240  0.2488
  342MPD2     H 5131   1.845   0.935  17.169 -0.2906  0.5314 -0.4228
  342MPD2    H1 5132   1.589   1.047  16.858 -0.5318  0.2175 -0.4295
  342MPD2    H2 5133   1.863   0.748  16.776 -2.0016 -1.2283 -0.0300
  342MPD2    H3 5134   1.664   0.865  16.714  1.0614  2.0204 -0.7929
  342MPD2     N 5135   1.657   1.114  17.089 -0.4145  0.1871  1.0867
  342MPD2    H5 5136   1.608   1.178  17.028  0.7003 -0.6798 -0.6899
  342MPD2    N1 5137   1.987   0.768  16.999 -0.1801  0.2633  0.2427
  342MPD2    H7 5138   2.000   0.763  17.100  0.2837  0.3092  0.1846
  343TMC3    C1 5139   2.174   0.626  16.971  0.2315 -0.2142  0.0435
  343TMC3    C2 5140   2.296   0.629  16.905 -0.5840 -0.9516 -0.1925
  343TMC3    C3 5141   2.368   0.514  16.895  0.1819 -0.6226  0.7387
  343TMC3    C4 5142   2.126   0.506  17.019  0.1316 -0.2185  0.1342
  343TMC3    C5 5143   2.210   0.392  17.019  0.1791  0.5488 -0.1996
  343TMC3    C6 5144   2.330   0.395  16.958  0.6149  0.4469 -0.3313
  343TMC3     C 5145   2.085   0.722  16.916 -0.3224 -0.5804 -0.0402
  343TMC3     O 5146   2.102   0.752  16.797 -0.6294  0.2239 -0.0544
  343TMC3     H 5147   2.329   0.727  16.873  1.5182 -1.7113 -0.3601
  343TMC3    H1 5148   2.027   0.506  17.065  0.0764 -0.8950  0.0170
  343TMC3    H2 5149   2.388   0.305  16.940 -1.6726 -1.3832  1.4599
  343TMC3    C7 5150   2.126   0.265  17.015  0.1258  0.6123 -0.1465
  343TMC3    C8 5151   2.510   0.526  16.858 -0.2581 -0.1232 -0.4071
  343TMC3    O1 5152   2.012   0.272  17.060 -0.2720 -0.2561 -0.4977
  343TMC3    O2 5153   2.565   0.631  16.890 -0.0985 -0.6516 -0.3307
  344MPD2     C 5154   3.200   0.635  10.479 -0.0978  0.3434  0.3114
  344MPD2    C1 5155   3.073   0.648  10.425 -0.1266 -0.5944  0.5035
  344MPD2    C2 5156   3.044   0.764  10.347 -0.2686 -0.7890 -0.2666
  344MPD2    C3 5157   3.145   0.843  10.298 -0.7981 -0.2889 -0.1467
  344MPD2    C4 5158   3.280   0.815  10.347 -0.9282 -0.3466  0.2643
  344MPD2    C5 5159   3.298   0.721  10.440  0.4304 -0.0000  0.6716
  344MPD2     H 5160   2.939   0.774  10.322  0.0106  1.5164 -0.5806
  344MPD2    H1 5161   3.364   0.877  10.318  0.0430 -0.6811  2.3607
  344MPD2    H2 5162   3.217   0.548  10.541 -2.8778 -0.5367 -0.1810
  344MPD2    H3 5163   3.398   0.710  10.479 -0.3165 -0.0287  2.5645
  344MPD2     N 5164   3.128   0.944  10.206 -0.1762 -0.1061 -0.9679
  344MPD2    H5 5165   3.208   1.005  10.192  1.3771 -1.7635  0.7589
  344MPD2    N1 5166   2.976   0.544  10.450 -0.1418 -0.2976  0.3212
  344MPD2    H7 5167   3.007   0.463  10.503  0.3863 -1.6465 -2.0490
  345TMC3    C1 5168   3.042   1.094  10.059 -0.5940 -0.0686 -0.3824
  345TMC3    C2 5169   3.165   1.118  10.011  0.7015 -0.3928 -0.2210
  345TMC3    C3 5170   3.190   1.240   9.954  0.0719 -0.5428 -0.3604
  345TMC3    C4 5171   2.937   1.176  10.034  0.2185  0.3060 -0.4407
  345TMC3    C5 5172   2.970   1.296   9.973 -0.5217  0.2915 -0.0026
  345TMC3    C6 5173   3.096   1.336   9.943  0.2370  1.1638  0.4215
  345TMC3     C 5174   3.014   0.983  10.143 -0.1586 -0.7125 -0.1727
  345TMC3     O 5175   2.899   0.956  10.177 -0.1312  0.4264 -0.4024
  345TMC3     H 5176   3.241   1.042  10.000  0.3907 -1.0035  1.9207
  345TMC3    H1 5177   2.838   1.151  10.071  0.8965 -0.8457  0.5859
  345TMC3    H2 5178   3.121   1.436   9.911  1.2044  0.5063 -0.9039
  345TMC3    C7 5179   2.867   1.399   9.955 -0.2852 -0.0144 -0.7978
  345TMC3    C8 5180   3.330   1.285   9.966 -0.8000  0.4410 -0.2288
  345TMC3    O1 5181   2.903   1.507   9.913 -0.1580 -0.4908 -0.0780
  345TMC3    O2 5182   3.408   1.215  10.036 -0.0279 -0.0506 -0.2190
  346MPD2     C 5183   2.501   2.214  14.416  0.4112  0.0082 -0.1254
  346MPD2    C1 5184   2.621   2.215  14.345  0.5581  0.4918 -0.4175
  346MPD2    C2 5185   2.738   2.243  14.412 -0.0069  0.7727 -0.3988
  346MPD2    C3 5186   2.738   2.286  14.548  0.0308 -0.3608 -1.1280
  346MPD2    C4 5187   2.616   2.287  14.616  0.1617  0.3203 -0.2675
  346MPD2    C5 5188   2.506   2.249  14.546 -0.0386 -0.3932 -0.1423
  346MPD2     H 5189   2.831   2.237  14.356  1.0828 -0.2615  1.5083
  346MPD2    H1 5190   2.602   2.321  14.718  0.7281  0.9074 -0.3837
  346MPD2    H2 5191   2.405   2.197  14.369  1.6631 -2.4141 -1.8826
  346MPD2    H3 5192   2.416   2.262  14.606 -0.5364 -0.3519 -0.8900
  346MPD2     N 5193   2.860   2.331  14.603 -0.1140  0.0746 -0.5429
  346MPD2    H5 5194   2.939   2.355  14.543 -1.3060  0.5036 -1.9650
  346MPD2    N1 5195   2.630   2.186  14.212 -0.0068 -0.1191  0.2305
  346MPD2    H7 5196   2.722   2.171  14.171 -0.0467  2.0639 -0.6844
  347TMC3    C1 5197   3.005   2.372  14.780  0.3485 -0.1128 -0.3591
  347TMC3    C2 5198   3.074   2.449  14.690  0.9045  0.1060  0.4512
  347TMC3    C3 5199   3.212   2.442  14.696  0.4316  0.6571 -0.3579
  347TMC3    C4 5200   3.061   2.290  14.870 -0.1637 -0.2188 -0.7470
  347TMC3    C5 5201   3.194   2.301  14.886  0.7529  0.7635  0.2301
  347TMC3    C6 5202   3.271   2.373  14.797 -0.6987  0.4170 -0.8842
  347TMC3     C 5203   2.877   2.326  14.739  0.4964 -1.0855  0.1697
  347TMC3     O 5204   2.808   2.287  14.830 -1.0841  0.1515  0.0174
  347TMC3     H 5205   3.033   2.510  14.611  1.0227 -1.3379 -0.7338
  347TMC3    H1 5206   3.006   2.216  14.926  0.1103  0.0043 -0.1826
  347TMC3    H2 5207   3.378   2.363  14.811 -0.7113  1.8031  0.1766
  347TMC3    C7 5208   3.236   2.243  15.010 -0.3066 -0.5834  0.0708
  347TMC3    C8 5209   3.298   2.524  14.613  0.3334  0.4099 -0.2414
  347TMC3    O1 5210   3.163   2.168  15.070  0.2242 -0.2342  0.1309
  347TMC3    O2 5211   3.390   2.584  14.668  0.3122 -0.2053  0.2802
  348MPD2     C 5212   1.562   2.225  12.158  1.0398 -0.3636 -0.5702
  348MPD2    C1 5213   1.680   2.242  12.094  0.1707 -0.0530 -0.3636
  348MPD2    C2 5214   1.685   2.277  11.960  0.4523  0.3913 -0.0890
  348MPD2    C3 5215   1.571   2.289  11.885  0.3595  0.4433  0.3529
  348MPD2    C4 5216   1.453   2.259  11.948  0.0897 -0.3174 -0.1485
  348MPD2    C5 5217   1.447   2.234  12.083  0.3853 -0.0650 -0.2657
  348MPD2     H 5218   1.780   2.299  11.912  0.3035  0.3870 -0.3920
  348MPD2    H1 5219   1.359   2.259  11.895 -0.2198 -0.0538  0.4050
  348MPD2    H2 5220   1.550   2.198  12.262 -0.0981 -2.0213 -1.1362
  348MPD2    H3 5221   1.350   2.208  12.124 -0.3786  0.7866 -1.5173
  348MPD2     N 5222   1.581   2.334  11.754 -0.5947  0.9958 -0.3600
  348MPD2    H5 5223   1.668   2.374  11.721  1.7084 -3.3903  0.4655
  348MPD2    N1 5224   1.808   2.216  12.144  0.6872 -0.2451 -0.7626
  348MPD2    H7 5225   1.890   2.214  12.085  0.9450 -2.0243 -0.3489
  349TMC3    C1 5226   1.975   2.137  12.283 -1.0129  0.5577  0.2351
  349TMC3    C2 5227   1.992   2.013  12.322  0.3010  0.3619 -0.0288
  349TMC3    C3 5228   2.099   1.951  12.273 -0.3440  0.0724 -0.3086
  349TMC3    C4 5229   2.052   2.199  12.192 -0.1244  0.6656 -0.0916
  349TMC3    C5 5230   2.161   2.127  12.137  0.0016 -0.1807  0.7094
  349TMC3    C6 5231   2.194   2.006  12.184  0.1457 -0.1456 -0.1761
  349TMC3     C 5232   1.834   2.167  12.269  0.1108  0.1386  0.9954
  349TMC3     O 5233   1.760   2.141  12.363  0.0512 -0.0153 -0.5829
  349TMC3     H 5234   1.917   1.964  12.384  0.6978  0.2617  0.3674
  349TMC3    H1 5235   2.036   2.300  12.157  1.7274  0.3379 -1.8560
  349TMC3    H2 5236   2.287   1.962  12.149 -0.1912 -1.0518  0.0703
  349TMC3    C7 5237   2.133   2.090  12.000 -0.4061 -0.0697  0.5734
  349TMC3    C8 5238   2.087   1.808  12.270 -0.1686 -0.6663  0.3138
  349TMC3    O1 5239   2.151   1.974  11.968  0.0993  0.2016  0.9370
  349TMC3    O2 5240   2.014   1.754  12.354 -0.6185 -0.1799 -0.2672
  350MPD2     C 5241   1.216   0.855   9.951 -0.1333 -0.2628 -0.3461
  350MPD2    C1 5242   1.239   0.724   9.944  0.1550  0.2611 -0.4305
  350MPD2    C2 5243   1.299   0.662  10.050 -0.0795  0.1531 -0.4119
  350MPD2    C3 5244   1.342   0.728  10.164  1.0651  0.1974  0.0727
  350MPD2    C4 5245   1.336   0.868  10.152 -0.4584  0.4978 -0.1158
  350MPD2    C5 5246   1.270   0.921  10.048 -0.3968  0.1438 -0.0027
  350MPD2     H 5247   1.321   0.556  10.046  1.1895  0.3318  1.5204
  350MPD2    H1 5248   1.385   0.931  10.225 -0.2417  1.6943 -1.2912
  350MPD2    H2 5249   1.176   0.908   9.865  1.5224  0.9286 -0.3670
  350MPD2    H3 5250   1.259   1.029  10.055 -0.6961  0.2267 -1.7029
  350MPD2     N 5251   1.395   0.658  10.270 -0.3568 -0.2662 -0.0698
  350MPD2    H5 5252   1.392   0.557  10.265  2.2454 -0.3776  0.8760
  350MPD2    N1 5253   1.214   0.643   9.830  0.3093  0.6318 -0.1789
  350MPD2    H7 5254   1.236   0.545   9.838  3.4319  1.2548 -1.1303
  351TMC3    C1 5255   1.129   0.555   9.633  0.0650 -0.1061  0.0445
  351TMC3    C2 5256   1.200   0.443   9.655 -0.0536 -0.4835 -0.8980
  351TMC3    C3 5257   1.176   0.344   9.566  0.7175  0.1351 -0.0617
  351TMC3    C4 5258   1.028   0.561   9.538  0.1943  0.1590  0.3541
  351TMC3    C5 5259   1.007   0.453   9.456 -0.1573  0.2262 -0.4797
  351TMC3    C6 5260   1.088   0.342   9.463  0.1697 -0.6793 -0.0859
  351TMC3     C 5261   1.143   0.670   9.719 -0.2472  0.1973 -0.0923
  351TMC3     O 5262   1.075   0.767   9.678 -0.3818 -0.8433 -0.4895
  351TMC3     H 5263   1.285   0.454   9.722 -2.4041 -0.7914  2.1662
  351TMC3    H1 5264   0.960   0.646   9.535  1.9349  1.5001 -1.1634
  351TMC3    H2 5265   1.071   0.249   9.409  0.7216 -0.2336 -1.0312
  351TMC3    C7 5266   0.881   0.422   9.381 -0.1313 -0.1957 -0.0642
  351TMC3    C8 5267   1.233   0.218   9.601 -0.1972  0.5190 -0.0277
  351TMC3    O1 5268   0.877   0.312   9.321  0.4476  0.3522 -0.3250
  351TMC3    O2 5269   1.177   0.123   9.548  0.1874 -0.0129 -0.0210
  352MPD2     C 5270   4.329   2.422   0.667 -0.5956  0.2988  0.9206
  352MPD2    C1 5271   4.261   2.370   0.775 -0.1385 -0.0790  0.5021
  352MPD2    C2 5272   4.293   2.245   0.827  0.7255 -0.1884  0.3315
  352MPD2    C3 5273   4.399   2.174   0.774 -0.5477  0.2221 -0.0602
  352MPD2    C4 5274   4.469   2.229   0.671 -0.2749 -0.8828 -0.0348
  352MPD2    C5 5275   4.437   2.353   0.621  0.5228 -0.5698 -0.2119
  352MPD2     H 5276   4.246   2.196   0.911  1.9416 -0.7038  0.7107
  352MPD2    H1 5277   4.554   2.175   0.629 -0.6163 -0.8293 -0.7925
  352MPD2    H2 5278   4.316   2.525   0.635  2.9451  1.5935  3.6479
  352MPD2    H3 5279   4.508   2.393   0.549 -0.3338 -0.0993 -0.7981
  352MPD2     N 5280   4.443   2.043   0.819 -0.2434  0.0866 -0.5289
  352MPD2    H5 5281   4.495   1.981   0.758  1.1909  1.0337 -0.2736
  352MPD2    N1 5282   4.145   2.441   0.803 -0.0486 -0.5319  0.7565
  352MPD2    H7 5283   4.132   2.531   0.757 -1.8204 -1.1083  0.1057
  353TMC3    C1 5284   4.419   1.841   0.941  0.1844  0.5416  0.2878
  353TMC3    C2 5285   4.533   1.784   0.887 -0.2654  0.3293 -0.0162
  353TMC3    C3 5286   4.517   1.653   0.866 -0.2047 -0.2269  0.7676
  353TMC3    C4 5287   4.301   1.772   0.951 -0.0226  0.3655 -0.2432
  353TMC3    C5 5288   4.291   1.641   0.942 -0.6824  0.1512 -0.0756
  353TMC3    C6 5289   4.413   1.579   0.911 -0.0142 -0.8889  0.3902
  353TMC3     C 5290   4.394   1.981   0.931  0.5749  0.1104  0.2415
  353TMC3     O 5291   4.330   2.026   1.024  0.5214 -0.0795 -0.3549
  353TMC3     H 5292   4.620   1.837   0.852  0.6183 -0.7193  0.6179
  353TMC3    H1 5293   4.206   1.821   0.970  1.2484  2.2464  1.1129
  353TMC3    H2 5294   4.410   1.473   0.888  2.4466 -0.9508  0.4058
  353TMC3    C7 5295   4.167   1.586   0.899 -0.2848  0.4359  0.0663
  353TMC3    C8 5296   4.636   1.577   0.830 -0.6129  0.5435 -0.1300
  353TMC3    O1 5297   4.162   1.534   0.791  0.1627  0.6483  0.1276
  353TMC3    O2 5298   0.024   1.617   0.868 -0.4662 -0.3301 -0.4489
  354TMC3    C1 5299   0.787   3.176  13.387  0.1203 -0.3530 -0.0461
  354TMC3    C2 5300   0.870   3.280  13.364 -1.0235 -0.0059  0.0601
  354TMC3    C3 5301   0.979   3.256  13.288  0.7845 -0.4568  0.1862
  354TMC3    C4 5302   0.792   3.064  13.309  0.3171  0.4285 -0.0230
  354TMC3    C5 5303   0.896   3.048  13.215  0.1971  0.7619 -0.0588
  354TMC3    C6 5304   0.999   3.141  13.213  1.1786  0.4921  0.3084
  354TMC3     C 5305   0.737   3.143  13.522 -0.2285  0.0526  0.0256
  354TMC3     O 5306   0.714   3.025  13.550 -0.4116  0.1203 -0.1898
  354TMC3     H 5307   0.871   3.366  13.429 -0.3084 -0.5686  0.7925
  354TMC3    H1 5308   0.707   2.998  13.305  1.8696 -1.6128  0.4063
  354TMC3    H2 5309   1.082   3.121  13.146 -0.4341 -1.2816 -1.1492
  354TMC3    C7 5310   0.863   2.999  13.087 -0.4168  0.2292  0.1152
  354TMC3    C8 5311   1.046   3.372  13.245  0.1048 -0.1739 -0.5501
  354TMC3    O1 5312   0.742   2.995  13.065  0.8396 -0.0775 -0.4939
  354TMC3    O2 5313   0.977   3.468  13.214 -0.1641  0.7569  0.4049
  355MPD2     C 5314   1.053   3.847  11.096  0.4185 -0.0704 -0.1610
  355MPD2    C1 5315   1.041   3.986  11.096 -0.1477  0.3626  0.3983
  355MPD2    C2 5316   1.101   4.057  11.199  0.6700  0.0201  0.0111
  355MPD2    C3 5317   1.205   4.002  11.267 -0.3936 -0.1613  0.1565
  355MPD2    C4 5318   1.216   3.863  11.271  0.3809  0.6021 -0.1414
  355MPD2    C5 5319   1.132   3.787  11.185  0.0730  0.1527  0.0484
  355MPD2     H 5320   1.081   4.163  11.209  0.7386 -0.1148  1.4989
  355MPD2    H1 5321   1.283   3.810  11.337  1.0317  2.0316  0.3397
  355MPD2    H2 5322   1.007   3.790  11.016 -1.2942  0.2123  0.6138
  355MPD2    H3 5323   1.141   3.679  11.191 -0.7328 -0.1462 -4.3505
  355MPD2     N 5324   1.286   4.083  11.349  0.8856  0.6252 -0.0296
  355MPD2    H5 5325   1.335   4.039  11.425 -0.0835 -3.3311 -1.6974
  355MPD2    N1 5326   0.969   4.064  11.001 -0.0545 -0.0603  0.3997
  355MPD2    H7 5327   0.964   4.165  11.012 -0.2559 -0.1815  1.4483
  356TMC3    C1 5328   1.433   4.263  11.374 -0.6677 -0.2627  0.1187
  356TMC3    C2 5329   1.501   4.361  11.310 -0.5882  0.0779  0.4044
  356TMC3    C3 5330   1.616   4.400  11.362 -0.4739  1.3512 -0.0926
  356TMC3    C4 5331   1.475   4.219  11.499  0.6826 -0.0355  0.1564
  356TMC3    C5 5332   1.587   4.271  11.555 -0.2664  0.6372  0.2907
  356TMC3    C6 5333   1.657   4.364  11.485 -0.1891  0.0410  0.3508
  356TMC3     C 5334   1.310   4.220  11.320 -0.7018 -0.4346  0.4718
  356TMC3     O 5335   1.263   4.288  11.229  0.1965 -0.5943  0.3043
  356TMC3     H 5336   1.475   4.388  11.208 -0.2341  0.0339  0.3031
  356TMC3    H1 5337   1.413   4.145  11.547  2.9083 -0.0611  3.0379
  356TMC3    H2 5338   1.747   4.407  11.529  1.5146 -0.8840 -2.2239
  356TMC3    C7 5339   1.591   4.259  11.701 -0.5325  0.2440 -0.2790
  356TMC3    C8 5340   1.710   4.460  11.267  0.0261  0.3598  0.1572
  356TMC3    O1 5341   1.509   4.183  11.751  0.3246  1.0092 -0.5306
  356TMC3    O2 5342   1.676   4.450  11.150 -0.3089  0.4312  0.0761
  357MPD2     C 5343   0.942   4.311   1.107  0.1793 -0.3801  0.5429
  357MPD2    C1 5344   0.953   4.227   1.219  0.3162  0.3194  0.2712
  357MPD2    C2 5345   0.847   4.216   1.307 -0.2721  0.4150 -0.4293
  357MPD2    C3 5346   0.733   4.291   1.282 -0.2206  0.9628 -0.8908
  357MPD2    C4 5347   0.720   4.361   1.167  0.2561 -0.4526  0.1977
  357MPD2    C5 5348   0.828   4.376   1.076 -0.5632  0.0135  0.2300
  357MPD2     H 5349   0.849   4.152   1.394 -2.8832  0.8653 -0.0518
  357MPD2    H1 5350   0.633   4.422   1.149  1.2001  0.2598 -1.9458
  357MPD2    H2 5351   1.024   4.310   1.037 -0.0603 -2.2585  0.2974
  357MPD2    H3 5352   0.826   4.427   0.980  0.8052  1.3404  0.9068
  357MPD2     N 5353   0.640   4.320   1.380  0.4439  0.1401 -0.5825
  357MPD2    H5 5354   0.569   4.384   1.347  1.3950  2.0098  1.0053
  357MPD2    N1 5355   1.065   4.146   1.231  0.0879  0.1670  1.2141
  357MPD2    H7 5356   1.126   4.132   1.151  1.9901  1.5388  2.4295
  358TMC3    C1 5357   1.213   3.994   1.313  0.3705 -0.0315 -0.3310
  358TMC3    C2 5358   1.214   3.939   1.189  0.0605  0.0759 -0.3636
  358TMC3    C3 5359   1.331   3.880   1.150  0.2048  0.0008  0.7411
  358TMC3    C4 5360   1.322   3.995   1.391  0.3077  0.0339 -0.0126
  358TMC3    C5 5361   1.436   3.937   1.346 -0.0113  0.0638  0.1936
  358TMC3    C6 5362   1.444   3.891   1.222 -0.3326 -0.2778  0.3286
  358TMC3     C 5363   1.103   4.082   1.342  0.2167  0.1963  0.5467
  358TMC3     O 5364   1.075   4.110   1.458 -0.6757 -0.3595 -0.0961
  358TMC3     H 5365   1.119   3.944   1.136 -1.0436 -0.3316  1.5400
  358TMC3    H1 5366   1.305   4.046   1.485 -2.3157 -0.4710 -0.2214
  358TMC3    H2 5367   1.526   3.824   1.197  3.0185  3.9118  0.0982
  358TMC3    C7 5368   1.563   3.934   1.427 -0.1592  0.0179 -0.1165
  358TMC3    C8 5369   1.323   3.813   1.019 -0.6729  0.1102 -0.1379
  358TMC3    O1 5370   1.662   3.899   1.366  0.3539  0.0948  0.2854
  358TMC3    O2 5371   1.206   3.793   0.979  0.0499  0.1557  0.1465
  359MPD2     C 5372   1.583   2.437  12.585 -1.1278  0.2654 -0.5566
  359MPD2    C1 5373   1.494   2.440  12.479  0.1014  0.0184 -0.0147
  359MPD2    C2 5374   1.357   2.408  12.498 -0.1813  0.9787 -0.1268
  359MPD2    C3 5375   1.315   2.367  12.623  0.1920 -0.1944 -0.0171
  359MPD2    C4 5376   1.407   2.379  12.734 -0.3864 -0.3466  0.7036
  359MPD2    C5 5377   1.533   2.413  12.715 -0.1838 -0.4624 -0.2413
  359MPD2     H 5378   1.289   2.442  12.421 -0.7835  0.7262  0.2946
  359MPD2    H1 5379   1.373   2.355  12.834  2.4941 -0.5438  1.6135
  359MPD2    H2 5380   1.688   2.463  12.589 -0.5347 -2.0801 -0.8592
  359MPD2    H3 5381   1.603   2.423  12.797 -0.2616  2.4499 -0.5322
  359MPD2     N 5382   1.183   2.354  12.654  0.4286  0.3077  0.2433
  359MPD2    H5 5383   1.160   2.369  12.752  1.6498  1.2507  0.3868
  359MPD2    N1 5384   1.539   2.495  12.354  0.1061 -0.6881  0.0812
  359MPD2    H7 5385   1.458   2.503  12.293  0.4873 -0.0030 -0.3246
  360TMC3    C1 5386   1.663   2.619  12.205 -0.6432 -0.4956 -0.5400
  360TMC3    C2 5387   1.752   2.723  12.190 -0.2672  0.2255 -0.7882
  360TMC3    C3 5388   1.723   2.829  12.112  0.0213 -0.2993  0.1229
  360TMC3    C4 5389   1.550   2.612  12.118  0.6075 -0.2238 -0.0036
  360TMC3    C5 5390   1.529   2.714  12.029  0.0983 -0.1545 -0.1732
  360TMC3    C6 5391   1.603   2.837  12.036  0.3635  1.2840  0.3649
  360TMC3     C 5392   1.657   2.552  12.334  0.5718 -0.3317 -0.3529
  360TMC3     O 5393   1.750   2.578  12.409  0.9008  0.1717 -0.0222
  360TMC3     H 5394   1.830   2.743  12.263 -1.4779  1.6883  0.1120
  360TMC3    H1 5395   1.481   2.529  12.121  0.3132  0.0621  1.3913
  360TMC3    H2 5396   1.582   2.913  11.962  1.4016  0.1924 -1.0381
  360TMC3    C7 5397   1.438   2.702  11.915  0.1736 -0.1364 -0.2346
  360TMC3    C8 5398   1.802   2.951  12.100  0.1769 -0.2995  0.5858
  360TMC3    O1 5399   1.457   2.771  11.814  0.1572 -0.0750 -0.3430
  360TMC3    O2 5400   1.740   3.056  12.099  0.0626 -0.7223 -0.0960
  361MPD2     C 5401   2.780   1.584  16.572 -0.1476  0.1756 -0.1068
  361MPD2    C1 5402   2.750   1.630  16.700 -0.1376 -0.2791  0.2713
  361MPD2    C2 5403   2.834   1.589  16.802 -1.1132 -0.1992  0.6657
  361MPD2    C3 5404   2.946   1.508  16.784  0.4833  0.5570  0.5027
  361MPD2    C4 5405   2.966   1.463  16.657  0.1896 -0.2441 -0.6145
  361MPD2    C5 5406   2.883   1.495  16.556 -0.3455  0.1150  0.6400
  361MPD2     H 5407   2.806   1.624  16.901 -1.5046  3.7819 -0.8603
  361MPD2    H1 5408   3.050   1.400  16.634 -2.0703 -2.8217 -1.8244
  361MPD2    H2 5409   2.727   1.601  16.480  1.6404  1.8049 -0.8274
  361MPD2    H3 5410   2.893   1.453  16.456  0.6976  1.9438 -0.0416
  361MPD2     N 5411   3.032   1.455  16.888  1.4675 -0.0132 -0.6479
  361MPD2    H5 5412   3.093   1.375  16.871  1.8046  0.0739  0.1796
  361MPD2    N1 5413   2.638   1.722  16.725  0.0413 -0.3589  0.0410
  361MPD2    H7 5414   2.617   1.744  16.821 -0.8870 -0.2999 -0.1740
  362TMC3    C1 5415   2.422   1.836  16.664 -0.5630  0.7695  0.3073
  362TMC3    C2 5416   2.376   1.845  16.795 -0.3311  0.8169  0.1773
  362TMC3    C3 5417   2.261   1.922  16.824  0.6029  0.1659  0.2245
  362TMC3    C4 5418   2.357   1.912  16.566 -0.1809  0.3668 -0.1570
  362TMC3    C5 5419   2.241   1.982  16.593  0.3018  0.8448 -0.1968
  362TMC3    C6 5420   2.195   1.990  16.726  0.2454  0.1987 -0.6299
  362TMC3     C 5421   2.547   1.762  16.623 -0.0475 -0.0928 -1.0421
  362TMC3     O 5422   2.572   1.756  16.502  0.8630  0.7865 -0.4126
  362TMC3     H 5423   2.439   1.803  16.874 -0.3456  1.3803  0.4855
  362TMC3    H1 5424   2.393   1.912  16.464  0.8471  0.1314  0.2054
  362TMC3    H2 5425   2.105   2.048  16.739  2.4562  3.3700  0.6810
  362TMC3    C7 5426   2.189   2.059  16.478 -0.0844  0.8187  0.3048
  362TMC3    C8 5427   2.219   1.923  16.960  0.5689 -0.0919  0.1101
  362TMC3    O1 5428   2.134   2.164  16.504  0.4350 -0.0971 -0.0682
  362TMC3    O2 5429   2.291   1.865  17.034  0.3417  0.4826 -0.2554
  363TMC3    C1 5430   1.605   4.573   9.512  0.0279 -0.6581  0.3535
  363TMC3    C2 5431   1.732   4.531   9.533  0.3262 -0.2011 -0.9034
  363TMC3    C3 5432   1.828   4.626   9.521 -0.7952 -0.0091  0.1304
  363TMC3    C4 5433   1.563   4.704   9.491 -0.6247 -0.3756 -0.1678
  363TMC3    C5 5434   1.663   0.075   9.483 -0.0717 -0.1386  0.0129
  363TMC3    C6 5435   1.791   0.035   9.508 -0.6216  0.4834 -0.6275
  363TMC3     C 5436   1.512   4.462   9.489 -0.4691  0.3129 -0.3521
  363TMC3     O 5437   1.537   4.350   9.533  0.3847  0.2135 -0.9682
  363TMC3     H 5438   1.744   4.425   9.552 -3.9013 -0.7914 -1.4555
  363TMC3    H1 5439   1.459   0.012   9.497 -0.2974  0.3920  1.5302
  363TMC3    H2 5440   1.872   0.107   9.499 -0.4270  0.3146 -0.2239
  363TMC3    C7 5441   1.645   0.217   9.478  0.0174 -0.6700  0.3003
  363TMC3    C8 5442   1.972   4.594   9.508  0.1869  0.2605  0.2637
  363TMC3    O1 5443   1.741   0.286   9.507 -0.2872  0.1564  0.1043
  363TMC3    O2 5444   2.040   4.681   9.459  0.0079 -0.4113  0.0162
  364MPD2     C 5445   4.575   3.391  10.586 -0.3334 -0.5289  0.3137
  364MPD2    C1 5446   4.705   3.388  10.547  0.2735  0.6072 -0.5017
  364MPD2    C2 5447   0.052   3.272  10.573 -0.2092  0.2174 -0.1801
  364MPD2    C3 5448   4.713   3.159  10.633  0.2875  0.1590  0.0509
  364MPD2    C4 5449   4.586   3.171  10.676 -0.2158  0.4053 -0.8354
  364MPD2    C5 5450   4.512   3.283  10.639  0.6178  0.3899  0.0687
  364MPD2     H 5451   0.152   3.262  10.531  0.1642  1.5388  0.3928
  364MPD2    H1 5452   4.538   3.090  10.730 -2.1467  0.6729 -2.1763
  364MPD2    H2 5453   4.519   3.482  10.569  0.7340  0.3277  1.3627
  364MPD2    H3 5454   4.407   3.293  10.662  0.2662 -1.5430 -0.6673
  364MPD2     N 5455   0.058   3.046  10.676  0.0288  0.0233 -0.2786
  364MPD2    H5 5456   0.015   2.983  10.742 -1.7400 -0.3711 -1.7964
  364MPD2    N1 5457   0.036   3.505  10.490  0.3390  0.0274 -0.2485
  364MPD2    H7 5458   4.699   3.587  10.492  2.1245  1.3240 -0.2444
  365TMC3    C1 5459   0.184   3.667  10.404 -0.4388 -0.0429  0.0614
  365TMC3    C2 5460   0.289   3.685  10.323  0.0202  0.5343 -0.1794
  365TMC3    C3 5461   0.355   3.806  10.331  0.3481 -0.9875  0.7351
  365TMC3    C4 5462   0.166   3.749  10.510  0.8523 -0.3397 -0.2314
  365TMC3    C5 5463   0.231   3.871  10.522 -0.3105  0.4394  0.0255
  365TMC3    C6 5464   0.330   3.900  10.427  0.0459  0.3359  0.2590
  365TMC3     C 5465   0.154   3.521  10.427 -0.1822 -0.0708 -0.0645
  365TMC3     O 5466   0.233   3.443  10.386  0.5573 -1.1370 -0.7349
  365TMC3     H 5467   0.341   3.610  10.266  0.3675  1.9582 -1.7373
  365TMC3    H1 5468   0.100   3.715  10.589 -1.7233  1.2066 -1.7068
  365TMC3    H2 5469   0.382   3.995  10.422  0.9317 -0.0978  1.3047
  365TMC3    C7 5470   0.225   3.954  10.636 -0.4929 -0.2423  0.3135
  365TMC3    C8 5471   0.470   3.839  10.240 -0.4220 -0.2530 -0.5017
  365TMC3    O1 5472   0.239   4.074  10.618 -0.2041 -0.0163  0.4097
  365TMC3    O2 5473   0.497   3.959  10.246  0.2416 -0.1331  0.2814
  366MPD2     C 5474   3.094   4.467  15.092 -0.0402  0.6603 -0.3881
  366MPD2    C1 5475   3.203   4.524  15.034  0.1066  0.0570  0.0807
  366MPD2    C2 5476   3.304   4.443  14.990  0.8982 -0.2840  0.0417
  366MPD2    C3 5477   3.298   4.306  14.993 -0.3129  0.0978  0.2603
  366MPD2    C4 5478   3.182   4.250  15.047  1.2879 -0.4816 -0.4745
  366MPD2    C5 5479   3.089   4.331  15.096 -0.8223  0.2556  0.3315
  366MPD2     H 5480   3.393   4.486  14.946  0.3596  1.0419  0.2393
  366MPD2    H1 5481   3.171   4.143  15.041  0.7453 -0.3868 -1.1587
  366MPD2    H2 5482   3.007   4.515  15.136  0.6575 -1.0001  2.7893
  366MPD2    H3 5483   3.001   4.284  15.138 -0.4118 -1.1199 -0.3584
  366MPD2     N 5484   3.401   4.227  14.941  0.3016 -0.3607  0.0425
  366MPD2    H5 5485   3.478   4.271  14.892  0.1864  0.4074  0.5603
  366MPD2    N1 5486   3.232   4.667  15.030 -0.7093  0.3168 -0.0469
  366MPD2    H7 5487   3.328   4.693  15.008 -0.5609  0.3409  0.6215
  367TMC3    C1 5488   3.178   0.180  15.068  0.6564 -0.6887  0.3079
  367TMC3    C2 5489   3.295   0.220  15.118 -0.2664 -0.4225 -0.4552
  367TMC3    C3 5490   3.320   0.354  15.136  0.8672  0.0078 -0.2586
  367TMC3    C4 5491   3.098   0.271  15.010  0.0059 -0.5224  0.2982
  367TMC3    C5 5492   3.127   0.403  15.021  1.2952  0.1179  0.1142
  367TMC3    C6 5493   3.245   0.454  15.075  0.0886  0.3410  0.0448
  367TMC3     C 5494   3.130   0.039  15.057  0.4164  0.2244  0.0379
  367TMC3     O 5495   3.009   0.022  15.045  0.6260  0.6915  0.0553
  367TMC3     H 5496   3.369   0.148  15.151  0.3556  0.1535 -0.5912
  367TMC3    H1 5497   2.995   0.245  14.987  0.2857 -1.0379 -0.3613
  367TMC3    H2 5498   3.266   0.558  15.098 -0.2031 -0.2782  3.1433
  367TMC3    C7 5499   3.019   0.496  14.984 -0.4286  0.6234  0.0470
  367TMC3    C8 5500   3.431   0.391  15.220 -0.1543  0.7118  0.0005
  367TMC3    O1 5501   3.009   0.599  15.057  0.6777 -0.7848  0.2492
  367TMC3    O2 5502   3.522   0.310  15.231 -0.5587 -0.1482  0.0384
  368MPD2     C 5503   4.273   1.630  13.117  0.2184  0.7794 -0.6505
  368MPD2    C1 5504   4.354   1.734  13.071  0.2421  0.0289  0.4992
  368MPD2    C2 5505   4.489   1.704  13.043  0.0802 -0.4821  0.8301
  368MPD2    C3 5506   4.540   1.580  13.079 -0.0728  0.8975 -0.7482
  368MPD2    C4 5507   4.459   1.492  13.140 -0.0316  0.3559  0.3594
  368MPD2    C5 5508   4.322   1.505  13.152  0.6899  0.3479 -0.2362
  368MPD2     H 5509   4.546   1.788  13.006 -3.0309  1.7471  1.0549
  368MPD2    H1 5510   4.493   1.400  13.186  0.0204 -0.7207 -1.7943
  368MPD2    H2 5511   4.166   1.644  13.122 -0.1986 -3.1827  1.8113
  368MPD2    H3 5512   4.257   1.432  13.199 -0.7381  0.8049 -1.5145
  368MPD2     N 5513   4.678   1.541  13.046 -0.7187  0.8391  0.3238
  368MPD2    H5 5514   4.699   1.443  13.062 -1.4108  0.4388 -1.1566
  368MPD2    N1 5515   4.286   1.850  13.029 -0.4555  0.0796 -0.1429
  368MPD2    H7 5516   4.187   1.858  13.052 -0.4253 -1.6829  0.6075
  369TMC3    C1 5517   4.240   2.038  12.903  0.1977  0.0530  0.0501
  369TMC3    C2 5518   4.266   2.086  12.777 -0.7995 -0.7555  0.7707
  369TMC3    C3 5519   4.161   2.131  12.696  0.4134  0.9004  0.3011
  369TMC3    C4 5520   4.115   2.044  12.950 -0.4664 -0.5798  0.3218
  369TMC3    C5 5521   4.012   2.096  12.878 -0.2465 -0.5158 -0.2248
  369TMC3    C6 5522   4.032   2.138  12.749  0.0260  0.2661  0.4718
  369TMC3     C 5523   4.349   1.960  12.966 -0.7900 -0.4471 -0.2134
  369TMC3     O 5524   4.467   1.977  12.934 -0.3049  0.0102  0.3586
  369TMC3     H 5525   4.369   2.097  12.743 -0.6259  1.2254  1.9349
  369TMC3    H1 5526   4.100   2.019  13.054  0.9203 -1.4333  0.3143
  369TMC3    H2 5527   3.951   2.155  12.679  1.4281  1.4097 -0.8654
  369TMC3    C7 5528   3.877   2.085  12.935 -0.3598 -0.0049 -0.0219
  369TMC3    C8 5529   4.182   2.167  12.555  0.1580  0.1923  0.1916
  369TMC3    O1 5530   3.871   2.101  13.059 -0.0544  0.1593 -0.2418
  369TMC3    O2 5531   4.096   2.227  12.499 -0.5957 -0.0351  0.5582
  370TMC3    C1 5532   3.842   2.245  15.950  0.0873  0.3933 -0.6958
  370TMC3    C2 5533   3.838   2.312  16.073 -0.1766 -0.4469  0.8872
  370TMC3    C3 5534   3.750   2.248  16.157  0.3261  0.0948 -0.3396
  370TMC3    C4 5535   3.765   2.133  15.926  0.4734  0.4290 -0.2508
  370TMC3    C5 5536   3.679   2.088  16.013  0.2637 -0.0720 -0.5301
  370TMC3    C6 5537   3.664   2.146  16.138  0.1207 -0.2386 -0.9892
  370TMC3     C 5538   3.956   2.271  15.865 -0.0279  0.8801  0.1754
  370TMC3     O 5539   3.973   2.189  15.772  0.2952 -0.4428 -0.9025
  370TMC3     H 5540   3.914   2.379  16.114 -0.5544  2.1722 -2.7530
  370TMC3    H1 5541   3.771   2.098  15.824  0.4485 -1.2024  0.3080
  370TMC3    H2 5542   3.603   2.105  16.218  2.4963 -2.2155 -0.1742
  370TMC3    C7 5543   3.624   1.953  15.984 -0.5556  0.2916  0.7178
  370TMC3    C8 5544   3.787   2.263  16.297  0.0363  0.7249 -0.0561
  370TMC3    O1 5545   3.512   1.917  16.017  0.4348 -1.0200 -0.3945
  370TMC3    O2 5546   3.900   2.303  16.316 -0.0186 -0.5321 -0.5829
  371TMC3    C1 5547   0.355   0.603  15.445  0.4290  0.3079 -0.0839
  371TMC3    C2 5548   0.222   0.561  15.446 -0.5563  0.0879 -0.1898
  371TMC3    C3 5549   0.129   0.664  15.455 -0.2519  0.6195  0.3902
  371TMC3    C4 5550   0.386   0.738  15.434  0.1005  0.2624  0.3196
  371TMC3    C5 5551   0.285   0.825  15.432  0.6529  0.0322 -0.8344
  371TMC3    C6 5552   0.157   0.793  15.437 -0.3263  0.0115  0.0498
  371TMC3     C 5553   0.449   0.513  15.389  0.2182 -0.3364 -0.0998
  371TMC3     O 5554   0.541   0.558  15.330  0.2324 -0.3480  0.1263
  371TMC3     H 5555   0.181   0.461  15.458  0.3405 -0.0093  2.1626
  371TMC3    H1 5556   0.490   0.765  15.418 -0.0159  0.7786  0.4487
  371TMC3    H2 5557   0.077   0.864  15.418 -0.6178  0.3156  2.3644
  371TMC3    C7 5558   0.316   0.966  15.389 -0.2853  0.1539 -0.4437
  371TMC3    C8 5559   4.715   0.627  15.504  0.7926 -0.0840  0.1650
  371TMC3    O1 5560   0.227   1.043  15.338  0.3526  0.1118  0.2791
  371TMC3    O2 5561   4.669   0.517  15.467 -0.2426 -0.3439  0.0322
  372MPD2     C 5562   0.145   1.932  13.224 -0.4800  0.1830  0.1632
  372MPD2    C1 5563   0.216   1.850  13.314 -0.8068 -0.8303  0.0332
  372MPD2    C2 5564   0.154   1.751  13.385 -0.1536 -1.0916 -0.2390
  372MPD2    C3 5565   0.014   1.739  13.371  0.2103  0.3409 -0.0991
  372MPD2    C4 5566   4.661   1.826  13.295  0.4653 -0.6378  0.7090
  372MPD2    C5 5567   0.005   1.916  13.217  0.5869 -0.4017 -0.2874
  372MPD2     H 5568   0.198   1.686  13.459  0.4549 -1.0656 -0.5826
  372MPD2    H1 5569   4.553   1.820  13.283  0.5076  1.3092 -0.5437
  372MPD2    H2 5570   0.200   1.995  13.155 -0.9022 -0.6503 -0.9300
  372MPD2    H3 5571   4.662   1.959  13.143  1.6930 -1.1538 -1.6996
  372MPD2     N 5572   4.669   1.645  13.443  0.0802  0.2234 -0.3583
  372MPD2    H5 5573   0.002   1.573  13.490 -0.3132 -0.5063 -1.0073
  372MPD2    N1 5574   0.353   1.882  13.340  0.5936  0.0693 -0.3811
  372MPD2    H7 5575   0.399   1.835  13.418 -1.1726 -0.3306  0.4172
  373TMC3    C1 5576   4.492   1.519  13.525  0.4462  0.2121  0.8360
  373TMC3    C2 5577   4.414   1.523  13.637 -0.3112 -0.2398 -0.1826
  373TMC3    C3 5578   4.394   1.418  13.722 -0.1131  0.6222 -1.0907
  373TMC3    C4 5579   4.562   1.406  13.508 -0.3305  0.3259 -0.1332
  373TMC3    C5 5580   4.540   1.305  13.590  0.1035  0.2237 -0.5413
  373TMC3    C6 5581   4.446   1.302  13.685  0.2902  0.1228 -0.1147
  373TMC3     C 5582   4.532   1.645  13.475 -0.7868 -0.7691 -0.6854
  373TMC3     O 5583   4.461   1.743  13.484  1.0358  0.1115  0.3130
  373TMC3     H 5584   4.352   1.612  13.646 -0.6811 -0.3701 -1.3653
  373TMC3    H1 5585   4.629   1.387  13.425  1.4177  0.3186  1.2655
  373TMC3    H2 5586   4.431   1.214  13.747  1.8990 -0.3731 -0.4326
  373TMC3    C7 5587   4.663   1.225  13.607 -0.0433 -0.3430 -0.0863
  373TMC3    C8 5588   4.442   1.442  13.856 -0.6000  0.0340  0.5531
  373TMC3    O1 5589   0.032   1.233  13.527  0.6134 -0.4511  0.0296
  373TMC3    O2 5590   4.489   1.344  13.916  0.8797 -0.2506 -0.0837
  374TMC3    C1 5591   0.420   2.036   9.685  0.3436  0.0878  0.2888
  374TMC3    C2 5592   0.509   2.133   9.728  0.5959  0.8783 -0.6260
  374TMC3    C3 5593   0.536   2.239   9.643  0.4510 -0.5151 -0.0213
  374TMC3    C4 5594   0.345   2.050   9.574 -0.7993  0.1889 -0.1805
  374TMC3    C5 5595   0.376   2.155   9.497 -0.4223  0.0109  0.4817
  374TMC3    C6 5596   0.471   2.249   9.521 -0.3838  0.5085 -0.5726
  374TMC3     C 5597   0.407   1.926   9.781  0.1716 -0.5540 -0.9562
  374TMC3     O 5598   0.487   1.919   9.872 -0.1338  0.4469  0.2345
  374TMC3     H 5599   0.566   2.127   9.820 -1.5392  0.3314  0.6632
  374TMC3    H1 5600   0.285   1.973   9.529  0.3544 -1.0917  0.4694
  374TMC3    H2 5601   0.471   2.335   9.454  1.3146  1.1784  0.3064
  374TMC3    C7 5602   0.296   2.181   9.381  0.0714  0.3092  0.6570
  374TMC3    C8 5603   0.617   2.354   9.682 -0.6037  0.1662  0.5859
  374TMC3    O1 5604   0.356   2.222   9.279  0.1399  0.1921 -0.4789
  374TMC3    O2 5605   0.605   2.460   9.620 -0.8361  0.1162 -0.4012
  375MPD2     C 5606   0.834   3.522  16.580  0.0693  0.3508  0.1027
  375MPD2    C1 5607   0.756   3.414  16.624  0.2691  0.3666 -0.5886
  375MPD2    C2 5608   0.812   3.287  16.637  0.5930  0.4123  0.1177
  375MPD2    C3 5609   0.945   3.259  16.610 -0.3272 -0.0729  0.3082
  375MPD2    C4 5610   1.021   3.377  16.583  0.3422  0.8034 -0.8968
  375MPD2    C5 5611   0.970   3.502  16.580 -0.2943 -0.0296 -0.1678
  375MPD2     H 5612   0.740   3.208  16.657  0.3387  0.4222 -0.7433
  375MPD2    H1 5613   1.126   3.371  16.559  0.5622 -0.0029  0.2342
  375MPD2    H2 5614   0.803   3.625  16.570  4.0553  1.6770  1.6152
  375MPD2    H3 5615   1.033   3.587  16.555  0.8789 -0.8895 -0.1272
  375MPD2     N 5616   1.005   3.130  16.603  0.0571  0.3903 -0.7901
  375MPD2    H5 5617   1.106   3.132  16.595  0.1027  2.0052  0.1618
  375MPD2    N1 5618   0.618   3.421  16.648  0.7986 -0.6153  0.2182
  375MPD2    H7 5619   0.584   3.333  16.686  0.1724 -1.3887 -2.1835
  376TMC3    C1 5620   1.017   2.886  16.573  0.4621  0.0391 -0.3352
  376TMC3    C2 5621   1.150   2.882  16.602  0.5964  0.2610 -0.1005
  376TMC3    C3 5622   1.223   2.771  16.561 -0.1723  0.1515 -0.5322
  376TMC3    C4 5623   0.957   2.778  16.514  0.2678  0.4953 -0.8773
  376TMC3    C5 5624   1.031   2.668  16.478  0.9595 -0.3168  0.5020
  376TMC3    C6 5625   1.169   2.664  16.507  0.2705  0.0399 -0.7386
  376TMC3     C 5626   0.940   3.009  16.593  0.3459  0.7626 -0.0905
  376TMC3     O 5627   0.819   2.989  16.596  0.0636  0.3408  0.2910
  376TMC3     H 5628   1.196   2.973  16.640 -2.0981  0.7003  2.0855
  376TMC3    H1 5629   0.852   2.779  16.486 -0.1413  4.2965  0.8090
  376TMC3    H2 5630   1.227   2.577  16.478  0.9288 -0.0973  1.0052
  376TMC3    C7 5631   0.989   2.591  16.357  0.2335 -0.4069 -0.2851
  376TMC3    C8 5632   1.364   2.789  16.561  0.3317 -0.4448 -0.9234
  376TMC3    O1 5633   1.041   2.482  16.334 -0.0345  0.3446  0.0915
  376TMC3    O2 5634   1.401   2.886  16.497 -0.0837 -0.9085 -0.7013
  377MPD2     C 5635   3.393   2.197  12.268  0.6378  0.5171  0.8843
  377MPD2    C1 5636   3.444   2.093  12.347 -0.5719 -0.0015  0.3767
  377MPD2    C2 5637   3.360   2.015  12.422  0.5331 -0.3668  0.1685
  377MPD2    C3 5638   3.224   2.039  12.422 -0.1064  0.3110  0.5144
  377MPD2    C4 5639   3.179   2.144  12.341 -0.0319 -0.6104 -0.3596
  377MPD2    C5 5640   3.264   2.227  12.276  0.1257  0.6393 -0.4376
  377MPD2     H 5641   3.402   1.932  12.476  2.8638  1.3618  1.0374
  377MPD2    H1 5642   3.074   2.172  12.344  0.2299  0.4351 -1.1031
  377MPD2    H2 5643   3.453   2.261  12.205  0.2284 -3.0505 -3.1888
  377MPD2    H3 5644   3.222   2.298  12.206 -3.0137  0.0653  0.8770
  377MPD2     N 5645   3.134   1.978  12.509  0.2356  0.1884 -0.1041
  377MPD2    H5 5646   3.040   2.016  12.518  0.5827  0.5707  2.0085
  377MPD2    N1 5647   3.587   2.083  12.349 -0.6465  0.2736 -0.0701
  377MPD2    H7 5648   3.646   2.141  12.290 -0.1965  0.6262  0.7189
  378TMC3    C1 5649   3.972   2.029  12.213 -0.1483  1.0856  0.6032
  378TMC3    C2 5650   3.838   2.042  12.255  0.2941 -1.1765 -0.1318
  378TMC3    C3 5651   3.801   1.979  12.372  0.0625  0.5566  0.0551
  378TMC3    C4 5652   4.064   1.954  12.286 -0.6335 -0.7772  0.7257
  378TMC3    C5 5653   4.016   1.891  12.397  0.1725  0.0539  0.2303
  378TMC3    C6 5654   3.888   1.900  12.437 -0.5500  0.4020 -0.1039
  378TMC3     C 5655   4.008   2.076  12.079  0.0976 -0.4112 -0.3896
  378TMC3     O 5656   3.934   2.163  12.038  0.2490 -0.7591 -0.1001
  378TMC3     H 5657   3.772   2.098  12.190  1.5146 -1.2219 -1.4122
  378TMC3    H1 5658   4.168   1.962  12.259 -1.1536 -0.5235 -1.2302
  378TMC3    H2 5659   3.859   1.848  12.527 -0.5857  0.0661 -0.3091
  378TMC3    C7 5660   4.111   1.831  12.491  0.0326  0.5592 -0.2048
  378TMC3    C8 5661   3.661   1.996  12.423 -0.4997 -0.4595 -0.7035
  378TMC3    O1 5662   4.090   1.849  12.609  0.0049 -0.5358 -0.1622
  378TMC3    O2 5663   3.635   1.924  12.518 -0.4749 -0.2305  0.1133
  379MPD2     C 5664   3.944   0.464  16.375  0.0357 -0.4375  0.3731
  379MPD2    C1 5665   4.027   0.391  16.289 -0.3121  0.4302  0.2736
  379MPD2    C2 5666   4.107   0.300  16.352  0.5885  0.2249 -0.1400
  379MPD2    C3 5667   4.109   0.275  16.492 -0.4673  0.0500 -0.4654
  379MPD2    C4 5668   4.018   0.350  16.565 -0.2355 -0.0986 -0.7505
  379MPD2    C5 5669   3.939   0.441  16.509 -0.6305 -0.2784  0.2832
  379MPD2     H 5670   4.183   0.254  16.290  0.8451 -1.5175  1.4667
  379MPD2    H1 5671   3.987   0.341  16.669 -1.1107 -4.6666 -1.3995
  379MPD2    H2 5672   3.879   0.544  16.341  0.0367 -0.9855 -0.9112
  379MPD2    H3 5673   3.873   0.498  16.573  2.4216  3.2471  0.3101
  379MPD2     N 5674   4.201   0.182  16.559 -0.3304 -0.3514 -0.2564
  379MPD2    H5 5675   4.190   0.172  16.660 -1.2158 -1.8035 -0.4978
  379MPD2    N1 5676   4.029   0.421  16.149  0.1698 -0.0541  0.1185
  379MPD2    H7 5677   3.966   0.491  16.110  0.6803 -0.3754 -1.3039
  380TMC3    C1 5678   4.085   0.400  15.915  0.7923  0.2731 -0.0068
  380TMC3    C2 5679   4.145   0.319  15.823 -0.2913  0.2190 -0.2454
  380TMC3    C3 5680   4.110   0.337  15.694  0.2428 -0.5280 -0.0445
  380TMC3    C4 5681   3.990   0.492  15.882 -0.6011  0.1043  0.3459
  380TMC3    C5 5682   3.954   0.499  15.753  0.7099  0.4234  0.2778
  380TMC3    C6 5683   4.016   0.429  15.655  0.1700  0.6659  0.5483
  380TMC3     C 5684   4.116   0.365  16.055  0.1006  0.4507  0.5873
  380TMC3     O 5685   4.201   0.279  16.068 -0.3418  0.1015 -0.0980
  380TMC3     H 5686   4.230   0.257  15.849  0.1566  0.5147 -1.0041
  380TMC3    H1 5687   3.957   0.569  15.952 -0.0542  0.2904  0.4003
  380TMC3    H2 5688   3.984   0.445  15.553 -2.6266 -1.8920  1.0085
  380TMC3    C7 5689   3.831   0.564  15.726  0.4832 -0.0189  0.2638
  380TMC3    C8 5690   4.210   0.324  15.596 -0.0402 -0.3055 -0.2859
  380TMC3    O1 5691   3.813   0.662  15.799 -0.4613 -0.2337 -0.0903
  380TMC3    O2 5692   4.213   0.413  15.513  0.0113 -0.3660 -0.1738
  381TMC3    C1 5693   3.807   1.420  16.373  0.1316  0.5681 -0.0849
  381TMC3    C2 5694   3.844   1.508  16.280 -0.1856  0.1386  0.0505
  381TMC3    C3 5695   3.877   1.630  16.330 -0.7724 -0.1901  0.0510
  381TMC3    C4 5696   3.789   1.457  16.505  0.8199  0.2134 -0.5459
  381TMC3    C5 5697   3.799   1.584  16.543  0.2676  0.1900 -0.6673
  381TMC3    C6 5698   3.859   1.670  16.458  0.3102  0.0255 -0.1676
  381TMC3     C 5699   3.802   1.280  16.344  0.2762  0.3182  0.0073
  381TMC3     O 5700   3.772   1.194  16.430  0.0296 -0.4667  0.9111
  381TMC3     H 5701   3.853   1.487  16.174  0.3854  0.8687 -0.0408
  381TMC3    H1 5702   3.754   1.376  16.568 -0.2739  0.0948 -1.3048
  381TMC3    H2 5703   3.860   1.777  16.476 -0.3174  0.0005  0.0127
  381TMC3    C7 5704   3.826   1.599  16.685 -0.8593  0.5543 -0.1678
  381TMC3    C8 5705   3.967   1.707  16.246 -0.1193 -0.0336 -0.0217
  381TMC3    O1 5706   3.898   1.520  16.739 -0.2682 -0.6356 -0.6931
  381TMC3    O2 5707   4.001   1.651  16.144 -0.4381  0.4156 -0.4784
  382MPD2     C 5708   3.396   4.121  17.094 -0.2694 -0.3610  0.1739
  382MPD2    C1 5709   3.310   4.198  17.168 -0.6769 -0.0720 -0.8438
  382MPD2    C2 5710   3.208   4.132  17.236  0.2169  0.1566  0.3491
  382MPD2    C3 5711   3.180   3.995  17.217  0.1462 -0.6118  0.1461
  382MPD2    C4 5712   3.273   3.917  17.143  1.0437  0.7626 -0.2742
  382MPD2    C5 5713   3.382   3.985  17.092 -0.6064 -0.1094  0.0297
  382MPD2     H 5714   3.133   4.188  17.292  0.9592 -0.3005  1.7835
  382MPD2    H1 5715   3.257   3.811  17.129 -0.6469  1.2319 -1.7712
  382MPD2    H2 5716   3.489   4.162  17.057  0.4861 -0.6290  1.7449
  382MPD2    H3 5717   3.457   3.933  17.033 -0.7102 -0.4416  0.1930
  382MPD2     N 5718   3.092   3.923  17.302  0.3721 -0.3280 -0.1329
  382MPD2    H5 5719   3.101   3.822  17.300  1.6817 -0.2405  0.7238
  382MPD2    N1 5720   3.328   4.335  17.209 -0.5801 -0.4157  0.1115
  382MPD2    H7 5721   3.256   4.380  17.265  0.2543 -0.2933  1.0860
  383TMC3    C1 5722   2.922   3.891  17.461 -0.1720  0.1932 -0.0343
  383TMC3    C2 5723   2.871   3.784  17.386  0.7107  0.2275  0.3744
  383TMC3    C3 5724   2.753   3.728  17.420  0.0963 -0.1056 -0.4540
  383TMC3    C4 5725   2.862   3.932  17.577 -0.8393 -0.4702 -0.1311
  383TMC3    C5 5726   2.751   3.863  17.614 -0.2807  0.2343  0.9483
  383TMC3    C6 5727   2.687   3.770  17.536  0.0517 -0.2375 -0.3009
  383TMC3     C 5728   3.015   3.987  17.400  0.1844 -0.1878  0.4108
  383TMC3     O 5729   3.014   4.101  17.451 -0.3635 -0.2890 -0.1302
  383TMC3     H 5730   2.916   3.756  17.291  0.1154  2.0638 -0.4468
  383TMC3    H1 5731   2.900   4.016  17.634  2.1801 -1.4402 -0.7484
  383TMC3    H2 5732   2.585   3.743  17.560  0.2032  0.3895  1.0665
  383TMC3    C7 5733   2.695   3.899   0.048  0.1171  0.1443  0.0320
  383TMC3    C8 5734   2.690   3.627  17.346  0.1307 -0.3523 -0.8990
  383TMC3    O1 5735   2.717   4.011   0.095  0.3748  0.7020  0.3650
  383TMC3    O2 5736   2.579   3.652  17.291 -0.2482  0.5195 -0.2113
  384MPD2     C 5737   0.380   0.115  11.892  0.1214  0.0818 -0.7997
  384MPD2    C1 5738   0.350   0.058  12.015  0.3056 -0.1149  0.0634
  384MPD2    C2 5739   0.385   4.647  12.034 -0.1195  0.2715  0.3985
  384MPD2    C3 5740   0.445   4.569  11.937  0.2908  0.0791  0.3295
  384MPD2    C4 5741   0.469   4.628  11.819  0.1988 -0.0343 -1.0114
  384MPD2    C5 5742   0.433   0.033  11.797  0.8588 -0.4634 -0.2974
  384MPD2     H 5743   0.364   4.606  12.132  0.0214  3.3236  1.7061
  384MPD2    H1 5744   0.499   4.565  11.736  0.5465 -2.0789  0.6634
  384MPD2    H2 5745   0.364   0.218  11.863  0.2679 -0.0648 -1.4085
  384MPD2    H3 5746   0.454   0.078  11.701 -1.9984 -1.2001 -1.2727
  384MPD2     N 5747   0.468   4.436  11.970  0.1350  0.0099  0.2225
  384MPD2    H5 5748   0.422   4.408  12.056 -0.8551  0.8460 -0.0442
  384MPD2    N1 5749   0.300   0.134  12.110  0.2736 -0.5787 -0.2791
  384MPD2    H7 5750   0.290   0.086  12.199  1.9700 -0.6687 -0.1495
  385TMC3    C1 5751   0.502   4.213  11.949  0.6141  0.3769 -0.5339
  385TMC3    C2 5752   0.614   4.149  11.996  0.0086  0.0170  0.2251
  385TMC3    C3 5753   0.616   4.091  12.119  0.2661 -0.1930  0.4129
  385TMC3    C4 5754   0.386   4.208  12.028  0.2998 -0.5955  0.3730
  385TMC3    C5 5755   0.402   4.175  12.161 -0.4799 -0.4273 -0.0758
  385TMC3    C6 5756   0.514   4.109  12.206  0.1363  0.5320  0.2171
  385TMC3     C 5757   0.530   4.344  11.893 -0.0545  0.4170 -0.3551
  385TMC3     O 5758   0.622   4.352  11.806 -0.0528  0.1159 -0.7560
  385TMC3     H 5759   0.705   4.156  11.938 -0.6675  0.4216 -0.7830
  385TMC3    H1 5760   0.300   4.269  12.001 -0.1653 -0.7053  1.6494
  385TMC3    H2 5761   0.534   4.078  12.308 -1.1790 -0.4141  0.1906
  385TMC3    C7 5762   0.347   4.271  12.249  0.4816 -0.4394  0.5769
  385TMC3    C8 5763   0.659   3.954  12.120 -0.2100  1.5077  0.2101
  385TMC3    O1 5764   0.319   4.379  12.197 -0.2382 -0.4467  0.2123
  385TMC3    O2 5765   0.672   3.892  12.225 -0.3711  0.5706  0.1480
  386TMC3    C1 5766   0.330   1.995  11.380 -0.3867 -0.4213 -0.0981
  386TMC3    C2 5767   0.383   1.974  11.258 -0.5062  0.0942 -0.2132
  386TMC3    C3 5768   0.300   2.019  11.162 -0.2948 -0.4816 -0.2181
  386TMC3    C4 5769   0.218   2.066  11.408 -0.1516  0.9399  0.4004
  386TMC3    C5 5770   0.153   2.123  11.309 -0.3946  0.0461 -0.5714
  386TMC3    C6 5771   0.186   2.089  11.182 -0.1867 -0.2651 -0.2605
  386TMC3     C 5772   0.403   1.927  11.490 -0.2642 -0.4545  0.4300
  386TMC3     O 5773   0.345   1.920  11.598  0.1640 -0.0267  0.2030
  386TMC3     H 5774   0.465   1.909  11.228 -1.5381 -0.7474 -1.2227
  386TMC3    H1 5775   0.199   2.085  11.513 -0.9337  2.3540 -0.0051
  386TMC3    H2 5776   0.155   2.152  11.099 -1.3180 -0.3156  0.1195
  386TMC3    C7 5777   0.041   2.211  11.348  0.2182 -1.1441  0.4176
  386TMC3    C8 5778   0.343   2.026  11.023  0.1394 -0.3303  0.0501
  386TMC3    O1 5779   0.001   2.203  11.461 -0.0808 -0.1508 -0.6907
  386TMC3    O2 5780   0.253   2.029  10.939 -0.1129  0.2570  0.5975
  387MPD2     C 5781   2.340   2.815   9.728 -0.1192 -0.3271 -0.1846
  387MPD2    C1 5782   2.457   2.816   9.802  0.4168  0.6268  0.2200
  387MPD2    C2 5783   2.483   2.703   9.877 -0.4011 -0.6235  0.7605
  387MPD2    C3 5784   2.390   2.599   9.886 -0.8500  0.3088  0.8121
  387MPD2    C4 5785   2.269   2.608   9.824  0.0445 -0.4482  0.6984
  387MPD2    C5 5786   2.250   2.719   9.740  0.6664 -0.4002 -0.1789
  387MPD2     H 5787   2.577   2.696   9.930  0.0474 -0.5044 -0.0164
  387MPD2    H1 5788   2.197   2.527   9.826  0.5668 -0.9326 -0.0911
  387MPD2    H2 5789   2.334   2.907   9.671  0.7520 -1.3372 -1.9269
  387MPD2    H3 5790   2.158   2.723   9.684  1.0886  1.6684 -0.7083
  387MPD2     N 5791   2.441   2.486   9.956 -0.3196  0.4621 -0.3875
  387MPD2    H5 5792   2.535   2.493   9.994 -0.4744 -0.7433  0.2329
  387MPD2    N1 5793   2.543   2.923   9.812 -0.0986 -0.1208  0.3357
  387MPD2    H7 5794   2.619   2.908   9.877 -0.4676 -0.8484  0.5981
  388TMC3    C1 5795   2.688   3.076   9.729 -0.1285 -0.1073  0.4092
  388TMC3    C2 5796   2.708   3.211   9.757  0.3811 -0.7003  0.0324
  388TMC3    C3 5797   2.835   3.248   9.795 -0.7732  0.5610 -0.1292
  388TMC3    C4 5798   2.786   2.978   9.751 -0.2169 -0.4908 -0.5920
  388TMC3    C5 5799   2.903   3.015   9.803  0.2119 -0.0703  0.1916
  388TMC3    C6 5800   2.924   3.144   9.836 -0.1995 -0.3204  0.0083
  388TMC3     C 5801   2.549   3.029   9.730  0.4762  0.7683 -0.4928
  388TMC3     O 5802   2.462   3.078   9.661 -0.3337  0.1266  0.5944
  388TMC3     H 5803   2.629   3.284   9.743  0.6974 -0.9857 -3.3358
  388TMC3    H1 5804   2.760   2.876   9.726  3.5674 -1.6123  0.1164
  388TMC3    H2 5805   3.022   3.171   9.874  0.5549 -0.9877 -1.4554
  388TMC3    C7 5806   2.990   2.914   9.853 -0.2932  0.1622  0.3277
  388TMC3    C8 5807   2.880   3.388   9.804  0.1163  0.4976 -0.0993
  388TMC3    O1 5808   3.093   2.948   9.909 -0.2410  0.0539 -0.1136
  388TMC3    O2 5809   2.989   3.407   9.858  0.2138  0.0116  0.0813
  389MPD2     C 5810   1.924   1.008  11.174 -0.1127 -0.4603  0.5217
  389MPD2    C1 5811   1.903   0.918  11.077  0.1559 -0.4434  0.2678
  389MPD2    C2 5812   1.874   0.791  11.103 -0.5739 -0.3097 -0.1343
  389MPD2    C3 5813   1.857   0.755  11.229  0.4172 -0.0089 -0.2122
  389MPD2    C4 5814   1.874   0.840  11.331  0.7424  0.1647  0.5425
  389MPD2    C5 5815   1.900   0.974  11.302 -0.2070  0.1737 -0.1690
  389MPD2     H 5816   1.857   0.725  11.018  0.1723 -1.1018  0.3328
  389MPD2    H1 5817   1.864   0.798  11.430 -0.1761  0.3001  0.5001
  389MPD2    H2 5818   1.948   1.112  11.155  0.0592 -0.6223 -0.1574
  389MPD2    H3 5819   1.923   1.033  11.389 -2.3828  2.2266 -0.9919
  389MPD2     N 5820   1.810   0.623  11.267 -0.0356 -0.3502 -0.2633
  389MPD2    H5 5821   1.781   0.619  11.364 -1.6706  0.8638 -0.6972
  389MPD2    N1 5822   1.945   0.965  10.949  0.1550  0.0483 -0.1614
  389MPD2    H7 5823   2.011   1.042  10.948  0.1170  0.0862  0.6026
  390TMC3    C1 5824   1.728   0.404  11.240 -0.3352 -0.0239 -0.1418
  390TMC3    C2 5825   1.682   0.302  11.156 -0.1432 -0.7253  0.0418
  390TMC3    C3 5826   1.620   0.197  11.215  1.2160  0.0490  0.4026
  390TMC3    C4 5827   1.709   0.409  11.372  0.4374 -0.0455 -0.8672
  390TMC3    C5 5828   1.644   0.305  11.430  0.3663  0.3337  0.1541
  390TMC3    C6 5829   1.605   0.197  11.349  0.4688  0.1872 -0.3538
  390TMC3     C 5830   1.788   0.522  11.178 -0.1528  0.6322 -0.2931
  390TMC3     O 5831   1.796   0.520  11.054  0.7751 -0.5712 -0.0982
  390TMC3     H 5832   1.690   0.313  11.049  2.6434  0.1171  0.3414
  390TMC3    H1 5833   1.772   0.464  11.442 -0.0821  1.0641 -1.2773
  390TMC3    H2 5834   1.569   0.104  11.391 -1.3691  0.0283 -2.2423
  390TMC3    C7 5835   1.517   0.355  11.488  0.9941  0.3000 -0.2730
  390TMC3    C8 5836   1.509   0.138  11.138 -0.0552 -0.0244  0.1204
  390TMC3    O1 5837   1.507   0.475  11.471 -0.5283 -0.0105  0.4296
  390TMC3    O2 5838   1.519   0.119  11.018  0.4822 -0.3139  0.4137
  391MPD2     C 5839   1.108   2.166  11.120  0.3363  0.6793 -0.0148
  391MPD2    C1 5840   1.217   2.241  11.091  0.2582  0.3022 -0.0823
  391MPD2    C2 5841   1.240   2.271  10.958 -0.5572 -0.2805 -0.5383
  391MPD2    C3 5842   1.155   2.228  10.854 -0.6241  0.0642  0.4474
  391MPD2    C4 5843   1.042   2.163  10.888 -0.4679  0.2702  0.0827
  391MPD2    C5 5844   1.017   2.139  11.018  0.1922  0.0412  0.3541
  391MPD2     H 5845   1.326   2.333  10.935 -0.6592  0.4260  0.9597
  391MPD2    H1 5846   0.968   2.132  10.815 -0.9924 -0.3455  0.8717
  391MPD2    H2 5847   1.072   2.144  11.220  0.8056  0.4125  0.0976
  391MPD2    H3 5848   0.925   2.092  11.049  0.9874  0.5816  3.5388
  391MPD2     N 5849   1.198   2.252  10.722 -0.3354 -0.3009 -0.0616
  391MPD2    H5 5850   1.285   2.305  10.714 -0.9657  0.6396 -0.6496
  391MPD2    N1 5851   1.306   2.268  11.195  0.1885  0.6345  0.1970
  391MPD2    H7 5852   1.265   2.237  11.283 -1.3227 -1.8813 -1.4010
  392TMC3    C1 5853   1.194   2.266  10.490 -0.2642  0.0234  0.5481
  392TMC3    C2 5854   1.112   2.272  10.379 -0.5922 -0.6545  0.1683
  392TMC3    C3 5855   1.152   2.349  10.276  0.1584  0.6706 -0.5007
  392TMC3    C4 5856   1.309   2.352  10.498 -0.2755  0.3162 -0.7116
  392TMC3    C5 5857   1.342   2.428  10.384 -0.1531  0.5179  0.6610
  392TMC3    C6 5858   1.272   2.423  10.268 -0.1532  0.2041  0.1125
  392TMC3     C 5859   1.135   2.202  10.607  0.6346 -0.1202 -0.6158
  392TMC3     O 5860   1.034   2.141  10.597 -0.2847 -0.4085  0.4035
  392TMC3     H 5861   1.032   2.200  10.365  1.9317 -3.1976 -1.2543
  392TMC3    H1 5862   1.370   2.360  10.587 -3.1201  0.4452  1.2238
  392TMC3    H2 5863   1.303   2.450  10.168  0.1548 -0.2546  0.0857
  392TMC3    C7 5864   1.449   2.520  10.391  0.3952  0.1907 -1.4592
  392TMC3    C8 5865   1.086   2.331  10.148 -0.4450 -0.3898  0.5397
  392TMC3    O1 5866   1.546   2.484  10.457 -0.3499 -0.3418  0.1200
  392TMC3    O2 5867   1.033   2.223  10.125  0.6190  0.3551 -0.1182
  393TMC3    C1 5868   0.397   0.205  10.216 -0.3436  0.1847  0.5836
  393TMC3    C2 5869   0.293   0.115  10.244 -0.0728  0.2314 -0.0164
  393TMC3    C3 5870   0.328   4.706  10.257  0.3635 -0.2100  0.2210
  393TMC3    C4 5871   0.523   0.162  10.190 -0.1450 -0.1844  0.3170
  393TMC3    C5 5872   0.547   0.029  10.201 -0.1260  0.0531 -0.1782
  393TMC3    C6 5873   0.449   4.661  10.227  0.5222 -0.5664 -0.3798
  393TMC3     C 5874   0.361   0.342  10.175 -0.1032  0.1134  0.0119
  393TMC3     O 5875   0.256   0.350  10.113  0.3418 -0.2971  0.3083
  393TMC3     H 5876   0.192   0.152  10.253  0.9216  2.4507  1.8853
  393TMC3    H1 5877   0.595   0.237  10.159  0.1550 -1.0944 -1.1784
  393TMC3    H2 5878   0.479   4.559  10.247  1.8657 -0.0824  0.0641
  393TMC3    C7 5879   0.681   4.700  10.191 -0.5994  0.0467  0.2221
  393TMC3    C8 5880   0.242   4.616  10.338 -0.0635  0.6752 -0.5736
  393TMC3    O1 5881   0.705   4.582  10.167  0.2397 -0.0680 -0.3946
  393TMC3    O2 5882   0.258   4.496  10.316  0.4425  0.7250 -0.2519
  394TMC3    C1 5883   1.932   0.999  10.717 -0.1613  0.4045  1.2711
  394TMC3    C2 5884   1.853   0.992  10.603  0.4804 -0.1521 -0.3392
  394TMC3    C3 5885   1.896   1.032  10.487 -0.2198 -0.1228 -0.0577
  394TMC3    C4 5886   2.063   1.033  10.706  0.0532  0.1106  0.3848
  394TMC3    C5 5887   2.110   1.073  10.583  0.8168  0.4137  0.3052
  394TMC3    C6 5888   2.023   1.076  10.472 -0.3571  0.2587  0.0852
  394TMC3     C 5889   1.892   0.914  10.829 -0.1284 -0.3708 -0.5736
  394TMC3     O 5890   1.787   0.853  10.822 -0.1381  0.5921  0.0720
  394TMC3     H 5891   1.748   0.965  10.606  0.8058 -1.2388  1.2037
  394TMC3    H1 5892   2.136   1.020  10.785  0.0864 -0.6919  0.2220
  394TMC3    H2 5893   2.053   1.114  10.375  0.8118  0.5959  0.5834
  394TMC3    C7 5894   2.248   1.065  10.554 -0.5905 -0.1609 -0.1797
  394TMC3    C8 5895   1.823   0.988  10.370  0.0447 -0.6160  0.0261
  394TMC3    O1 5896   2.288   1.125  10.455 -0.3638 -0.3971  0.2172
  394TMC3    O2 5897   1.805   1.071  10.284  0.2296 -0.0540  1.1764
  395TMC3    C1 5898   1.018   2.691  14.542  0.3802 -0.2133 -0.6319
  395TMC3    C2 5899   0.930   2.615  14.613  0.3339 -0.4801 -0.1602
  395TMC3    C3 5900   0.948   2.616  14.746 -0.4464  0.5744  0.0299
  395TMC3    C4 5901   1.108   2.779  14.597  0.1522  0.0849 -0.0880
  395TMC3    C5 5902   1.117   2.787  14.730 -0.1625 -0.0112  0.8322
  395TMC3    C6 5903   1.039   2.706  14.805 -0.1639 -0.8885 -0.6699
  395TMC3     C 5904   1.104   2.602  14.467  0.1731  0.2726 -0.0032
  395TMC3     O 5905   1.222   2.623  14.485  0.1063 -0.0054 -0.5801
  395TMC3     H 5906   0.869   2.541  14.564 -0.1723 -1.2744  1.6740
  395TMC3    H1 5907   1.170   2.846  14.538  1.5434 -0.6997  0.4857
  395TMC3    H2 5908   1.057   2.698  14.912 -0.9867 -0.1483 -0.4714
  395TMC3    C7 5909   1.239   2.837  14.787  0.4684 -0.0800 -0.1647
  395TMC3    C8 5910   0.907   2.497  14.831  0.5458 -0.2026  0.0722
  395TMC3    O1 5911   1.234   2.938  14.862 -0.4443  0.1258  0.0941
  395TMC3    O2 5912   0.901   2.519  14.951  0.5479  0.0364 -0.4766
  396MPD2     C 5913   1.413   3.809  17.618  0.2988 -0.2784 -0.9657
  396MPD2    C1 5914   1.400   3.745  17.492 -0.6253  0.8814 -0.5076
  396MPD2    C2 5915   1.423   3.809  17.377  0.1830 -0.1448 -0.7692
  396MPD2    C3 5916   1.474   3.934  17.379 -0.3068  0.2876 -0.0883
  396MPD2    C4 5917   1.497   4.003  17.501  0.0589 -0.3216  0.2823
  396MPD2    C5 5918   1.463   3.937  17.617 -0.9643 -0.3088 -0.3585
  396MPD2     H 5919   1.411   3.758  17.282 -1.4990 -0.4490 -0.4056
  396MPD2    H1 5920   1.542   4.102  17.495  0.1730 -0.4193 -0.4580
  396MPD2    H2 5921   1.381   3.765   0.020 -0.4311  0.7490 -0.7402
  396MPD2    H3 5922   1.483   3.992   0.015 -3.5646 -1.7169  1.0757
  396MPD2     N 5923   1.518   3.991  17.259  0.2239 -0.3992  0.0363
  396MPD2    H5 5924   1.598   4.053  17.265 -0.1030  0.0052  0.2171
  396MPD2    N1 5925   1.361   3.613  17.486  0.2727 -0.4286 -0.2263
  396MPD2    H7 5926   1.316   3.574  17.569 -0.7784 -0.3591 -0.7632
  397TMC3    C1 5927   1.339   3.402  17.406  1.1178  0.0054 -0.7012
  397TMC3    C2 5928   1.333   3.341  17.283  0.1370 -0.2858 -0.2501
  397TMC3    C3 5929   1.412   3.234  17.255 -0.3387  0.0946 -0.4939
  397TMC3    C4 5930   1.419   3.332  17.499  0.2069 -0.2764  0.0250
  397TMC3    C5 5931   1.487   3.217  17.464  0.2136 -0.3398  0.5625
  397TMC3    C6 5932   1.479   3.164  17.343  0.1724 -0.1556  0.3865
  397TMC3     C 5933   1.390   3.534  17.383  0.1298 -0.2883  0.4179
  397TMC3     O 5934   1.473   3.546  17.292  0.4139 -0.0804 -0.0586
  397TMC3     H 5935   1.289   3.403  17.206 -1.7024  0.3357  1.3096
  397TMC3    H1 5936   1.446   3.372  17.596 -0.5104 -0.9151  0.4912
  397TMC3    H2 5937   1.547   3.087  17.308  1.0452  0.3766  0.9076
  397TMC3    C7 5938   1.508   3.120  17.562  0.0201 -0.6707  0.5690
  397TMC3    C8 5939   1.466   3.234  17.118  0.1207  0.3225  0.0048
  397TMC3    O1 5940   1.508   3.000  17.532 -0.1424 -0.0578  0.3891
  397TMC3    O2 5941   1.384   3.251  17.030 -0.1453  0.3960 -0.2655
  398MPD2     C 5942   4.169   4.388   0.108 -0.2670  0.1307 -0.2390
  398MPD2    C1 5943   4.177   4.310   0.225  0.7432  0.2058  0.0647
  398MPD2    C2 5944   4.205   4.378   0.341  0.1434  0.1050 -0.6799
  398MPD2    C3 5945   4.228   4.512   0.342  0.2683 -0.5520 -0.2461
  398MPD2    C4 5946   4.209   4.584   0.226 -0.3655  0.3845 -0.0582
  398MPD2    C5 5947   4.180   4.521   0.110  0.0979 -0.3914  0.1856
  398MPD2     H 5948   4.224   4.320   0.431 -0.6585 -1.1318 -1.3108
  398MPD2    H1 5949   4.225   4.690   0.213 -1.4141  0.3105 -1.9414
  398MPD2    H2 5950   4.157   4.349   0.007 -0.1464  0.6651 -0.4588
  398MPD2    H3 5951   4.172   4.568   0.013 -0.6602  0.1092  0.4927
  398MPD2     N 5952   4.260   4.573   0.467 -0.2948 -0.3772 -0.2880
  398MPD2    H5 5953   4.295   4.513   0.541  0.1172 -2.2027 -1.9531
  398MPD2    N1 5954   4.162   4.175   0.203  0.4438 -0.3641  0.0277
  398MPD2    H7 5955   4.132   4.144   0.111 -0.1863 -1.0200  0.4538
  399TMC3    C1 5956   4.120   3.955   0.270 -0.1632  0.2304  0.0478
  399TMC3    C2 5957   4.180   3.840   0.297  0.1686  0.4333  0.6454
  399TMC3    C3 5958   4.110   3.728   0.266  0.6940  0.8554  0.3357
  399TMC3    C4 5959   3.996   3.970   0.214  0.2502  0.3496 -0.1161
  399TMC3    C5 5960   3.926   3.853   0.200 -0.5021  0.0250 -0.3593
  399TMC3    C6 5961   3.983   3.726   0.208  0.5036  0.2246 -0.6766
  399TMC3     C 5962   4.185   4.082   0.298  0.2144  0.0006  0.2611
  399TMC3     O 5963   4.269   4.090   0.387 -0.1414  0.0414  0.6552
  399TMC3     H 5964   4.277   3.825   0.343  0.0914  3.9109  1.9306
  399TMC3    H1 5965   3.948   4.067   0.212 -0.5859  0.0252  3.5769
  399TMC3    H2 5966   3.925   3.636   0.196  1.3361 -0.3941 -0.0875
  399TMC3    C7 5967   3.782   3.862   0.198  0.3411 -0.9599 -0.0850
  399TMC3    C8 5968   4.180   3.604   0.265  0.8309  0.3000 -0.3761
  399TMC3    O1 5969   3.722   3.759   0.165  0.3906  0.0967 -0.5442
  399TMC3    O2 5970   4.299   3.603   0.297 -0.6746 -0.2431  0.3421
  400TMC3    C1 5971   2.856   2.892  16.844  0.0352 -0.1537 -0.3390
  400TMC3    C2 5972   2.752   2.908  16.759 -0.7926  0.3521  0.1408
  400TMC3    C3 5973   2.733   3.034  16.716 -0.1248  0.1725  0.7388
  400TMC3    C4 5974   2.947   2.984  16.883  0.3651 -0.1640 -0.7134
  400TMC3    C5 5975   2.937   3.106  16.824  0.1819  0.1082  1.0360
  400TMC3    C6 5976   2.830   3.138  16.744  0.3491  0.6489  0.4881
  400TMC3     C 5977   2.898   2.750  16.855 -0.0938  0.5790  0.6571
  400TMC3     O 5978   2.859   2.671  16.771  0.0503  1.0510 -0.8586
  400TMC3     H 5979   2.681   2.830  16.739 -0.0248  0.5128 -3.1497
  400TMC3    H1 5980   3.040   2.958  16.932 -0.3265 -2.0137 -0.3949
  400TMC3    H2 5981   2.822   3.232  16.691 -0.9587 -0.1930 -0.8089
  400TMC3    C7 5982   3.043   3.196  16.832 -0.2467 -0.2015  0.3833
  400TMC3    C8 5983   2.612   3.072  16.646 -0.1382  0.3350  1.0798
  400TMC3    O1 5984   3.152   3.157  16.863 -0.2240 -0.5048  0.5546
  400TMC3    O2 5985   2.576   3.190  16.647  0.4416 -0.4545 -0.0838
  401MPD2     C 5986   0.950   1.582   0.254 -0.6187  0.4480 -0.1728
  401MPD2    C1 5987   0.909   1.580   0.391 -0.2013 -0.6234 -1.0433
  401MPD2    C2 5988   0.977   1.493   0.473 -0.8817 -0.4129 -0.9870
  401MPD2    C3 5989   1.077   1.413   0.429  0.4851  0.8251 -0.1793
  401MPD2    C4 5990   1.123   1.418   0.300 -1.3209 -0.0236  0.0216
  401MPD2    C5 5991   1.054   1.507   0.216 -1.5286  0.2483  0.5786
  401MPD2     H 5992   0.952   1.496   0.578 -1.4762  1.3034 -1.1656
  401MPD2    H1 5993   1.202   1.357   0.258 -0.7378  0.1133  0.9216
  401MPD2    H2 5994   0.901   1.648   0.184 -0.5632  0.9054  0.2184
  401MPD2    H3 5995   1.082   1.519   0.112  0.6942 -0.7628  1.0614
  401MPD2     N 5996   1.149   1.343   0.535  0.0684  0.3628 -0.2100
  401MPD2    H5 5997   1.120   1.352   0.632  0.2043 -0.4635 -0.0868
  401MPD2    N1 5998   0.804   1.664   0.440 -0.1632  0.6825 -0.5455
  401MPD2    H7 5999   0.791   1.660   0.541  1.8524 -0.5406 -0.3499
  402TMC3    C1 6000   1.322   1.203   0.626 -0.0874 -0.2154 -0.3293
  402TMC3    C2 6001   1.314   1.259   0.749 -0.8661  0.0671  0.6495
  402TMC3    C3 6002   1.405   1.202   0.842  0.0954 -0.1744  0.1946
  402TMC3    C4 6003   1.415   1.108   0.597  0.2556  0.1471 -0.2050
  402TMC3    C5 6004   1.496   1.052   0.692  0.6948 -0.5485  0.2328
  402TMC3    C6 6005   1.484   1.090   0.825  0.4830 -0.3781 -0.8629
  402TMC3     C 6006   1.247   1.251   0.513  0.4636 -0.1912 -0.3016
  402TMC3     O 6007   1.266   1.187   0.410  0.1186 -0.6441  0.1123
  402TMC3     H 6008   1.237   1.327   0.785 -1.2272 -0.0404  0.0807
  402TMC3    H1 6009   1.422   1.064   0.498 -0.7754 -2.8361  1.0434
  402TMC3    H2 6010   1.544   1.042   0.902 -0.8867 -1.1198 -0.2642
  402TMC3    C7 6011   1.555   0.927   0.665 -0.4646  0.3037  0.2616
  402TMC3    C8 6012   1.403   1.238   0.982 -0.6209 -0.1241  0.1827
  402TMC3    O1 6013   1.553   0.843   0.754  0.4282 -0.5852  0.1515
  402TMC3    O2 6014   1.493   1.201   1.053 -0.0723  0.5899 -0.4038
  403MPD2     C 6015   4.275   0.305  13.265  0.1463  0.5584  0.2760
  403MPD2    C1 6016   4.333   0.188  13.300  0.3945  0.3603  0.1608
  403MPD2    C2 6017   4.437   0.188  13.389 -0.1073 -0.3018  0.7119
  403MPD2    C3 6018   4.486   0.304  13.449 -0.3713 -0.1774 -0.1698
  403MPD2    C4 6019   4.421   0.422  13.413  0.1615 -0.9033 -0.4164
  403MPD2    C5 6020   4.317   0.419  13.324 -0.2890 -0.1780  0.2228
  403MPD2     H 6021   4.484   0.093  13.408 -1.7252 -1.1862  0.2758
  403MPD2    H1 6022   4.437   0.520  13.455 -0.2063  0.2211 -2.8840
  403MPD2    H2 6023   4.193   0.308  13.195  0.2149 -0.3866  0.1611
  403MPD2    H3 6024   4.282   0.517  13.293 -1.3666 -0.4527  0.5726
  403MPD2     N 6025   4.601   0.300  13.531 -0.2045 -0.1643  1.0359
  403MPD2    H5 6026   4.644   0.209  13.536  0.7298  0.2818  1.1303
  403MPD2    N1 6027   4.281   0.071  13.242  0.1787  0.2641 -0.4652
  403MPD2    H7 6028   4.214   0.074  13.166  0.3112 -0.7222 -0.6184
  404TMC3    C1 6029   4.210   4.575  13.231 -0.2685 -0.0381 -1.0555
  404TMC3    C2 6030   4.182   4.463  13.295  0.1285  0.2408  0.0011
  404TMC3    C3 6031   4.139   4.353  13.230  0.1701 -0.4701  0.7018
  404TMC3    C4 6032   4.204   4.574  13.097 -0.4789 -0.2695  0.0199
  404TMC3    C5 6033   4.158   4.462  13.031  0.2927  0.1277  0.1127
  404TMC3    C6 6034   4.126   4.345  13.095 -0.0200 -0.1117 -0.4064
  404TMC3     C 6035   4.300   4.667  13.292 -0.2049  0.0310  0.0292
  404TMC3     O 6036   4.374   4.628  13.379  0.5769 -0.4457  0.1974
  404TMC3     H 6037   4.192   4.474  13.403 -0.9543 -1.7053  0.3115
  404TMC3    H1 6038   4.236   4.658  13.036 -0.5848  0.5480  1.0962
  404TMC3    H2 6039   4.113   4.250  13.045  0.4283 -0.4464  0.1322
  404TMC3    C7 6040   4.194   4.452  12.888  0.2511  1.4252 -0.3348
  404TMC3    C8 6041   4.150   4.225  13.295  0.0086  0.8281  0.0212
  404TMC3    O1 6042   4.307   4.483  12.856  0.0021  0.1947 -0.1481
  404TMC3    O2 6043   4.210   4.134  13.241  0.0681  0.2297 -0.6311
  405MPD2     C 6044   0.099   0.546  14.425  0.2663  0.4577  1.1312
  405MPD2    C1 6045   0.070   0.451  14.327  0.2367 -0.1933  0.4101
  405MPD2    C2 6046   4.694   0.483  14.237  0.2150 -0.2654  0.8383
  405MPD2    C3 6047   4.621   0.600  14.242  0.3482  0.2694 -0.2309
  405MPD2    C4 6048   4.652   0.694  14.342  0.1869 -0.9351 -0.0010
  405MPD2    C5 6049   0.032   0.662  14.433  0.4163  0.0388  0.1469
  405MPD2     H 6050   4.677   0.421  14.150  2.9717 -0.9069  0.7273
  405MPD2    H1 6051   4.599   0.786  14.366  1.1160 -0.7096  1.2086
  405MPD2    H2 6052   0.179   0.532  14.497 -0.1919 -1.2402  1.3246
  405MPD2    H3 6053   0.052   0.732  14.513 -0.4578 -0.1340  0.5090
  405MPD2     N 6054   4.516   0.616  14.149 -0.4569 -0.0105 -0.0663
  405MPD2    H5 6055   4.517   0.553  14.069  0.4786  0.4943 -0.4502
  405MPD2    N1 6056   0.147   0.332  14.315  0.2370  0.5812  0.4050
  405MPD2    H7 6057   0.190   0.310  14.404 -0.4072 -1.6523  0.1679
  406TMC3    C1 6058   4.107   0.701  13.971  0.0103 -0.7413  0.3199
  406TMC3    C2 6059   4.092   0.565  13.945  0.0752  0.4303  0.0995
  406TMC3    C3 6060   4.191   0.482  13.992  0.5905  0.5487  0.4219
  406TMC3    C4 6061   4.214   0.747  14.037  0.2179  0.4420  0.0627
  406TMC3    C5 6062   4.309   0.658  14.077 -0.4161 -0.3085  0.1616
  406TMC3    C6 6063   4.297   0.525  14.062 -0.3260 -0.0952  0.5921
  406TMC3     C 6064   3.988   0.764  14.017  0.4836 -0.2813  0.0078
  406TMC3     O 6065   3.990   0.887  14.020 -0.2400 -0.2359  0.2053
  406TMC3     H 6066   4.016   0.538  13.873 -0.6536 -1.3376  1.5088
  406TMC3    H1 6067   4.227   0.851  14.067 -1.7293  0.7865 -0.3288
  406TMC3    H2 6068   4.347   0.454  14.127  0.7000 -1.6549 -1.9371
  406TMC3    C7 6069   4.415   0.712  14.155  0.0475  0.7795  0.5545
  406TMC3    C8 6070   4.191   0.347  13.949  0.1019  0.2127 -0.1873
  406TMC3    O1 6071   4.412   0.823  14.203  0.3412 -0.3308  0.1279
  406TMC3    O2 6072   4.085   0.300  13.917  0.1202 -0.8862  0.5387
  407MPD2     C 6073   1.870   2.623  10.025 -0.3039  1.2510  0.1495
  407MPD2    C1 6074   1.985   2.540  10.040 -0.1791  0.7374 -0.1227
  407MPD2    C2 6075   2.095   2.601  10.097 -0.0142  0.3688  1.3373
  407MPD2    C3 6076   2.094   2.732  10.145 -0.3032 -1.0195  0.5316
  407MPD2    C4 6077   1.976   2.801  10.155  0.1426  0.4473 -0.6167
  407MPD2    C5 6078   1.868   2.745  10.088 -0.1677  0.7675  0.0984
  407MPD2     H 6079   2.184   2.539  10.097 -0.0419  0.3335 -0.0620
  407MPD2    H1 6080   1.960   2.896  10.204  0.5696  0.2262 -0.0478
  407MPD2    H2 6081   1.775   2.586   9.988 -0.7918  0.4211  2.2223
  407MPD2    H3 6082   1.774   2.799  10.090 -1.2504 -1.0648 -2.1635
  407MPD2     N 6083   2.210   2.783  10.201  0.2910 -0.4466 -0.7491
  407MPD2    H5 6084   2.210   2.884  10.214  1.0752 -0.5609  0.1744
  407MPD2    N1 6085   1.989   2.404   9.980  0.3017 -0.5049  0.5842
  407MPD2    H7 6086   2.076   2.353   9.995  0.4248 -0.1633  1.0103
  408TMC3    C1 6087   1.915   2.209   9.849  0.7463  0.2600 -0.0560
  408TMC3    C2 6088   2.036   2.174   9.784 -0.6864 -0.0073 -0.6765
  408TMC3    C3 6089   2.039   2.077   9.685 -0.4644 -0.0469 -0.1199
  408TMC3    C4 6090   1.799   2.152   9.801 -0.2339 -0.1751  0.1254
  408TMC3    C5 6091   1.811   2.081   9.686  0.6927  0.5372 -0.6360
  408TMC3    C6 6092   1.927   2.032   9.628 -0.4749 -0.5030 -0.2109
  408TMC3     C 6093   1.893   2.346   9.892 -0.1038  0.1754 -0.1356
  408TMC3     O 6094   1.795   2.399   9.838  0.2067 -0.2326 -0.1540
  408TMC3     H 6095   2.134   2.202   9.821 -1.4354 -0.4519  1.6708
  408TMC3    H1 6096   1.704   2.187   9.841 -0.1468  2.4597 -1.9723
  408TMC3    H2 6097   1.923   1.950   9.558 -1.9982 -0.3540 -0.2950
  408TMC3    C7 6098   1.691   2.047   9.605  0.5209 -0.1885  0.6920
  408TMC3    C8 6099   2.155   1.993   9.666  0.4209  0.2512  0.2940
  408TMC3    O1 6100   1.707   2.053   9.484 -0.1086 -0.2234  0.1061
  408TMC3    O2 6101   2.125   1.875   9.671 -1.2844  0.0020  0.3374
  409MPD2     C 6102   1.598   2.973  16.801  0.3066  0.2082 -0.1567
  409MPD2    C1 6103   1.699   2.916  16.872  0.1096 -0.0976  0.4051
  409MPD2    C2 6104   1.828   2.949  16.845  0.3128 -0.4048 -1.2520
  409MPD2    C3 6105   1.864   3.041  16.749 -0.3223 -0.1077  0.3387
  409MPD2    C4 6106   1.757   3.097  16.673  0.1328 -0.2099 -0.0918
  409MPD2    C5 6107   1.633   3.052  16.696  0.5494 -0.7606  0.1532
  409MPD2     H 6108   1.909   2.907  16.903 -0.5565  0.4882  0.5929
  409MPD2    H1 6109   1.775   3.174  16.599 -0.1609 -0.8976 -0.8693
  409MPD2    H2 6110   1.492   2.952  16.803  0.2182  0.5144 -1.9057
  409MPD2    H3 6111   1.560   3.105  16.637  2.2487  1.9708  0.5055
  409MPD2     N 6112   1.987   3.099  16.737  0.0862  0.5806  0.0312
  409MPD2    H5 6113   1.992   3.182  16.679 -3.1957  1.6304  1.2522
  409MPD2    N1 6114   1.681   2.805  16.963  0.5904  0.5232 -0.2492
  409MPD2    H7 6115   1.759   2.755  17.004  0.0750  2.1907  2.7717
  410TMC3    C1 6116   2.211   3.162  16.779 -0.2809  0.0986 -0.6406
  410TMC3    C2 6117   2.285   3.223  16.875  0.2692 -0.4699  1.2334
  410TMC3    C3 6118   2.337   3.346  16.850 -0.7824 -0.2024 -0.2539
  410TMC3    C4 6119   2.199   3.215  16.656 -0.6459  0.3158  0.0773
  410TMC3    C5 6120   2.262   3.329  16.626  0.8252  0.8671 -0.0554
  410TMC3    C6 6121   2.321   3.404  16.723 -0.9081 -0.6589 -1.2563
  410TMC3     C 6122   2.093   3.082  16.824  0.6020 -0.2014  0.7963
  410TMC3     O 6123   2.112   3.006  16.919  0.3470 -0.0253 -0.3672
  410TMC3     H 6124   2.281   3.183  16.975 -2.7346 -0.8712  0.9400
  410TMC3    H1 6125   2.154   3.157  16.577 -0.8597  0.3327  0.1859
  410TMC3    H2 6126   2.354   3.506  16.702  2.6120 -2.4318 -4.2181
  410TMC3    C7 6127   2.220   3.383  16.497  0.0381 -0.3215  0.0231
  410TMC3    C8 6128   2.439   3.389  16.938  0.1402  0.8673  0.4403
  410TMC3    O1 6129   2.122   3.324  16.451  0.1418 -0.4381  0.3951
  410TMC3    O2 6130   2.474   3.506  16.932  0.2472 -0.1097 -0.2271
  411MPD2     C 6131   2.172   3.402  14.505  0.1216 -0.6819 -0.2867
  411MPD2    C1 6132   2.048   3.441  14.463  0.1507 -0.1562  0.2084
  411MPD2    C2 6133   1.939   3.357  14.479  0.3918 -0.4800  0.5257
  411MPD2    C3 6134   1.959   3.227  14.526  0.4045 -0.5202  0.8027
  411MPD2    C4 6135   2.086   3.185  14.563 -0.2834  0.2656  0.6503
  411MPD2    C5 6136   2.188   3.277  14.553 -0.1633  0.1589  0.3669
  411MPD2     H 6137   1.844   3.386  14.434  0.1766 -0.3771  1.0452
  411MPD2    H1 6138   2.105   3.095  14.621  0.0396 -0.2933 -0.3221
  411MPD2    H2 6139   2.258   3.469  14.500  0.4134 -1.0263  0.1560
  411MPD2    H3 6140   2.286   3.247  14.589 -0.1832 -0.3018  0.0325
  411MPD2     N 6141   1.852   3.136  14.537  0.8882 -0.0755  0.3007
  411MPD2    H5 6142   1.878   3.038  14.529 -0.9167 -0.5164 -0.1507
  411MPD2    N1 6143   2.040   3.573  14.417  0.0535 -0.0760  0.2689
  411MPD2    H7 6144   2.126   3.626  14.403 -0.7166  0.8982 -0.8380
  412TMC3    C1 6145   1.622   3.064  14.539  0.1299  0.3870  0.0725
  412TMC3    C2 6146   1.495   3.090  14.584 -0.4151 -0.3472  0.3571
  412TMC3    C3 6147   1.390   3.019  14.529 -0.0409  0.5243  0.1928
  412TMC3    C4 6148   1.652   2.971  14.440  0.0617 -0.0002 -0.0611
  412TMC3    C5 6149   1.545   2.903  14.384  0.7467 -0.1450 -0.4685
  412TMC3    C6 6150   1.421   2.921  14.436  1.0262  0.0225 -0.2362
  412TMC3     C 6151   1.720   3.173  14.551 -0.0389 -0.2265  0.3676
  412TMC3     O 6152   1.674   3.285  14.576 -0.2020  0.2782  0.0632
  412TMC3     H 6153   1.474   3.173  14.650  1.8631  0.8734 -0.4282
  412TMC3    H1 6154   1.751   2.981  14.397 -0.1884  0.6356 -0.4900
  412TMC3    H2 6155   1.341   2.860  14.396 -0.4907  2.0483 -0.2611
  412TMC3    C7 6156   1.547   2.928  14.241 -0.5447 -0.6454  0.3079
  412TMC3    C8 6157   1.280   3.101  14.493  0.2112 -0.0514  0.6807
  412TMC3    O1 6158   1.459   2.993  14.184 -0.2844 -0.8591  0.3150
  412TMC3    O2 6159   1.213   3.158  14.580 -0.0247 -0.1231 -0.0869
  413MPD2     C 6160   3.373   1.327  15.464  0.1428 -0.1793 -0.2810
  413MPD2    C1 6161   3.340   1.249  15.359 -0.2845  0.5072  0.6168
  413MPD2    C2 6162   3.423   1.151  15.324  0.4966  0.0698  0.2451
  413MPD2    C3 6163   3.544   1.127  15.395  0.2496  0.7048 -0.1752
  413MPD2    C4 6164   3.578   1.215  15.497  0.4816 -1.5817 -0.3899
  413MPD2    C5 6165   3.488   1.311  15.536  0.2013  0.3733  0.3340
  413MPD2     H 6166   3.397   1.097  15.234 -0.0403  0.6096  0.0709
  413MPD2    H1 6167   3.671   1.205  15.553 -0.5785  0.4551  1.7241
  413MPD2    H2 6168   3.319   1.419  15.481  1.0318  0.4452 -0.8672
  413MPD2    H3 6169   3.505   1.386  15.613 -1.8168  1.2349 -0.0510
  413MPD2     N 6170   3.635   1.032  15.335  0.0488  0.1635  0.1576
  413MPD2    H5 6171   3.592   0.987  15.254  0.0188  0.3093  0.0935
  413MPD2    N1 6172   3.218   1.271  15.299 -0.0603 -0.1483  0.4110
  413MPD2    H7 6173   3.179   1.352  15.346 -0.0616  0.1490 -0.1010
  414TMC3    C1 6174   3.822   0.886  15.294 -0.1770  0.1050 -0.4387
  414TMC3    C2 6175   3.934   0.825  15.343 -0.2623 -0.1780 -0.9243
  414TMC3    C3 6176   3.982   0.709  15.276 -0.4442 -0.5773  0.8646
  414TMC3    C4 6177   3.753   0.834  15.188  0.0998 -0.3431 -0.4638
  414TMC3    C5 6178   3.797   0.715  15.136 -0.0406  0.1147  0.0924
  414TMC3    C6 6179   3.911   0.653  15.172  0.8824  0.0523 -0.3994
  414TMC3     C 6180   3.763   0.992  15.376  0.7283 -0.4707  0.9050
  414TMC3     O 6181   3.833   1.042  15.460 -0.5699 -0.2913 -0.4159
  414TMC3     H 6182   3.982   0.864  15.432 -1.2639  1.1717 -0.9870
  414TMC3    H1 6183   3.665   0.878  15.144 -0.1760  0.2208  0.6686
  414TMC3    H2 6184   3.939   0.565  15.116  1.1755 -1.1228  1.5979
  414TMC3    C7 6185   3.709   0.656  15.035 -0.0326 -0.0053 -0.2548
  414TMC3    C8 6186   4.124   0.697  15.267  0.1680 -1.2127  0.6625
  414TMC3    O1 6187   3.587   0.682  15.051 -0.3607 -0.0010  0.9428
  414TMC3    O2 6188   4.164   0.591  15.222 -0.1081  0.9783 -0.1723
  415TMC3    C1 6189   0.277   4.480   9.868  0.4025  0.3464 -0.8261
  415TMC3    C2 6190   0.382   4.566   9.848  0.0005  0.6569  0.3267
  415TMC3    C3 6191   0.470   4.541   9.747 -0.4256 -0.2011  0.6388
  415TMC3    C4 6192   0.247   4.374   9.785  1.0150 -0.7896  0.3160
  415TMC3    C5 6193   0.336   4.355   9.678 -0.1798  0.0327  0.7634
  415TMC3    C6 6194   0.453   4.435   9.661 -0.0262 -0.8368  0.7701
  415TMC3     C 6195   0.179   4.514   9.978  0.0676  0.1417 -0.3408
  415TMC3     O 6196   0.110   4.421  10.023 -0.0630  0.1030 -0.5005
  415TMC3     H 6197   0.396   4.636   9.930  1.6763 -0.3676  0.9125
  415TMC3    H1 6198   0.153   4.325   9.808 -0.2946  2.1231  1.2133
  415TMC3    H2 6199   0.510   4.412   9.572 -0.7931 -1.5625  0.4649
  415TMC3    C7 6200   0.282   4.291   9.560  0.2153 -0.2986 -0.4454
  415TMC3    C8 6201   0.600   4.608   9.746  0.4789  0.3489 -0.1163
  415TMC3    O1 6202   0.363   4.285   9.467  0.1105  0.2486  0.0055
  415TMC3    O2 6203   0.690   4.543   9.693 -0.3256  0.6800  1.1398
  416MPD2     C 6204   1.524   3.316  11.369  0.2892 -0.3888 -0.1704
  416MPD2    C1 6205   1.392   3.289  11.346  0.1880  0.1651  0.6044
  416MPD2    C2 6206   1.366   3.175  11.274 -0.2947 -0.1541  0.6465
  416MPD2    C3 6207   1.468   3.090  11.226 -0.7518  0.1631 -0.0949
  416MPD2    C4 6208   1.593   3.115  11.269  0.2054  0.7479  0.1199
  416MPD2    C5 6209   1.617   3.229  11.334 -0.5849 -0.0924 -0.1300
  416MPD2     H 6210   1.264   3.142  11.256 -0.4648  0.1869  0.9950
  416MPD2    H1 6211   1.674   3.044  11.261  0.1720  0.8555 -1.1781
  416MPD2    H2 6212   1.553   3.410  11.415  0.9074  0.8314 -3.0196
  416MPD2    H3 6213   1.719   3.253  11.359 -0.3741 -1.6560  0.5507
  416MPD2     N 6214   1.442   2.970  11.160 -0.4309 -0.0449  0.3804
  416MPD2    H5 6215   1.521   2.917  11.124 -0.1761  3.1795 -3.7696
  416MPD2    N1 6216   1.299   3.384  11.398  0.6641 -0.4403 -0.1830
  416MPD2    H7 6217   1.334   3.466  11.447 -1.8204 -0.0229  0.9434
  417TMC3    C1 6218   1.097   3.483  11.448 -0.2091  0.4157 -0.3768
  417TMC3    C2 6219   1.132   3.521  11.576  0.1212 -1.1961  0.1045
  417TMC3    C3 6220   1.042   3.592  11.652  0.0390 -0.3935 -0.3979
  417TMC3    C4 6221   0.977   3.513  11.396 -0.6962  0.3078  0.1357
  417TMC3    C5 6222   0.897   3.584  11.477  0.1352 -1.0028  0.3051
  417TMC3    C6 6223   0.927   3.628  11.600  0.1551  0.3071 -0.1833
  417TMC3     C 6224   1.160   3.373  11.388  0.0242 -0.2969  0.3562
  417TMC3     O 6225   1.095   3.303  11.315 -0.1630  0.3201  0.0553
  417TMC3     H 6226   1.212   3.465  11.623  0.6191 -0.3183  0.2978
  417TMC3    H1 6227   0.949   3.491  11.293 -1.2017  0.6680  0.2005
  417TMC3    H2 6228   0.856   3.691  11.653  0.6490 -0.7618  1.7371
  417TMC3    C7 6229   0.776   3.631  11.404  0.3783 -0.1163  0.0454
  417TMC3    C8 6230   1.066   3.627  11.796 -0.4345 -0.0113  0.5356
  417TMC3    O1 6231   0.771   3.753  11.386 -0.2558  0.1658 -0.0390
  417TMC3    O2 6232   0.984   3.703  11.845 -0.1102 -0.4134  0.0208
  418TMC3    C1 6233   4.623   0.004   0.650 -0.4559 -0.2839 -0.2153
  418TMC3    C2 6234   4.521   0.033   0.562 -0.4881  0.0519 -0.2146
  418TMC3    C3 6235   4.391   4.717   0.599 -0.0984  0.2690 -0.4571
  418TMC3    C4 6236   4.601   4.650   0.763  0.1841 -0.1733 -0.1971
  418TMC3    C5 6237   4.473   4.607   0.790  0.2134 -0.0657 -0.2767
  418TMC3    C6 6238   4.374   4.630   0.699 -0.4941  0.5819 -0.4119
  418TMC3     C 6239   0.039   0.020   0.596  0.1767 -0.1571 -0.1403
  418TMC3     O 6240   0.057   0.114   0.523 -0.0997  0.3079 -0.0394
  418TMC3     H 6241   4.538   0.091   0.472  0.1472 -1.0832 -0.8184
  418TMC3    H1 6242   4.683   4.628   0.830  0.7506 -0.4618 -0.9896
  418TMC3    H2 6243   4.276   4.591   0.724 -0.9089  1.6168 -0.3945
  418TMC3    C7 6244   4.465   4.493   0.880 -0.0078 -0.0966  0.5305
  418TMC3    C8 6245   4.300   4.703   0.480  0.1154  0.4537  0.9446
  418TMC3    O1 6246   4.397   4.402   0.842 -0.4928  0.7690  0.5172
  418TMC3    O2 6247   4.306   0.072   0.401  0.2653  0.1672  0.2257
  419MPD2     C 6248   3.645   3.226  12.219  0.4063  1.2515 -0.0247
  419MPD2    C1 6249   3.586   3.350  12.196 -0.4183 -0.3750 -0.7658
  419MPD2    C2 6250   3.553   3.424  12.314  0.5817  0.1936  0.0064
  419MPD2    C3 6251   3.580   3.380  12.439  0.2664  0.2360  0.5294
  419MPD2    C4 6252   3.636   3.255  12.458  0.6749 -0.2598 -0.3257
  419MPD2    C5 6253   3.672   3.185  12.347 -0.1276 -0.7470  0.0430
  419MPD2     H 6254   3.508   3.522  12.301  1.2601  0.5383  0.2535
  419MPD2    H1 6255   3.640   3.215  12.558 -0.2488 -0.9589 -0.5747
  419MPD2    H2 6256   3.662   3.155  12.139 -1.5802  0.7462  0.0121
  419MPD2    H3 6257   3.705   3.085  12.370 -1.3336 -0.9865  0.7442
  419MPD2     N 6258   3.529   3.457  12.546  0.0119  0.2208  0.0214
  419MPD2    H5 6259   3.460   3.528  12.525  0.4119 -0.0568 -2.2471
  419MPD2    N1 6260   3.558   3.406  12.075 -0.2121 -0.1641 -0.2228
  419MPD2    H7 6261   3.510   3.496  12.078  0.4464  0.2288 -1.2122
  420TMC3    C1 6262   3.467   3.465  12.775 -0.2462  0.0837 -0.2108
  420TMC3    C2 6263   3.351   3.521  12.729  0.0464 -0.4271  0.1284
  420TMC3    C3 6264   3.238   3.478  12.795 -0.4507  0.3466 -0.1538
  420TMC3    C4 6265   3.481   3.392  12.890 -0.3236  0.3961 -0.0189
  420TMC3    C5 6266   3.365   3.354  12.952 -0.2029 -0.2734  0.4393
  420TMC3    C6 6267   3.239   3.398  12.907  0.3310 -0.1246  0.2434
  420TMC3     C 6268   3.574   3.443  12.673  0.0130 -0.1968 -0.1162
  420TMC3     O 6269   3.680   3.393  12.710  0.3681  0.0321 -0.2381
  420TMC3     H 6270   3.352   3.593  12.647  1.6399 -0.7324 -0.1198
  420TMC3    H1 6271   3.578   3.352  12.918 -0.3090 -0.7861 -1.6974
  420TMC3    H2 6272   3.152   3.388  12.971  0.3687  1.7798  0.6110
  420TMC3    C7 6273   3.368   3.264  13.066 -0.0718 -0.1034 -0.0400
  420TMC3    C8 6274   3.114   3.501  12.725 -0.1175  0.4018 -0.4939
  420TMC3    O1 6275   3.262   3.220  13.099 -0.1338 -0.1995  0.0610
  420TMC3    O2 6276   3.104   3.582  12.633 -0.0924  0.9522 -0.1746
  421TMC3    C1 6277   0.072   0.376  13.637 -0.4907 -0.3271  0.1693
  421TMC3    C2 6278   0.137   0.493  13.662  0.4701 -0.1621  0.4186
  421TMC3    C3 6279   0.220   0.484  13.776 -0.7025  0.5947 -0.2622
  421TMC3    C4 6280   0.067   0.263  13.718 -0.2306  0.7530 -0.0032
  421TMC3    C5 6281   0.151   0.263  13.824 -0.2894 -0.0234 -0.9314
  421TMC3    C6 6282   0.225   0.370  13.857  0.0550  0.1920 -0.2511
  421TMC3     C 6283   4.670   0.410  13.574  0.2665 -0.4463  0.5124
  421TMC3     O 6284   4.626   0.524  13.583 -0.2011  0.0072  0.3274
  421TMC3     H 6285   0.123   0.579  13.597 -1.3959 -1.2747 -0.6358
  421TMC3    H1 6286   4.718   0.183  13.704  0.0878  0.2055  1.5301
  421TMC3    H2 6287   0.288   0.368  13.945 -0.2262 -2.2693 -0.0884
  421TMC3    C7 6288   0.217   0.139  13.874 -0.1501  0.5553 -0.7991
  421TMC3    C8 6289   0.310   0.587  13.816  0.1489 -0.2694 -0.5356
  421TMC3    O1 6290   0.334   0.146  13.917 -0.7316  0.0085 -0.4529
  421TMC3    O2 6291   0.412   0.613  13.755  0.2033  0.1701  0.1657
  422TMC3    C1 6292   2.269   1.547  12.484  0.2535  0.6031  0.3539
  422TMC3    C2 6293   2.276   1.671  12.531  1.0335  0.2269 -0.7201
  422TMC3    C3 6294   2.174   1.707  12.615  0.3937  0.0146 -0.5861
  422TMC3    C4 6295   2.180   1.453  12.528  0.7709 -0.2003 -0.2704
  422TMC3    C5 6296   2.074   1.497  12.601  0.3424  0.4907  0.7947
  422TMC3    C6 6297   2.070   1.626  12.643  0.4317 -0.7457  1.2193
  422TMC3     C 6298   2.362   1.505  12.379 -0.1902 -0.5881 -0.2513
  422TMC3     O 6299   2.424   1.591  12.320  0.2105 -0.4124  0.5576
  422TMC3     H 6300   2.338   1.748  12.487  1.4253  0.2121 -0.1962
  422TMC3    H1 6301   2.169   1.352  12.488  1.3722 -0.2593 -0.2929
  422TMC3    H2 6302   1.994   1.669  12.706 -1.0801 -2.1931  0.3693
  422TMC3    C7 6303   1.946   1.445  12.546 -0.5622 -0.2816  0.2970
  422TMC3    C8 6304   2.171   1.855  12.649  0.2024  0.8576 -0.1714
  422TMC3    O1 6305   1.940   1.378  12.442  0.3477  0.5681 -0.1098
  422TMC3    O2 6306   2.284   1.906  12.656 -0.2383 -0.6251  0.5256
  423MPD2     C 6307   3.685   2.785   0.384 -0.2063  0.2172 -0.2984
  423MPD2    C1 6308   3.739   2.660   0.422 -0.2532 -0.2181  0.2684
  423MPD2    C2 6309   3.764   2.574   0.312  0.3551  0.4785  0.1634
  423MPD2    C3 6310   3.736   2.605   0.176 -0.0295 -0.1486 -0.2831
  423MPD2    C4 6311   3.690   2.733   0.154 -0.2773  0.3443  0.0463
  423MPD2    C5 6312   3.659   2.823   0.256  0.6228 -0.0001 -0.2735
  423MPD2     H 6313   3.788   2.471   0.336  1.6271  0.4350 -1.3280
  423MPD2    H1 6314   3.670   2.762   0.051  0.6032 -2.8916 -1.0296
  423MPD2    H2 6315   3.658   2.860   0.458 -0.9496 -2.8536  2.5036
  423MPD2    H3 6316   3.618   2.921   0.235 -0.6948 -0.5260 -0.1710
  423MPD2     N 6317   3.737   2.519   0.068  0.3801 -0.5743 -0.4417
  423MPD2    H5 6318   3.715   2.554  17.667 -0.9219 -0.0464  0.0563
  423MPD2    N1 6319   3.761   2.615   0.553 -0.3623 -0.2066 -0.2402
  423MPD2    H7 6320   3.817   2.531   0.568  0.3180  0.5746  1.5787
  424TMC3    C1 6321   3.767   2.604   0.777 -0.3448 -0.6701  0.1205
  424TMC3    C2 6322   3.898   2.560   0.788  0.4010 -0.0331 -0.1765
  424TMC3    C3 6323   3.939   2.497   0.903 -0.2643  0.2413  0.1360
  424TMC3    C4 6324   3.674   2.588   0.878 -0.1178 -0.1426 -0.5906
  424TMC3    C5 6325   3.716   2.514   0.989 -0.4744  0.5787 -0.6415
  424TMC3    C6 6326   3.844   2.469   1.004 -0.0475  0.1639  0.1072
  424TMC3     C 6327   3.724   2.683   0.667 -0.1066 -0.4732  0.6417
  424TMC3     O 6328   3.651   2.776   0.690 -0.0523  0.0661  0.1192
  424TMC3     H 6329   3.956   2.574   0.697  1.4027 -2.6220  0.0691
  424TMC3    H1 6330   3.573   2.627   0.870 -0.1160  0.0468  0.2296
  424TMC3    H2 6331   3.873   2.410   1.091  0.0979 -1.9871 -1.3809
  424TMC3    C7 6332   3.630   2.480   1.100 -0.2577 -0.0302 -0.1943
  424TMC3    C8 6333   4.051   2.409   0.897  0.1506  0.1441  0.3277
  424TMC3    O1 6334   3.686   2.425   1.198  0.3077 -0.4664 -0.5939
  424TMC3    O2 6335   4.048   2.305   0.961 -0.5689  0.4255  0.7009
  425MPD2     C 6336   2.097   1.656  16.703 -0.0554 -0.4420 -0.2059
  425MPD2    C1 6337   2.141   1.556  16.791 -0.6373 -0.6952 -0.1530
  425MPD2    C2 6338   2.050   1.514  16.889 -0.1897 -0.3742  0.2653
  425MPD2    C3 6339   1.944   1.588  16.919 -0.7194 -0.5017 -0.0828
  425MPD2    C4 6340   1.899   1.686  16.829  0.4892 -0.2285 -0.5531
  425MPD2    C5 6341   1.976   1.713  16.730 -0.8695 -0.4500 -0.2131
  425MPD2     H 6342   2.079   1.426  16.946  0.5477 -0.0065  0.4661
  425MPD2    H1 6343   1.813   1.746  16.856  0.6526  0.2941 -1.2117
  425MPD2    H2 6344   2.155   1.699  16.622  0.3666  0.4537  0.5639
  425MPD2    H3 6345   1.944   1.797  16.669 -1.5150 -1.3302 -1.0933
  425MPD2     N 6346   1.871   1.545  17.028 -0.4756 -0.3873  0.3670
  425MPD2    H5 6347   1.898   1.455  17.066  0.3924 -0.3978 -0.2779
  425MPD2    N1 6348   2.264   1.488  16.772  0.5371  0.7003  0.5398
  425MPD2    H7 6349   2.280   1.415  16.841  1.6096  1.7248  1.3807
  426TMC3    C1 6350   2.456   1.397  16.671 -0.6137 -0.0644 -0.6770
  426TMC3    C2 6351   2.489   1.313  16.562 -0.8191 -0.0762  0.3659
  426TMC3    C3 6352   2.609   1.241  16.573  0.4154  0.0978  0.6992
  426TMC3    C4 6353   2.527   1.406  16.782 -0.3432  0.7028 -0.1565
  426TMC3    C5 6354   2.645   1.338  16.791  0.7191 -0.5353  0.0330
  426TMC3    C6 6355   2.686   1.256  16.688  0.1609 -0.5597  0.3047
  426TMC3     C 6356   2.336   1.480  16.655 -0.1453  1.0685 -0.2871
  426TMC3     O 6357   2.319   1.541  16.552  0.0635  0.1801  0.1931
  426TMC3     H 6358   2.415   1.303  16.483  1.0491 -0.7216 -1.2740
  426TMC3    H1 6359   2.502   1.481  16.856  0.9604  0.5117  0.4732
  426TMC3    H2 6360   2.782   1.207  16.700  2.7824  4.3284 -0.6731
  426TMC3    C7 6361   2.684   1.295  16.922  0.4324 -0.4033  0.4211
  426TMC3    C8 6362   2.630   1.104  16.521 -0.1762 -0.1902 -0.9075
  426TMC3    O1 6363   2.786   1.226  16.927  0.3257  0.5850 -0.0306
  426TMC3    O2 6364   2.746   1.060  16.516 -0.3547 -0.1302 -0.5193
  427MPD2     C 6365   0.669   2.960  14.969 -0.3761 -0.7924 -0.1328
  427MPD2    C1 6366   0.779   3.045  14.981 -0.3544 -0.5810  0.6306
  427MPD2    C2 6367   0.762   3.177  14.951  0.1534  0.5820  0.3825
  427MPD2    C3 6368   0.640   3.221  14.909 -0.4624  0.2110  0.5113
  427MPD2    C4 6369   0.533   3.140  14.895  0.4100  0.4580 -0.2434
  427MPD2    C5 6370   0.551   3.008  14.928 -0.6532  0.1266  0.1798
  427MPD2     H 6371   0.847   3.245  14.956 -1.8964  3.2771 -1.4140
  427MPD2    H1 6372   0.437   3.169  14.853  0.4895  0.3650 -0.4890
  427MPD2    H2 6373   0.679   2.852  14.975 -0.9022 -0.9755 -2.6149
  427MPD2    H3 6374   0.466   2.943  14.918  0.4578 -1.4678  1.1612
  427MPD2     N 6375   0.620   3.353  14.865  0.0418 -0.2352  0.8273
  427MPD2    H5 6376   0.534   3.370  14.813  0.9882 -1.1486 -0.9960
  427MPD2    N1 6377   0.905   3.007  15.031 -0.3603  0.4349  0.0033
  427MPD2    H7 6378   0.979   3.071  15.006  0.0004 -0.7363 -1.9134
  428TMC3    C1 6379   1.083   2.879  15.129 -0.1052  0.2833 -0.2963
  428TMC3    C2 6380   1.130   2.760  15.172 -0.2375  0.0926  0.1049
  428TMC3    C3 6381   1.247   2.768  15.245 -0.2394  0.2654  0.2514
  428TMC3    C4 6382   1.154   2.995  15.136 -0.2463 -0.5976  0.7470
  428TMC3    C5 6383   1.275   2.989  15.196 -0.4367  0.2715 -0.6539
  428TMC3    C6 6384   1.323   2.875  15.256  0.1173 -0.4873  0.1643
  428TMC3     C 6385   0.937   2.890  15.092 -0.4564  0.5964 -0.5886
  428TMC3     O 6386   0.862   2.796  15.124  0.4024  0.3859 -0.1931
  428TMC3     H 6387   1.061   2.678  15.187 -0.9444  1.0498  2.0595
  428TMC3    H1 6388   1.112   3.094  15.122 -0.8013 -0.8639  0.5389
  428TMC3    H2 6389   1.421   2.874  15.301  1.5449 -2.7805 -3.0243
  428TMC3    C7 6390   1.375   3.093  15.166 -0.4936 -0.6094 -0.0671
  428TMC3    C8 6391   1.312   2.641  15.230  0.5059 -0.1289  0.7612
  428TMC3    O1 6392   1.473   3.099  15.241 -0.0469  0.3628 -0.4536
  428TMC3    O2 6393   1.251   2.565  15.161 -0.3403  0.1388  0.1138
  429MPD2     C 6394   2.298   3.930  17.544 -0.4124  0.4923  0.1290
  429MPD2    C1 6395   2.288   3.869  17.424 -0.2516  0.6203 -0.1951
  429MPD2    C2 6396   2.376   3.905  17.328  0.2883 -0.2489 -0.3038
  429MPD2    C3 6397   2.476   3.995  17.355  0.8445 -0.1568  0.3101
  429MPD2    C4 6398   2.490   4.043  17.481 -0.1115  0.2119 -0.0939
  429MPD2    C5 6399   2.399   4.020  17.579  0.9261 -0.4102 -0.6602
  429MPD2     H 6400   2.377   3.865  17.227 -2.5251  0.7770 -0.7396
  429MPD2    H1 6401   2.572   4.108  17.509  0.7317 -0.6885 -0.4540
  429MPD2    H2 6402   2.220   3.909  17.617 -0.1247 -1.3809 -0.1022
  429MPD2    H3 6403   2.420   4.048  17.682 -0.2984  1.7975 -1.0129
  429MPD2     N 6404   2.567   4.023  17.250 -1.2966 -0.1727 -0.1560
  429MPD2    H5 6405   2.546   3.990  17.157 -0.2957 -0.3440 -0.3167
  429MPD2    N1 6406   2.182   3.783  17.387  0.2571  0.0999 -0.2729
  429MPD2    H7 6407   2.180   3.760  17.289 -0.1440  1.2556 -0.5359
  430TMC3    C1 6408   2.771   4.077  17.147  0.0499 -1.2373  1.2959
  430TMC3    C2 6409   2.833   4.185  17.099  0.1836 -0.1669 -0.6038
  430TMC3    C3 6410   2.914   4.171  16.991  0.1217  0.1708 -0.4440
  430TMC3    C4 6411   2.796   3.953  17.098 -0.0306  0.0309  0.0518
  430TMC3    C5 6412   2.893   3.939  17.011  0.1751 -0.3988 -0.0083
  430TMC3    C6 6413   2.953   4.048  16.949 -0.0638 -0.4750 -0.1570
  430TMC3     C 6414   2.684   4.097  17.260  0.1313 -0.0436 -0.5998
  430TMC3     O 6415   2.706   4.193  17.333 -0.3722 -0.1228 -0.1304
  430TMC3     H 6416   2.802   4.283  17.132 -0.9207 -1.0967  1.0947
  430TMC3    H1 6417   2.742   3.861  17.119  0.5681 -0.2688  0.2897
  430TMC3    H2 6418   3.008   4.042  16.855  1.7687  3.0920  0.6745
  430TMC3    C7 6419   2.906   3.816  16.935 -0.0108 -0.2769 -0.1087
  430TMC3    C8 6420   2.871   4.252  16.877 -0.6263 -0.9333 -0.4623
  430TMC3    O1 6421   2.806   3.756  16.907  0.0528  0.3920 -0.2266
  430TMC3    O2 6422   2.859   4.190  16.772  0.3454  0.1371  0.3293
  431MPD2     C 6423   3.152   3.950  12.200  1.0239  0.6486 -0.5645
  431MPD2    C1 6424   3.246   4.003  12.113 -0.3137 -0.1378  0.6168
  431MPD2    C2 6425   3.284   3.928  12.005  0.2205  0.6904  1.0130
  431MPD2    C3 6426   3.222   3.802  11.970 -0.3718  0.2523 -0.2822
  431MPD2    C4 6427   3.121   3.758  12.056  0.6042 -0.3210  0.0244
  431MPD2    C5 6428   3.088   3.835  12.170  0.3046  0.1680  0.6450
  431MPD2     H 6429   3.367   3.959  11.943  0.2860  2.5567  2.0498
  431MPD2    H1 6430   3.059   3.670  12.040  0.2484 -0.4354  1.9633
  431MPD2    H2 6431   3.117   4.003  12.288  0.3645 -0.7082  0.0036
  431MPD2    H3 6432   3.003   3.807  12.231  0.4358 -1.8849 -0.0928
  431MPD2     N 6433   3.257   3.716  11.864 -0.4311 -0.3093 -0.2994
  431MPD2    H5 6434   3.220   3.622  11.861 -0.9851 -0.1417  1.3415
  431MPD2    N1 6435   3.315   4.126  12.140 -0.0037 -0.2194 -0.1087
  431MPD2    H7 6436   3.372   4.157  12.062 -2.7445  0.9604 -1.6421
  432TMC3    C1 6437   3.448   3.631  11.756 -0.6265  0.4128  0.1202
  432TMC3    C2 6438   3.529   3.635  11.646 -0.6250  0.4222  0.7261
  432TMC3    C3 6439   3.617   3.526  11.625  0.1524  0.0822  0.6598
  432TMC3    C4 6440   3.454   3.530  11.848  0.0390  0.1389 -0.3258
  432TMC3    C5 6441   3.546   3.431  11.839 -0.5975  0.4510 -0.7026
  432TMC3    C6 6442   3.626   3.428  11.722 -0.0347 -0.5407 -0.0543
  432TMC3     C 6443   3.364   3.746  11.786 -0.1137 -0.2836  0.3141
  432TMC3     O 6444   3.389   3.857  11.732 -0.0000  0.3292 -0.6092
  432TMC3     H 6445   3.537   3.720  11.579  0.3077  1.8893  2.7220
  432TMC3    H1 6446   3.386   3.539  11.932 -2.7347 -0.6292 -2.4719
  432TMC3    H2 6447   3.671   3.332  11.698  0.2462 -1.3488  3.6954
  432TMC3    C7 6448   3.585   3.351  11.951  0.8567  0.2284  0.1943
  432TMC3    C8 6449   3.700   3.526  11.507 -0.1245 -0.7244 -0.5377
  432TMC3    O1 6450   3.647   3.249  11.917 -0.2576  0.3516 -0.0001
  432TMC3    O2 6451   3.654   3.575  11.411 -0.3068  0.2582 -0.3239
  433MPD2     C 6452   2.331   2.773  11.013  0.0646  0.5656  0.5306
  433MPD2    C1 6453   2.388   2.655  11.066  0.2393  0.4645 -0.7054
  433MPD2    C2 6454   2.422   2.656  11.201 -0.2935  0.4018  0.0484
  433MPD2    C3 6455   2.431   2.767  11.277 -0.2636  0.5951  0.0601
  433MPD2    C4 6456   2.398   2.884  11.214  0.2038 -0.0639 -0.6869
  433MPD2    C5 6457   2.348   2.887  11.088  0.1342 -0.1979  0.0293
  433MPD2     H 6458   2.460   2.565  11.246  0.8262  1.3924  1.0709
  433MPD2    H1 6459   2.407   2.982  11.259 -0.6785 -0.6107  0.6672
  433MPD2    H2 6460   2.293   2.775  10.912  1.6516  2.2704 -0.0258
  433MPD2    H3 6461   2.319   2.982  11.045  0.0681  0.6314  1.9199
  433MPD2     N 6462   2.492   2.765  11.406 -0.3535 -1.1644 -0.2276
  433MPD2    H5 6463   2.509   2.672  11.443  0.6879 -0.8375  0.1059
  433MPD2    N1 6464   2.407   2.554  10.975  0.2594  0.6072 -0.3975
  433MPD2    H7 6465   2.403   2.576  10.877  3.3887  1.5561 -0.2798
  434TMC3    C1 6466   2.483   2.339  10.901 -0.1022 -0.5217 -0.2659
  434TMC3    C2 6467   2.533   2.220  10.941 -0.2719 -0.1099 -0.2755
  434TMC3    C3 6468   2.645   2.174  10.866  0.7421 -0.6555 -0.3966
  434TMC3    C4 6469   2.497   2.388  10.778  0.1485 -0.1491 -0.0273
  434TMC3    C5 6470   2.590   2.329  10.696 -1.1903  1.0369 -0.2237
  434TMC3    C6 6471   2.682   2.233  10.744  0.0909 -0.0529 -0.0579
  434TMC3     C 6472   2.425   2.423  11.010  0.7508 -0.0920  0.1592
  434TMC3     O 6473   2.418   2.379  11.126 -0.4758  0.3918 -0.4955
  434TMC3     H 6474   2.514   2.179  11.039 -3.5818 -0.0332 -0.8852
  434TMC3    H1 6475   2.459   2.486  10.751  0.2019  1.0414  4.2824
  434TMC3    H2 6476   2.762   2.191  10.685 -0.0464 -0.4977  0.0688
  434TMC3    C7 6477   2.538   2.283  10.572  0.4853 -0.3919 -0.7701
  434TMC3    C8 6478   2.738   2.089  10.940  1.3618 -0.2122 -0.1182
  434TMC3    O1 6479   2.619   2.229  10.500  0.0724 -0.3855  0.2667
  434TMC3    O2 6480   2.699   2.059  11.052  0.4585  0.6643  0.0548
  435MPD2     C 6481   3.495   1.763  15.586 -0.8425 -0.0026 -0.5666
  435MPD2    C1 6482   3.533   1.895  15.615 -0.2301 -0.1516 -0.0455
  435MPD2    C2 6483   3.662   1.932  15.596 -0.2761  0.9010  0.1190
  435MPD2    C3 6484   3.757   1.841  15.548 -0.4981  0.5552 -0.2328
  435MPD2    C4 6485   3.721   1.707  15.525  0.2660 -0.0059  0.2259
  435MPD2    C5 6486   3.590   1.675  15.546 -0.3343 -0.5576  0.0384
  435MPD2     H 6487   3.697   2.034  15.609 -0.4062  0.9365  0.1917
  435MPD2    H1 6488   3.790   1.628  15.499  1.6584  1.2104  0.2188
  435MPD2    H2 6489   3.393   1.730  15.601  0.3658 -1.7506  3.9596
  435MPD2    H3 6490   3.565   1.571  15.530  1.1994 -0.7148 -1.3143
  435MPD2     N 6491   3.894   1.884  15.528 -0.8012  1.0594  0.2440
  435MPD2    H5 6492   3.913   1.981  15.552  1.0651  0.9265 -0.6377
  435MPD2    N1 6493   3.437   1.988  15.669  0.5736 -0.2706  0.3798
  435MPD2    H7 6494   3.466   2.084  15.684 -0.8562  0.4301 -1.3541
  436TMC3    C1 6495   3.281   2.266  15.911  1.1108  0.1326  0.2730
  436TMC3    C2 6496   3.329   2.167  15.828  0.1944  0.6445 -0.1665
  436TMC3    C3 6497   3.247   2.071  15.794 -0.0174  0.0475 -0.1779
  436TMC3    C4 6498   3.151   2.257  15.962  0.3348  0.2432  0.1582
  436TMC3    C5 6499   3.073   2.150  15.923  0.6783  0.7280 -0.0518
  436TMC3    C6 6500   3.116   2.053  15.839  0.1108  0.2250  0.3352
  436TMC3     C 6501   3.385   2.334  15.980 -0.5269  0.1714  0.5161
  436TMC3     O 6502   3.498   2.345  15.927  1.2747  0.3998  0.2416
  436TMC3     H 6503   3.436   2.171  15.809 -0.2076  0.2397 -2.5264
  436TMC3    H1 6504   3.109   2.346  16.006 -3.0416 -0.2495 -2.0043
  436TMC3    H2 6505   3.059   1.962  15.833  1.2149 -0.5012  0.9261
  436TMC3    C7 6506   2.936   2.150  15.952 -0.5501  0.2691  0.0423
  436TMC3    C8 6507   3.304   1.959  15.713  0.2096 -0.1255 -0.2226
  436TMC3    O1 6508   2.868   2.093  15.868  0.0230 -0.5893  0.6753
  436TMC3    O2 6509   3.235   1.861  15.693 -0.4675  0.3590 -0.0130
  437TMC3    C1 6510   2.916   4.490  12.310 -0.3095 -0.8076  0.5534
  437TMC3    C2 6511   2.795   4.550  12.324 -0.4538 -0.0262 -0.4116
  437TMC3    C3 6512   2.774   4.661  12.251  0.1503  1.0765  0.6969
  437TMC3    C4 6513   3.024   4.540  12.235  0.3379 -0.7685  0.7687
  437TMC3    C5 6514   2.993   4.641  12.148 -0.4878  0.2937 -0.0616
  437TMC3    C6 6515   2.869   4.705  12.157  0.3029 -0.3013  0.3523
  437TMC3     C 6516   2.939   4.367  12.382  0.1967 -0.1175  0.1011
  437TMC3     O 6517   3.055   4.347  12.411 -0.3127  0.2464  0.5643
  437TMC3     H 6518   2.723   4.508  12.392 -1.4723 -0.3511 -1.7017
  437TMC3    H1 6519   3.105   4.471  12.212 -0.4790 -1.5582  0.2843
  437TMC3    H2 6520   2.848   0.072  12.100  0.4900  0.0722  0.8725
  437TMC3    C7 6521   3.103   4.719  12.091  0.6493  0.4443  0.7605
  437TMC3    C8 6522   2.664   0.026  12.276 -0.0918  0.4512  0.5433
  437TMC3    O1 6523   3.074   0.062  11.996 -0.2203  0.0238  0.8934
  437TMC3    O2 6524   2.624   0.101  12.189 -0.4983 -0.1630  0.0713
  438MPD2     C 6525   0.294   0.364  16.772 -0.3871  0.5602 -0.1977
  438MPD2    C1 6526   0.346   0.243  16.810  0.4004  0.1588  0.1312
  438MPD2    C2 6527   0.327   0.207  16.942 -0.5596 -0.5892 -0.4423
  438MPD2    C3 6528   0.248   0.280  17.026  0.4686 -0.1656  0.3197
  438MPD2    C4 6529   0.198   0.404  16.985  0.1505 -0.4657 -0.2916
  438MPD2    C5 6530   0.221   0.448  16.858 -0.4344 -0.2269  0.7283
  438MPD2     H 6531   0.362   0.112  16.979 -0.7711  0.1926  1.8200
  438MPD2    H1 6532   0.142   0.459  17.060 -1.4296 -2.2087 -0.1830
  438MPD2    H2 6533   0.300   0.402  16.671 -0.2138  0.5915 -0.1753
  438MPD2    H3 6534   0.184   0.544  16.824  0.1754  0.5874  2.3187
  438MPD2     N 6535   0.221   0.239  17.161 -0.3064  0.2254  0.4459
  438MPD2    H5 6536   0.184   0.311  17.222 -0.7189  0.3740  0.0283
  438MPD2    N1 6537   0.439   0.167  16.732  0.2660  0.4350  0.6145
  438MPD2    H7 6538   0.494   0.095  16.777 -0.1108 -0.4363 -0.3229
  439TMC3    C1 6539   0.524   0.069  16.551  0.3430 -0.3791 -0.0252
  439TMC3    C2 6540   0.467   4.704  16.460 -0.2172  0.6899  0.1076
  439TMC3    C3 6541   0.504   4.578  16.474 -0.0769  0.6096  0.1472
  439TMC3    C4 6542   0.614   0.034  16.649 -0.5971  0.2886 -0.5300
  439TMC3    C5 6543   0.657   4.625  16.650 -0.9314  0.4048 -0.0223
  439TMC3    C6 6544   0.589   4.537  16.570  0.9122 -0.0355  0.0160
  439TMC3     C 6545   0.441   0.180  16.592 -0.0186 -0.8072 -0.3510
  439TMC3     O 6546   0.349   0.221  16.520 -0.1368 -0.4034 -0.5095
  439TMC3     H 6547   0.379   0.018  16.408  1.1347  2.9850 -0.5747
  439TMC3    H1 6548   0.667   0.109  16.705 -1.5482  1.4163 -1.1401
  439TMC3    H2 6549   0.613   4.435  16.596  1.2463  0.7813  2.9206
  439TMC3    C7 6550   0.795   4.601  16.674  0.1694 -0.4372  0.7952
  439TMC3    C8 6551   0.563   4.529  16.354  0.1645 -0.0445 -0.7319
  439TMC3    O1 6552   0.847   4.659  16.774 -0.3573  0.7544  0.2530
  439TMC3    O2 6553   0.645   4.439  16.367 -0.1790 -0.6675 -0.4965
  440MPD2     C 6554   4.319   0.345  14.369  0.1394  0.1189 -0.5877
  440MPD2    C1 6555   4.332   0.468  14.433 -0.3926  0.3312 -0.5399
  440MPD2    C2 6556   4.434   0.475  14.526  0.1718  0.8735 -0.0039
  440MPD2    C3 6557   4.509   0.369  14.571  0.5498 -0.2608  0.2235
  440MPD2    C4 6558   4.500   0.256  14.495  0.0499  0.7476 -0.4785
  440MPD2    C5 6559   4.402   0.246  14.396  0.7276  0.4094  0.3695
  440MPD2     H 6560   4.443   0.568  14.582  0.0143 -0.1576  1.7327
  440MPD2    H1 6561   4.577   0.179  14.502  0.2888  1.0024 -0.3051
  440MPD2    H2 6562   4.240   0.325  14.298 -0.4705  3.4145 -0.8519
  440MPD2    H3 6563   4.385   0.158  14.336  0.5645 -0.0253  1.0543
  440MPD2     N 6564   4.603   0.371  14.675 -0.1720 -0.6455 -0.3061
  440MPD2    H5 6565   4.657   0.285  14.681 -0.5788 -0.7887  1.3713
  440MPD2    N1 6566   4.248   0.580  14.409 -0.2225  0.5928 -0.0757
  440MPD2    H7 6567   4.277   0.675  14.435  0.7333  0.2853 -0.0039
  441TMC3    C1 6568   0.015   0.440  14.857  0.3857 -0.2690 -0.5038
  441TMC3    C2 6569   0.063   0.548  14.930  0.9894 -0.2210  0.0905
  441TMC3    C3 6570   0.080   0.546  15.064  0.5433  0.1643 -0.0983
  441TMC3    C4 6571   4.713   0.323  14.919  0.1238 -0.0060  0.2364
  441TMC3    C5 6572   4.712   0.329  15.053 -0.9286 -0.3366 -0.6628
  441TMC3    C6 6573   0.042   0.432  15.134  0.3527  0.3683  0.0372
  441TMC3     C 6574   4.642   0.480  14.752 -0.2492 -0.0508 -0.0970
  441TMC3     O 6575   4.614   0.601  14.746 -0.3536 -0.1264  0.1015
  441TMC3     H 6576   0.084   0.639  14.874 -0.0084 -0.7539 -1.1394
  441TMC3    H1 6577   4.647   0.254  14.867 -2.7189  2.2186  0.8909
  441TMC3    H2 6578   0.030   0.437  15.241 -1.7967 -0.8775 -0.1431
  441TMC3    C7 6579   4.642   0.218  15.119 -0.1004  0.6088  0.1550
  441TMC3    C8 6580   0.029   0.672  15.114 -0.9840  0.1826  0.4946
  441TMC3    O1 6581   4.636   0.116  15.052  0.2823  0.2486  0.1933
  441TMC3    O2 6582   0.105   0.766  15.107  1.2199 -0.1177  0.4237
  442MPD2     C 6583   2.192   1.322  16.312  0.0793 -0.7299  0.7272
  442MPD2    C1 6584   2.099   1.249  16.388 -0.9046  0.0666 -0.0700
  442MPD2    C2 6585   2.087   1.114  16.360  0.6627 -0.1599 -0.0883
  442MPD2    C3 6586   2.173   1.050  16.266  0.0409  0.8537  0.3899
  442MPD2    C4 6587   2.272   1.132  16.202 -0.4921  0.4424  0.2253
  442MPD2    C5 6588   2.284   1.264  16.230  0.4753  0.1645  0.8600
  442MPD2     H 6589   1.997   1.059  16.387  0.2240  0.3169 -0.5892
  442MPD2    H1 6590   2.336   1.087  16.127  1.1727  1.4382  1.0552
  442MPD2    H2 6591   2.208   1.429  16.322 -1.2323 -0.6979  2.4175
  442MPD2    H3 6592   2.366   1.311  16.177  0.2492 -0.3188  0.0795
  442MPD2     N 6593   2.178   0.910  16.241  0.7687  0.2622  0.1260
  442MPD2    H5 6594   2.268   0.881  16.204  0.1179  1.4828 -2.4077
  442MPD2    N1 6595   1.989   1.314  16.455  1.0389  0.1464 -0.0637
  442MPD2    H7 6596   1.920   1.259  16.505 -0.2426  1.8896  0.1214
  443TMC3    C1 6597   1.835   1.484  16.511 -0.8051 -0.9116  0.0404
  443TMC3    C2 6598   1.760   1.573  16.442  0.3116 -0.1738  0.5185
  443TMC3    C3 6599   1.624   1.584  16.466  0.6375 -0.8855 -0.0858
  443TMC3    C4 6600   1.789   1.429  16.625  0.0786  0.4219  1.0817
  443TMC3    C5 6601   1.658   1.444  16.657 -0.0538 -0.2115 -0.3740
  443TMC3    C6 6602   1.574   1.531  16.584  0.6563  0.1866 -0.7325
  443TMC3     C 6603   1.957   1.449  16.439  0.2512 -0.4959  0.1830
  443TMC3     O 6604   1.995   1.531  16.352 -0.1786 -0.1917 -0.3206
  443TMC3     H 6605   1.797   1.606  16.345 -0.2462  1.5752  0.9098
  443TMC3    H1 6606   1.857   1.366  16.682  1.3697 -0.9863 -2.0013
  443TMC3    H2 6607   1.469   1.530  16.610 -0.3148  1.3506 -4.7435
  443TMC3    C7 6608   1.609   1.400  16.784 -0.2809 -0.4487 -0.1491
  443TMC3    C8 6609   1.547   1.528  16.358  0.2042  0.0472  0.3911
  443TMC3    O1 6610   1.654   1.291  16.829 -0.0745 -0.1218  0.6670
  443TMC3    O2 6611   1.462   1.446  16.384 -0.3213  0.0053 -0.5580
  444MPD2     C 6612   2.789   0.497  16.753 -0.0292 -0.6568 -0.8271
  444MPD2    C1 6613   2.692   0.395  16.768 -0.1969 -0.2054  0.6807
  444MPD2    C2 6614   2.732   0.273  16.722  0.0065  0.2928 -0.4983
  444MPD2    C3 6615   2.865   0.244  16.694 -0.2546  0.1231  0.6707
  444MPD2    C4 6616   2.953   0.349  16.693  0.9827 -0.1729 -0.1505
  444MPD2    C5 6617   2.916   0.480  16.707 -0.1581  0.7516 -0.1524
  444MPD2     H 6618   2.652   0.201  16.709  0.9323 -0.8717  0.2815
  444MPD2    H1 6619   3.060   0.337  16.676  0.7786 -1.3106 -0.6115
  444MPD2    H2 6620   2.753   0.599  16.766  3.0561  0.5776 -1.8026
  444MPD2    H3 6621   2.983   0.563  16.688 -1.6099  1.2926 -2.7884
  444MPD2     N 6622   2.905   0.119  16.653  0.0119  1.0526 -0.2685
  444MPD2    H5 6623   2.827   0.055  16.638  0.3844  0.4481  0.3863
  444MPD2    N1 6624   2.566   0.411  16.824  0.1876  0.0947 -0.6033
  444MPD2    H7 6625   2.498   0.336  16.824 -1.6842  1.7825 -0.0341
  445TMC3    C1 6626   3.036   4.673  16.547 -0.4497 -0.5546  0.3938
  445TMC3    C2 6627   2.922   4.623  16.490  0.5969  0.4761 -0.5508
  445TMC3    C3 6628   2.936   4.517  16.411 -0.3404  0.5524  0.1380
  445TMC3    C4 6629   3.164   4.623  16.515 -0.3435  0.2189  0.0295
  445TMC3    C5 6630   3.173   4.503  16.455 -0.9920  0.3520 -0.8368
  445TMC3    C6 6631   3.053   4.447  16.399 -0.0014  0.2886 -0.0639
  445TMC3     C 6632   3.033   0.077  16.618  0.3807  0.3726 -0.1445
  445TMC3     O 6633   3.138   0.138  16.632 -0.5701  0.0086 -0.7000
  445TMC3     H 6634   2.824   4.667  16.502  0.4375 -0.3502  1.2092
  445TMC3    H1 6635   3.253   4.666  16.559  1.1326 -2.4774 -0.3658
  445TMC3    H2 6636   3.056   4.348  16.354  1.0191 -0.0363  0.7290
  445TMC3    C7 6637   3.307   4.462  16.410  0.0809  0.2748  0.1693
  445TMC3    C8 6638   2.818   4.487  16.337  0.1428 -0.1723  0.5938
  445TMC3    O1 6639   3.390   4.549  16.418 -0.0759 -0.8222  0.2714
  445TMC3    O2 6640   2.741   4.581  16.314 -0.1539 -0.1113  0.2474
  446MPD2     C 6641   2.260   1.976  11.417 -0.9234  0.5773 -0.1526
  446MPD2    C1 6642   2.318   1.937  11.300 -0.5208 -0.1186  0.1055
  446MPD2    C2 6643   2.441   1.995  11.263  0.1190 -0.6957  0.0680
  446MPD2    C3 6644   2.507   2.085  11.345 -0.0949 -0.6707 -0.1357
  446MPD2    C4 6645   2.447   2.119  11.461 -0.0181  0.1646 -0.1222
  446MPD2    C5 6646   2.320   2.072  11.497  0.1912 -0.3396 -0.0836
  446MPD2     H 6647   2.492   1.963  11.173 -0.8440  0.3811 -0.8656
  446MPD2    H1 6648   2.497   2.197  11.517 -1.6246  1.3564 -0.3462
  446MPD2    H2 6649   2.165   1.936  11.448 -1.3590  2.4735  0.9698
  446MPD2    H3 6650   2.276   2.110  11.588 -1.9712 -1.1518 -0.7882
  446MPD2     N 6651   2.620   2.147  11.300 -0.2356  0.9003  0.4976
  446MPD2    H5 6652   2.654   2.145  11.204 -1.1995  0.9141  0.1595
  446MPD2    N1 6653   2.267   1.836  11.212  0.1725 -0.5454 -0.0475
  446MPD2    H7 6654   2.314   1.815  11.124  0.8535 -1.2069  0.4710
  447TMC3    C1 6655   2.821   2.266  11.302 -0.4366 -0.7049  0.2898
  447TMC3    C2 6656   2.791   2.318  11.174 -0.1159 -0.1072 -0.1003
  447TMC3    C3 6657   2.900   2.351  11.100 -0.0116  0.6401 -0.8269
  447TMC3    C4 6658   2.949   2.267  11.356  0.1023 -0.7050 -1.3342
  447TMC3    C5 6659   3.053   2.301  11.273 -0.0819 -0.3429 -0.7304
  447TMC3    C6 6660   3.029   2.342  11.138 -0.1270  1.0545  0.4295
  447TMC3     C 6661   2.714   2.202  11.381  0.6839 -0.4939  0.1589
  447TMC3     O 6662   2.738   2.187  11.501  0.2246 -0.2692  0.0612
  447TMC3     H 6663   2.692   2.336  11.134  0.5083 -1.2385 -2.1666
  447TMC3    H1 6664   2.964   2.228  11.456 -3.5118  1.5640  0.0894
  447TMC3    H2 6665   3.112   2.371  11.076  0.4083 -2.2363 -0.3843
  447TMC3    C7 6666   3.182   2.234  11.293  0.2355 -0.1279  0.1269
  447TMC3    C8 6667   2.863   2.438  10.988 -0.1893  0.3689 -0.7012
  447TMC3    O1 6668   3.240   2.218  11.183 -0.9029 -0.1207  0.0907
  447TMC3    O2 6669   2.754   2.496  10.989  1.0088  0.1782  0.2734
  448TMC3    C1 6670   0.121   1.856  16.688 -0.0179  0.2106 -0.6680
  448TMC3    C2 6671   0.137   1.729  16.641 -0.4750  0.3683  0.0279
  448TMC3    C3 6672   0.201   1.635  16.716 -0.9824  0.0754 -0.0674
  448TMC3    C4 6673   0.188   1.899  16.801 -0.2662 -0.1281  0.1067
  448TMC3    C5 6674   0.240   1.800  16.879  0.2629 -0.4479  0.6748
  448TMC3    C6 6675   0.250   1.671  16.835  0.0582 -0.3067  0.5464
  448TMC3     C 6676   0.076   1.964  16.603 -0.2947  0.0504 -0.5964
  448TMC3     O 6677   0.034   2.066  16.656 -0.5436  0.9351  0.8013
  448TMC3     H 6678   0.092   1.693  16.549  0.0207  0.0477 -0.0851
  448TMC3    H1 6679   0.182   2.003  16.831  0.9119 -0.4248  1.3670
  448TMC3    H2 6680   0.318   1.604  16.886 -1.7534 -0.5291  2.6797
  448TMC3    C7 6681   0.322   1.849  16.993  0.3633 -0.0351 -0.2212
  448TMC3    C8 6682   0.222   1.498  16.685 -0.5247  0.4291  0.2085
  448TMC3    O1 6683   0.335   1.970  17.003  0.4549 -0.5312  0.2064
  448TMC3    O2 6684   0.232   1.421  16.781  0.0641  0.0764  0.0785
  449MPD2     C 6685   1.725   0.194  13.400  0.6705  0.3249 -0.4696
  449MPD2    C1 6686   1.638   0.098  13.367 -0.3686 -0.1189 -0.0060
  449MPD2    C2 6687   1.527   0.079  13.449 -0.0525 -0.9067  0.3944
  449MPD2    C3 6688   1.506   0.160  13.560  0.1775 -0.0165 -0.1163
  449MPD2    C4 6689   1.582   0.265  13.582 -0.5103 -0.1014 -0.6968
  449MPD2    C5 6690   1.694   0.281  13.502  0.6751 -0.3293  0.0540
  449MPD2     H 6691   1.452   0.006  13.421  0.0967  0.4940 -3.6531
  449MPD2    H1 6692   1.572   0.337  13.663  0.0523 -1.6208  0.7359
  449MPD2    H2 6693   1.817   0.204  13.345  0.3329  0.2062 -1.0608
  449MPD2    H3 6694   1.762   0.365  13.511  0.0792  0.2910 -1.2237
  449MPD2     N 6695   1.393   0.122  13.636  0.1297 -0.3054 -0.5010
  449MPD2    H5 6696   1.336   0.044  13.607 -0.8606  1.0110 -2.0737
  449MPD2    N1 6697   1.656   0.008  13.267 -0.0434  0.1604 -0.7021
  449MPD2    H7 6698   1.579   4.664  13.260  0.4116 -0.3218 -1.1286
  450TMC3    C1 6699   1.752   4.584  13.104 -0.4146 -0.7369  0.2069
  450TMC3    C2 6700   1.854   4.500  13.128 -0.2983 -0.0152 -0.9052
  450TMC3    C3 6701   1.834   4.364  13.141 -0.2544 -0.5611  0.2103
  450TMC3    C4 6702   1.629   4.535  13.097 -0.2242  0.0556  0.0125
  450TMC3    C5 6703   1.604   4.403  13.134  0.0260 -1.1861  0.1071
  450TMC3    C6 6704   1.706   4.312  13.164  0.1163  1.0290 -0.4575
  450TMC3     C 6705   1.762   4.705  13.192 -0.3525  0.1093 -0.2364
  450TMC3     O 6706   1.872   0.040  13.201  0.3428 -0.1625  0.8664
  450TMC3     H 6707   1.953   4.543  13.134 -0.1360 -0.1302 -2.9012
  450TMC3    H1 6708   1.542   4.598  13.083  1.7870  2.5108 -1.6817
  450TMC3    H2 6709   1.684   4.207  13.184  1.3905  0.4690 -1.9533
  450TMC3    C7 6710   1.499   4.399  13.235 -0.4814  0.1647  0.0802
  450TMC3    C8 6711   1.952   4.276  13.169 -0.3913  0.4714  0.3896
  450TMC3    O1 6712   1.477   4.508  13.286 -0.4511 -0.4824 -0.3971
  450TMC3    O2 6713   1.933   4.186  13.246  1.2479  0.4301 -0.2774
  451MPD2     C 6714   3.423   4.363   1.011 -0.3573 -0.6530  0.8821
  451MPD2    C1 6715   3.301   4.375   1.068 -0.5112 -0.4211  0.1280
  451MPD2    C2 6716   3.222   4.261   1.091 -0.8808  0.4634 -0.4497
  451MPD2    C3 6717   3.273   4.129   1.066 -1.1427 -0.4247 -0.2308
  451MPD2    C4 6718   3.385   4.122   0.988 -0.3461 -0.1858 -0.5967
  451MPD2    C5 6719   3.455   4.236   0.960  0.7288 -0.9428 -0.9270
  451MPD2     H 6720   3.121   4.271   1.132 -0.5691  0.9959  0.1940
  451MPD2    H1 6721   3.428   4.032   0.944 -2.0421 -1.4568  0.3336
  451MPD2    H2 6722   3.499   4.436   0.989 -2.0171  0.5886 -0.7863
  451MPD2    H3 6723   3.552   4.228   0.913  0.5421  1.9119 -1.7959
  451MPD2     N 6724   3.205   4.007   1.086 -0.1323 -0.7152 -0.0708
  451MPD2    H5 6725   3.240   3.929   1.031  0.1982 -1.0475  0.6127
  451MPD2    N1 6726   3.258   4.512   1.092 -0.1070 -0.4392 -0.4485
  451MPD2    H7 6727   3.320   4.583   1.054 -0.7027  0.7880  0.8728
  452TMC3    C1 6728   3.038   3.871   1.170  0.1813  0.2139 -0.7420
  452TMC3    C2 6729   2.956   3.837   1.275 -0.4669 -0.6682 -0.1418
  452TMC3    C3 6730   2.852   3.753   1.250  0.0988 -0.3622 -0.1921
  452TMC3    C4 6731   3.016   3.820   1.047 -0.3562  0.0495 -0.4779
  452TMC3    C5 6732   2.909   3.733   1.021 -0.2390  0.0033 -0.5026
  452TMC3    C6 6733   2.828   3.708   1.120 -0.5290  0.4781  0.2415
  452TMC3     C 6734   3.120   3.990   1.186  0.0395 -0.2322 -0.6075
  452TMC3     O 6735   3.084   4.064   1.278  0.4189 -0.4130  0.1392
  452TMC3     H 6736   2.984   3.882   1.369  0.1988  2.1317 -1.6808
  452TMC3    H1 6737   3.081   3.843   0.963 -2.5438  0.4155 -2.0596
  452TMC3    H2 6738   2.754   3.629   1.109  3.0683 -2.4071 -3.3330
  452TMC3    C7 6739   2.871   3.717   0.878 -0.1910  0.5813  0.9314
  452TMC3    C8 6740   2.772   3.701   1.358 -0.6778  0.7283 -0.0218
  452TMC3    O1 6741   2.954   3.753   0.797 -0.2304  0.6706  0.3355
  452TMC3    O2 6742   2.702   3.601   1.340  0.1491  0.1792  0.0530
  453TMC3    C1 6743   0.182   0.855  11.705 -0.0559  0.4495  0.1092
  453TMC3    C2 6744   0.070   0.778  11.710 -0.4472 -0.1959 -0.9999
  453TMC3    C3 6745   4.711   0.771  11.595  0.4784  0.2597 -0.6066
  453TMC3    C4 6746   0.207   0.932  11.594  0.2402 -0.4710  0.3824
  453TMC3    C5 6747   0.127   0.933  11.484 -0.1922 -0.5894 -0.2346
  453TMC3    C6 6748   0.013   0.854  11.478  0.5188  0.2958  1.0257
  453TMC3     C 6749   0.273   0.872  11.816 -0.3475 -0.0746  0.1073
  453TMC3     O 6750   0.353   0.964  11.817 -0.4620 -0.2620 -0.2672
  453TMC3     H 6751   0.027   0.743  11.803 -1.6496  2.7405 -0.4515
  453TMC3    H1 6752   0.305   0.977  11.584  0.5588 -1.2913 -0.2123
  453TMC3    H2 6753   4.669   0.853  11.392  2.1799  1.2129 -0.2953
  453TMC3    C7 6754   0.158   1.017  11.373 -0.1743  0.3692  0.0159
  453TMC3    C8 6755   4.603   0.674  11.586  0.1561  0.4669 -0.0203
  453TMC3    O1 6756   0.110   0.995  11.260 -0.1441  0.3363 -0.2159
  453TMC3    O2 6757   4.530   0.691  11.491  0.5578 -0.2212 -0.0094
  454MPD2     C 6758   3.479   0.081  16.129 -0.0055 -0.4018  0.0091
  454MPD2    C1 6759   3.389   0.188  16.114  0.2917 -0.1369 -0.7635
  454MPD2    C2 6760   3.360   0.280  16.221  0.1093 -0.2595 -0.5870
  454MPD2    C3 6761   3.398   0.242  16.351  0.1148  0.3551  0.0056
  454MPD2    C4 6762   3.484   0.142  16.367 -0.0991  0.6392  0.5933
  454MPD2    C5 6763   3.527   0.066  16.261 -0.1075 -0.7075 -0.2144
  454MPD2     H 6764   3.295   0.365  16.205 -1.0151 -0.2024  4.0768
  454MPD2    H1 6765   3.526   0.115  16.463  0.2070  0.3916  0.3885
  454MPD2    H2 6766   3.509   0.014  16.049  0.9766  0.6866 -0.5373
  454MPD2    H3 6767   3.579   4.700  16.294  1.0667 -0.0117 -0.1671
  454MPD2     N 6768   3.356   0.316  16.460  0.5313 -0.0624 -0.1413
  454MPD2    H5 6769   3.389   0.286  16.551  1.3806 -1.0595 -0.7747
  454MPD2    N1 6770   3.326   0.214  15.989 -0.8620 -0.2272 -0.3728
  454MPD2    H7 6771   3.251   0.283  15.993  0.4963  1.3052 -1.2460
  455TMC3    C1 6772   3.149   0.415  16.388  0.3587  0.6739  0.3530
  455TMC3    C2 6773   3.058   0.516  16.408  0.2416 -0.0638  0.9918
  455TMC3    C3 6774   2.923   0.505  16.385 -0.2873  0.0323  0.2485
  455TMC3    C4 6775   3.084   0.293  16.368 -0.5540 -0.0521 -0.1890
  455TMC3    C5 6776   2.962   0.283  16.320 -0.3557  0.4021  0.0732
  455TMC3    C6 6777   2.875   0.388  16.324 -0.3268 -0.4476 -0.0021
  455TMC3     C 6778   3.267   0.423  16.476  0.2916 -0.1642  0.3441
  455TMC3     O 6779   3.262   0.500  16.569  0.1052 -0.4783  0.2146
  455TMC3     H 6780   3.096   0.612  16.441 -1.4730 -0.0476  2.9661
  455TMC3    H1 6781   3.144   0.206  16.396 -1.6628 -0.9945 -0.7434
  455TMC3    H2 6782   2.770   0.369  16.307 -0.6102  2.4804 -1.5991
  455TMC3    C7 6783   2.921   0.165  16.248  0.4182 -0.1563  0.5480
  455TMC3    C8 6784   2.832   0.616  16.419  0.1147 -0.1513 -0.1132
  455TMC3    O1 6785   2.800   0.155  16.220  0.3960 -0.3585  0.2364
  455TMC3    O2 6786   2.883   0.727  16.437 -0.0014 -0.0726  0.0508
  456MPD2     C 6787   0.747   0.216  16.220  0.2684  0.0825  0.1222
  456MPD2    C1 6788   0.830   0.216  16.329  0.8957 -0.3872 -0.2095
  456MPD2    C2 6789   0.796   0.295  16.436  0.5086  0.2589 -0.1836
  456MPD2    C3 6790   0.688   0.380  16.421 -0.5005  0.8861 -0.1890
  456MPD2    C4 6791   0.621   0.383  16.300 -0.8046 -0.0860  0.2986
  456MPD2    C5 6792   0.647   0.300  16.202  0.9061 -0.1625 -0.2609
  456MPD2     H 6793   0.866   0.295  16.519 -0.3949 -1.5790  0.5827
  456MPD2    H1 6794   0.548   0.460  16.277 -1.7694 -1.3116 -0.7094
  456MPD2    H2 6795   0.781   0.159  16.134 -0.8004  1.0343 -0.9192
  456MPD2    H3 6796   0.598   0.304  16.105  2.2483 -0.0129 -0.9395
  456MPD2     N 6797   0.657   0.469  16.530  0.3663 -0.0853 -0.2949
  456MPD2    H5 6798   0.735   0.475  16.596 -0.6460 -0.2096  0.9177
  456MPD2    N1 6799   0.943   0.133  16.318  0.3518  0.2306 -0.2287
  456MPD2    H7 6800   0.970   0.096  16.227 -0.5901 -2.4438  0.5725
  457TMC3    C1 6801   0.538   0.634  16.655  0.1209 -0.1888 -0.6280
  457TMC3    C2 6802   0.461   0.743  16.640 -0.2321 -0.5939  0.1663
  457TMC3    C3 6803   0.499   0.864  16.704  0.0026 -0.2828 -0.1527
  457TMC3    C4 6804   0.644   0.628  16.745 -0.6707  0.2002  0.3729
  457TMC3    C5 6805   0.664   0.749  16.821 -0.4886  0.2075 -0.4242
  457TMC3    C6 6806   0.602   0.864  16.796  0.4887 -0.3963 -0.1109
  457TMC3     C 6807   0.534   0.542  16.545 -1.0933  0.5953 -0.1588
  457TMC3     O 6808   0.429   0.527  16.487  0.4779  0.1474  0.2112
  457TMC3     H 6809   0.378   0.737  16.570 -3.3206 -0.9949  3.8912
  457TMC3    H1 6810   0.695   0.535  16.765 -1.6264 -0.0365  1.6618
  457TMC3    H2 6811   0.607   0.948  16.864 -2.6361  2.0417 -2.8691
  457TMC3    C7 6812   0.734   0.721  16.952 -0.4876  0.4117 -0.2121
  457TMC3    C8 6813   0.431   0.993  16.687  0.6698  0.1690 -0.0739
  457TMC3    O1 6814   0.745   0.604  16.984 -0.6400 -0.4815 -0.2457
  457TMC3    O2 6815   0.472   1.092  16.750  0.0393  0.2779  0.3826
  458MPD2     C 6816   3.571   0.193  12.143 -0.3790  0.0924  0.5439
  458MPD2    C1 6817   3.554   0.103  12.248  0.5312 -0.5307 -0.1490
  458MPD2    C2 6818   3.431   0.033  12.249  0.0909  0.2648  0.1122
  458MPD2    C3 6819   3.332   0.053  12.151 -0.3573  0.5088 -0.5398
  458MPD2    C4 6820   3.357   0.132  12.043  0.2229  0.2793 -0.5281
  458MPD2    C5 6821   3.471   0.203  12.049  0.0666  0.8329  0.2948
  458MPD2     H 6822   3.397   4.695  12.332 -0.4550  0.7094  0.2173
  458MPD2    H1 6823   3.284   0.152  11.965  0.4917  2.0791 -0.3315
  458MPD2    H2 6824   3.668   0.239  12.128  0.4135 -1.1933  1.6822
  458MPD2    H3 6825   3.500   0.260  11.962  0.0437  0.3790 -0.0053
  458MPD2     N 6826   3.208   4.712  12.172 -0.5697 -0.3876 -0.7333
  458MPD2    H5 6827   3.201   4.655  12.255  1.0397 -1.1405 -1.1178
  458MPD2    N1 6828   3.651   0.089  12.349  0.0626  0.3513 -0.2180
  458MPD2    H7 6829   3.735   0.146  12.342  1.3004 -1.1478  2.1271
  459TMC3    C1 6830   3.765   0.023  12.549  0.2745 -0.0223 -0.8494
  459TMC3    C2 6831   3.878   0.064  12.492 -0.0061  0.1528  0.1574
  459TMC3    C3 6832   3.982   0.099  12.581 -0.0418  0.6948  0.6127
  459TMC3    C4 6833   3.752   0.005  12.684 -0.0719 -0.4574 -0.5073
  459TMC3    C5 6834   3.852   0.043  12.764 -0.0080  0.3691  0.6540
  459TMC3    C6 6835   3.973   0.084  12.717 -0.0150 -0.0323 -0.3315
  459TMC3     C 6836   3.641   0.024  12.472  0.3853 -0.8200  0.2757
  459TMC3     O 6837   3.539   4.693  12.520  0.0102 -0.1119 -0.8298
  459TMC3     H 6838   3.891   0.042  12.387 -0.0804 -2.9835  0.7875
  459TMC3    H1 6839   3.656   4.715  12.732 -0.7547 -1.6290 -2.1689
  459TMC3    H2 6840   4.056   0.119  12.776  0.0210  2.6475 -1.9549
  459TMC3    C7 6841   3.836   4.694  12.887  0.8242 -0.0217 -0.8548
  459TMC3    C8 6842   4.107   0.122  12.520  0.2520  0.2875  0.0579
  459TMC3    O1 6843   3.804   4.578  12.872 -0.2162  0.2140 -0.2678
  459TMC3    O2 6844   4.211   0.076  12.568 -0.2301 -0.7181 -0.2352
  460MPD2     C 6845   3.048   2.439  10.677  0.0175  1.2217  0.1597
  460MPD2    C1 6846   2.947   2.482  10.760 -0.4093 -0.4190  0.0160
  460MPD2    C2 6847   2.854   2.567  10.714  0.1526 -0.5688 -0.0850
  460MPD2    C3 6848   2.850   2.608  10.580 -0.3186  0.0012 -0.2386
  460MPD2    C4 6849   2.953   2.557  10.495 -0.0871 -0.1234 -0.3703
  460MPD2    C5 6850   3.055   2.481  10.550 -0.2422 -0.6523  0.5627
  460MPD2     H 6851   2.786   2.609  10.788  1.7740  2.2029 -0.1866
  460MPD2    H1 6852   2.958   2.586  10.390 -2.5286 -0.9244 -0.7204
  460MPD2    H2 6853   3.136   2.380  10.699 -0.1939  1.0988  0.6664
  460MPD2    H3 6854   3.147   2.461  10.497 -1.4904  0.2361 -1.9696
  460MPD2     N 6855   2.751   2.700  10.537  0.5322  0.3058 -0.3731
  460MPD2    H5 6856   2.688   2.727  10.612 -0.3463 -0.3825 -0.8569
  460MPD2    N1 6857   2.956   2.423  10.887  0.1108 -0.1093  0.1122
  460MPD2    H7 6858   3.034   2.359  10.896  0.1178 -0.4646 -2.6084
  461TMC3    C1 6859   2.637   2.840  10.385  1.0687 -0.6779  0.6477
  461TMC3    C2 6860   2.522   2.759  10.377  0.3875  0.4634 -0.7016
  461TMC3    C3 6861   2.432   2.792  10.287  0.0303 -0.6891  0.3297
  461TMC3    C4 6862   2.650   2.956  10.321 -0.1584 -0.0010 -1.1442
  461TMC3    C5 6863   2.560   2.978  10.222 -0.6005 -0.1433  0.0783
  461TMC3    C6 6864   2.451   2.895  10.197 -0.7863  0.2958  0.1834
  461TMC3     C 6865   2.762   2.770  10.417 -0.0350  0.4521 -0.3400
  461TMC3     O 6866   2.861   2.789  10.344 -0.4600  0.1407  0.1623
  461TMC3     H 6867   2.523   2.665  10.431  0.6417  0.4283 -0.7681
  461TMC3    H1 6868   2.730   3.019  10.358  0.3354 -1.4530  0.2858
  461TMC3    H2 6869   2.384   2.920  10.116 -0.3591 -0.9006 -0.5439
  461TMC3    C7 6870   2.558   3.100  10.152  0.5559 -0.1254  0.9962
  461TMC3    C8 6871   2.312   2.712  10.258 -0.6719 -0.3942  0.0866
  461TMC3    O1 6872   2.448   3.129  10.109  0.3216 -0.3171 -0.0507
  461TMC3    O2 6873   2.312   2.602  10.303  0.4930  0.7670 -0.5685
  462TMC3    C1 6874   2.185   2.835  17.419 -0.1715  0.2789  0.0022
  462TMC3    C2 6875   2.164   2.772  17.296  0.5404  0.9740  0.5695
  462TMC3    C3 6876   2.180   2.634  17.283  0.0302 -0.0661  0.4598
  462TMC3    C4 6877   2.203   2.754  17.536  0.1840 -0.7616  0.4257
  462TMC3    C5 6878   2.215   2.615  17.519  0.5767  0.2946 -1.0026
  462TMC3    C6 6879   2.204   2.556  17.395 -0.0895  0.0435 -0.7379
  462TMC3     C 6880   2.212   2.976  17.439  0.2891 -1.0716 -0.6139
  462TMC3     O 6881   2.288   2.993  17.532  0.0212  0.1527 -0.2010
  462TMC3     H 6882   2.160   2.840  17.212  0.1810 -0.2088 -0.3587
  462TMC3    H1 6883   2.180   2.793  17.635 -0.9212  0.1449 -0.1932
  462TMC3    H2 6884   2.191   2.448  17.391 -0.4292 -0.0210  1.7976
  462TMC3    C7 6885   2.190   2.530  17.633  0.0900  0.4571 -0.6511
  462TMC3    C8 6886   2.161   2.585  17.150  0.3038 -0.2868  0.0993
  462TMC3    O1 6887   2.141   2.417  17.617 -0.0674  0.1465 -0.2453
  462TMC3    O2 6888   2.085   2.648  17.084 -0.1628 -0.8010  0.0042
  463MPD2     C 6889   2.667   2.835   1.955  1.1710  0.7599 -0.0808
  463MPD2    C1 6890   2.664   2.797   1.822  1.1806 -0.9829  0.3148
  463MPD2    C2 6891   2.681   2.894   1.724  0.2355  0.1047 -0.3949
  463MPD2    C3 6892   2.695   3.029   1.758 -0.6927 -0.4025 -0.4549
  463MPD2    C4 6893   2.696   3.062   1.889  0.1753  0.9223  0.3273
  463MPD2    C5 6894   2.685   2.968   1.984  0.7871 -0.1430 -0.5037
  463MPD2     H 6895   2.669   2.859   1.622 -1.0414 -1.5360  0.3230
  463MPD2    H1 6896   2.720   3.158   1.931  1.9598  1.0496 -0.9710
  463MPD2    H2 6897   2.645   2.769   2.038 -0.8598  3.1093  1.2390
  463MPD2    H3 6898   2.686   2.991   2.090  2.0811  1.2158 -0.8200
  463MPD2     N 6899   2.693   3.134   1.660 -0.4252  0.4373  0.2898
  463MPD2    H5 6900   2.718   3.230   1.681  1.4870 -0.2536  1.1479
  463MPD2    N1 6901   2.640   2.666   1.782 -0.3227  0.7196  0.0524
  463MPD2    H7 6902   2.623   2.662   1.682  1.3817 -2.2706 -0.0762
  464TMC3    C1 6903   2.615   2.442   1.783 -0.3544  0.1649 -0.1766
  464TMC3    C2 6904   2.529   2.443   1.675 -0.4028  0.1716 -0.5828
  464TMC3    C3 6905   2.520   2.327   1.602 -0.8314 -0.3295 -0.5334
  464TMC3    C4 6906   2.681   2.330   1.825 -0.5639  1.0969  0.1082
  464TMC3    C5 6907   2.656   2.216   1.757 -0.2745 -0.5290 -0.2227
  464TMC3    C6 6908   2.593   2.217   1.630  0.9088 -0.7090 -0.2651
  464TMC3     C 6909   2.615   2.557   1.866  0.4718 -0.2243 -0.4140
  464TMC3     O 6910   2.644   2.542   1.982 -0.0002 -0.9645  0.1136
  464TMC3     H 6911   2.459   2.523   1.654  1.4554  1.8341 -0.5030
  464TMC3    H1 6912   2.741   2.329   1.915  0.9384 -0.4238 -0.9202
  464TMC3    H2 6913   2.562   2.120   1.592 -0.9650 -0.5371  0.8261
  464TMC3    C7 6914   2.749   2.101   1.791 -0.5681  1.0122 -1.1526
  464TMC3    C8 6915   2.461   2.312   1.471  0.5059  0.4985  0.0314
  464TMC3    O1 6916   2.829   2.121   1.885  0.0704  0.5707  0.7890
  464TMC3    O2 6917   2.519   2.231   1.397  0.0600 -0.2066 -0.2067
  465MPD2     C 6918   4.581   0.281  16.973 -0.4747 -0.9256  0.0777
  465MPD2    C1 6919   4.462   0.308  17.043 -0.0360 -0.0118  0.1118
  465MPD2    C2 6920   4.361   0.379  16.979 -0.3792  0.4873 -0.3729
  465MPD2    C3 6921   4.380   0.429  16.854 -0.4541  0.2484 -0.2252
  465MPD2    C4 6922   4.491   0.396  16.780  0.0501  0.3275  0.0032
  465MPD2    C5 6923   4.594   0.325  16.844 -0.2482  0.2307 -0.1842
  465MPD2     H 6924   4.271   0.390  17.038 -1.2223 -2.0799 -1.1744
  465MPD2    H1 6925   4.501   0.429  16.678  0.0340  0.4358  0.0371
  465MPD2    H2 6926   4.661   0.215  17.007 -0.3238 -1.1924 -0.8004
  465MPD2    H3 6927   4.690   0.302  16.799 -1.0137  0.6407 -2.0511
  465MPD2     N 6928   4.276   0.515  16.815  0.2617  0.3164 -0.7742
  465MPD2    H5 6929   4.193   0.523  16.873  1.0109  0.0763  0.3393
  465MPD2    N1 6930   4.434   0.260  17.178 -0.2396 -0.7009  0.2504
  465MPD2    H7 6931   4.339   0.274  17.211  0.5906 -0.0570  2.3622
  466TMC3    C1 6932   4.002   0.803  16.794  0.5253 -0.3212 -0.9384
  466TMC3    C2 6933   3.982   0.890  16.690  0.0338  0.6171 -0.1029
  466TMC3    C3 6934   4.054   0.864  16.577 -0.6041  0.0536 -0.2397
  466TMC3    C4 6935   4.067   0.688  16.792  0.3649 -0.2908 -0.1381
  466TMC3    C5 6936   4.146   0.658  16.679 -0.4569  0.6928 -0.1469
  466TMC3    C6 6937   4.137   0.752  16.574 -0.4823 -0.4216 -0.7258
  466TMC3     C 6938   3.974   0.839  16.934  0.0398 -0.4232 -0.1070
  466TMC3     O 6939   4.058   0.816  17.022  0.2905  0.2219  0.4442
  466TMC3     H 6940   3.944   0.986  16.723  1.5505  1.1318  0.1459
  466TMC3    H1 6941   4.061   0.627  16.881 -2.3534  2.0817  1.2866
  466TMC3    H2 6942   4.202   0.752  16.487  1.0755 -1.9862  0.4472
  466TMC3    C7 6943   4.264   0.576  16.691  0.3883  0.2643  0.0498
  466TMC3    C8 6944   4.087   0.976  16.491  0.5136  0.5012 -0.1833
  466TMC3    O1 6945   4.344   0.579  16.600 -0.1896  1.1868 -0.1393
  466TMC3    O2 6946   4.117   0.949  16.375  0.3686  0.0211  0.2514
  467TMC3    C1 6947   0.653   3.890  13.706  0.9475 -0.3718  0.1126
  467TMC3    C2 6948   0.610   4.016  13.680 -0.0918 -0.4617  0.4796
  467TMC3    C3 6949   0.522   4.031  13.580 -0.3010  0.9807  0.0031
  467TMC3    C4 6950   0.601   3.771  13.658  0.0767 -0.3714 -0.2820
  467TMC3    C5 6951   0.496   3.789  13.571 -0.4121 -0.3177 -0.0226
  467TMC3    C6 6952   0.462   3.914  13.533  0.1769  0.0353 -0.1726
  467TMC3     C 6953   0.793   3.881  13.729 -0.1014  0.3711 -0.3425
  467TMC3     O 6954   0.841   3.973  13.792 -0.0695 -0.0541  0.1200
  467TMC3     H 6955   0.638   4.106  13.734 -1.3592 -0.2062  0.7088
  467TMC3    H1 6956   0.626   3.676  13.702  0.9050  0.8307  1.8345
  467TMC3    H2 6957   0.387   3.922  13.455 -0.7476  1.8963  0.9056
  467TMC3    C7 6958   0.402   3.682  13.560 -0.2898 -0.0144 -0.1034
  467TMC3    C8 6959   0.574   4.124  13.478 -0.3769 -0.1728  0.1266
  467TMC3    O1 6960   0.444   3.579  13.508  0.0762 -0.3249 -0.2780
  467TMC3    O2 6961   0.624   4.225  13.518 -0.3216  0.1166  0.4109
  468MPD2     C 6962   4.512   2.002  10.476  0.2009 -0.2729  0.3529
  468MPD2    C1 6963   4.643   2.010  10.515  0.4353 -0.0575  0.0290
  468MPD2    C2 6964   4.694   1.913  10.604  0.4660  0.1902  0.0748
  468MPD2    C3 6965   4.602   1.811  10.665 -0.0344  0.3229  0.4627
  468MPD2    C4 6966   4.469   1.814  10.618  0.6608 -1.0042  0.3150
  468MPD2    C5 6967   4.432   1.907  10.525  0.6399 -0.1975  0.4289
  468MPD2     H 6968   0.075   1.919  10.635  0.9862 -1.9434 -1.2724
  468MPD2    H1 6969   4.397   1.733  10.626 -0.5084 -0.1407 -1.6471
  468MPD2    H2 6970   4.467   2.056  10.393 -1.2418 -1.3679  0.4058
  468MPD2    H3 6971   4.330   1.897  10.489  0.2754  1.0397  1.1006
  468MPD2     N 6972   4.652   1.719  10.758  0.2121  0.2017 -0.7013
  468MPD2    H5 6973   4.587   1.651  10.796  0.0316  0.8058  0.0658
  468MPD2    N1 6974   0.016   2.105  10.468  0.0179  0.3770  0.2325
  468MPD2    H7 6975   0.111   2.096  10.503 -0.5143  1.4649  1.9836
  469TMC3    C1 6976   0.116   2.293  10.358 -0.0162  0.0511 -0.1393
  469TMC3    C2 6977   0.239   2.253  10.383 -0.1827  0.4651 -0.2773
  469TMC3    C3 6978   0.335   2.351  10.405  0.7597  0.0058  0.5382
  469TMC3    C4 6979   0.080   2.421  10.329 -0.0581  0.0920  0.4483
  469TMC3    C5 6980   0.180   2.516  10.357  0.6628 -0.4752 -0.5072
  469TMC3    C6 6981   0.306   2.477  10.384  0.0081  0.4520  0.1417
  469TMC3     C 6982   4.717   2.209  10.385 -0.6120 -0.2008  0.0279
  469TMC3     O 6983   4.605   2.254  10.357  0.7956  0.1247 -0.1182
  469TMC3     H 6984   0.259   2.148  10.402 -0.3558  0.3486 -0.7500
  469TMC3    H1 6985   4.704   2.447  10.293  0.9878  2.3536 -0.8605
  469TMC3    H2 6986   0.376   2.557  10.403 -0.0846  0.4490  0.4914
  469TMC3    C7 6987   0.170   2.654  10.323 -0.2435 -0.8057 -0.7360
  469TMC3    C8 6988   0.452   2.314  10.472 -0.5604  0.8247 -0.3804
  469TMC3    O1 6989   0.271   2.716  10.297 -0.5452 -0.6651 -0.5753
  469TMC3    O2 6990   0.546   2.393  10.467 -0.1988  0.1629  0.1766
  470TMC3    C1 6991   2.077   3.446   0.953 -0.2365  0.7163  0.1414
  470TMC3    C2 6992   2.168   3.546   0.976 -0.8507  0.5400 -0.2331
  470TMC3    C3 6993   2.155   3.611   1.092  0.0965 -0.0496 -0.0832
  470TMC3    C4 6994   1.994   3.401   1.050 -0.1559 -0.1315  0.7767
  470TMC3    C5 6995   1.992   3.461   1.173  0.1629  0.5311  0.3704
  470TMC3    C6 6996   2.073   3.566   1.192 -0.1763 -0.0069 -0.1534
  470TMC3     C 6997   2.098   3.378   0.831  0.3449  0.2525  0.0603
  470TMC3     O 6998   2.193   3.414   0.768  0.1368 -0.0746  0.0174
  470TMC3     H 6999   2.230   3.590   0.899  2.5569  0.0167  2.1808
  470TMC3    H1 7000   1.925   3.319   1.039  1.3120 -1.2674  0.0346
  470TMC3    H2 7001   2.073   3.623   1.284  0.7543 -0.6068  0.2268
  470TMC3    C7 7002   1.956   3.366   1.288 -0.4960  0.2122 -0.9958
  470TMC3    C8 7003   2.187   3.748   1.099  0.4734  0.8300 -0.7806
  470TMC3    O1 7004   1.898   3.263   1.254 -0.7051 -0.2883  0.0220
  470TMC3    O2 7005   2.114   3.815   1.171  0.2465  0.0035 -0.2420
  471MPD2     C 7006   2.541   4.590  16.682 -0.2812  0.5674  0.1264
  471MPD2    C1 7007   2.581   4.474  16.626 -0.2225 -0.8643 -0.7507
  471MPD2    C2 7008   2.682   4.400  16.688  0.4156  0.2816  0.1146
  471MPD2    C3 7009   2.746   4.454  16.803 -0.1856  0.6298 -0.0773
  471MPD2    C4 7010   2.712   4.580  16.843 -0.3643 -0.1075 -0.2388
  471MPD2    C5 7011   2.613   4.647  16.780 -0.5865 -0.6239  0.8814
  471MPD2     H 7012   2.713   4.304  16.649 -3.6628 -0.6881 -0.7238
  471MPD2    H1 7013   2.766   4.624  16.926 -0.1817  1.0323 -0.9684
  471MPD2    H2 7014   2.456   4.642  16.639 -1.3352 -0.7000  0.6832
  471MPD2    H3 7015   2.574   0.019  16.816  2.7046  0.3749  1.7588
  471MPD2     N 7016   2.822   4.376  16.897 -0.2225  0.4578 -0.3098
  471MPD2    H5 7017   2.847   4.430  16.979  1.3706 -1.6556  0.6064
  471MPD2    N1 7018   2.524   4.407  16.508 -0.2256  0.5064 -0.0223
  471MPD2    H7 7019   2.575   4.329  16.469  1.9118  1.7372  0.3321
  472TMC3    C1 7020   2.355   4.362  16.354 -0.9122 -0.2301  0.2140
  472TMC3    C2 7021   2.242   4.404  16.287  0.5101 -0.6209  0.0237
  472TMC3    C3 7022   2.181   4.300  16.213  0.2840  0.6205 -0.4002
  472TMC3    C4 7023   2.406   4.238  16.347 -1.2467  0.2079 -0.4851
  472TMC3    C5 7024   2.337   4.143  16.275  0.2783 -0.8408  0.5241
  472TMC3    C6 7025   2.229   4.170  16.207  0.8745  0.4884 -0.1155
  472TMC3     C 7026   2.412   4.457  16.449 -0.2014  0.3103  0.6400
  472TMC3     O 7027   2.342   4.554  16.476  0.0387 -0.2395 -0.7105
  472TMC3     H 7028   2.211   4.508  16.285  0.5662 -0.5744  1.5883
  472TMC3    H1 7029   2.496   4.197  16.393 -0.6894  0.1541 -1.6143
  472TMC3    H2 7030   2.185   4.090  16.149 -0.4412 -0.2605  1.8950
  472TMC3    C7 7031   2.368   3.997  16.305  0.7400  0.0946 -0.2442
  472TMC3    C8 7032   2.043   4.318  16.181 -0.2767 -0.1229 -0.0571
  472TMC3    O1 7033   2.435   3.965  16.402  0.0412 -0.0687 -0.5508
  472TMC3    O2 7034   2.015   4.399  16.095 -0.0311 -0.6187  0.0233
  473MPD2     C 7035   2.223   1.289  13.711 -0.0092 -0.0893  0.2353
  473MPD2    C1 7036   2.210   1.418  13.668  0.8654 -0.3869 -0.2645
  473MPD2    C2 7037   2.253   1.523  13.749 -0.1895 -0.5205  0.0188
  473MPD2    C3 7038   2.302   1.484  13.872 -0.4892  0.1372 -0.0455
  473MPD2    C4 7039   2.317   1.355  13.908  0.1127  0.0262 -0.2514
  473MPD2    C5 7040   2.278   1.258  13.829  0.5471 -0.1680  0.2658
  473MPD2     H 7041   2.243   1.627  13.720  0.3468 -0.2639  0.7535
  473MPD2    H1 7042   2.356   1.333  14.007  0.9549 -1.5978 -0.9314
  473MPD2    H2 7043   2.188   1.207  13.649 -0.7404  0.4298 -0.0366
  473MPD2    H3 7044   2.280   1.163  13.881  0.0342 -0.3711 -0.0925
  473MPD2     N 7045   2.344   1.578  13.966  0.1387  0.6878  0.3430
  473MPD2    H5 7046   2.375   1.546  14.057 -1.7931 -0.8968  0.4113
  473MPD2    N1 7047   2.153   1.465  13.545  0.2752  0.0512  0.0663
  473MPD2    H7 7048   2.137   1.565  13.542  1.9498  0.3196  0.1926
  474TMC3    C1 7049   2.374   1.790  14.067 -0.1253  0.4231 -0.2939
  474TMC3    C2 7050   2.274   1.877  14.102 -0.1338 -0.6928  0.1876
  474TMC3    C3 7051   2.272   1.920  14.235 -0.4395 -0.8135 -0.6987
  474TMC3    C4 7052   2.452   1.723  14.161 -0.4380 -0.6273  0.5379
  474TMC3    C5 7053   2.441   1.766  14.292 -0.2736 -0.2836 -0.6043
  474TMC3    C6 7054   2.351   1.861  14.331 -0.3787  0.7339 -0.4186
  474TMC3     C 7055   2.340   1.717  13.951 -0.0259  0.4361 -0.0246
  474TMC3     O 7056   2.300   1.786  13.859  0.0870  0.2428  0.4790
  474TMC3     H 7057   2.203   1.895  14.022 -1.1554 -1.6669  0.8710
  474TMC3    H1 7058   2.517   1.642  14.131 -0.8965 -1.2075  1.1219
  474TMC3    H2 7059   2.341   1.893  14.434 -1.8023 -1.3814  0.1129
  474TMC3    C7 7060   2.573   1.785  14.343 -0.3254 -0.1534 -0.7758
  474TMC3    C8 7061   2.158   1.999  14.272 -0.4367 -0.5338  0.5391
  474TMC3    O1 7062   2.663   1.790  14.257 -0.6057 -0.3086  0.2031
  474TMC3    O2 7063   2.094   1.956  14.365 -0.3031 -0.5208  0.1987
  475MPD2     C 7064   1.194   0.060  10.215  0.5566 -0.2262  0.1822
  475MPD2    C1 7065   1.132   0.165  10.285  0.1103 -0.3842 -0.9298
  475MPD2    C2 7066   0.993   0.164  10.284  0.1813 -1.0756  0.7994
  475MPD2    C3 7067   0.915   0.073  10.213  0.1072  0.2181 -0.5536
  475MPD2    C4 7068   0.982   4.690  10.149 -0.0562 -0.6129 -0.2350
  475MPD2    C5 7069   1.120   4.682  10.158 -0.1479  0.0411  0.3829
  475MPD2     H 7070   0.947   0.246  10.338 -0.5150  1.4770 -3.6214
  475MPD2    H1 7071   0.926   4.622  10.086  0.7055 -2.2570  0.8584
  475MPD2    H2 7072   1.302   0.051  10.213  0.5174 -1.0506  2.7228
  475MPD2    H3 7073   1.173   4.597  10.115 -0.2082 -0.4365  1.2480
  475MPD2     N 7074   0.773   0.074  10.229  0.3787 -0.2510  0.3593
  475MPD2    H5 7075   0.730   0.152  10.277 -0.0279 -1.2981  1.6777
  475MPD2    N1 7076   1.206   0.260  10.362 -0.5229 -0.2376 -0.6854
  475MPD2    H7 7077   1.154   0.338  10.401  0.2220 -0.2859  0.4079
  476TMC3    C1 7078   1.367   0.374  10.474 -0.9113 -0.4336  0.3201
  476TMC3    C2 7079   1.447   0.473  10.431 -0.1398  0.6913 -0.9286
  476TMC3    C3 7080   1.427   0.596  10.487  0.6333 -0.5906 -0.4163
  476TMC3    C4 7081   1.266   0.399  10.568  0.0368 -0.2351  0.1858
  476TMC3    C5 7082   1.255   0.523  10.629 -0.2787 -0.3003  1.1853
  476TMC3    C6 7083   1.340   0.618  10.594 -0.0548 -0.0807 -0.3019
  476TMC3     C 7084   1.343   0.257  10.392 -0.1926 -0.2011  0.0518
  476TMC3     O 7085   1.429   0.186  10.348  0.2859 -0.1047 -0.2934
  476TMC3     H 7086   1.523   0.458  10.355 -0.9611  0.9778 -1.8073
  476TMC3    H1 7087   1.201   0.319  10.603  1.6745 -0.7164  2.1616
  476TMC3    H2 7088   1.319   0.719  10.628  0.0413 -0.3088  0.4385
  476TMC3    C7 7089   1.132   0.551  10.704  0.0519 -0.6640  0.0947
  476TMC3    C8 7090   1.414   0.702  10.395 -0.5850  0.1930 -0.8349
  476TMC3    O1 7091   1.046   0.463  10.706 -0.0148 -0.4916 -0.1587
  476TMC3    O2 7092   1.415   0.815  10.439  0.0708 -0.3726  0.1242
  477MPD2     C 7093   3.511   1.567  11.837 -0.1116 -0.4930  0.2851
  477MPD2    C1 7094   3.381   1.526  11.874 -0.6572  0.0302 -0.1335
  477MPD2    C2 7095   3.370   1.443  11.977 -0.4655  0.3097 -0.1378
  477MPD2    C3 7096   3.486   1.394  12.038 -0.3650  0.4929  0.2032
  477MPD2    C4 7097   3.610   1.432  11.987  1.0035  0.3422  0.2178
  477MPD2    C5 7098   3.627   1.514  11.884  0.2588 -0.1747 -0.8397
  477MPD2     H 7099   3.269   1.417  12.005 -0.1636 -0.6869  0.0106
  477MPD2    H1 7100   3.702   1.395  12.030  0.5071  0.1872  1.1335
  477MPD2    H2 7101   3.534   1.630  11.751 -1.1016 -2.7886 -1.6882
  477MPD2    H3 7102   3.724   1.545  11.846  1.6083  1.0025  3.4848
  477MPD2     N 7103   3.471   1.299  12.141  0.3494  0.3792 -0.1109
  477MPD2    H5 7104   3.375   1.289  12.173  0.0198  1.6566 -0.7090
  477MPD2    N1 7105   3.273   1.559  11.802 -0.0455 -0.3124 -0.2275
  477MPD2    H7 7106   3.183   1.539  11.844 -1.1060 -2.5131 -3.5194
  478TMC3    C1 7107   3.153   1.702  11.649  0.1309  0.0464  0.1363
  478TMC3    C2 7108   3.097   1.761  11.753  0.0632  0.1904  0.4654
  478TMC3    C3 7109   3.003   1.858  11.731 -0.7662  0.5717  0.9619
  478TMC3    C4 7110   3.132   1.745  11.521 -0.3032  0.2713  0.5546
  478TMC3    C5 7111   3.038   1.837  11.500  1.4967  0.0738  0.0253
  478TMC3    C6 7112   2.974   1.897  11.603  0.2058  0.1585  0.1532
  478TMC3     C 7113   3.271   1.618  11.674 -0.8879  0.1534  0.2023
  478TMC3     O 7114   3.361   1.619  11.592 -0.4503 -0.0145 -0.3931
  478TMC3     H 7115   3.108   1.726  11.854  1.7346  0.5373  0.3964
  478TMC3    H1 7116   3.205   1.716  11.446  0.3026  4.0085 -0.2931
  478TMC3    H2 7117   2.890   1.963  11.585  0.0592 -0.2630 -0.7124
  478TMC3    C7 7118   3.000   1.878  11.368 -0.9449 -0.1634  0.0788
  478TMC3    C8 7119   2.936   1.922  11.843  0.3037  0.9206  0.2913
  478TMC3    O1 7120   2.881   1.913  11.360  0.7603 -0.1879 -0.1873
  478TMC3    O2 7121   2.930   1.863  11.951 -0.5200 -0.2629  0.1202
  479MPD2     C 7122   1.405   3.326  14.880 -0.2617 -0.5546  0.6876
  479MPD2    C1 7123   1.423   3.285  15.012 -0.1512 -0.0459  0.1269
  479MPD2    C2 7124   1.518   3.350  15.090  0.4427 -0.3135 -1.2513
  479MPD2    C3 7125   1.573   3.475  15.052  0.6806 -0.1052 -0.5370
  479MPD2    C4 7126   1.548   3.517  14.926  0.1859  0.1046  0.1903
  479MPD2    C5 7127   1.470   3.434  14.839  0.2573 -0.5883 -0.3400
  479MPD2     H 7128   1.533   3.304  15.187  0.3043 -1.2853 -1.6999
  479MPD2    H1 7129   1.595   3.602  14.878 -1.5148  1.5098  1.0280
  479MPD2    H2 7130   1.338   3.266  14.820  0.6418 -0.2205 -0.6766
  479MPD2    H3 7131   1.450   3.458  14.736 -0.2782 -0.7317 -0.2690
  479MPD2     N 7132   1.656   3.558  15.135  0.2118 -0.3099  0.0301
  479MPD2    H5 7133   1.711   3.626  15.083  1.6247 -2.4524 -1.3095
  479MPD2    N1 7134   1.350   3.166  15.051  0.0497 -0.2011 -0.2471
  479MPD2    H7 7135   1.281   3.133  14.985  0.8692  0.3316 -1.3620
  480TMC3    C1 7136   1.904   3.617  15.520  0.3432  0.3675  0.1049
  480TMC3    C2 7137   2.016   3.655  15.450  0.0884  0.6878  0.4916
  480TMC3    C3 7138   1.986   3.714  15.321  0.0825 -0.2835  0.1360
  480TMC3    C4 7139   1.779   3.608  15.468  0.2985  0.2320 -0.4546
  480TMC3    C5 7140   1.764   3.630  15.334 -0.7147  0.4858 -0.2049
  480TMC3    C6 7141   1.865   3.695  15.267 -0.7712 -0.6029  0.5508
  480TMC3     C 7142   1.923   3.575  15.659 -0.1375 -0.4432 -0.5472
  480TMC3     O 7143   2.034   3.560  15.702  0.0763 -0.0164  0.2559
  480TMC3     H 7144   2.097   3.686  15.515  0.6216 -1.1498  0.7233
  480TMC3    H1 7145   1.695   3.566  15.522  0.1554 -1.6966 -2.1729
  480TMC3    H2 7146   1.852   3.722  15.163 -0.3059 -0.0758  0.6300
  480TMC3    C7 7147   1.663   3.547  15.272 -0.1009  0.7318  0.5767
  480TMC3    C8 7148   2.103   3.776  15.255 -0.2319  0.1369 -0.2858
  480TMC3    O1 7149   1.585   3.483  15.340 -0.3993  0.0881  0.0170
  480TMC3    O2 7150   2.212   3.761  15.312 -0.2479 -0.0149 -1.0186
  481MPD2     C 7151   3.566   2.952  14.068  0.4796  0.3371 -0.1060
  481MPD2    C1 7152   3.431   2.932  14.092  0.2472  0.0331  0.5175
  481MPD2    C2 7153   3.382   2.921  14.221  0.2099  0.8998  0.0632
  481MPD2    C3 7154   3.470   2.953  14.327 -0.6175 -0.0407  0.3835
  481MPD2    C4 7155   3.599   2.993  14.302  0.2912 -0.4036  0.3211
  481MPD2    C5 7156   3.647   2.979  14.172  0.0589  0.4996 -0.1224
  481MPD2     H 7157   3.276   2.902  14.236  0.2413  0.6409 -0.0532
  481MPD2    H1 7158   3.675   3.018  14.376 -0.9028 -0.7220  1.6481
  481MPD2    H2 7159   3.606   2.954  13.967 -2.0814 -0.3335 -1.1132
  481MPD2    H3 7160   3.753   2.991  14.154  0.3489 -1.8169  0.0119
  481MPD2     N 7161   3.423   2.956  14.466 -0.1104  0.1572 -0.1676
  481MPD2    H5 7162   3.493   2.976  14.537 -0.0894  0.1457 -0.1852
  481MPD2    N1 7163   3.350   2.922  13.979 -0.0930 -0.5989  0.1849
  481MPD2    H7 7164   3.399   2.930  13.891 -0.2208 -0.1218  0.1575
  482TMC3    C1 7165   3.168   2.889  13.845 -0.6454 -0.6899 -0.0462
  482TMC3    C2 7166   3.047   2.820  13.844  0.0636  0.3663 -0.0817
  482TMC3    C3 7167   2.998   2.796  13.716 -0.3653 -0.4343 -0.5376
  482TMC3    C4 7168   3.233   2.930  13.730 -0.7269  0.6318 -0.4412
  482TMC3    C5 7169   3.185   2.891  13.612  0.1244 -0.2758  0.3563
  482TMC3    C6 7170   3.062   2.831  13.598  0.6013 -0.0962  0.0442
  482TMC3     C 7171   3.215   2.916  13.978  0.1505  0.4239  0.3039
  482TMC3     O 7172   3.132   2.898  14.065  0.0407  0.0044 -0.3251
  482TMC3     H 7173   3.009   2.775  13.935 -1.0996 -1.0615 -1.2681
  482TMC3    H1 7174   3.318   2.997  13.736  0.1565 -0.6213  1.1401
  482TMC3    H2 7175   3.035   2.802  13.497 -0.7758  1.0291  0.0859
  482TMC3    C7 7176   3.245   2.946  13.496  0.1111 -0.4619  0.0342
  482TMC3    C8 7177   2.866   2.739  13.703 -0.2472  0.3305  0.1898
  482TMC3    O1 7178   3.176   2.978  13.405 -0.3665 -0.1035  0.4915
  482TMC3    O2 7179   2.827   2.701  13.813 -0.0717  0.4554  0.2659
  483TMC3    C1 7180   0.657   1.826   0.478 -0.2183  0.2875 -0.2042
  483TMC3    C2 7181   0.706   1.957   0.488  0.7074 -0.0008  0.0463
  483TMC3    C3 7182   0.720   2.014   0.610 -0.8603  0.0418  0.4464
  483TMC3    C4 7183   0.626   1.760   0.595  0.8638  0.5962 -0.8600
  483TMC3    C5 7184   0.625   1.820   0.717 -0.4645 -0.6646 -0.6394
  483TMC3    C6 7185   0.669   1.950   0.720  0.3402 -0.6311  0.0762
  483TMC3     C 7186   0.725   1.755   0.377  0.1200 -0.1286 -0.5476
  483TMC3     O 7187   0.726   1.796   0.263 -0.1085 -0.0531 -0.2727
  483TMC3     H 7188   0.741   2.007   0.398  1.9548 -0.5665  0.2084
  483TMC3    H1 7189   0.576   1.664   0.592  0.6580  0.6673  0.2910
  483TMC3    H2 7190   0.671   2.003   0.815  1.0671  0.7540 -0.7010
  483TMC3    C7 7191   0.718   1.741   0.796 -0.3412 -0.7952  0.3170
  483TMC3    C8 7192   0.853   2.069   0.621  0.4490  0.4516  0.9341
  483TMC3    O1 7193   0.803   1.677   0.734 -0.2694 -0.2960 -0.3087
  483TMC3    O2 7194   0.911   2.112   0.525 -0.3480 -0.5485 -0.3041
  484MPD2     C 7195   4.140   0.241  12.174  0.2448  1.0696  0.2882
  484MPD2    C1 7196   4.186   0.217  12.304  0.0658  0.1275 -0.6228
  484MPD2    C2 7197   4.317   0.234  12.338  0.3593  0.6939 -0.0274
  484MPD2    C3 7198   4.405   0.255  12.235 -0.1180 -0.6834  0.7705
  484MPD2    C4 7199   4.358   0.280  12.099 -0.4581  0.2035 -0.0750
  484MPD2    C5 7200   4.222   0.273  12.068  0.4907  0.1350 -0.3895
  484MPD2     H 7201   4.361   0.206  12.434 -2.2021  0.1515  0.9794
  484MPD2    H1 7202   4.428   0.308  12.021 -0.9868  2.2857  0.2088
  484MPD2    H2 7203   4.033   0.229  12.161  0.0734  0.0454  2.5597
  484MPD2    H3 7204   4.172   0.297  11.975  1.4217  1.5500 -0.5211
  484MPD2     N 7205   4.539   0.272  12.253  0.2707 -0.5476 -0.4447
  484MPD2    H5 7206   4.589   0.275  12.165  1.8986 -1.4197  0.4481
  484MPD2    N1 7207   4.088   0.197  12.405 -0.2425  0.5798  0.2211
  484MPD2    H7 7208   3.990   0.207  12.383 -0.2671  0.1376  0.1252
  485TMC3    C1 7209   0.021   0.273  12.363 -0.6098 -0.2532 -0.1414
  485TMC3    C2 7210   0.078   0.195  12.455 -0.6344 -0.0594 -0.5205
  485TMC3    C3 7211   0.209   0.151  12.441 -0.4652 -0.4111 -0.7969
  485TMC3    C4 7212   0.099   0.329  12.270  0.1136 -0.0997  0.1539
  485TMC3    C5 7213   0.228   0.295  12.256 -0.8835  0.0700 -0.3326
  485TMC3    C6 7214   0.286   0.203  12.340  0.0960 -0.7043  0.7886
  485TMC3     C 7215   4.600   0.275  12.380 -0.0741  0.1689  1.0700
  485TMC3     O 7216   4.562   0.278  12.497 -0.3597 -0.0563  0.7251
  485TMC3     H 7217   0.022   0.150  12.537  0.8441 -0.3126  0.3420
  485TMC3    H1 7218   0.045   0.393  12.201 -0.5966 -0.1589  0.6459
  485TMC3    H2 7219   0.391   0.179  12.337  0.7108  1.8843  1.7445
  485TMC3    C7 7220   0.254   0.259  12.114  0.0498  0.1284 -0.1828
  485TMC3    C8 7221   0.239   0.007  12.450  0.5540 -0.0305  0.6873
  485TMC3    O1 7222   0.226   0.342  12.028 -0.8634  0.2423 -0.6532
  485TMC3    O2 7223   0.313   4.695  12.357 -0.4124 -0.6537  0.4874
  486MPD2     C 7224   1.998   3.625  12.651  0.7741 -0.3088  0.1326
  486MPD2    C1 7225   1.860   3.595  12.643 -0.6607  0.4702 -0.1456
  486MPD2    C2 7226   1.782   3.709  12.660  0.0626  0.7977  0.2507
  486MPD2    C3 7227   1.831   3.838  12.678  0.2663 -0.3065 -0.7213
  486MPD2    C4 7228   1.967   3.856  12.678 -0.1396  0.1093 -0.1524
  486MPD2    C5 7229   2.045   3.747  12.671  0.1289  0.2153  0.2099
  486MPD2     H 7230   1.674   3.700  12.652  0.0681  1.4992 -0.6439
  486MPD2    H1 7231   2.016   3.953  12.681  0.0363  0.1278 -3.6404
  486MPD2    H2 7232   2.064   3.540  12.642 -0.1757 -1.2399  1.9064
  486MPD2    H3 7233   2.152   3.764  12.668  0.1866 -0.1760  0.0345
  486MPD2     N 7234   1.735   3.942  12.668 -0.1141 -0.0838  0.3267
  486MPD2    H5 7235   1.641   3.920  12.636 -1.5641  3.5075  2.1795
  486MPD2    N1 7236   1.822   3.462  12.636 -0.3944 -0.4006  0.2777
  486MPD2    H7 7237   1.896   3.393  12.626 -1.5840 -1.5194 -0.7458
  487TMC3    C1 7238   1.667   3.270  12.662 -0.3564  0.0449  0.0933
  487TMC3    C2 7239   1.550   3.214  12.618 -0.0832 -0.0136 -0.0168
  487TMC3    C3 7240   1.538   3.085  12.657  0.2924 -0.2281  0.3802
  487TMC3    C4 7241   1.733   3.214  12.770 -0.3319 -0.4808 -0.4226
  487TMC3    C5 7242   1.713   3.087  12.808 -0.0897 -0.2123  0.5903
  487TMC3    C6 7243   1.626   3.014  12.735  0.7302  0.4865  0.4799
  487TMC3     C 7244   1.691   3.410  12.624 -0.3259 -0.6370  0.8828
  487TMC3     O 7245   1.590   3.478  12.607 -0.2135  0.0823 -0.1721
  487TMC3     H 7246   1.481   3.269  12.555 -0.9005  0.7307  1.5312
  487TMC3    H1 7247   1.808   3.274  12.821 -1.5474 -0.1957  1.0307
  487TMC3    H2 7248   1.615   2.908  12.758  0.5025  0.7117  1.4419
  487TMC3    C7 7249   1.697   3.069  12.952  0.2068 -0.3179 -1.3292
  487TMC3    C8 7250   1.409   3.042  12.695  0.4620 -0.0409  0.3061
  487TMC3    O1 7251   1.739   3.166  13.019  0.1962 -0.1578 -0.1423
  487TMC3    O2 7252   1.398   2.935  12.754  0.1800 -0.2545 -0.5240
  488MPD2     C 7253   1.498   0.447  16.490  0.4481  0.6349 -0.5654
  488MPD2    C1 7254   1.480   0.582  16.479  0.1595 -0.5159  0.5818
  488MPD2    C2 7255   1.441   0.645  16.600 -0.0643 -0.1390  0.0310
  488MPD2    C3 7256   1.444   0.587  16.722  1.3361 -0.0064  0.2214
  488MPD2    C4 7257   1.481   0.453  16.733  0.5507 -0.6122 -0.2166
  488MPD2    C5 7258   1.503   0.382  16.615  0.0229 -0.0230  0.4535
  488MPD2     H 7259   1.405   0.747  16.591  0.9784  0.4030  1.9448
  488MPD2    H1 7260   1.481   0.397  16.826 -0.7110 -0.2369  0.0151
  488MPD2    H2 7261   1.509   0.384  16.402 -1.3243  0.2563 -0.5263
  488MPD2    H3 7262   1.522   0.276  16.615  0.0632  0.0138 -4.1524
  488MPD2     N 7263   1.418   0.661  16.840  0.5893  0.3405  0.0880
  488MPD2    H5 7264   1.381   0.756  16.832  1.2836  0.7118  1.1960
  488MPD2    N1 7265   1.489   0.655  16.357 -0.7183  0.2688 -0.6350
  488MPD2    H7 7266   1.450   0.748  16.359  0.0981  0.6094 -0.7293
  489TMC3    C1 7267   1.394   0.715  17.068  0.3585  0.7757 -0.0785
  489TMC3    C2 7268   1.320   0.821  17.033 -0.0666 -0.2327 -0.4629
  489TMC3    C3 7269   1.334   0.934  17.110 -0.6827 -0.5842  0.5723
  489TMC3    C4 7270   1.435   0.701  17.195 -0.3085 -0.2881 -0.4517
  489TMC3    C5 7271   1.450   0.814  17.275  0.5368 -0.7991 -0.0566
  489TMC3    C6 7272   1.408   0.935  17.231 -0.0410  0.3440  0.3448
  489TMC3     C 7273   1.430   0.616  16.973 -0.3473  0.7009 -0.7131
  489TMC3     O 7274   1.456   0.509  17.024  0.5361  0.8518 -0.3877
  489TMC3     H 7275   1.266   0.822  16.939  1.8494 -2.0870 -1.6112
  489TMC3    H1 7276   1.493   0.611  17.215 -0.0555 -0.3751 -1.5826
  489TMC3    H2 7277   1.420   1.021  17.295  0.0555  0.8938 -0.4197
  489TMC3    C7 7278   1.484   0.793  17.413 -0.2373 -0.6271  0.4347
  489TMC3    C8 7279   1.320   1.060  17.033 -0.1354 -0.3142 -0.2466
  489TMC3    O1 7280   1.467   0.681  17.462  0.2936  0.1720 -0.0102
  489TMC3    O2 7281   1.276   1.067  16.923  0.3000 -0.0020  0.5269
  490MPD2     C 7282   2.911   0.053  17.106 -0.7522 -0.0517  0.0063
  490MPD2    C1 7283   2.808   0.088  17.189  0.1629  0.4690 -0.9765
  490MPD2    C2 7284   2.773   0.218  17.196 -1.0549 -1.0224 -0.3802
  490MPD2    C3 7285   2.829   0.317  17.118  0.0548 -0.1910  0.0494
  490MPD2    C4 7286   2.940   0.286  17.049 -0.5075  0.2764 -0.9391
  490MPD2    C5 7287   2.974   0.157  17.037  0.2153 -0.0945  0.3668
  490MPD2     H 7288   2.688   0.236  17.261 -0.2101 -2.1934  1.0510
  490MPD2    H1 7289   2.993   0.368  17.002 -0.0360  1.4171  1.5950
  490MPD2    H2 7290   2.947   4.675  17.090 -0.5709  0.3487 -2.0896
  490MPD2    H3 7291   3.063   0.137  16.978  0.8395 -0.3960  1.4126
  490MPD2     N 7292   2.793   0.452  17.113  0.0487  0.1132  0.3579
  490MPD2    H5 7293   2.841   0.511  17.045 -3.8303  1.6443 -1.0642
  490MPD2    N1 7294   2.734   4.718  17.271 -0.0315 -0.6787  0.2543
  490MPD2    H7 7295   2.663   0.026  17.337 -1.1658 -1.4575 -0.6171
  491TMC3    C1 7296   2.632   4.513  17.328  0.5242  0.4669  0.5026
  491TMC3    C2 7297   2.593   4.553  17.448  0.0529 -0.0216 -0.2118
  491TMC3    C3 7298   2.485   4.494  17.503  0.5938  0.0197  0.0626
  491TMC3    C4 7299   2.557   4.426  17.258 -0.4264 -0.0005 -0.3261
  491TMC3    C5 7300   2.446   4.362  17.313  0.0638  0.0915  0.1987
  491TMC3    C6 7301   2.415   4.389  17.446  0.4097  0.3717 -0.6954
  491TMC3     C 7302   2.725   4.585  17.242 -0.0907  0.0090  0.3116
  491TMC3     O 7303   2.788   4.524  17.161 -0.1331  0.0723  0.5928
  491TMC3     H 7304   2.658   4.620  17.502  2.5725 -2.1627 -0.6252
  491TMC3    H1 7305   2.596   4.397  17.161  1.5695 -0.0786  0.4839
  491TMC3    H2 7306   2.323   4.348  17.484  1.2390 -1.6122 -0.8094
  491TMC3    C7 7307   2.358   4.290  17.221 -0.2106  0.5766 -0.0723
  491TMC3    C8 7308   2.453   4.523  17.641  0.3821 -0.6154 -0.3041
  491TMC3    O1 7309   2.252   4.253  17.269 -0.2686 -0.2647 -0.3523
  491TMC3    O2 7310   2.394   4.437   0.015  0.0263  0.0069  0.2006
  492MPD2     C 7311   3.010   0.288  11.031  0.1023 -0.4069  0.3441
  492MPD2    C1 7312   2.911   0.226  10.968  0.2262 -0.3827 -0.5892
  492MPD2    C2 7313   2.812   0.167  11.054 -0.0586  0.2779 -0.2898
  492MPD2    C3 7314   2.822   0.164  11.193 -0.0294  0.1351 -0.0809
  492MPD2    C4 7315   2.927   0.224  11.248  0.1346  0.3513 -0.2226
  492MPD2    C5 7316   3.022   0.288  11.171 -0.4720  0.1727 -0.3447
  492MPD2     H 7317   2.746   0.102  10.999 -0.4125  0.3793  0.0192
  492MPD2    H1 7318   2.938   0.230  11.356 -3.2193  2.5622 -0.0170
  492MPD2    H2 7319   3.092   0.332  10.975 -0.4685  1.8943  1.2959
  492MPD2    H3 7320   3.097   0.350  11.217  0.5926 -0.8236 -0.7399
  492MPD2     N 7321   2.731   0.088  11.275 -0.0287  0.1022  0.3545
  492MPD2    H5 7322   2.744   0.075  11.375 -2.2664  3.6133  1.0850
  492MPD2    N1 7323   2.907   0.225  10.826 -0.0258  0.2681  0.6390
  492MPD2    H7 7324   2.966   0.293  10.779 -1.9705  0.5809 -1.3488
  493TMC3    C1 7325   2.791   0.235  10.618 -0.1024 -0.0397 -0.1100
  493TMC3    C2 7326   2.834   0.361  10.586  0.0767  0.7215 -0.0741
  493TMC3    C3 7327   2.782   0.419  10.476 -0.1956 -0.0602  0.2323
  493TMC3    C4 7328   2.699   0.167  10.545  0.1601 -0.0548 -0.7087
  493TMC3    C5 7329   2.657   0.218  10.426 -0.0116 -0.1252  0.7837
  493TMC3    C6 7330   2.699   0.347  10.394 -0.1646 -0.4161 -0.0308
  493TMC3     C 7331   2.806   0.174  10.751 -0.7601 -0.6446 -0.6140
  493TMC3     O 7332   2.738   0.072  10.776  0.1117 -0.6873 -0.1986
  493TMC3     H 7333   2.884   0.429  10.654 -0.2330  0.7354  0.1382
  493TMC3    H1 7334   2.671   0.066  10.573 -0.6817  0.3293 -0.1756
  493TMC3    H2 7335   2.672   0.396  10.301 -0.8373 -1.1978 -0.2476
  493TMC3    C7 7336   2.542   0.165  10.360 -0.5896 -0.2700  0.0552
  493TMC3    C8 7337   2.848   0.536  10.415 -0.1145  0.0509 -0.1289
  493TMC3    O1 7338   2.472   0.236  10.285  0.1690 -0.6093 -0.0435
  493TMC3    O2 7339   2.785   0.600  10.326 -0.2792 -0.0567 -0.4777
  494TMC3    C1 7340   3.362   2.349   0.639  0.6012 -0.1648 -0.2678
  494TMC3    C2 7341   3.460   2.250   0.652 -0.5453 -0.2315  0.1667
  494TMC3    C3 7342   3.565   2.255   0.562  0.3860  0.4764  0.8249
  494TMC3    C4 7343   3.377   2.451   0.543 -0.3896  0.8540  0.4563
  494TMC3    C5 7344   3.482   2.452   0.455 -0.5602  0.5081 -0.4216
  494TMC3    C6 7345   3.579   2.348   0.463 -0.2661 -0.0977  0.2524
  494TMC3     C 7346   3.228   2.328   0.691  0.3549  1.2178 -0.3013
  494TMC3     O 7347   3.134   2.359   0.619  0.2681 -0.2165 -0.7320
  494TMC3     H 7348   3.449   2.175   0.729  2.7664 -1.1340 -0.2539
  494TMC3    H1 7349   3.292   2.516   0.524 -1.4736 -0.5817  0.3629
  494TMC3    H2 7350   3.658   2.333   0.392 -0.5098 -0.2953  0.0233
  494TMC3    C7 7351   3.442   2.464   0.322  0.0141  0.2003 -0.2118
  494TMC3    C8 7352   3.584   2.124   0.513 -0.4355  0.5507 -0.5322
  494TMC3    O1 7353   3.466   2.366   0.255 -0.1679 -0.7569  0.3254
  494TMC3    O2 7354   3.603   2.044   0.603  0.0194  0.3749 -0.0116
  495TMC3    C1 7355   1.943   3.778  14.373 -0.1223 -0.1111  0.2857
  495TMC3    C2 7356   1.848   3.840  14.296  0.1726  0.0085 -0.1023
  495TMC3    C3 7357   1.813   3.969  14.327  0.3716  0.0581  0.0770
  495TMC3    C4 7358   2.011   3.850  14.470 -0.3810 -0.0428  0.2366
  495TMC3    C5 7359   1.963   3.973  14.504  0.6527  0.8107  0.0881
  495TMC3    C6 7360   1.855   4.036  14.442  0.4674 -0.1496  0.5626
  495TMC3     C 7361   1.925   3.635  14.378  0.1438 -0.0060 -0.3538
  495TMC3     O 7362   1.804   3.603  14.377  0.3469 -0.0314  0.2758
  495TMC3     H 7363   1.797   3.775  14.225 -1.4437  1.7321 -0.5295
  495TMC3    H1 7364   2.068   3.796  14.545  0.0882  0.1541  0.0228
  495TMC3    H2 7365   1.815   4.134  14.464  0.8031 -0.4957  2.6572
  495TMC3    C7 7366   1.982   4.006  14.639  0.0295  0.0973  0.5230
  495TMC3    C8 7367   1.690   4.008  14.267 -0.5287  0.5327 -0.0922
  495TMC3    O1 7368   1.879   4.001  14.705  0.4396 -0.2014  0.3653
  495TMC3    O2 7369   1.604   4.056  14.345 -0.0431 -0.1314 -0.0533
  496MPD2     C 7370   3.624   3.787  15.242  0.3638  0.6689  0.1929
  496MPD2    C1 7371   3.680   3.673  15.192 -0.8742 -0.1362  0.0445
  496MPD2    C2 7372   3.613   3.551  15.218  0.2177 -0.6295  0.1678
  496MPD2    C3 7373   3.496   3.546  15.285 -0.1753  0.0577 -0.1045
  496MPD2    C4 7374   3.437   3.665  15.325 -0.3726 -0.2691  0.4886
  496MPD2    C5 7375   3.504   3.783  15.307  0.0786  0.2493  0.0796
  496MPD2     H 7376   3.656   3.458  15.185 -0.2285 -1.2633  1.3725
  496MPD2    H1 7377   3.350   3.663  15.390 -0.3013  2.0429  0.6785
  496MPD2    H2 7378   3.671   3.885  15.242  1.1649  0.2907 -0.4661
  496MPD2    H3 7379   3.460   3.878  15.335  1.2113  0.6348  0.5431
  496MPD2     N 7380   3.426   3.431  15.319 -0.1607  0.5701 -0.0769
  496MPD2    H5 7381   3.340   3.443  15.372 -1.2085  0.2148 -1.7076
  496MPD2    N1 7382   3.815   3.679  15.144  0.1262  0.3309 -0.5920
  496MPD2    H7 7383   3.860   3.768  15.164  1.2978  0.0642 -2.0862
  497TMC3    C1 7384   3.407   3.207  15.370  0.8016  0.2432 -0.0781
  497TMC3    C2 7385   3.397   3.088  15.315  0.6432 -0.2254 -0.0603
  497TMC3    C3 7386   3.382   2.977  15.399  0.0721  0.4159 -1.3928
  497TMC3    C4 7387   3.426   3.228  15.506 -0.0170  0.4278  0.7231
  497TMC3    C5 7388   3.410   3.118  15.587 -0.5453  0.6115 -0.5620
  497TMC3    C6 7389   3.401   2.987  15.537  0.1426 -0.0583  0.2440
  497TMC3     C 7390   3.465   3.304  15.275 -0.2429  0.2440  0.3317
  497TMC3     O 7391   3.528   3.261  15.179  0.6806 -0.6151 -0.9064
  497TMC3     H 7392   3.368   3.079  15.212 -0.3577  0.3870  0.1688
  497TMC3    H1 7393   3.436   3.328  15.546 -2.7115  1.6273 -1.6185
  497TMC3    H2 7394   3.388   2.904  15.605 -2.6599 -0.1346 -0.3832
  497TMC3    C7 7395   3.420   3.147  15.729 -0.0959  0.0627 -0.0617
  497TMC3    C8 7396   3.309   2.867  15.346  0.6757  0.4239 -0.9361
  497TMC3    O1 7397   3.350   3.090  15.807  0.1169  0.5624  0.1871
  497TMC3    O2 7398   3.265   2.885  15.231  0.8702  0.8861 -0.0771
  498MPD2     C 7399   0.904   0.259   9.912 -0.4545 -0.3826  0.3628
  498MPD2    C1 7400   0.776   0.297   9.925 -0.6103  0.0223  0.5209
  498MPD2    C2 7401   0.672   0.221   9.875  0.0228  0.0403 -1.2029
  498MPD2    C3 7402   0.700   0.092   9.841 -0.2642  0.4961  0.0679
  498MPD2    C4 7403   0.831   0.049   9.832 -0.1138 -0.1623 -0.0145
  498MPD2    C5 7404   0.932   0.140   9.864 -0.0524  0.0654  0.3148
  498MPD2     H 7405   0.566   0.243   9.881  0.4590  2.1633 -1.2744
  498MPD2    H1 7406   0.862   4.681   9.781  0.4679 -1.0912  1.9586
  498MPD2    H2 7407   0.985   0.325   9.940  0.2414 -1.6343  1.3000
  498MPD2    H3 7408   1.033   0.110   9.840  0.0100  1.9599 -1.7130
  498MPD2     N 7409   0.593   0.010   9.805 -0.5238 -0.4174 -0.2215
  498MPD2    H5 7410   0.499   0.042   9.826  0.0204  1.6622 -0.9499
  498MPD2    N1 7411   0.749   0.426   9.965  0.3172 -0.3013 -0.3303
  498MPD2    H7 7412   0.654   0.458   9.947  0.7379  0.6306 -0.8760
  499TMC3    C1 7413   0.792   0.651  10.006  0.1310  0.2163  0.1841
  499TMC3    C2 7414   0.851   0.742  10.084 -0.1219  0.4585  0.4969
  499TMC3    C3 7415   0.797   0.871  10.079 -0.1592 -0.0582 -0.6447
  499TMC3    C4 7416   0.699   0.682   9.912 -0.2542  0.1991 -0.3719
  499TMC3    C5 7417   0.650   0.806   9.914 -0.0100 -0.1282 -0.5757
  499TMC3    C6 7418   0.696   0.903   9.998 -0.0342 -0.1561  0.1253
  499TMC3     C 7419   0.835   0.519  10.022 -0.6946  0.0217  0.2130
  499TMC3     O 7420   0.936   0.494  10.088  0.0199  0.4681 -0.3845
  499TMC3     H 7421   0.921   0.703  10.157  1.1073 -0.1504 -1.0087
  499TMC3    H1 7422   0.661   0.624   9.828  0.2008 -1.5616  0.6302
  499TMC3    H2 7423   0.635   0.993  10.001  0.5973  0.3055 -0.9276
  499TMC3    C7 7424   0.571   0.853   9.803  0.3629 -0.1476  0.1897
  499TMC3    C8 7425   0.829   0.976  10.170  0.3909  0.1475 -0.5562
  499TMC3    O1 7426   0.589   0.972   9.779 -0.2091  0.1022 -0.1973
  499TMC3    O2 7427   0.776   1.086  10.162  0.0513  0.4374  0.1940
  500MPD2     C 7428   1.930   1.390  10.620 -0.1588  0.0348  0.6631
  500MPD2    C1 7429   1.956   1.423  10.491  0.4180 -0.1997 -0.2687
  500MPD2    C2 7430   1.845   1.461  10.414  0.3625  0.2665  0.1355
  500MPD2    C3 7431   1.719   1.444  10.463  0.7606  0.3827 -0.1747
  500MPD2    C4 7432   1.694   1.408  10.592 -1.1024  0.5414 -0.4182
  500MPD2    C5 7433   1.809   1.372  10.668  0.3220  0.4729  0.2732
  500MPD2     H 7434   1.868   1.481  10.310 -2.3451 -0.5854 -0.6252
  500MPD2    H1 7435   1.597   1.396  10.639 -1.2043 -0.9610 -0.9872
  500MPD2    H2 7436   2.009   1.365  10.690  2.1029  0.5946 -1.6942
  500MPD2    H3 7437   1.786   1.319  10.759  0.5085 -0.2771 -0.1146
  500MPD2     N 7438   1.600   1.464  10.380 -0.3915  0.8047  0.0700
  500MPD2    H5 7439   1.520   1.424  10.427  1.4406 -2.1928  0.6039
  500MPD2    N1 7440   2.082   1.445  10.443 -0.4614 -0.9435 -0.1115
  500MPD2    H7 7441   2.086   1.469  10.344 -0.9141 -0.4398 -0.0092
  501TMC3    C1 7442   2.309   1.480  10.425  0.1682  0.0447 -0.0582
  501TMC3    C2 7443   2.305   1.607  10.368  0.7177  0.8272 -0.1557
  501TMC3    C3 7444   2.422   1.664  10.318  0.1847 -0.7821 -0.0616
  501TMC3    C4 7445   2.422   1.427  10.469 -0.8772  0.7976  0.6340
  501TMC3    C5 7446   2.535   1.490  10.432 -1.0294 -0.0561 -0.1707
  501TMC3    C6 7447   2.539   1.603  10.354 -0.4140  0.5495 -0.5224
  501TMC3     C 7448   2.203   1.435  10.507  0.0597  0.1364  0.2169
  501TMC3     O 7449   2.232   1.391  10.615  0.0219 -0.1186  1.1281
  501TMC3     H 7450   2.209   1.647  10.338  0.2473  0.1958  0.5226
  501TMC3    H1 7451   2.418   1.333  10.523  0.5891  0.2575 -0.1856
  501TMC3    H2 7452   2.631   1.653  10.327 -1.0118  1.6570 -0.5356
  501TMC3    C7 7453   2.651   1.447  10.504  0.5474 -0.1700 -0.5615
  501TMC3    C8 7454   2.434   1.806  10.319 -0.6789  0.6692 -0.0548
  501TMC3    O1 7455   2.649   1.328  10.542 -0.3393  0.2180  0.2018
  501TMC3    O2 7456   2.540   1.859  10.343  0.4226  0.3622 -0.1496
  502TMC3    C1 7457   1.339   4.250  15.008  0.4825 -0.1620  0.5450
  502TMC3    C2 7458   1.330   4.348  14.914  0.2983  0.6198  0.5998
  502TMC3    C3 7459   1.210   4.402  14.903  0.1531  0.3732  0.6145
  502TMC3    C4 7460   1.230   4.193  15.070 -0.7514  0.0086  0.7998
  502TMC3    C5 7461   1.113   4.254  15.059  0.4038  0.7975 -0.0128
  502TMC3    C6 7462   1.097   4.361  14.977 -0.3184  0.3977  0.2726
  502TMC3     C 7463   1.459   4.255  15.099 -0.2084  0.5914  0.7000
  502TMC3     O 7464   1.575   4.277  15.059 -0.2364 -0.1171 -0.1219
  502TMC3     H 7465   1.418   4.388  14.867  0.2901  0.3409  0.3426
  502TMC3    H1 7466   1.245   4.116  15.145 -0.9177 -0.3751  0.4453
  502TMC3    H2 7467   0.997   4.392  14.951 -0.3181 -0.6840 -1.0107
  502TMC3    C7 7468   1.006   4.208  15.155  0.2717 -0.0429 -0.2858
  502TMC3    C8 7469   1.216   4.544  14.884 -0.2737 -0.2441 -0.0690
  502TMC3    O1 7470   1.042   4.122  15.237 -0.3935 -0.3115 -0.0828
  502TMC3    O2 7471   1.304   4.583  14.808  0.1442  0.8664  0.0251
  503MPD2     C 7472   3.380   0.896  16.931 -1.6054  0.2229  0.3393
  503MPD2    C1 7473   3.343   0.882  17.066 -0.0838  1.1268  0.4495
  503MPD2    C2 7474   3.413   0.789  17.140 -0.2116 -0.7216  0.3412
  503MPD2    C3 7475   3.513   0.711  17.087 -0.1120 -0.7251  0.1186
  503MPD2    C4 7476   3.554   0.741  16.961  0.5716 -0.2893 -1.0160
  503MPD2    C5 7477   3.483   0.822  16.877 -0.3198  0.4937 -0.2026
  503MPD2     H 7478   3.379   0.770  17.241 -2.4580 -1.0065 -0.4705
  503MPD2    H1 7479   3.623   0.678  16.906  0.3008 -2.4399  1.1424
  503MPD2    H2 7480   3.331   0.967  16.865 -2.0383  0.4865  0.9453
  503MPD2    H3 7481   3.523   0.831  16.776  1.3065 -1.4125  0.2794
  503MPD2     N 7482   3.569   0.611  17.171 -0.0180  1.3778 -0.3407
  503MPD2    H5 7483   3.528   0.606  17.263 -1.0510  0.6223 -0.8448
  503MPD2    N1 7484   3.257   0.974  17.128 -0.3781 -0.5396  0.2225
  503MPD2    H7 7485   3.248   0.978  17.229  1.6221 -1.7992  0.4595
  504TMC3    C1 7486   3.710   0.441  17.220 -0.2299 -0.6257  0.2050
  504TMC3    C2 7487   3.613   0.375  17.278 -0.3815  0.3415 -0.2578
  504TMC3    C3 7488   3.647   0.261  17.356 -0.1994 -0.8630 -0.0042
  504TMC3    C4 7489   3.836   0.403  17.220  0.4133  0.8545  0.1853
  504TMC3    C5 7490   3.866   0.287  17.289  0.2697 -0.3057 -0.5115
  504TMC3    C6 7491   3.774   0.214  17.354  0.2161 -0.1398 -0.6396
  504TMC3     C 7492   3.680   0.548  17.128 -0.0844  0.1398 -0.1357
  504TMC3     O 7493   3.768   0.566  17.043  0.4441 -0.4021  0.0842
  504TMC3     H 7494   3.510   0.408  17.271 -0.4079  0.3309  0.0625
  504TMC3    H1 7495   3.922   0.453  17.177  1.5996 -0.2400  1.2959
  504TMC3    H2 7496   3.796   0.121  17.405 -1.2987 -0.4155 -0.4971
  504TMC3    C7 7497   3.993   0.232  17.243 -0.6044  0.0577 -0.0447
  504TMC3    C8 7498   3.551   0.220  17.454 -0.6251  0.3710  0.0625
  504TMC3    O1 7499   4.053   0.280  17.149  0.2934 -0.5669  0.1236
  504TMC3    O2 7500   3.439   0.259  17.432  0.1552  0.2469  0.2923
  505MPD2     C 7501   4.014   4.527   9.649  0.1163 -0.2529  0.2116
  505MPD2    C1 7502   4.027   4.409   9.716  0.5940  0.0861 -0.1599
  505MPD2    C2 7503   4.037   4.413   9.854  0.2963  0.3823  0.8294
  505MPD2    C3 7504   4.037   4.530   9.930  0.1318  0.0444  0.5875
  505MPD2    C4 7505   4.038   4.650   9.853  0.1514  0.4527 -0.0467
  505MPD2    C5 7506   4.020   4.647   9.719 -0.4318 -0.2641 -0.0750
  505MPD2     H 7507   4.034   4.322   9.913  1.9618  0.1723  0.5855
  505MPD2    H1 7508   4.044   0.021   9.907 -0.8300  0.9732 -0.8246
  505MPD2    H2 7509   3.992   4.517   9.543  4.4189 -0.2245 -0.6773
  505MPD2    H3 7510   4.001   0.018   9.668 -1.1784 -1.0846 -1.3087
  505MPD2     N 7511   4.067   4.545  10.067 -0.5718 -0.3651  0.0104
  505MPD2    H5 7512   4.085   4.639  10.100  0.9294  0.0083 -1.8370
  505MPD2    N1 7513   4.012   4.293   9.638  0.2185  0.2771  0.2097
  505MPD2    H7 7514   3.989   4.300   9.539  0.3179 -0.2428  0.1532
  506TMC3    C1 7515   4.026   4.067   9.594  0.5670 -0.0830  0.1346
  506TMC3    C2 7516   4.124   4.089   9.501 -0.5271 -0.1860 -1.0201
  506TMC3    C3 7517   4.222   4.001   9.483 -0.2193 -0.3729 -0.1749
  506TMC3    C4 7518   4.040   3.957   9.672 -0.2651 -0.1832 -0.2644
  506TMC3    C5 7519   4.141   3.874   9.665 -0.0732  0.2835 -0.0938
  506TMC3    C6 7520   4.238   3.897   9.571 -0.1042  0.6159  0.2742
  506TMC3     C 7521   4.010   4.167   9.690  0.0462 -0.5306 -0.1091
  506TMC3     O 7522   4.019   4.131   9.808  0.1820 -0.1046  0.3537
  506TMC3     H 7523   4.122   4.177   9.437 -0.6607  1.4177  1.2220
  506TMC3    H1 7524   3.961   3.922   9.738  0.9155  0.5437  1.5382
  506TMC3    H2 7525   4.319   3.825   9.572 -0.1889  0.5183 -0.0755
  506TMC3    C7 7526   4.179   3.820   9.793 -0.7001 -0.0752  0.9645
  506TMC3    C8 7527   4.336   4.027   9.397  0.0608 -0.0695 -1.0109
  506TMC3    O1 7528   4.272   3.742   9.800 -0.0328 -0.3616  0.6193
  506TMC3    O2 7529   4.316   4.044   9.277  0.1806  0.3326 -0.4434
  507TMC3    C1 7530   0.119   4.682  14.484  0.4985 -0.6291  0.0551
  507TMC3    C2 7531   0.081   4.579  14.406 -0.7166  0.2807 -0.0062
  507TMC3    C3 7532   0.056   4.600  14.271 -0.2941  0.8746 -0.0977
  507TMC3    C4 7533   0.148   0.079  14.422 -0.3044 -0.4497  0.4892
  507TMC3    C5 7534   0.149   0.092  14.289 -0.8495  0.9312  0.1445
  507TMC3    C6 7535   0.101   4.713  14.208 -0.2161 -0.4482  0.3611
  507TMC3     C 7536   0.028   4.709  14.588  0.0055 -0.2890  0.8459
  507TMC3     O 7537   0.042   0.087  14.661 -1.0023  0.0628 -0.4431
  507TMC3     H 7538   0.053   4.485  14.453 -2.1667  0.9567  0.4794
  507TMC3    H1 7539   0.166   0.166  14.484  1.3834 -1.1505  1.0045
  507TMC3    H2 7540   0.092   4.715  14.100  3.0252 -0.4138  0.0945
  507TMC3    C7 7541   0.108   0.217  14.238 -0.6866  0.3099 -0.4056
  507TMC3    C8 7542   4.636   4.582  14.243 -0.1457  0.4809  0.5366
  507TMC3    O1 7543   0.032   0.208  14.139 -0.2815  0.1539 -0.1063
  507TMC3    O2 7544   4.574   4.499  14.306 -0.9404  0.4785  0.0763
  508MPD2     C 7545   0.884   2.513  16.083  0.3602  0.2313  0.2963
  508MPD2    C1 7546   0.894   2.644  16.140 -0.4567 -0.3555  0.0040
  508MPD2    C2 7547   0.860   2.753  16.062  0.7272  0.1871  1.2811
  508MPD2    C3 7548   0.828   2.736  15.930  0.4256 -0.2270 -0.2201
  508MPD2    C4 7549   0.834   2.610  15.877  0.2249 -0.0444  0.6689
  508MPD2    C5 7550   0.862   2.499  15.950  0.0326  0.3594 -0.1408
  508MPD2     H 7551   0.864   2.858  16.091 -0.4445  1.0825 -1.7906
  508MPD2    H1 7552   0.806   2.605  15.772 -1.3252  0.8484  1.0484
  508MPD2    H2 7553   0.892   2.423  16.141  1.4088 -0.3488 -0.7439
  508MPD2    H3 7554   0.850   2.400  15.906 -0.0525 -0.1740  1.0983
  508MPD2     N 7555   0.807   2.852  15.848 -0.0753  0.4337 -0.1200
  508MPD2    H5 7556   0.791   2.936  15.902 -0.3130  0.4090 -0.1493
  508MPD2    N1 7557   0.930   2.679  16.267  0.3657 -0.3844  0.2653
  508MPD2    H7 7558   0.934   2.776  16.295 -0.5483  0.0646 -1.1423
  509TMC3    C1 7559   0.753   3.218  15.731  0.0754 -0.0327  0.3153
  509TMC3    C2 7560   0.853   3.257  15.650  0.3457 -0.0580 -0.5760
  509TMC3    C3 7561   0.910   3.169  15.560 -0.5835 -0.3778 -0.2129
  509TMC3    C4 7562   0.735   3.083  15.748 -0.6777 -0.3599  0.7539
  509TMC3    C5 7563   0.791   2.994  15.655  0.1068  0.1916 -0.1461
  509TMC3    C6 7564   0.875   3.040  15.558  0.4477  0.4412 -0.3658
  509TMC3     C 7565   0.633   3.296  15.720  0.2095 -0.2427 -0.1545
  509TMC3     O 7566   0.565   3.308  15.819 -0.0250 -0.4867 -0.3210
  509TMC3     H 7567   0.858   3.363  15.628 -1.0205  0.0510 -0.3473
  509TMC3    H1 7568   0.672   3.052  15.830  0.0465 -0.1852  1.3653
  509TMC3    H2 7569   0.920   2.976  15.482  0.1293 -0.3935  0.1423
  509TMC3    C7 7570   0.827   2.859  15.711 -0.6203 -0.3542  0.2496
  509TMC3    C8 7571   0.982   3.213  15.447 -0.7632 -0.2647  0.1633
  509TMC3    O1 7572   0.883   2.780  15.640  0.9034 -0.1010 -0.3897
  509TMC3    O2 7573   1.003   3.132  15.358  0.5450 -0.4000 -0.7332
  510MPD2     C 7574   3.144   4.055  14.254 -0.6326 -0.0800  0.3502
  510MPD2    C1 7575   3.219   4.004  14.361 -0.2280  0.1008 -0.0042
  510MPD2    C2 7576   3.353   4.009  14.357  0.7711  0.5265 -0.8371
  510MPD2    C3 7577   3.424   4.058  14.257 -0.1345 -0.5288 -0.6581
  510MPD2    C4 7578   3.355   4.089  14.141 -0.0405  0.1690  0.1696
  510MPD2    C5 7579   3.215   4.095  14.145 -0.2318  0.3108  0.0261
  510MPD2     H 7580   3.401   3.965  14.444 -0.6535 -0.8271 -0.7252
  510MPD2    H1 7581   3.409   4.128  14.056  1.6348 -2.3054  0.0855
  510MPD2    H2 7582   3.037   4.043  14.249 -0.6008  0.0283 -0.8025
  510MPD2    H3 7583   3.159   4.126  14.057 -2.6912 -1.6349  0.9017
  510MPD2     N 7584   3.568   4.046  14.259  0.5001 -0.0826  0.2355
  510MPD2    H5 7585   3.608   4.040  14.352  0.0016 -0.8634  0.3955
  510MPD2    N1 7586   3.148   3.959  14.468  0.1706  0.7875 -0.8155
  510MPD2    H7 7587   3.055   3.921  14.451  0.5747  0.4417 -2.2755
  511TMC3    C1 7588   3.116   3.869  14.679  0.3838 -0.3537  0.1546
  511TMC3    C2 7589   3.091   3.889  14.814 -0.4589  0.0015  0.1307
  511TMC3    C3 7590   2.996   3.811  14.876  0.1829 -0.6496  0.0975
  511TMC3    C4 7591   3.060   3.765  14.615 -0.2069  0.0708 -0.2132
  511TMC3    C5 7592   2.969   3.686  14.677 -0.4585 -0.0759 -0.2910
  511TMC3    C6 7593   2.932   3.712  14.811 -0.1541  0.4903 -0.1210
  511TMC3     C 7594   3.188   3.962  14.602 -0.1620  0.2687  0.4188
  511TMC3     O 7595   3.290   4.013  14.645 -0.5438 -0.1993  0.3936
  511TMC3     H 7596   3.146   3.964  14.870 -1.3690  0.5218  0.3114
  511TMC3    H1 7597   3.100   3.725  14.522 -1.4929 -0.3369 -0.6016
  511TMC3    H2 7598   2.845   3.669  14.859  0.8438 -0.9234  0.4251
  511TMC3    C7 7599   2.908   3.570  14.609  0.5890  0.2240 -0.0469
  511TMC3    C8 7600   2.966   3.842  15.017 -0.6742  0.2951 -0.4375
  511TMC3    O1 7601   2.956   3.549  14.499  0.2200 -0.1581 -0.1301
  511TMC3    O2 7602   2.988   3.953  15.063  0.0438  0.1088  0.2078
  512TMC3    C1 7603   1.696   3.484  13.234  0.1258 -0.0912  0.0175
  512TMC3    C2 7604   1.723   3.415  13.350 -0.4306 -0.3758  0.9355
  512TMC3    C3 7605   1.842   3.349  13.358 -0.2468 -0.1678  0.0216
  512TMC3    C4 7606   1.778   3.471  13.120 -0.7820 -0.3950  0.0127
  512TMC3    C5 7607   1.895   3.402  13.135 -0.0969 -0.4882 -0.1083
  512TMC3    C6 7608   1.929   3.333  13.253  0.0301 -0.1621 -0.0119
  512TMC3     C 7609   1.567   3.556  13.220  0.0969 -0.1420 -0.4250
  512TMC3     O 7610   1.483   3.541  13.307 -0.0571 -0.0049 -0.2963
  512TMC3     H 7611   1.660   3.417  13.438 -0.5953  1.1519  0.7717
  512TMC3    H1 7612   1.757   3.519  13.025 -0.0917 -0.5972 -0.2399
  512TMC3    H2 7613   2.017   3.271  13.257 -1.0245 -1.6295  0.3846
  512TMC3    C7 7614   1.991   3.418  13.025 -0.3047 -0.2889  0.3205
  512TMC3    C8 7615   1.905   3.337  13.491  0.3048  0.0164 -0.2243
  512TMC3    O1 7616   2.009   3.525  12.973 -0.1330 -0.6556 -0.4000
  512TMC3    O2 7617   1.832   3.308  13.583 -0.3478  0.1734 -0.2444
  513MPD2     C 7618   4.127   2.982  12.644 -0.3263 -0.8201  0.4949
  513MPD2    C1 7619   4.232   2.895  12.667  0.6635  0.1135 -0.1587
  513MPD2    C2 7620   4.335   2.932  12.758  0.4980  0.0433 -0.0802
  513MPD2    C3 7621   4.327   3.050  12.825 -0.6217  0.2999  0.3928
  513MPD2    C4 7622   4.222   3.140  12.808  0.1997 -0.7110  0.4079
  513MPD2    C5 7623   4.123   3.099  12.718 -0.3209 -0.0227  0.3322
  513MPD2     H 7624   4.412   2.856  12.769 -0.7113 -1.1808 -0.0916
  513MPD2    H1 7625   4.200   3.226  12.870 -1.7743 -1.6673  1.0476
  513MPD2    H2 7626   4.054   2.951  12.570  1.0272 -0.4526 -0.9939
  513MPD2    H3 7627   4.036   3.164  12.717  0.1928  0.6524 -0.4007
  513MPD2     N 7628   4.443   3.084  12.898 -0.2366 -0.3531  0.5500
  513MPD2    H5 7629   4.519   3.017  12.896  0.7812  0.8673 -1.1552
  513MPD2    N1 7630   4.249   2.765  12.612  0.1734  0.0825 -0.5134
  513MPD2    H7 7631   4.327   2.715  12.653  1.6082  4.0895  1.7122
  514TMC3    C1 7632   4.238   2.585  12.487 -0.7765 -0.4485  0.1756
  514TMC3    C2 7633   4.301   2.561  12.372 -0.1288 -0.3402  0.0202
  514TMC3    C3 7634   4.423   2.497  12.374 -0.0764 -0.1406  0.3998
  514TMC3    C4 7635   4.283   2.532  12.605 -0.0445  0.0401 -0.2892
  514TMC3    C5 7636   4.402   2.455  12.603 -0.4614 -0.3591  0.0410
  514TMC3    C6 7637   4.475   2.443  12.487  0.1195  0.2188  0.7299
  514TMC3     C 7638   4.188   2.715  12.503 -0.3833 -0.7205  0.5597
  514TMC3     O 7639   4.108   2.764  12.429 -0.5030 -0.4133  0.1306
  514TMC3     H 7640   4.249   2.595  12.283  2.1537 -1.4269 -1.7382
  514TMC3    H1 7641   4.228   2.548  12.696 -0.6587 -3.1881 -0.0754
  514TMC3    H2 7642   4.571   2.393  12.483 -1.1584 -2.1571 -0.2291
  514TMC3    C7 7643   4.479   2.495  12.711 -0.2134  0.3680  0.1273
  514TMC3    C8 7644   4.495   2.489  12.245 -0.3463  0.1490  0.1598
  514TMC3    O1 7645   4.425   2.576  12.788  0.0124  0.2628  0.6711
  514TMC3    O2 7646   4.611   2.443  12.252  0.2627  0.2596 -0.2123
  515MPD2     C 7647   1.654   0.328  14.957 -0.2291  0.1866  0.1237
  515MPD2    C1 7648   1.726   0.386  14.852 -0.4700  0.7520 -0.3479
  515MPD2    C2 7649   1.827   0.483  14.876 -0.5423 -0.5771 -0.5794
  515MPD2    C3 7650   1.850   0.520  15.009 -0.0433 -0.7598  0.2003
  515MPD2    C4 7651   1.771   0.466  15.107  0.4505  0.2794  0.1136
  515MPD2    C5 7652   1.672   0.376  15.080  0.0429 -0.1294  0.2223
  515MPD2     H 7653   1.889   0.518  14.795 -0.1304 -3.1386 -1.3638
  515MPD2    H1 7654   1.781   0.513  15.204 -0.0091  1.2507 -0.3101
  515MPD2    H2 7655   1.583   0.248  14.943 -0.7221  0.3286  1.8830
  515MPD2    H3 7656   1.617   0.331  15.162 -1.1142 -0.6050 -0.8023
  515MPD2     N 7657   1.966   0.581  15.053  0.9024  0.5719  0.0562
  515MPD2    H5 7658   1.977   0.605  15.151  2.5383 -2.0700  0.5042
  515MPD2    N1 7659   1.704   0.356  14.718 -0.4818 -0.4904 -0.1692
  515MPD2    H7 7660   1.767   0.398  14.652 -0.6910 -0.8740 -0.6160
  516TMC3    C1 7661   1.654   0.217  14.545  0.1334 -0.7304  0.8655
  516TMC3    C2 7662   1.695   0.298  14.441  0.1383 -0.0885 -0.4450
  516TMC3    C3 7663   1.738   0.232  14.333 -0.1229  0.5934 -0.0338
  516TMC3    C4 7664   1.649   0.085  14.538 -0.2309 -0.1842  0.0914
  516TMC3    C5 7665   1.703   0.028  14.429  0.3167 -0.7400  0.0798
  516TMC3    C6 7666   1.736   0.098  14.320 -0.4219  0.0615  0.0840
  516TMC3     C 7667   1.612   0.269  14.673  0.7706 -0.5558 -0.2709
  516TMC3     O 7668   1.529   0.200  14.732 -0.3324 -0.0913  0.0568
  516TMC3     H 7669   1.683   0.406  14.442 -3.7677 -0.5331  0.9815
  516TMC3    H1 7670   1.634   0.027  14.629 -0.3414 -0.3819 -0.0520
  516TMC3    H2 7671   1.775   0.053  14.229 -0.2437 -1.5743  0.9702
  516TMC3    C7 7672   1.748   4.617  14.451  0.3732  0.6533 -0.2586
  516TMC3    C8 7673   1.719   0.292  14.207 -0.6006  0.3954 -0.8984
  516TMC3    O1 7674   1.746   4.577  14.568 -0.4997  0.2950  0.5437
  516TMC3    O2 7675   1.652   0.229  14.126 -0.5020  1.0246 -0.0859
  517MPD2     C 7676   1.346   1.684  17.655  0.1098  0.5473  0.1332
  517MPD2    C1 7677   1.486   1.701  17.651  0.5917  0.4602 -0.2839
  517MPD2    C2 7678   1.553   1.773   0.056  0.3897 -0.3178  0.1967
  517MPD2    C3 7679   1.478   1.836   0.156  0.3231 -0.4045 -0.7570
  517MPD2    C4 7680   1.345   1.830   0.153  0.0274  0.3132 -0.0276
  517MPD2    C5 7681   1.281   1.757   0.053 -0.0737  0.3490 -0.2483
  517MPD2     H 7682   1.661   1.773   0.056  0.3960  1.5622 -0.5088
  517MPD2    H1 7683   1.290   1.879   0.233 -0.0863  0.0826  0.0344
  517MPD2    H2 7684   1.285   1.629  17.584  1.3552 -0.8178  0.1299
  517MPD2    H3 7685   1.173   1.748   0.049 -0.0758  0.1835  0.1602
  517MPD2     N 7686   1.538   1.913   0.259  0.1564 -0.8772 -0.5348
  517MPD2    H5 7687   1.471   1.949   0.327 -0.5573 -1.4940 -0.9065
  517MPD2    N1 7688   1.561   1.622  17.559 -0.1333  0.3081  0.0084
  517MPD2    H7 7689   1.656   1.655  17.553  0.2656 -0.8338  0.0822
  518TMC3    C1 7690   1.603   1.473  17.379 -0.3600 -0.7167  0.1917
  518TMC3    C2 7691   1.596   1.334  17.360  0.6464  0.1963  0.2528
  518TMC3    C3 7692   1.644   1.291  17.239 -0.3286 -0.5384  0.6149
  518TMC3    C4 7693   1.640   1.560  17.283  0.0910  0.1459 -0.5062
  518TMC3    C5 7694   1.692   1.515  17.168  0.2154  0.6991  0.5629
  518TMC3    C6 7695   1.689   1.377  17.144  0.1770 -0.0406 -0.2428
  518TMC3     C 7696   1.517   1.508  17.494 -0.2495  0.0653  0.7759
  518TMC3     O 7697   1.427   1.430  17.526 -0.1583  0.5196 -0.3348
  518TMC3     H 7698   1.563   1.263  17.435  1.7152 -0.2082  0.3515
  518TMC3    H1 7699   1.628   1.667  17.298  1.2055  0.5842 -2.8621
  518TMC3    H2 7700   1.731   1.342  17.050 -1.7574 -0.9907 -0.7500
  518TMC3    C7 7701   1.757   1.602  17.073  0.2369  0.1855 -0.1727
  518TMC3    C8 7702   1.686   1.156  17.218 -0.0111  0.9176 -0.6121
  518TMC3    O1 7703   1.721   1.723  17.059  0.4418  0.5313 -0.2500
  518TMC3    O2 7704   1.705   1.088  17.316 -0.0537  0.5680 -0.3598
  519MPD2     C 7705   3.619   0.554  13.679  0.5119  0.7574  0.1631
  519MPD2    C1 7706   3.508   0.474  13.651 -0.8297  0.5824 -0.1081
  519MPD2    C2 7707   3.518   0.336  13.657 -0.2057 -0.3331  0.7633
  519MPD2    C3 7708   3.640   0.283  13.685  0.2676  0.0116 -0.4557
  519MPD2    C4 7709   3.740   0.364  13.726  0.3013 -0.2059 -0.3062
  519MPD2    C5 7710   3.735   0.495  13.724 -0.2574 -0.4646  0.1550
  519MPD2     H 7711   3.428   0.276  13.650 -0.5157  0.1596  0.5396
  519MPD2    H1 7712   3.838   0.325  13.749  1.4655  1.8029 -1.8924
  519MPD2    H2 7713   3.607   0.662  13.671 -0.0779  0.4602 -2.7465
  519MPD2    H3 7714   3.824   0.553  13.748 -0.3335 -0.7782  1.1950
  519MPD2     N 7715   3.663   0.143  13.687 -0.1164 -0.2761 -0.0457
  519MPD2    H5 7716   3.750   0.111  13.728 -1.0478 -3.9524 -0.9976
  519MPD2    N1 7717   3.384   0.537  13.618 -0.0026  0.3594  0.2183
  519MPD2    H7 7718   3.374   0.635  13.642 -0.6549  0.9001 -2.1770
  520TMC3    C1 7719   3.601   4.635  13.696  0.3355  0.4170  0.0990
  520TMC3    C2 7720   3.512   4.541  13.648 -0.1583 -0.1683 -0.3663
  520TMC3    C3 7721   3.547   4.408  13.669 -0.3791 -0.7685 -0.4982
  520TMC3    C4 7722   3.720   4.601  13.754 -0.4975  0.2874 -0.1926
  520TMC3    C5 7723   3.741   4.468  13.784 -0.2378 -0.3649  0.3787
  520TMC3    C6 7724   3.648   4.373  13.755  0.7631  0.3722 -0.3599
  520TMC3     C 7725   3.578   0.050  13.651  0.3103 -0.8749 -0.4702
  520TMC3     O 7726   3.476   0.065  13.587 -0.3829  0.1998 -0.1319
  520TMC3     H 7727   3.430   4.577  13.587  0.7252  3.3209  0.5177
  520TMC3    H1 7728   3.784   4.676  13.798 -0.3651  1.3114 -2.1137
  520TMC3    H2 7729   3.664   4.271  13.787 -0.0585  1.0972  2.2878
  520TMC3    C7 7730   3.872   4.417  13.828 -0.2665 -0.8842  0.1445
  520TMC3    C8 7731   3.472   4.302  13.620 -0.6721 -0.1080  0.1044
  520TMC3    O1 7732   3.886   4.304  13.870 -0.2713 -0.0884  0.2119
  520TMC3    O2 7733   3.520   4.193  13.653 -0.7707  0.1011  0.5188
  521MPD2     C 7734   4.302   3.647  16.909 -0.3109 -0.9763 -0.2552
  521MPD2    C1 7735   4.319   3.516  16.865  0.5544 -0.5647  1.1588
  521MPD2    C2 7736   4.439   3.480  16.805  0.0709  0.8822  0.4936
  521MPD2    C3 7737   4.540   3.575  16.789 -0.4301  0.5231 -0.5061
  521MPD2    C4 7738   4.516   3.713  16.822  0.2190  0.1900  1.1654
  521MPD2    C5 7739   4.392   3.743  16.879 -0.1007  0.4757  0.3195
  521MPD2     H 7740   4.464   3.379  16.776  0.4480  0.5245  2.0708
  521MPD2    H1 7741   4.588   3.792  16.808 -1.9788  1.8547 -0.9507
  521MPD2    H2 7742   4.209   3.677  16.956  0.2294 -1.3132  1.0224
  521MPD2    H3 7743   4.371   3.845  16.909 -1.7288 -0.1612  1.3315
  521MPD2     N 7744   4.657   3.539  16.718 -0.6237  0.2497  0.6579
  521MPD2    H5 7745   4.651   3.449  16.672 -1.8241  0.5773  0.1773
  521MPD2    N1 7746   4.219   3.421  16.895  0.0025 -0.1455 -0.0681
  521MPD2    H7 7747   4.154   3.445  16.969  1.0316 -1.0070  1.1347
  522TMC3    C1 7748   0.159   3.526  16.664  0.2376  0.3723 -0.3191
  522TMC3    C2 7749   0.292   3.569  16.679  0.0265 -0.3440 -0.3767
  522TMC3    C3 7750   0.390   3.487  16.625 -0.4183  0.1010 -0.6361
  522TMC3    C4 7751   0.124   3.415  16.591  0.6049 -0.6053  0.2599
  522TMC3    C5 7752   0.230   3.343  16.538  0.6114  0.1424  0.6133
  522TMC3    C6 7753   0.359   3.372  16.559  0.4680  0.5953  0.3480
  522TMC3     C 7754   0.061   3.598  16.738 -0.2461 -0.2686  0.2917
  522TMC3     O 7755   0.098   3.689  16.813  0.3799 -0.1863  0.2065
  522TMC3     H 7756   0.312   3.655  16.742 -1.2398 -0.0563 -0.3835
  522TMC3    H1 7757   0.022   3.382  16.576  1.0121 -0.5273 -2.8349
  522TMC3    H2 7758   0.434   3.306  16.517 -0.0651 -0.3723  0.9136
  522TMC3    C7 7759   0.213   3.245  16.422  0.6463  0.4139  0.2075
  522TMC3    C8 7760   0.528   3.525  16.623 -0.1867 -0.0642  0.1500
  522TMC3    O1 7761   0.304   3.167  16.397  0.1392  0.2230  0.1333
  522TMC3    O2 7762   0.559   3.640  16.594 -0.0694 -0.2896 -0.0200
  523MPD2     C 7763   2.786   3.395  10.199 -0.4511  0.0078 -0.1208
  523MPD2    C1 7764   2.688   3.323  10.136  0.2336 -0.5658  0.8246
  523MPD2    C2 7765   2.591   3.377  10.053  0.4155  1.0471 -0.3904
  523MPD2    C3 7766   2.601   3.518  10.032 -0.1853 -0.3866  0.2645
  523MPD2    C4 7767   2.703   3.589  10.087 -0.1509  0.4202 -0.6092
  523MPD2    C5 7768   2.801   3.532  10.165  0.4091  0.7038 -0.2341
  523MPD2     H 7769   2.518   3.317  10.000  0.8823  0.1707 -0.0340
  523MPD2    H1 7770   2.707   3.697  10.073 -0.3379  0.1373 -2.8247
  523MPD2    H2 7771   2.850   3.349  10.273  0.1347  0.6061 -0.2606
  523MPD2    H3 7772   2.879   3.592  10.209  0.5305 -1.5095  2.5717
  523MPD2     N 7773   2.523   3.588   9.942  0.2786 -0.5878  0.5551
  523MPD2    H5 7774   2.557   3.683   9.932 -2.0766  0.3091  1.2070
  523MPD2    N1 7775   2.672   3.186  10.173  0.2110  0.1623  0.0541
  523MPD2    H7 7776   2.740   3.145  10.237 -1.3365  1.3613  2.4581
  524TMC3    C1 7777   2.343   3.648   9.808 -0.2710  0.1699  0.5280
  524TMC3    C2 7778   2.237   3.595   9.736  0.0896  0.0041  0.0514
  524TMC3    C3 7779   2.153   3.685   9.675 -0.9671  0.6811 -0.7275
  524TMC3    C4 7780   2.367   3.780   9.823 -0.2805 -0.0311 -0.6315
  524TMC3    C5 7781   2.273   3.859   9.766 -0.7899 -0.6524 -0.6939
  524TMC3    C6 7782   2.167   3.820   9.686 -0.3052  0.7704  0.0093
  524TMC3     C 7783   2.409   3.545   9.886  1.2394 -0.3279  0.5758
  524TMC3     O 7784   2.345   3.444   9.908  0.1376 -0.2013 -0.0913
  524TMC3     H 7785   2.242   3.492   9.702  0.1163  0.5034 -1.4618
  524TMC3    H1 7786   2.449   3.818   9.882  0.6268 -2.2028 -0.5096
  524TMC3    H2 7787   2.096   3.886   9.637 -0.3424  0.0726 -0.8868
  524TMC3    C7 7788   2.319   3.997   9.748 -0.3635 -0.5165  0.0192
  524TMC3    C8 7789   2.069   3.628   9.562 -0.2591  0.2228  0.6686
  524TMC3    O1 7790   2.436   4.022   9.754 -0.5208  0.6492  0.1304
  524TMC3    O2 7791   2.044   3.706   9.474  0.0196 -0.1432 -0.1207
  525MPD2     C 7792   0.334   4.305  14.450  0.5263  0.1098  0.0532
  525MPD2    C1 7793   0.372   4.370  14.567 -0.4448 -0.1753  0.2720
  525MPD2    C2 7794   0.434   4.496  14.561 -0.4150 -0.2599  0.3666
  525MPD2    C3 7795   0.464   4.554  14.435 -0.3396  0.4914 -0.3401
  525MPD2    C4 7796   0.433   4.478  14.322  0.5647 -0.2129 -0.3398
  525MPD2    C5 7797   0.373   4.358  14.328 -0.8308  0.3528  0.0410
  525MPD2     H 7798   0.472   4.543  14.651  2.5215  0.7554 -1.4075
  525MPD2    H1 7799   0.451   4.511  14.220  0.2119  2.6518  0.5221
  525MPD2    H2 7800   0.285   4.208  14.449  0.9810 -0.1205  0.6649
  525MPD2    H3 7801   0.366   4.292  14.242 -0.4486  0.3917 -0.0223
  525MPD2     N 7802   0.536   4.673  14.430  0.1841  0.1126  0.3524
  525MPD2    H5 7803   0.554   4.720  14.518  0.6128 -0.0389  0.3468
  525MPD2    N1 7804   0.358   4.315  14.697 -0.0456 -0.6935  0.1795
  525MPD2    H7 7805   0.416   4.355  14.770  1.9664 -1.8559 -0.7460
  526TMC3    C1 7806   0.290   4.163  14.866  0.5747 -0.6116 -0.3732
  526TMC3    C2 7807   0.187   4.103  14.924 -0.0271  0.4348 -0.3612
  526TMC3    C3 7808   0.218   4.027  15.030  0.1104 -0.7045 -0.1905
  526TMC3    C4 7809   0.417   4.144  14.907  0.1308  0.2444  0.0751
  526TMC3    C5 7810   0.444   4.055  15.006  0.5153 -0.2202 -0.5971
  526TMC3    C6 7811   0.344   3.996  15.073  0.3964 -0.0030  0.7918
  526TMC3     C 7812   0.272   4.207  14.731  0.2956  0.1479  0.5698
  526TMC3     O 7813   0.181   4.154  14.673  0.3115  0.6260  1.0858
  526TMC3     H 7814   0.085   4.133  14.899 -0.8264 -0.3484  1.9498
  526TMC3    H1 7815   0.498   4.201  14.861 -2.1925  3.0616 -0.5561
  526TMC3    H2 7816   0.374   3.937  15.158  0.9988 -1.6875 -0.5832
  526TMC3    C7 7817   0.579   4.003  15.024 -0.7767 -0.2017  0.1528
  526TMC3    C8 7818   0.118   4.037  15.136  0.2896  0.3886  0.4352
  526TMC3    O1 7819   0.607   3.941  15.127  0.9343  0.3596  0.1204
  526TMC3    O2 7820   0.045   4.135  15.142 -0.0501  0.0445  0.2274
  527MPD2     C 7821   3.185   2.390   1.316 -0.1940  0.3542 -0.2655
  527MPD2    C1 7822   3.154   2.452   1.192 -0.0057  0.2727  0.1227
  527MPD2    C2 7823   3.255   2.501   1.117 -0.2520 -0.5548 -0.0498
  527MPD2    C3 7824   3.390   2.470   1.154 -0.8290  0.2893 -0.9569
  527MPD2    C4 7825   3.411   2.408   1.275  0.5450  0.2595 -0.8333
  527MPD2    C5 7826   3.314   2.362   1.356  0.3329 -0.2778 -0.1569
  527MPD2     H 7827   3.231   2.565   1.033 -0.9387 -0.1700  0.4463
  527MPD2    H1 7828   3.507   2.370   1.306 -0.7265 -0.5768  2.1448
  527MPD2    H2 7829   3.108   2.356   1.384  1.4254 -0.7216  1.0419
  527MPD2    H3 7830   3.330   2.308   1.449 -0.8150 -0.3024  0.0224
  527MPD2     N 7831   3.496   2.508   1.071  0.3127  0.4430  0.5365
  527MPD2    H5 7832   3.474   2.557   0.985 -1.9940 -0.8049  0.4222
  527MPD2    N1 7833   3.025   2.494   1.144 -0.6182 -0.0738  0.3693
  527MPD2    H7 7834   3.014   2.528   1.049  0.2643 -0.0155  0.2885
  528TMC3    C1 7835   2.789   2.494   1.122  0.8312  0.2540 -0.8414
  528TMC3    C2 7836   2.671   2.494   1.184  0.2278  0.9214  0.1213
  528TMC3    C3 7837   2.566   2.564   1.141 -0.1790  0.4232  0.0595
  528TMC3    C4 7838   2.809   2.536   0.989  0.3454 -1.0409 -0.1162
  528TMC3    C5 7839   2.694   2.603   0.942 -0.1049  0.2595  0.1732
  528TMC3    C6 7840   2.582   2.616   1.011 -0.4492  0.3440 -0.0333
  528TMC3     C 7841   2.909   2.464   1.206 -0.0713 -0.3099  0.1641
  528TMC3     O 7842   2.899   2.409   1.312  0.6315 -0.5098 -0.1217
  528TMC3     H 7843   2.678   2.471   1.289  0.4800 -0.4399 -0.1971
  528TMC3    H1 7844   2.904   2.536   0.938  1.1039 -3.6016  1.3247
  528TMC3    H2 7845   2.502   2.678   0.972 -0.4603  0.1395 -0.3312
  528TMC3    C7 7846   2.682   2.611   0.801  0.5155  0.0534  0.1767
  528TMC3    C8 7847   2.526   2.656   1.240 -0.5266 -0.5747  0.5075
  528TMC3    O1 7848   2.732   2.525   0.730 -0.1613  0.2248 -0.0067
  528TMC3    O2 7849   2.601   2.671   1.332 -0.1246 -0.3650  0.2491
  529MPD2     C 7850   0.507   1.318   0.719 -0.0442  0.2481  0.1307
  529MPD2    C1 7851   0.626   1.263   0.680 -0.3655 -0.3762  0.6708
  529MPD2    C2 7852   0.670   1.282   0.553  0.4309  0.4367 -0.9745
  529MPD2    C3 7853   0.601   1.364   0.465 -0.1676  0.4920 -0.6440
  529MPD2    C4 7854   0.483   1.420   0.499 -0.1745  0.3924 -0.5296
  529MPD2    C5 7855   0.433   1.385   0.626  0.1138  0.5691  0.9957
  529MPD2     H 7856   0.767   1.239   0.531  0.5281  0.3218 -0.3130
  529MPD2    H1 7857   0.418   1.472   0.430 -0.0329 -1.2588 -1.9149
  529MPD2    H2 7858   0.465   1.321   0.819  1.4057  1.3193  0.7109
  529MPD2    H3 7859   0.335   1.421   0.655 -0.0111  0.4023  0.7779
  529MPD2     N 7860   0.652   1.382   0.335  0.7029 -0.1435  0.2299
  529MPD2    H5 7861   0.593   1.442   0.278  1.8870 -0.0352 -0.8696
  529MPD2    N1 7862   0.704   1.176   0.760 -0.5032  0.2898  0.0328
  529MPD2    H7 7863   0.796   1.143   0.731 -0.4470  0.8005 -0.3789
  530TMC3    C1 7864   0.727   1.006   0.916  0.1754  0.1862 -0.4241
  530TMC3    C2 7865   0.750   0.983   1.050  0.9253 -0.4178  0.7236
  530TMC3    C3 7866   0.800   0.857   1.081  0.2949  1.0713  0.3162
  530TMC3    C4 7867   0.754   0.904   0.818 -0.0196  0.8152 -0.1638
  530TMC3    C5 7868   0.810   0.784   0.854 -0.0265  0.3715 -0.3331
  530TMC3    C6 7869   0.834   0.759   0.989  0.1759  0.0673 -0.2734
  530TMC3     C 7870   0.652   1.122   0.874  0.2677  0.3545 -0.5303
  530TMC3     O 7871   0.563   1.157   0.952 -0.0420 -0.3874  0.8060
  530TMC3     H 7872   0.731   1.063   1.120 -0.9267 -1.3538  1.2698
  530TMC3    H1 7873   0.741   0.929   0.714 -0.9468 -0.8032 -0.4410
  530TMC3    H2 7874   0.881   0.666   1.019  1.2546  1.8746  3.7249
  530TMC3    C7 7875   0.811   0.670   0.759 -0.0215  0.4821 -0.0962
  530TMC3    C8 7876   0.830   0.833   1.221  0.2989 -0.2503 -0.0443
  530TMC3    O1 7877   0.850   0.690   0.644  0.1361  0.5523  0.3753
  530TMC3    O2 7878   0.773   0.905   1.301 -0.5463  0.0129  0.4066
  531MPD2     C 7879   0.214   2.601  12.890  0.2315 -0.2738 -0.1878
  531MPD2    C1 7880   0.104   2.679  12.887  0.2935 -0.0826  0.4117
  531MPD2    C2 7881   4.717   2.624  12.829  0.4416  0.5058  0.0777
  531MPD2    C3 7882   4.713   2.495  12.777 -0.0336 -0.2994  0.0338
  531MPD2    C4 7883   0.108   2.426  12.777 -0.1964 -0.0394 -0.0018
  531MPD2    C5 7884   0.225   2.472  12.833  0.5921  0.1875 -0.5442
  531MPD2     H 7885   4.622   2.677  12.825 -0.5612 -1.1955  1.1765
  531MPD2    H1 7886   0.115   2.337  12.716  0.2691  0.2563 -0.3758
  531MPD2    H2 7887   0.302   2.645  12.935  0.8105 -1.6068 -0.0209
  531MPD2    H3 7888   0.317   2.415  12.846 -0.1503 -1.3585 -1.9986
  531MPD2     N 7889   4.601   2.437  12.709 -0.5503  0.2509 -0.4174
  531MPD2    H5 7890   4.618   2.345  12.669  0.4245  0.2968 -0.1235
  531MPD2    N1 7891   0.114   2.809  12.937  0.5484 -0.5496 -0.0955
  531MPD2    H7 7892   0.205   2.838  12.971  0.0076 -0.7179  1.4831
  532TMC3    C1 7893   0.044   3.021  12.997  0.0226 -0.6030 -0.3802
  532TMC3    C2 7894   4.686   3.117  12.945  0.1907  0.0261 -0.1734
  532TMC3    C3 7895   4.599   3.196  13.023  0.0139 -0.2224 -0.0392
  532TMC3    C4 7896   0.052   3.002  13.132 -0.2432  0.1632 -0.1285
  532TMC3    C5 7897   4.694   3.083  13.209 -0.5342 -0.2211  0.8425
  532TMC3    C6 7898   4.605   3.178  13.163  0.5613 -0.5351  0.4362
  532TMC3     C 7899   0.018   2.904  12.918 -0.3526 -0.5114 -0.2404
  532TMC3     O 7900   4.647   2.903  12.841 -0.0504  0.3435 -1.1518
  532TMC3     H 7901   4.685   3.132  12.837  1.1922 -2.2684 -0.4943
  532TMC3    H1 7902   0.119   2.927  13.173 -0.9324 -3.4664 -5.5092
  532TMC3    H2 7903   4.543   3.247  13.219 -1.2379 -0.7413 -1.2818
  532TMC3    C7 7904   4.686   3.066  13.349 -0.4513  0.2933 -0.1330
  532TMC3    C8 7905   4.464   3.202  12.967  0.3402  0.6675  0.1931
  532TMC3    O1 7906   4.648   3.168  13.408  0.4433 -0.5401 -0.0986
  532TMC3    O2 7907   4.383   3.273  13.019 -0.2407  0.0108 -0.1721
  533TMC3    C1 7908   0.603   0.147  14.331 -0.7790  0.5190 -0.0081
  533TMC3    C2 7909   0.721   0.208  14.291  0.2242 -0.3554  0.3249
  533TMC3    C3 7910   0.732   0.343  14.334  0.0489  0.4230 -0.5694
  533TMC3    C4 7911   0.504   0.213  14.393 -0.2028 -0.4118  0.1097
  533TMC3    C5 7912   0.526   0.339  14.432 -0.1532 -0.4650  0.0487
  533TMC3    C6 7913   0.645   0.403  14.414 -0.2841 -0.2552  0.1476
  533TMC3     C 7914   0.594   0.006  14.314 -0.1817 -0.2796  0.0768
  533TMC3     O 7915   0.608   4.681  14.203  0.4126  0.4332 -0.1604
  533TMC3     H 7916   0.808   0.153  14.257  1.0865  0.4151  1.2633
  533TMC3    H1 7917   0.416   0.158  14.423 -0.0021 -0.6513  0.2577
  533TMC3    H2 7918   0.645   0.509  14.438  2.0714 -0.4931  1.2383
  533TMC3    C7 7919   0.445   0.371  14.543 -0.0329  0.3067 -0.7673
  533TMC3    C8 7920   0.867   0.398  14.347 -0.3444 -0.9837  0.5738
  533TMC3    O1 7921   0.332   0.320  14.537  0.0504 -0.1127  0.7474
  533TMC3    O2 7922   0.885   0.461  14.450  0.4613  0.3713  0.3851
  534MPD2     C 7923   2.961   1.883   1.748 -0.2769 -0.2600 -0.2281
  534MPD2    C1 7924   2.826   1.869   1.717 -1.2856 -0.2575 -0.4350
  534MPD2    C2 7925   2.782   1.746   1.689 -0.3893 -0.5347  0.2460
  534MPD2    C3 7926   2.875   1.639   1.689 -0.1069 -0.2126 -0.1258
  534MPD2    C4 7927   3.010   1.658   1.691  0.1799 -0.4073 -0.4192
  534MPD2    C5 7928   3.056   1.783   1.731 -0.0841 -0.6717  0.3431
  534MPD2     H 7929   2.680   1.729   1.657 -0.2456  0.2554 -0.6330
  534MPD2    H1 7930   3.073   1.573   1.671  0.8866 -0.4106  1.8328
  534MPD2    H2 7931   3.000   1.978   1.782  0.7464 -0.5704 -0.5049
  534MPD2    H3 7932   3.163   1.797   1.739 -0.2392  1.1310 -0.6796
  534MPD2     N 7933   2.827   1.508   1.679 -0.4675  0.4279 -0.0268
  534MPD2    H5 7934   2.893   1.438   1.648 -1.4467 -1.3738  2.0024
  534MPD2    N1 7935   2.726   1.977   1.729  0.5617  0.1106  0.5703
  534MPD2    H7 7936   2.636   1.961   1.685  0.3993  0.4017  0.8016
  535TMC3    C1 7937   2.665   1.328   1.707  0.0754  0.0373 -0.6122
  535TMC3    C2 7938   2.572   1.272   1.798  0.2507 -0.2729 -0.0173
  535TMC3    C3 7939   2.509   1.160   1.760  0.5466 -1.0052 -0.2861
  535TMC3    C4 7940   2.694   1.268   1.588  0.2646 -0.1914  0.1662
  535TMC3    C5 7941   2.633   1.147   1.561  0.3394  0.1179  0.3168
  535TMC3    C6 7942   2.533   1.101   1.641 -0.0072 -0.1631  0.1019
  535TMC3     C 7943   2.703   1.470   1.729 -0.5805  0.5956 -0.2774
  535TMC3     O 7944   2.630   1.535   1.802 -0.4464  0.2247 -0.0338
  535TMC3     H 7945   2.544   1.328   1.887  1.2542 -2.3831  1.6507
  535TMC3    H1 7946   2.762   1.313   1.516 -3.6216  0.5096 -3.0477
  535TMC3    H2 7947   2.481   1.010   1.611 -2.3380  1.1611  0.1106
  535TMC3    C7 7948   2.645   1.099   1.426  1.0477  0.0797 -0.2200
  535TMC3    C8 7949   2.371   1.135   1.807 -0.6528 -0.5802  0.4147
  535TMC3    O1 7950   2.697   1.176   1.348  0.0201  0.0447  0.0012
  535TMC3    O2 7951   2.293   1.059   1.748  0.3506 -0.7744 -0.0749
  536MPD2     C 7952   1.742   4.406  16.511 -0.1065  0.5571  0.5725
  536MPD2    C1 7953   1.638   4.311  16.526 -0.0178  0.0958 -0.0815
  536MPD2    C2 7954   1.569   4.273  16.415 -0.2244  0.8431  0.8615
  536MPD2    C3 7955   1.579   4.346  16.292 -0.4630  0.2430  0.7545
  536MPD2    C4 7956   1.672   4.441  16.283 -0.6086  0.1515 -0.1989
  536MPD2    C5 7957   1.753   4.471  16.390 -0.1322 -0.1999 -0.6488
  536MPD2     H 7958   1.496   4.194  16.429  1.1579 -1.2344 -3.9588
  536MPD2    H1 7959   1.664   4.510  16.200 -0.1299 -0.8067 -1.0473
  536MPD2    H2 7960   1.805   4.436  16.593 -0.1237 -0.4361  0.9488
  536MPD2    H3 7961   1.817   4.558  16.391 -0.0018 -0.2892 -1.5418
  536MPD2     N 7962   1.497   4.321  16.180  0.0048  0.0260 -0.0280
  536MPD2    H5 7963   1.514   4.378  16.097 -0.3114 -1.2672 -0.9827
  536MPD2    N1 7964   1.633   4.255  16.658  0.0477 -0.3575 -0.5280
  536MPD2    H7 7965   1.702   4.293  16.722 -0.9139 -0.4999  0.5982
  537TMC3    C1 7966   1.590   4.094  16.820  0.5146 -0.0729  0.6350
  537TMC3    C2 7967   1.725   4.104  16.847 -0.4024 -0.1886  0.0335
  537TMC3    C3 7968   1.775   4.056  16.963 -0.3941 -0.5276 -0.4948
  537TMC3    C4 7969   1.505   4.048  16.919  0.3111  0.1684 -0.6393
  537TMC3    C5 7970   1.560   4.007  17.037  0.5089 -0.3184 -0.0219
  537TMC3    C6 7971   1.693   4.010  17.062 -0.9779  0.2547 -0.3287
  537TMC3     C 7972   1.554   4.153  16.695 -0.0188 -0.1853  0.0548
  537TMC3     O 7973   1.460   4.110  16.639 -0.8510 -0.5306  0.5276
  537TMC3     H 7974   1.792   4.131  16.766 -2.5335 -0.1550 -1.7098
  537TMC3    H1 7975   1.399   4.050  16.896  0.0790 -0.0480  0.4199
  537TMC3    H2 7976   1.749   3.969  17.145  0.6272  2.2631 -0.4278
  537TMC3    C7 7977   1.471   3.962  17.132  0.6437 -0.2246  0.4223
  537TMC3    C8 7978   1.914   4.078  16.991  0.7660  0.0053  0.7990
  537TMC3    O1 7979   1.356   3.914  17.115 -0.1177  0.1231 -0.5121
  537TMC3    O2 7980   1.942   4.091  17.107  0.3784 -0.0864  0.0838
  538TMC3    C1 7981   3.099   2.737  10.920 -0.0732  0.1210 -0.8297
  538TMC3    C2 7982   3.201   2.723  10.826  0.1644 -0.0807 -0.0965
  538TMC3    C3 7983   3.179   2.780  10.703 -0.3575 -0.0963  0.0382
  538TMC3    C4 7984   2.985   2.811  10.894  0.0272 -0.0356  0.4066
  538TMC3    C5 7985   2.969   2.867  10.773 -0.1366  0.9006 -0.1655
  538TMC3    C6 7986   3.065   2.847  10.671  0.2231  0.2542 -0.6170
  538TMC3     C 7987   3.113   2.685  11.056 -0.2558  0.4211  0.0530
  538TMC3     O 7988   3.013   2.675  11.126 -0.6674 -0.4397  0.4768
  538TMC3     H 7989   3.291   2.664  10.841  0.1040 -0.5504 -1.5626
  538TMC3    H1 7990   2.904   2.808  10.967  0.7826  1.8549  1.3164
  538TMC3    H2 7991   3.033   2.865  10.569  1.5543 -1.0027 -1.2687
  538TMC3    C7 7992   2.848   2.943  10.751 -0.6672 -0.3075  0.0828
  538TMC3    C8 7993   3.254   2.736  10.588  0.0226 -0.2368 -0.2867
  538TMC3    O1 7994   2.765   2.938  10.844 -0.1657 -0.6358  0.1650
  538TMC3    O2 7995   3.306   2.625  10.590 -0.5353 -0.1136  0.2097
  539MPD2     C 7996   2.882   2.139  12.053 -0.5085 -0.0040  0.2474
  539MPD2    C1 7997   2.864   2.149  11.909  0.4638 -0.1396  0.4163
  539MPD2    C2 7998   2.801   2.258  11.858 -0.4662 -0.5388 -0.8974
  539MPD2    C3 7999   2.769   2.373  11.936 -0.0794 -0.0753  0.4480
  539MPD2    C4 8000   2.791   2.363  12.073 -0.4515 -0.1683  0.8587
  539MPD2    C5 8001   2.843   2.251  12.136  0.2761  0.4959 -0.4818
  539MPD2     H 8002   2.801   2.258  11.750  0.8607 -1.1273 -0.8979
  539MPD2    H1 8003   2.757   2.445  12.136 -2.2315 -0.3940  0.1805
  539MPD2    H2 8004   2.906   2.044  12.099  1.7764  0.4412 -0.0088
  539MPD2    H3 8005   2.845   2.239  12.244  1.5438  1.9512 -0.3420
  539MPD2     N 8006   2.719   2.493  11.890  0.0241  0.1689  0.2358
  539MPD2    H5 8007   2.709   2.562  11.964 -0.6534 -1.1906  1.4223
  539MPD2    N1 8008   2.900   2.050  11.816 -0.5672  0.0305  0.2385
  539MPD2    H7 8009   2.900   2.083  11.720  0.1425  1.5069  0.7387
  540TMC3    C1 8010   2.638   2.661  11.756 -0.3154 -0.6614  0.6695
  540TMC3    C2 8011   2.626   2.714  11.633 -0.2658 -0.3263  0.3167
  540TMC3    C3 8012   2.561   2.831  11.624  0.1214 -0.4312 -0.1599
  540TMC3    C4 8013   2.584   2.722  11.868 -0.6298  0.1989 -0.5018
  540TMC3    C5 8014   2.524   2.845  11.852  0.1470 -0.1170  0.1435
  540TMC3    C6 8015   2.517   2.907  11.730  0.8146  0.3882 -0.5054
  540TMC3     C 8016   2.685   2.522  11.760 -0.3950  0.2131 -0.0260
  540TMC3     O 8017   2.729   2.467  11.658 -0.3322  0.5613 -0.5359
  540TMC3     H 8018   2.662   2.667  11.542 -0.2532  1.4819 -0.6031
  540TMC3    H1 8019   2.586   2.680  11.967  0.1719 -0.4726 -0.7965
  540TMC3    H2 8020   2.447   2.990  11.724  0.4107  0.0474 -0.5381
  540TMC3    C7 8021   2.416   2.864  11.940  0.2341 -0.1771 -0.6420
  540TMC3    C8 8022   2.504   2.874  11.498 -0.4366 -0.2960 -0.5622
  540TMC3    O1 8023   2.367   2.765  11.988  0.2242 -0.2163 -0.2957
  540TMC3    O2 8024   2.434   2.974  11.497 -0.0207 -0.2533  0.1340
  541MPD2     C 8025   1.337   3.334  13.029  0.1806 -0.6915 -0.7981
  541MPD2    C1 8026   1.222   3.385  13.072  0.4634  0.2973 -0.3465
  541MPD2    C2 8027   1.160   3.473  12.987 -0.3588  0.5130 -0.2693
  541MPD2    C3 8028   1.205   3.497  12.851 -0.0376 -0.1375  0.3705
  541MPD2    C4 8029   1.322   3.436  12.809  0.0533  0.2795  0.2640
  541MPD2    C5 8030   1.384   3.357  12.902  0.1649 -0.3898  0.2552
  541MPD2     H 8031   1.069   3.523  13.018  0.0471 -0.2605  2.1701
  541MPD2    H1 8032   1.361   3.453  12.709  1.8001 -1.8931  0.5688
  541MPD2    H2 8033   1.392   3.265  13.093  0.0841  0.3734  0.4243
  541MPD2    H3 8034   1.464   3.290  12.874  0.9020  0.8607 -0.6498
  541MPD2     N 8035   1.134   3.565  12.746  0.3143  0.7673 -0.2163
  541MPD2    H5 8036   1.192   3.569  12.663  0.3510 -1.9455 -0.3093
  541MPD2    N1 8037   1.175   3.343  13.200  0.2786  0.1976  0.0293
  541MPD2    H7 8038   1.234   3.283  13.257 -1.9424 -2.7095 -0.7197
  542TMC3    C1 8039   0.999   3.738  12.656 -0.1960  0.2137 -0.2105
  542TMC3    C2 8040   1.067   3.738  12.542 -0.0817  0.0730  0.4947
  542TMC3    C3 8041   1.038   3.831  12.447  0.7953 -0.3715 -0.1868
  542TMC3    C4 8042   0.895   3.822  12.683 -0.2293  0.1790 -0.1246
  542TMC3    C5 8043   0.867   3.912  12.591  0.0581 -0.2297 -0.0160
  542TMC3    C6 8044   0.930   3.910  12.466  0.3708 -0.2967  0.1768
  542TMC3     C 8045   1.023   3.646  12.767  0.6234 -0.2928 -0.0277
  542TMC3     O 8046   0.955   3.656  12.868 -0.2896  0.1225  0.2998
  542TMC3     H 8047   1.150   3.669  12.528  0.1682  1.0058 -2.7593
  542TMC3    H1 8048   0.860   3.833  12.786  0.1759 -0.3273  0.0632
  542TMC3    H2 8049   0.889   3.975  12.389  0.1732 -1.1241 -0.4150
  542TMC3    C7 8050   0.786   4.027  12.631 -0.0351  0.6639 -0.1938
  542TMC3    C8 8051   1.068   3.791  12.319  0.2007 -0.2109 -0.1403
  542TMC3    O1 8052   0.722   4.012  12.733  0.3411 -0.4682  0.1075
  542TMC3    O2 8053   0.988   3.836  12.235 -1.0119  0.9098  0.0462
  543TMC3    C1 8054   0.235   0.105  17.365  0.4398 -0.3196  0.7940
  543TMC3    C2 8055   0.180   4.709  17.399 -0.0620  0.1843 -0.1106
  543TMC3    C3 8056   0.134   4.696  17.524  0.1638  0.1267 -0.1852
  543TMC3    C4 8057   0.230   0.219  17.446 -1.2882  0.3401 -0.1481
  543TMC3    C5 8058   0.172   0.197  17.567 -0.2579 -0.2086 -0.2534
  543TMC3    C6 8059   0.130   0.079  17.613  0.1135 -0.1110  0.5674
  543TMC3     C 8060   0.240   0.115  17.218 -0.3119  0.3651 -0.0817
  543TMC3     O 8061   0.264   0.011  17.159  0.5527 -0.1835  0.5856
  543TMC3     H 8062   0.183   4.627  17.328  2.3849 -0.6939  0.9826
  543TMC3    H1 8063   0.277   0.312  17.415  1.0915 -0.0324  2.3832
  543TMC3    H2 8064   0.075   0.068   0.014  2.7176 -0.3916  2.0643
  543TMC3    C7 8065   0.171   0.306  17.656 -0.7709 -0.0139  0.0850
  543TMC3    C8 8066   0.122   4.559  17.571  0.0932  0.3828 -0.4104
  543TMC3    O1 8067   0.086   0.303   0.051  0.1062  0.4346  0.4227
  543TMC3    O2 8068   0.112   4.472  17.485 -0.2311  0.2624 -0.6041
  544MPD2     C 8069   0.186   4.187   0.235 -0.4455 -0.0862 -0.3175
  544MPD2    C1 8070   0.141   4.185   0.103 -0.4071  0.2614  1.1969
  544MPD2    C2 8071   0.122   4.302   0.034 -0.1889  0.0222  0.0144
  544MPD2    C3 8072   0.161   4.428   0.086  0.0299 -0.1889 -0.1506
  544MPD2    C4 8073   0.203   4.430   0.214 -0.3031  0.4730 -0.2791
  544MPD2    C5 8074   0.216   4.310   0.282 -0.3373  0.1464 -0.0798
  544MPD2     H 8075   0.080   4.311  17.627 -1.2019 -0.1867  0.4287
  544MPD2    H1 8076   0.227   4.520   0.270 -1.8027  0.7141 -0.0428
  544MPD2    H2 8077   0.203   4.099   0.297 -2.0628 -0.4502 -0.3852
  544MPD2    H3 8078   0.252   4.305   0.384  1.2574  1.9448 -0.5548
  544MPD2     N 8079   0.148   4.550   0.015  0.1642 -0.3884 -0.0989
  544MPD2    H5 8080   0.178   4.629   0.072 -0.3946 -0.4455  0.2815
  544MPD2    N1 8081   0.095   4.063   0.048  0.3655 -0.2720  0.5236
  544MPD2    H7 8082   0.079   3.992   0.119 -4.2885 -0.0369 -0.3204
  545TMC3    C1 8083   4.722   3.898  17.605 -0.2998 -0.1428 -0.4599
  545TMC3    C2 8084   4.647   3.868  17.489  0.2093 -0.5480 -0.1060
  545TMC3    C3 8085   4.622   3.735  17.468 -0.3980  0.1519 -0.9574
  545TMC3    C4 8086   0.069   3.800  17.678  0.0126  0.1096 -0.0182
  545TMC3    C5 8087   0.050   3.669  17.632 -0.7366 -0.5109 -0.1997
  545TMC3    C6 8088   4.680   3.635  17.540  0.6747 -0.8692 -0.1173
  545TMC3     C 8089   0.050   4.034  17.611 -0.5807 -0.0415  0.0318
  545TMC3     O 8090   0.058   4.105  17.512 -0.2813 -0.1359 -0.2459
  545TMC3     H 8091   4.612   3.953  17.432 -0.4501 -1.2038 -0.6711
  545TMC3    H1 8092   0.144   3.831   0.058  1.2896  0.4927 -1.5105
  545TMC3    H2 8093   4.658   3.533  17.510 -0.5143  0.1271 -2.5812
  545TMC3    C7 8094   0.118   3.560   0.008  1.6110  0.2970  0.0797
  545TMC3    C8 8095   4.509   3.697  17.382 -0.3462 -0.0167  0.3818
  545TMC3    O1 8096   0.061   3.448   0.005  0.4993 -0.1685  0.4338
  545TMC3    O2 8097   4.465   3.584  17.399  0.1860 -0.1604 -0.4048
  546MPD2     C 8098   2.051   4.502  16.878 -0.3150 -0.8762 -0.1622
  546MPD2    C1 8099   1.965   4.590  16.947  0.2088 -0.1286 -0.7215
  546MPD2    C2 8100   2.019   4.715  16.965  0.1859  0.4214  0.9707
  546MPD2    C3 8101   2.143   0.036  16.922 -0.4284 -0.1858  0.7834
  546MPD2    C4 8102   2.231   4.671  16.863 -0.2066  0.2347 -0.6796
  546MPD2    C5 8103   2.181   4.544  16.845 -0.0740  0.3203 -0.3166
  546MPD2     H 8104   1.949   0.056  17.017  1.0397  1.1976  1.1718
  546MPD2    H1 8105   2.325   4.694  16.815  0.3860 -0.4755  0.1380
  546MPD2    H2 8106   2.032   4.399  16.852  1.2069 -1.4758  1.0594
  546MPD2    H3 8107   2.240   4.474  16.787 -0.7274  0.8671 -1.6532
  546MPD2     N 8108   2.190   0.167  16.947  0.3728  0.1593  0.4312
  546MPD2    H5 8109   2.281   0.191  16.908 -0.0180  1.0670  0.0516
  546MPD2    N1 8110   1.827   4.569  16.984 -0.4782  0.3101  0.8323
  546MPD2    H7 8111   1.774   4.640  17.034 -1.8506  1.3271 -2.1147
  547TMC3    C1 8112   1.621   4.466  16.984  0.4101 -0.1826 -0.0709
  547TMC3    C2 8113   1.516   4.450  16.897 -0.4276  0.3365  0.2802
  547TMC3    C3 8114   1.396   4.426  16.954 -0.2891 -0.5150  0.0220
  547TMC3    C4 8115   1.604   4.457  17.121 -0.0778 -0.1157  0.4033
  547TMC3    C5 8116   1.481   4.421  17.172 -0.0598  0.2890  0.8685
  547TMC3    C6 8117   1.376   4.405  17.086  0.2845  0.2955  0.5555
  547TMC3     C 8118   1.756   4.472  16.930  0.0603 -0.2455 -0.3788
  547TMC3     O 8119   1.783   4.392  16.846  0.6724  0.4715  0.2028
  547TMC3     H 8120   1.530   4.481  16.794 -3.9208  1.9464  0.2806
  547TMC3    H1 8121   1.685   4.472  17.191 -1.9238  0.2962  2.4769
  547TMC3    H2 8122   1.277   4.391  17.129  0.1697 -0.9397 -0.1030
  547TMC3    C7 8123   1.447   4.401  17.310  0.0255 -0.0878  0.1824
  547TMC3    C8 8124   1.279   4.441  16.869 -0.1141 -0.5762 -0.0168
  547TMC3    O1 8125   1.327   4.389  17.340  0.5137  0.3432 -0.0955
  547TMC3    O2 8126   1.180   4.476  16.933 -0.2483  0.2139 -0.4667
  548MPD2     C 8127   1.752   0.763  12.415 -0.3970  0.4903 -0.3145
  548MPD2    C1 8128   1.751   0.660  12.507 -0.6040  0.5439 -0.1023
  548MPD2    C2 8129   1.808   0.534  12.470 -0.2806  0.0718 -0.4817
  548MPD2    C3 8130   1.872   0.521  12.352  0.0495  0.1276  0.2537
  548MPD2    C4 8131   1.882   0.625  12.265 -0.6618  0.4405 -0.3378
  548MPD2    C5 8132   1.828   0.744  12.298 -0.2241 -0.0115  0.2188
  548MPD2     H 8133   1.806   0.458  12.547  0.3601 -0.2636 -0.7960
  548MPD2    H1 8134   1.948   0.633  12.180  1.0484  3.5404  1.2885
  548MPD2    H2 8135   1.713   0.863  12.430 -0.4469  0.9093 -3.1025
  548MPD2    H3 8136   1.835   0.827  12.228  1.0422 -0.8593 -0.6438
  548MPD2     N 8137   1.938   0.400  12.325  0.1855  0.4938 -0.0861
  548MPD2    H5 8138   1.956   0.332  12.398 -0.0159  0.1896 -0.3188
  548MPD2    N1 8139   1.679   0.686  12.623  0.2985  0.4775  0.0675
  548MPD2    H7 8140   1.609   0.759  12.614  0.4050  0.5325 -0.2831
  549TMC3    C1 8141   1.559   0.600  12.816  0.4932 -0.1064 -0.0476
  549TMC3    C2 8142   1.495   0.722  12.833  0.6561 -0.0873 -0.0003
  549TMC3    C3 8143   1.370   0.715  12.886  0.3456 -0.1262 -0.5650
  549TMC3    C4 8144   1.505   0.475  12.844 -0.0756 -0.5131  0.4285
  549TMC3    C5 8145   1.372   0.480  12.877 -0.5151 -0.0913 -0.3249
  549TMC3    C6 8146   1.304   0.597  12.904  0.8219  0.0742 -0.2852
  549TMC3     C 8147   1.673   0.593  12.724  0.4610  0.6804  0.2701
  549TMC3     O 8148   1.748   0.502  12.751  0.0863 -0.3041  0.7720
  549TMC3     H 8149   1.545   0.815  12.807  0.0173  0.3690  0.3997
  549TMC3    H1 8150   1.560   0.387  12.811 -0.1012 -0.7109  0.9094
  549TMC3    H2 8151   1.202   0.593  12.938  0.8063 -1.6790 -0.5280
  549TMC3    C7 8152   1.284   0.369  12.841 -0.0918  0.4052 -0.0281
  549TMC3    C8 8153   1.278   0.835  12.871 -0.3474  0.1642 -1.0190
  549TMC3    O1 8154   1.164   0.401  12.825  0.1671  0.2710  0.2053
  549TMC3    O2 8155   1.157   0.823  12.885  0.2459  0.1290  0.0488
  550TMC3    C1 8156   0.245   3.164  12.556 -0.1412 -0.3522  0.0719
  550TMC3    C2 8157   0.233   3.242  12.666  0.6117 -0.1241 -0.2887
  550TMC3    C3 8158   0.270   3.372  12.661  0.2138 -0.5470  0.5486
  550TMC3    C4 8159   0.320   3.207  12.445  0.5293  0.4514 -0.4560
  550TMC3    C5 8160   0.362   3.339  12.446 -0.2514 -0.6723  0.7250
  550TMC3    C6 8161   0.328   3.427  12.549 -0.3631  0.2558  0.4495
  550TMC3     C 8162   0.231   3.018  12.582  0.0037  0.2260 -0.1769
  550TMC3     O 8163   0.133   2.981  12.644 -0.2601  0.3405  0.2179
  550TMC3     H 8164   0.166   3.204  12.742 -0.1437  3.0394  0.6249
  550TMC3    H1 8165   0.336   3.152  12.353 -1.1551 -3.7888  1.7945
  550TMC3    H2 8166   0.343   3.535  12.544 -1.9899  0.4442 -0.2914
  550TMC3    C7 8167   0.364   3.400  12.314  0.4283  0.7964  0.6583
  550TMC3    C8 8168   0.221   3.475  12.752 -0.6421  0.5406  0.3796
  550TMC3    O1 8169   0.408   3.513  12.313  0.3209  0.1025  0.1475
  550TMC3    O2 8170   0.217   3.593  12.724 -0.2227 -0.1119  0.2586
  551TMC3    C1 8171   2.374   0.944  12.968  0.0585  0.9549  0.1024
  551TMC3    C2 8172   2.496   0.915  12.913  0.3896  0.5075 -0.0360
  551TMC3    C3 8173   2.593   0.864  12.985  0.6456  0.9330 -0.2541
  551TMC3    C4 8174   2.347   0.931  13.105 -0.2210 -0.0731  0.1157
  551TMC3    C5 8175   2.454   0.885  13.177 -0.5729  0.3070 -0.5728
  551TMC3    C6 8176   2.574   0.853  13.117 -0.3933  0.3429 -0.2769
  551TMC3     C 8177   2.268   0.978  12.875  0.0921  0.3673 -0.4985
  551TMC3     O 8178   2.280   0.959  12.756 -0.2500  0.2353  0.1826
  551TMC3     H 8179   2.518   0.925  12.808 -0.8000 -2.3921 -0.5587
  551TMC3    H1 8180   2.262   0.977  13.154 -0.0443 -0.6255  0.9457
  551TMC3    H2 8181   2.659   0.839  13.183 -2.9427  0.8561  3.1369
  551TMC3    C7 8182   2.490   0.959  13.299 -0.1984 -0.3632 -0.5840
  551TMC3    C8 8183   2.725   0.916  12.956 -0.5742  0.0860  0.3193
  551TMC3    O1 8184   2.538   0.905  13.401  0.2340  0.3968  0.7321
  551TMC3    O2 8185   2.823   0.849  12.986 -0.0364  0.7600 -0.4353
  552MPD2     C 8186   4.374   3.179  13.617  0.3416  0.5189 -0.9200
  552MPD2    C1 8187   4.412   3.061  13.675 -0.0067 -0.2253 -0.2788
  552MPD2    C2 8188   4.461   3.052  13.804 -0.3571 -0.4570  0.2888
  552MPD2    C3 8189   4.478   3.163  13.890 -0.7128 -0.2636  0.0860
  552MPD2    C4 8190   4.432   3.284  13.836 -0.4662  0.1875 -0.4697
  552MPD2    C5 8191   4.381   3.288  13.700 -0.6257  0.2816  0.4239
  552MPD2     H 8192   4.493   2.957  13.845 -0.7617 -1.0362 -0.7343
  552MPD2    H1 8193   4.445   3.381  13.883  0.3726 -0.7717  1.2653
  552MPD2    H2 8194   4.330   3.193  13.519 -1.6419 -1.0853 -0.2451
  552MPD2    H3 8195   4.355   3.384  13.658  0.7816  0.7547  0.6198
  552MPD2     N 8196   4.540   3.160  14.018  0.2903  0.5941 -0.1337
  552MPD2    H5 8197   4.536   3.247  14.070 -1.3599  0.2324  0.3260
  552MPD2    N1 8198   4.405   2.946  13.599  0.4048 -0.0363 -0.3405
  552MPD2    H7 8199   4.423   2.854  13.637 -1.8132  0.8983  2.9497
  553TMC3    C1 8200   4.342   2.814  13.431  0.5615  0.1295 -0.9179
  553TMC3    C2 8201   4.424   2.776  13.327  0.1489 -0.5057 -0.2019
  553TMC3    C3 8202   4.457   2.647  13.322  0.2103  0.5384  0.3831
  553TMC3    C4 8203   4.324   2.723  13.539  0.7209  1.0042 -0.0047
  553TMC3    C5 8204   4.391   2.609  13.542 -0.0006 -0.1969 -0.1113
  553TMC3    C6 8205   4.441   2.558  13.424  1.0036  0.2890  0.0674
  553TMC3     C 8206   4.367   2.941  13.467  0.4252  0.5233 -0.3579
  553TMC3     O 8207   4.359   3.026  13.378 -0.3237  0.0378  0.8205
  553TMC3     H 8208   4.442   2.846  13.246 -0.8272  1.7820  1.5278
  553TMC3    H1 8209   4.260   2.760  13.618 -1.0030 -1.0162 -0.4576
  553TMC3    H2 8210   4.484   2.458  13.424  0.3188 -0.0040 -1.8925
  553TMC3    C7 8211   4.477   2.601  13.661 -0.6276  0.3438 -0.6664
  553TMC3    C8 8212   4.581   2.627  13.252 -0.0807 -0.2552 -0.1054
  553TMC3    O1 8213   4.455   2.695  13.737 -0.1416  0.4312 -0.3119
  553TMC3    O2 8214   4.671   2.710  13.256  0.8231 -0.1863  0.1762
  554TMC3    C1 8215   1.533   2.364  11.528 -0.3414  0.5691  0.5789
  554TMC3    C2 8216   1.470   2.300  11.421 -0.0983  0.5895 -0.4244
  554TMC3    C3 8217   1.525   2.304  11.294 -0.9583  0.7303 -0.0921
  554TMC3    C4 8218   1.652   2.432  11.514  0.4193 -0.0575  0.4555
  554TMC3    C5 8219   1.704   2.435  11.386 -0.3327 -0.0501 -0.2370
  554TMC3    C6 8220   1.645   2.376  11.279  0.4809 -0.3943 -0.2713
  554TMC3     C 8221   1.485   2.320  11.662  0.3128 -0.7885  0.8711
  554TMC3     O 8222   1.379   2.259  11.668  0.5342  0.1288  0.1876
  554TMC3     H 8223   1.387   2.231  11.433 -0.8595  1.0046 -3.4220
  554TMC3    H1 8224   1.705   2.474  11.599  2.4538  0.4198 -1.0466
  554TMC3    H2 8225   1.677   2.387  11.176  0.2973  0.8702 -0.1932
  554TMC3    C7 8226   1.811   2.517  11.340  0.2406 -0.3409  0.5683
  554TMC3    C8 8227   1.440   2.309  11.181 -0.0471 -0.1276  0.2167
  554TMC3    O1 8228   1.876   2.473  11.247 -0.0226 -0.3507  0.2435
  554TMC3    O2 8229   1.497   2.320  11.071  0.4097 -0.5306  0.4121
  555TMC3    C1 8230   0.287   1.629  14.815 -0.0966  0.0824 -0.8990
  555TMC3    C2 8231   0.337   1.753  14.846 -0.8682 -0.1635 -0.1479
  555TMC3    C3 8232   0.418   1.765  14.957  0.1042 -0.5458 -0.0966
  555TMC3    C4 8233   0.320   1.522  14.899  0.0338 -0.4035 -0.7315
  555TMC3    C5 8234   0.393   1.545  15.017  0.8609  0.3093 -0.1363
  555TMC3    C6 8235   0.457   1.665  15.044 -0.1660 -0.2504 -0.2547
  555TMC3     C 8236   0.221   1.610  14.690 -0.1922  0.4300  0.4053
  555TMC3     O 8237   0.258   1.519  14.620  0.4909  0.3971  0.3275
  555TMC3     H 8238   0.335   1.829  14.768 -1.6806  0.7949  0.8237
  555TMC3    H1 8239   0.291   1.419  14.883  2.1774 -1.0137 -0.6903
  555TMC3    H2 8240   0.528   1.678  15.125 -0.4511  1.7728 -0.3170
  555TMC3    C7 8241   0.415   1.422  15.098  0.3913 -0.6253 -0.4349
  555TMC3    C8 8242   0.428   1.908  14.996 -0.1766  0.5722 -0.1577
  555TMC3    O1 8243   0.356   1.326  15.058  0.2452  0.0417 -0.0152
  555TMC3    O2 8244   0.339   1.980  14.950 -0.0873 -0.2263  0.1528
  556MPD2     C 8245   3.432   3.961  10.213 -0.1671  0.4914 -0.1538
  556MPD2    C1 8246   3.504   3.850  10.249 -1.1704 -0.0207  0.0825
  556MPD2    C2 8247   3.522   3.744  10.166  0.0152  1.0795  0.2848
  556MPD2    C3 8248   3.471   3.749  10.043  0.7547 -0.3276 -0.3630
  556MPD2    C4 8249   3.389   3.856  10.004  0.4475 -0.2540  0.4731
  556MPD2    C5 8250   3.364   3.960  10.096 -0.0519  0.3044 -0.0800
  556MPD2     H 8251   3.564   3.650  10.201 -2.0676 -0.7716 -2.1184
  556MPD2    H1 8252   3.338   3.863   9.908  0.6511  2.3142  0.5573
  556MPD2    H2 8253   3.418   4.048  10.276  0.8832  2.0630 -2.0813
  556MPD2    H3 8254   3.320   4.057  10.078  3.4827  1.8964 -0.2244
  556MPD2     N 8255   3.471   3.623   9.980 -0.3538  0.6407 -0.2413
  556MPD2    H5 8256   3.507   3.545  10.035 -1.2782 -1.2426 -2.3260
  556MPD2    N1 8257   3.568   3.839  10.374 -0.4949 -0.4764  0.1846
  556MPD2    H7 8258   3.612   3.751  10.396  1.4258  0.0257 -1.6535
  557TMC3    C1 8259   3.384   3.442   9.857 -0.0930 -0.2904 -0.3847
  557TMC3    C2 8260   3.312   3.396   9.750 -0.6809 -0.1155  0.3410
  557TMC3    C3 8261   3.291   3.261   9.751  0.4271 -0.1047  0.1034
  557TMC3    C4 8262   3.414   3.365   9.966  0.4603 -0.2136  0.1028
  557TMC3    C5 8263   3.372   3.231   9.965  0.2836 -0.2700  0.5020
  557TMC3    C6 8264   3.330   3.172   9.853  0.7890  0.0878 -0.3659
  557TMC3     C 8265   3.402   3.586   9.866  0.6148 -0.3418  0.1090
  557TMC3     O 8266   3.336   3.655   9.788 -0.1656  0.0923  0.3297
  557TMC3     H 8267   3.288   3.463   9.668  0.1917 -0.9633 -0.6258
  557TMC3    H1 8268   3.424   3.404  10.067  1.1764  0.2509 -0.1497
  557TMC3    H2 8269   3.287   3.073   9.851 -0.4697  0.6389 -0.4001
  557TMC3    C7 8270   3.391   3.155  10.085  0.2185 -0.0748 -0.2475
  557TMC3    C8 8271   3.228   3.210   9.631  0.0005 -0.5380  0.1302
  557TMC3    O1 8272   3.394   3.215  10.189 -0.1802 -0.2217 -0.6491
  557TMC3    O2 8273   3.161   3.293   9.574 -0.3751 -0.3887 -0.1257
  558TMC3    C1 8274   1.458   1.501  10.189  0.0244 -0.0794  0.0020
  558TMC3    C2 8275   1.339   1.511  10.260  0.8130  0.4213  0.0569
  558TMC3    C3 8276   1.219   1.500  10.195 -0.5189  0.4489 -0.2165
  558TMC3    C4 8277   1.455   1.497  10.052 -0.7262  0.0147 -0.0207
  558TMC3    C5 8278   1.334   1.500   9.986 -0.1130  0.3486  0.8070
  558TMC3    C6 8279   1.212   1.495  10.058 -0.1683 -0.5639 -0.1343
  558TMC3     C 8280   1.590   1.499  10.244 -0.6093 -0.6449 -0.4847
  558TMC3     O 8281   1.682   1.516  10.164  0.7379 -0.0499  0.2703
  558TMC3     H 8282   1.356   1.523  10.367 -0.5004  2.4088  0.0458
  558TMC3    H1 8283   1.545   1.475   9.996  0.8536  1.4373  1.9812
  558TMC3    H2 8284   1.115   1.486  10.008  0.4298  0.1870 -1.4449
  558TMC3    C7 8285   1.330   1.517   9.843  0.0655 -0.0350 -0.1474
  558TMC3    C8 8286   1.094   1.479  10.261  0.3116  0.8704  0.0812
  558TMC3    O1 8287   1.438   1.544   9.792  0.0816 -0.2401  0.5716
  558TMC3    O2 8288   0.995   1.504  10.201  0.0147  0.5215 -0.7602
  559MPD2     C 8289   1.729   1.863  10.446 -0.2068 -0.7829  0.6848
  559MPD2    C1 8290   1.661   1.829  10.559 -0.2418 -0.0709  0.0641
  559MPD2    C2 8291   1.737   1.782  10.661  0.3031  0.1794 -0.1927
  559MPD2    C3 8292   1.871   1.753  10.660 -0.4831 -0.2077 -0.0321
  559MPD2    C4 8293   1.935   1.786  10.539 -0.2274 -0.8261  0.5929
  559MPD2    C5 8294   1.864   1.843  10.434  0.3217  0.9738  0.5412
  559MPD2     H 8295   1.688   1.751  10.752 -0.0621 -1.6113 -1.0047
  559MPD2    H1 8296   2.040   1.763  10.525  0.2791  1.6740  0.2431
  559MPD2    H2 8297   1.673   1.910  10.366  0.9933 -2.3877 -1.1024
  559MPD2    H3 8298   1.917   1.873  10.344 -0.7842 -0.0929 -0.4624
  559MPD2     N 8299   1.931   1.699  10.777 -0.1674 -0.0141  0.3603
  559MPD2    H5 8300   1.863   1.671  10.847 -1.2726  0.9260 -0.3347
  559MPD2    N1 8301   1.521   1.857  10.570  0.5539 -0.0321  0.3614
  559MPD2    H7 8302   1.472   1.897  10.491  1.0822  2.7449  1.4439
  560TMC3    C1 8303   2.081   1.610  10.929 -0.1058 -0.6507  0.6387
  560TMC3    C2 8304   2.003   1.507  10.965  0.3782  0.3101  0.1150
  560TMC3    C3 8305   1.996   1.469  11.100  0.3651  0.5990  0.2391
  560TMC3    C4 8306   2.154   1.679  11.024  0.0377  0.1362 -0.4600
  560TMC3    C5 8307   2.132   1.646  11.154 -0.4016 -0.4467 -0.2653
  560TMC3    C6 8308   2.068   1.532  11.197 -1.1467 -0.6967 -0.5730
  560TMC3     C 8309   2.064   1.671  10.797  0.4672 -0.2194  0.4992
  560TMC3     O 8310   2.156   1.723  10.733  0.3409  0.1011  0.0366
  560TMC3     H 8311   1.926   1.471  10.898  2.6529  0.8135 -2.7377
  560TMC3    H1 8312   2.205   1.770  10.993 -1.2440  0.7764 -0.7271
  560TMC3    H2 8313   2.044   1.518  11.302 -3.2775  0.6659 -0.8758
  560TMC3    C7 8314   2.181   1.736  11.259  0.8718  0.4987  0.8546
  560TMC3    C8 8315   1.883   1.379  11.141 -0.4999  0.0762  0.5516
  560TMC3    O1 8316   2.141   1.709  11.375 -0.2585 -0.3312  0.2698
  560TMC3    O2 8317   1.798   1.366  11.055  0.0543  0.5347 -0.1045
  561TMC3    C1 8318   4.257   0.664  11.357 -0.0291 -0.1892  0.0819
  561TMC3    C2 8319   4.153   0.612  11.431  0.0408 -0.7988 -0.1862
  561TMC3    C3 8320   4.105   0.675  11.543  0.3379 -0.1053 -0.1446
  561TMC3    C4 8321   4.297   0.796  11.364  0.6365  0.3742  0.7965
  561TMC3    C5 8322   4.254   0.860  11.477 -0.1329  0.3185  0.5271
  561TMC3    C6 8323   4.156   0.805  11.559  0.1844  0.1725  1.0199
  561TMC3     C 8324   4.291   0.582  11.244  0.1418 -0.5692 -0.6955
  561TMC3     O 8325   4.252   0.467  11.248  0.0210  0.2014  0.7028
  561TMC3     H 8326   4.107   0.515  11.419 -0.2402 -0.7598  0.5565
  561TMC3    H1 8327   4.375   0.835  11.299 -0.3143 -0.9814 -1.1326
  561TMC3    H2 8328   4.123   0.856  11.649  0.3113  0.5143  0.8700
  561TMC3    C7 8329   4.325   0.969  11.537 -0.2429  0.0941 -0.2343
  561TMC3    C8 8330   4.025   0.601  11.647  0.0816  0.4175  0.4639
  561TMC3    O1 8331   4.315   0.989  11.659 -0.9827 -0.4258  0.0764
  561TMC3    O2 8332   4.039   0.484  11.654 -0.9574  0.7984  0.3258
  562TMC3    C1 8333   0.425   2.250  16.133  0.4376  0.0436  0.0586
  562TMC3    C2 8334   0.364   2.367  16.101  0.1654 -0.2473  0.2962
  562TMC3    C3 8335   0.357   2.397  15.965 -0.6390  0.7055  0.4454
  562TMC3    C4 8336   0.480   2.167  16.032 -0.3040  0.0789 -0.2153
  562TMC3    C5 8337   0.479   2.207  15.905  0.7997  0.4224 -0.0522
  562TMC3    C6 8338   0.422   2.323  15.873 -0.9037 -0.4818  0.2342
  562TMC3     C 8339   0.431   2.212  16.275  0.2520  0.2958 -0.2354
  562TMC3     O 8340   0.501   2.111  16.300  0.0835  0.2058  0.4676
  562TMC3     H 8341   0.318   2.434  16.172 -0.0944  1.0396 -1.0859
  562TMC3    H1 8342   0.511   2.066  16.052 -1.7035 -0.9053 -2.8966
  562TMC3    H2 8343   0.416   2.354  15.769 -0.0230 -2.6455 -0.4607
  562TMC3    C7 8344   0.500   2.116  15.799 -0.0624  0.6985  0.4785
  562TMC3    C8 8345   0.267   2.509  15.931 -0.2149 -0.4295  0.5883
  562TMC3    O1 8346   0.426   2.123  15.704  0.2750 -0.4587 -0.3199
  562TMC3    O2 8347   0.249   2.603  16.008  0.0069  0.0563  0.4170
  563MPD2     C 8348   2.557   3.235  15.476 -0.2417  0.6503 -0.4187
  563MPD2    C1 8349   2.594   3.298  15.593 -0.0042  0.4109  0.0122
  563MPD2    C2 8350   2.687   3.247  15.675 -0.0348 -0.3515  0.1394
  563MPD2    C3 8351   2.755   3.129  15.636 -0.2773  0.1352  0.0414
  563MPD2    C4 8352   2.713   3.062  15.523  0.1998  0.2146 -0.4991
  563MPD2    C5 8353   2.609   3.117  15.447 -0.2975 -0.3525 -0.8924
  563MPD2     H 8354   2.705   3.299  15.769 -3.1447 -0.2154  0.6668
  563MPD2    H1 8355   2.761   2.979  15.473 -0.2323  0.3739 -1.1848
  563MPD2    H2 8356   2.496   3.280  15.398  1.9155  2.0453 -1.3060
  563MPD2    H3 8357   2.580   3.066  15.356  0.8970 -0.0870 -1.4321
  563MPD2     N 8358   2.851   3.067  15.723 -0.0831  0.3669 -0.7343
  563MPD2    H5 8359   2.855   3.119  15.811 -2.9827  0.2254 -0.5269
  563MPD2    N1 8360   2.534   3.425  15.626 -0.4793  0.5589 -0.4547
  563MPD2    H7 8361   2.452   3.447  15.571 -1.2788 -1.3930 -0.0294
  564TMC3    C1 8362   2.498   3.574  15.811  0.4343 -0.2149 -0.4749
  564TMC3    C2 8363   2.379   3.512  15.784  0.2325 -0.7177  0.1000
  564TMC3    C3 8364   2.314   3.446  15.887 -0.2610 -0.7373 -0.7354
  564TMC3    C4 8365   2.553   3.564  15.937  0.4676 -0.2831 -0.4148
  564TMC3    C5 8366   2.506   3.481  16.027  0.3657  0.1576 -0.4468
  564TMC3    C6 8367   2.385   3.415  16.004  0.2054 -0.4337 -0.6647
  564TMC3     C 8368   2.589   3.514  15.722 -0.5249 -0.0471 -0.2563
  564TMC3     O 8369   2.701   3.513  15.771  0.5396 -0.5172 -0.4205
  564TMC3     H 8370   2.332   3.539  15.690  1.2055 -1.4481 -0.6013
  564TMC3    H1 8371   2.649   3.613  15.954 -0.3919  1.4322 -0.5269
  564TMC3    H2 8372   2.331   3.357  16.079  1.5595  1.0016  1.4028
  564TMC3    C7 8373   2.594   3.387  16.092  0.1365 -0.5214 -0.1863
  564TMC3    C8 8374   2.223   3.338  15.850  0.2411  0.5583 -0.0527
  564TMC3    O1 8375   2.706   3.422  16.137 -0.3329 -0.2086  0.6432
  564TMC3    O2 8376   2.200   3.250  15.934  0.1318  0.6796 -0.6030
  565TMC3    C1 8377   3.064   0.218   9.810 -0.7269  0.0307  0.4542
  565TMC3    C2 8378   3.174   0.176   9.881 -0.3625  0.9670  0.3573
  565TMC3    C3 8379   3.159   0.055   9.938 -0.0946  0.1569 -0.5363
  565TMC3    C4 8380   2.964   0.135   9.778 -0.1334 -0.8048  0.0903
  565TMC3    C5 8381   2.965   0.006   9.821  0.1311 -0.4021 -0.2489
  565TMC3    C6 8382   3.055   4.691   9.910 -0.1481  0.4949  0.0379
  565TMC3     C 8383   3.086   0.336   9.721 -0.0083 -0.0126 -0.4755
  565TMC3     O 8384   2.980   0.389   9.687 -0.2480 -0.2261  1.0834
  565TMC3     H 8385   3.255   0.244   9.905 -1.5957  2.2880  0.7834
  565TMC3    H1 8386   2.887   0.170   9.710  0.5604  1.2445  0.3331
  565TMC3    H2 8387   3.044   4.612   9.983  0.6718  1.4368  1.1725
  565TMC3    C7 8388   2.879   4.626   9.765 -0.2765  0.0038 -0.2496
  565TMC3    C8 8389   3.257   0.009  10.033  0.1202  0.1878  0.9750
  565TMC3    O1 8390   2.896   4.508   9.792  0.1664 -0.3178  0.0503
  565TMC3    O2 8391   3.299   0.096  10.111 -0.0609  0.3942 -0.5851
  566MPD2     C 8392   0.003   1.779  14.109  0.2580 -0.4300 -0.3240
  566MPD2    C1 8393   0.004   1.639  14.105  0.0316  0.2805 -0.6128
  566MPD2    C2 8394   4.629   1.574  14.034  0.5161  0.3898  0.0407
  566MPD2    C3 8395   4.535   1.647  13.969  0.1362  0.3253 -1.0895
  566MPD2    C4 8396   4.524   1.786  13.986  0.2607  0.0202  0.6131
  566MPD2    C5 8397   4.622   1.851  14.060 -0.8832  0.3005  0.3374
  566MPD2     H 8398   4.649   1.468  14.017  0.3450  0.6102 -1.5724
  566MPD2    H1 8399   4.456   1.845  13.926 -1.1382 -0.6359  1.5400
  566MPD2    H2 8400   0.078   1.833  14.165  1.5021 -0.2868 -2.1128
  566MPD2    H3 8401   4.640   1.957  14.068  2.0797 -0.1459 -0.5477
  566MPD2     N 8402   4.441   1.577  13.884  0.1548 -0.0460  0.1516
  566MPD2    H5 8403   4.359   1.625  13.849  0.1333 -0.3024 -0.1563
  566MPD2    N1 8404   0.125   1.573  14.158  0.0657 -0.2891  0.2055
  566MPD2    H7 8405   0.200   1.632  14.193  0.4641 -0.2612 -0.6739
  567TMC3    C1 8406   0.269   1.397  14.201  0.4624 -0.0748  0.1574
  567TMC3    C2 8407   0.369   1.466  14.138  0.1435 -0.1806  0.0588
  567TMC3    C3 8408   0.493   1.416  14.145 -0.4669 -0.2074  0.4411
  567TMC3    C4 8409   0.288   1.271  14.258  0.2250  0.6664  0.5172
  567TMC3    C5 8410   0.414   1.220  14.255 -0.1851 -0.4216 -0.0979
  567TMC3    C6 8411   0.517   1.288  14.193  0.2778  0.2451 -0.3975
  567TMC3     C 8412   0.134   1.434  14.182 -1.1125 -0.1132 -0.7287
  567TMC3     O 8413   0.046   1.348  14.193 -0.3524 -0.0776 -0.0627
  567TMC3     H 8414   0.351   1.557  14.081 -0.6010 -0.1752  0.3009
  567TMC3    H1 8415   0.203   1.220  14.302  0.2458  0.7191  0.6179
  567TMC3    H2 8416   0.613   1.238  14.195  0.1404  0.0170  0.5432
  567TMC3    C7 8417   0.446   1.108  14.352  0.2510 -0.0289  0.7019
  567TMC3    C8 8418   0.568   1.468  14.037  0.4654  0.4161  0.1789
  567TMC3    O1 8419   0.565   1.091  14.383  0.0210  0.0923 -0.1166
  567TMC3    O2 8420   0.503   1.495  13.934 -0.7684  0.2204  0.4503
  568MPD2     C 8421   2.158   1.935  16.128 -0.0673  0.3231 -0.2297
  568MPD2    C1 8422   2.174   2.029  16.226 -1.0132  0.2200  0.5568
  568MPD2    C2 8423   2.183   2.160  16.180 -0.2535  0.2204  0.0714
  568MPD2    C3 8424   2.179   2.190  16.046  0.3043  0.1336 -1.0011
  568MPD2    C4 8425   2.168   2.093  15.951  0.7691  0.5601  0.7158
  568MPD2    C5 8426   2.148   1.964  15.998 -0.7090 -1.1815  0.2081
  568MPD2     H 8427   2.194   2.243  16.249 -0.2728 -0.4947  0.9395
  568MPD2    H1 8428   2.160   2.115  15.845 -1.4422  0.8267  0.9498
  568MPD2    H2 8429   2.164   1.831  16.156 -2.2329  0.8680  2.3366
  568MPD2    H3 8430   2.145   1.882  15.927  1.1457 -0.2921 -0.8933
  568MPD2     N 8431   2.197   2.330  16.009 -0.2757  0.0732 -0.0309
  568MPD2    H5 8432   2.218   2.402  16.078 -1.2047  0.1240  0.1994
  568MPD2    N1 8433   2.195   1.984  16.361 -0.7488  0.2015  0.3032
  568MPD2    H7 8434   2.219   1.885  16.362  2.2632  0.9543  1.7100
  569TMC3    C1 8435   2.265   2.490  15.850  0.0883  0.2037 -0.7445
  569TMC3    C2 8436   2.335   2.560  15.953  0.4161 -0.7080 -0.4533
  569TMC3    C3 8437   2.393   2.681  15.923  0.4908 -0.3948 -0.2104
  569TMC3    C4 8438   2.271   2.529  15.721  0.8484  1.0009 -0.6503
  569TMC3    C5 8439   2.331   2.648  15.698 -0.3516  0.6276 -0.1830
  569TMC3    C6 8440   2.405   2.715  15.794 -0.3673  0.7002  0.1520
  569TMC3     C 8441   2.178   2.381  15.886  0.4347  0.1057  0.2456
  569TMC3     O 8442   2.111   2.337  15.795  0.1130  0.1302 -0.1704
  569TMC3     H 8443   2.316   2.527  16.054  2.1206  0.7198  0.3300
  569TMC3    H1 8444   2.228   2.471  15.641  0.5650  2.3732 -1.4952
  569TMC3    H2 8445   2.475   2.790  15.760  2.5527 -3.1656 -2.3300
  569TMC3    C7 8446   2.269   2.736  15.598 -0.6007 -0.2409 -0.3089
  569TMC3    C8 8447   2.369   2.796  16.000 -0.2173 -0.7675  0.3627
  569TMC3    O1 8448   2.220   2.694  15.495 -0.0941  0.0226  0.4246
  569TMC3    O2 8449   2.334   2.888  15.926  0.0108 -0.2156 -0.6903
  570TMC3    C1 8450   1.569   0.713  16.144 -0.4613  0.5244  0.0286
  570TMC3    C2 8451   1.688   0.692  16.082  0.3514 -0.0057 -0.4533
  570TMC3    C3 8452   1.728   0.790  15.997  0.7187 -0.7903 -0.0942
  570TMC3    C4 8453   1.490   0.820  16.139  0.4301 -0.5768  0.8824
  570TMC3    C5 8454   1.538   0.920  16.065 -0.4063  0.4908 -0.4030
  570TMC3    C6 8455   1.656   0.906  15.997  0.0983 -0.1414  0.3331
  570TMC3     C 8456   1.538   0.606  16.238  0.0838 -0.8848  1.2886
  570TMC3     O 8457   1.583   0.497  16.220 -0.5117 -0.2592  0.6211
  570TMC3     H 8458   1.741   0.598  16.091  2.1924  0.9698 -1.1741
  570TMC3    H1 8459   1.395   0.822  16.192  0.2755  1.3021  0.5368
  570TMC3    H2 8460   1.702   0.990  15.945  0.4497 -0.5034  0.0586
  570TMC3    C7 8461   1.499   1.057  16.097 -0.9392 -0.3201 -0.4543
  570TMC3    C8 8462   1.873   0.811  15.983 -0.1876  0.0676 -0.4799
  570TMC3    O1 8463   1.456   1.070  16.211 -0.4203 -0.2634 -0.3758
  570TMC3    O2 8464   1.909   0.926  15.992 -0.1210 -0.1129 -0.2070
  571MPD2     C 8465   4.712   3.296  16.992 -0.9558 -0.1526 -0.4083
  571MPD2    C1 8466   4.630   3.189  17.000 -0.2924 -0.3391 -0.2492
  571MPD2    C2 8467   4.516   3.203  17.083  0.2749 -0.1518 -0.5766
  571MPD2    C3 8468   4.500   3.307  17.167  0.0464  0.0375  0.5528
  571MPD2    C4 8469   4.587   3.416  17.157 -0.2083 -0.0810 -0.4863
  571MPD2    C5 8470   4.688   3.410  17.066 -0.1265 -0.0264  0.1388
  571MPD2     H 8471   4.446   3.120  17.083 -0.3311  0.3630 -0.8905
  571MPD2    H1 8472   4.576   3.505  17.217 -0.6437  0.6055 -1.5907
  571MPD2    H2 8473   0.087   3.294  16.945 -0.0149 -2.9188  1.6635
  571MPD2    H3 8474   0.020   3.503  17.052  1.6709 -0.5663  3.5200
  571MPD2     N 8475   4.411   3.318  17.281 -0.3849  0.1595 -0.3885
  571MPD2    H5 8476   4.417   3.410  17.322  0.8697 -0.0129 -0.2013
  571MPD2    N1 8477   4.655   3.089  16.907 -0.2570  0.4497 -0.4855
  571MPD2    H7 8478   0.017   3.101  16.853 -0.0236 -2.4718 -0.7914
  572TMC3    C1 8479   4.246   3.248  17.437  0.6965  0.1651  0.2791
  572TMC3    C2 8480   4.140   3.167  17.469 -0.1254  0.6655 -0.2144
  572TMC3    C3 8481   4.051   3.201  17.567  0.0466 -0.1534  0.1708
  572TMC3    C4 8482   4.282   3.342  17.531 -0.3883  0.3111 -0.4428
  572TMC3    C5 8483   4.194   3.380  17.630  0.0326  0.1029 -0.4727
  572TMC3    C6 8484   4.080   3.309  17.649 -0.4431 -0.6154 -0.3517
  572TMC3     C 8485   4.327   3.215  17.325 -0.1564 -0.2851  0.1573
  572TMC3     O 8486   4.304   3.106  17.276 -0.3156  0.0860 -0.0993
  572TMC3     H 8487   4.104   3.095  17.397  0.5610 -0.5396  0.6612
  572TMC3    H1 8488   4.367   3.403  17.505 -0.3114  0.2166 -0.4096
  572TMC3    H2 8489   4.005   3.342   0.028 -1.0473 -0.4207 -1.0757
  572TMC3    C7 8490   4.166   3.521  17.627  0.3019  0.3765 -0.5348
  572TMC3    C8 8491   3.939   3.115  17.584 -0.0421 -0.7644  0.2257
  572TMC3    O1 8492   4.048   3.553  17.640 -0.0595 -0.1463 -0.5483
  572TMC3    O2 8493   3.938   3.002  17.536  0.4930 -0.1987  0.3168
  573MPD2     C 8494   1.564   3.863   0.739  0.2676  0.1934  0.0726
  573MPD2    C1 8495   1.455   3.806   0.800  1.0760  0.0521  0.5485
  573MPD2    C2 8496   1.369   3.736   0.725  0.4463 -0.4605  0.4028
  573MPD2    C3 8497   1.395   3.704   0.596 -0.1706  1.0753  0.3264
  573MPD2    C4 8498   1.509   3.752   0.532  0.5098  0.9616 -0.3473
  573MPD2    C5 8499   1.589   3.832   0.607 -0.3674  0.2026 -0.2370
  573MPD2     H 8500   1.279   3.706   0.777 -0.5512 -0.4847 -1.3639
  573MPD2    H1 8501   1.530   3.741   0.426 -1.2656 -0.7470 -0.5364
  573MPD2    H2 8502   1.638   3.925   0.788  0.0894  1.9349 -1.8884
  573MPD2    H3 8503   1.679   3.873   0.563 -0.3803 -0.1578 -0.6080
  573MPD2     N 8504   1.309   3.639   0.509  0.4393 -0.4786  0.1760
  573MPD2    H5 8505   1.343   3.622   0.415  0.0259 -2.7362  0.4365
  573MPD2    N1 8506   1.444   3.817   0.944  0.2353 -0.1340 -0.1279
  573MPD2    H7 8507   1.521   3.862   0.992 -1.5038  1.6812  0.9637
  574TMC3    C1 8508   1.111   3.605   0.402  0.8349  0.2322  0.3607
  574TMC3    C2 8509   0.989   3.548   0.417  0.2926  0.2462  0.3190
  574TMC3    C3 8510   0.897   3.573   0.320  0.0532 -0.6074 -0.5200
  574TMC3    C4 8511   1.139   3.702   0.308  0.0874 -0.4510 -0.5473
  574TMC3    C5 8512   1.032   3.740   0.223  0.3301  0.5403 -0.4344
  574TMC3    C6 8513   0.911   3.677   0.235 -0.0438 -0.3953  0.3282
  574TMC3     C 8514   1.174   3.618   0.532  0.1801  0.1660 -0.6208
  574TMC3     O 8515   1.115   3.608   0.637 -0.2975  0.4127  0.0968
  574TMC3     H 8516   0.971   3.473   0.494  0.3958  0.5798  0.6665
  574TMC3    H1 8517   1.217   3.776   0.319 -0.4573  0.1115 -0.4683
  574TMC3    H2 8518   0.840   3.689   0.154  1.0607 -3.5533 -1.1088
  574TMC3    C7 8519   1.056   3.846   0.131  0.1643 -0.4410 -0.3471
  574TMC3    C8 8520   0.773   3.505   0.332 -0.1230 -0.9652  1.0430
  574TMC3    O1 8521   1.169   3.888   0.123  0.1059  0.2567  0.3174
  574TMC3    O2 8522   0.767   3.419   0.415  0.1735  0.1319  0.2079
  575TMC3    C1 8523   3.619   4.651  10.846 -0.5775  0.3970 -0.2946
  575TMC3    C2 8524   3.611   4.533  10.915 -0.1548 -0.5873  0.3540
  575TMC3    C3 8525   3.565   4.427  10.852  0.1506 -0.3057  0.0663
  575TMC3    C4 8526   3.589   4.658  10.714 -0.4127  0.1839 -0.2820
  575TMC3    C5 8527   3.546   4.549  10.649  0.5369  0.2974  1.2002
  575TMC3    C6 8528   3.529   4.432  10.717  0.0400 -0.0960 -0.2945
  575TMC3     C 8529   3.687   0.038  10.911  0.5038  0.2829 -0.9482
  575TMC3     O 8530   3.765   0.099  10.839  0.0062  0.7022  0.3982
  575TMC3     H 8531   3.650   4.525  11.016  0.9410 -0.9696 -0.1020
  575TMC3    H1 8532   3.613   0.025  10.658 -0.5292  2.0292  2.6105
  575TMC3    H2 8533   3.499   4.339  10.671  0.1193 -0.2683  0.0052
  575TMC3    C7 8534   3.487   4.562  10.521  0.0377 -0.1308  0.2723
  575TMC3    C8 8535   3.551   4.300  10.928  0.2427  0.1594  0.5262
  575TMC3    O1 8536   3.423   4.663  10.508 -0.8843 -0.0787  0.3698
  575TMC3    O2 8537   3.539   4.195  10.865  0.1566 -0.4168  0.6368
  576MPD2     C 8538   2.885   1.007  12.374  0.5206  0.0368 -0.4434
  576MPD2    C1 8539   2.975   1.109  12.394  0.4096 -0.1456 -0.7977
  576MPD2    C2 8540   2.931   1.234  12.444  0.3711 -0.6470 -0.7954
  576MPD2    C3 8541   2.800   1.259  12.474  0.4761 -0.1924  0.5719
  576MPD2    C4 8542   2.712   1.157  12.448 -0.4570  0.2172 -0.5337
  576MPD2    C5 8543   2.749   1.036  12.391 -0.1263 -0.1751 -0.3435
  576MPD2     H 8544   3.000   1.317  12.455  1.1897 -1.8331  3.0658
  576MPD2    H1 8545   2.606   1.169  12.468 -1.5912 -3.0944 -4.5427
  576MPD2    H2 8546   2.907   0.904  12.347  0.5449 -0.1285  0.2039
  576MPD2    H3 8547   2.672   0.965  12.366 -0.1917  0.0290 -0.7167
  576MPD2     N 8548   2.763   1.391  12.518  0.2478  0.1152 -0.3536
  576MPD2    H5 8549   2.841   1.456  12.523  0.3947 -0.1241  0.5706
  576MPD2    N1 8550   3.118   1.092  12.376 -0.1677  0.6071 -0.3007
  576MPD2    H7 8551   3.164   1.181  12.388  1.5634 -0.4373  0.8540
  577TMC3    C1 8552   3.323   0.981  12.331  0.1431  0.2574 -0.2268
  577TMC3    C2 8553   3.388   0.862  12.301  0.0469  0.3011  0.1879
  577TMC3    C3 8554   3.504   0.864  12.233 -0.4786  0.2001  0.1571
  577TMC3    C4 8555   3.386   1.106  12.294 -0.2240  0.0739 -0.3213
  577TMC3    C5 8556   3.515   1.099  12.249 -0.1153 -0.6255  0.0563
  577TMC3    C6 8557   3.572   0.981  12.210 -0.1095 -0.7091  0.2003
  577TMC3     C 8558   3.186   0.970  12.362  1.2889 -0.7137 -0.2664
  577TMC3     O 8559   3.137   0.861  12.353 -0.3950  0.1801  0.1933
  577TMC3     H 8560   3.341   0.768  12.326  1.1970 -0.4634 -0.5299
  577TMC3    H1 8561   3.340   1.203  12.309  1.6975  1.3644 -2.7812
  577TMC3    H2 8562   3.679   0.984  12.191  0.3485 -0.1338  2.9582
  577TMC3    C7 8563   3.567   1.218  12.192 -0.2470 -0.2659 -0.3277
  577TMC3    C8 8564   3.553   0.745  12.183  0.3352  0.0591  0.2818
  577TMC3    O1 8565   3.687   1.219  12.175 -0.0489  0.1638  0.8977
  577TMC3    O2 8566   3.519   0.636  12.239 -0.1835  0.4997  0.0313
  578MPD2     C 8567   1.162   1.450   1.172 -0.0238  0.4279  0.0297
  578MPD2    C1 8568   1.283   1.376   1.147 -0.2602 -0.0504 -0.1802
  578MPD2    C2 8569   1.361   1.348   1.257 -0.7903  0.2745 -0.4344
  578MPD2    C3 8570   1.309   1.383   1.388 -0.1805  0.4325  0.0070
  578MPD2    C4 8571   1.195   1.464   1.410  0.0974 -0.3434 -0.0429
  578MPD2    C5 8572   1.119   1.490   1.295  0.3790 -0.4096 -0.2332
  578MPD2     H 8573   1.450   1.286   1.252 -1.2193 -0.3341 -0.4717
  578MPD2    H1 8574   1.156   1.493   1.507 -0.2057 -1.4712  0.1764
  578MPD2    H2 8575   1.096   1.476   1.091  0.1403 -2.6020 -1.0893
  578MPD2    H3 8576   1.024   1.543   1.303  0.8366  0.4200 -0.3258
  578MPD2     N 8577   1.391   1.340   1.493  0.1756  0.4469  0.1682
  578MPD2    H5 8578   1.475   1.292   1.463  0.4239  0.7671  0.3470
  578MPD2    N1 8579   1.304   1.325   1.013 -0.1651 -0.2237  0.5191
  578MPD2    H7 8580   1.225   1.336   0.950  1.2364  1.1656 -0.9921
  579TMC3    C1 8581   1.463   1.246   1.697  0.1615  0.0488 -0.1263
  579TMC3    C2 8582   1.522   1.271   1.818 -0.0233  0.6564 -0.2223
  579TMC3    C3 8583   1.625   1.185   1.852  0.1187 -0.1104 -0.5496
  579TMC3    C4 8584   1.495   1.137   1.619  0.0769 -0.2726  0.1392
  579TMC3    C5 8585   1.581   1.046   1.675  0.2058  0.4972 -0.4458
  579TMC3    C6 8586   1.662   1.069   1.779 -0.0446  0.0854 -0.5037
  579TMC3     C 8587   1.376   1.346   1.633  0.0587 -0.3965 -0.5696
  579TMC3     O 8588   1.316   1.426   1.703 -0.5593 -0.3368  0.4533
  579TMC3     H 8589   1.515   1.367   1.868 -1.9256 -0.1066  0.9605
  579TMC3    H1 8590   1.441   1.116   1.527  0.2998  0.1389 -0.0860
  579TMC3    H2 8591   1.747   1.005   1.804  0.3557  1.1995  0.9695
  579TMC3    C7 8592   1.636   0.945   1.572 -1.0501  0.1658  0.1022
  579TMC3    C8 8593   1.728   1.227   1.942  0.2897 -0.8394 -0.2790
  579TMC3    O1 8594   1.743   0.885   1.600 -0.0705  0.3615  0.1354
  579TMC3    O2 8595   1.690   1.295   2.032  0.3264  0.4501 -0.4514
  580TMC3    C1 8596   0.711   0.043  12.018  0.5433  0.7183  0.2045
  580TMC3    C2 8597   0.731   0.061  11.883  0.1390  0.6396  0.2548
  580TMC3    C3 8598   0.828   4.712  11.821  0.0204 -0.1461  0.6103
  580TMC3    C4 8599   0.780   4.670  12.087 -0.6526 -0.3885 -0.7838
  580TMC3    C5 8600   0.870   4.592  12.018 -0.1690  0.2031  0.0450
  580TMC3    C6 8601   0.908   4.622  11.889 -0.3413  0.1090  0.6770
  580TMC3     C 8602   0.695   0.165  12.093  0.5663  0.2855  0.5429
  580TMC3     O 8603   0.660   0.151  12.211  0.1303 -0.1210  0.2196
  580TMC3     H 8604   0.671   0.133  11.828  1.8651  1.1077 -1.0157
  580TMC3    H1 8605   0.741   4.653  12.186  0.0231 -0.5509 -0.5471
  580TMC3    H2 8606   0.993   4.579  11.839 -2.4716  0.3435 -3.1387
  580TMC3    C7 8607   0.935   4.489  12.086 -0.1226 -0.3899 -0.2829
  580TMC3    C8 8608   0.876   0.055  11.704  0.3622  0.1055 -0.4247
  580TMC3    O1 8609   0.928   4.486  12.209 -0.5092 -0.5904  0.4403
  580TMC3    O2 8610   0.791   0.102  11.630 -0.0452 -0.3840 -0.2638
  581MPD2     C 8611   3.996   4.265  14.397  0.0197 -0.3686  0.1637
  581MPD2    C1 8612   3.874   4.236  14.450  0.7253  0.1690 -0.0925
  581MPD2    C2 8613   3.767   4.291  14.379  0.2600  0.8077  0.1019
  581MPD2    C3 8614   3.782   4.370  14.264 -0.7278 -0.4147  0.4061
  581MPD2    C4 8615   3.908   4.387  14.217 -0.4761  0.9981  0.6477
  581MPD2    C5 8616   4.016   4.341  14.285 -0.3752  0.5758 -0.7201
  581MPD2     H 8617   3.669   4.286  14.427  0.9378  0.1444  1.4289
  581MPD2    H1 8618   3.930   4.456  14.136 -2.7347  0.4410 -0.4492
  581MPD2    H2 8619   4.080   4.232  14.458  1.0975  2.8365  0.3851
  581MPD2    H3 8620   4.110   4.372  14.242  1.2278 -0.3479  2.1426
  581MPD2     N 8621   3.666   4.424  14.205  0.0256 -0.4019  0.7446
  581MPD2    H5 8622   3.574   4.391  14.232  0.2049  0.2092  2.0776
  581MPD2    N1 8623   3.858   4.177  14.577 -0.2739 -0.6119 -0.2322
  581MPD2    H7 8624   3.937   4.156  14.637 -0.9255 -3.1672 -0.2539
  582TMC3    C1 8625   3.708   4.104  14.750  0.1705  0.5241 -0.2575
  582TMC3    C2 8626   3.810   4.116  14.847  0.0282 -0.1370 -0.0866
  582TMC3    C3 8627   3.777   4.097  14.976  0.5123  0.1193 -0.0646
  582TMC3    C4 8628   3.577   4.073  14.778  0.1123 -0.6901  0.2334
  582TMC3    C5 8629   3.551   4.056  14.910  1.2479 -0.4047  0.0950
  582TMC3    C6 8630   3.647   4.066  15.008  0.0515  0.2868 -0.6366
  582TMC3     C 8631   3.738   4.115  14.611 -0.5086  0.3009  1.0268
  582TMC3     O 8632   3.648   4.075  14.539 -0.3637  0.5137 -0.1270
  582TMC3     H 8633   3.914   4.136  14.825 -0.2912  0.6807 -0.8317
  582TMC3    H1 8634   3.495   4.070  14.707 -0.9504 -1.1443  1.4840
  582TMC3    H2 8635   3.626   4.060  15.114 -2.1927  1.1594 -1.0274
  582TMC3    C7 8636   3.418   4.094  14.954  0.8443 -0.2536 -0.2612
  582TMC3    C8 8637   3.837   4.171  15.088 -0.5436  0.2310  0.2727
  582TMC3    O1 8638   3.358   4.008  15.015 -0.6319  0.0554 -0.8440
  582TMC3    O2 8639   3.800   4.150  15.202 -0.4212  0.5388 -0.1753
  583MPD2     C 8640   3.808   1.674  16.965 -0.0489 -0.4295  0.2080
  583MPD2    C1 8641   3.728   1.734  16.869  0.0988 -0.3666  0.3856
  583MPD2    C2 8642   3.635   1.831  16.902  0.1024  0.0639  0.3264
  583MPD2    C3 8643   3.628   1.891  17.037 -0.6408 -0.6048 -0.4125
  583MPD2    C4 8644   3.716   1.830  17.123 -0.2948 -0.1596  0.1880
  583MPD2    C5 8645   3.804   1.729  17.089 -0.0227 -0.8663 -0.1575
  583MPD2     H 8646   3.576   1.885  16.829  0.1423  0.7379  0.7879
  583MPD2    H1 8647   3.733   1.876  17.220 -0.4996  0.6250 -0.1443
  583MPD2    H2 8648   3.882   1.595  16.954  0.2900 -0.3287  1.8067
  583MPD2    H3 8649   3.880   1.695  17.159 -0.2410  0.3698  0.6912
  583MPD2     N 8650   3.547   2.001  17.060 -0.3972 -0.0607 -0.0842
  583MPD2    H5 8651   3.497   2.043  16.981  1.0148 -0.6807 -1.3086
  583MPD2    N1 8652   3.735   1.693  16.736 -0.0011 -0.1891  0.7763
  583MPD2    H7 8653   3.669   1.741  16.676 -1.1166 -2.2026  0.3805
  584TMC3    C1 8654   3.437   2.169  17.199 -0.1054 -0.1104 -0.9524
  584TMC3    C2 8655   3.407   2.248  17.093  0.0638  0.0361  0.0684
  584TMC3    C3 8656   3.347   2.373  17.115  0.0655 -0.3041  0.7932
  584TMC3    C4 8657   3.434   2.231  17.328  0.3366 -0.1462  0.0574
  584TMC3    C5 8658   3.387   2.357  17.343  0.1997 -0.2018 -0.7627
  584TMC3    C6 8659   3.345   2.430  17.237 -0.4950 -0.5617  0.1100
  584TMC3     C 8660   3.519   2.051  17.184  0.2254  0.4802  0.6206
  584TMC3     O 8661   3.540   2.004  17.291  0.1846  0.3326 -0.2386
  584TMC3     H 8662   3.425   2.215  16.992  0.3916  1.5025 -0.3440
  584TMC3    H1 8663   3.453   2.175  17.418 -1.9292 -0.4000  0.3835
  584TMC3    H2 8664   3.289   2.523  17.242 -0.0315 -0.3676  1.5794
  584TMC3    C7 8665   3.383   2.405  17.480  0.4728  0.6970 -0.8555
  584TMC3    C8 8666   3.346   2.460  16.998  0.3716 -0.5650  0.9073
  584TMC3    O1 8667   3.415   2.315  17.560  0.2634  0.2557 -0.0410
  584TMC3    O2 8668   3.332   2.405  16.891  0.2916  0.3265  0.1627
  585MPD2     C 8669   2.284   0.855   0.191 -0.1644 -0.1076  0.6027
  585MPD2    C1 8670   2.419   0.889   0.194  0.3142  0.0944  0.3779
  585MPD2    C2 8671   2.501   0.867   0.085 -0.1203  0.0013 -0.2685
  585MPD2    C3 8672   2.445   0.814  17.658  0.2577  0.4280  0.0025
  585MPD2    C4 8673   2.315   0.785  17.656 -0.3532  0.0892  0.1774
  585MPD2    C5 8674   2.235   0.804   0.069  0.4331  0.3761  0.6562
  585MPD2     H 8675   2.601   0.907   0.096 -0.9665  2.1978 -0.7176
  585MPD2    H1 8676   2.281   0.749  17.560  0.7865  0.1656 -0.2633
  585MPD2    H2 8677   2.223   0.874   0.279 -0.9195  0.4848 -0.0487
  585MPD2    H3 8678   2.131   0.775   0.061  0.4472  0.1693  1.2282
  585MPD2     N 8679   2.516   0.792  17.542 -0.0301  0.1499 -0.1256
  585MPD2    H5 8680   2.451   0.758  17.472 -0.3992 -3.2725  1.9354
  585MPD2    N1 8681   2.472   0.937   0.313  0.0571  0.9224 -0.0074
  585MPD2    H7 8682   2.413   0.930   0.395 -0.8645 -0.2278 -0.7570
  586TMC3    C1 8683   2.701   0.751  17.400 -0.5523 -0.4080 -1.0509
  586TMC3    C2 8684   2.830   0.785  17.370  0.1933  0.0521 -0.2376
  586TMC3    C3 8685   2.882   0.759  17.251  0.0186  1.1558 -0.0831
  586TMC3    C4 8686   2.635   0.673  17.314 -0.0867 -0.0289 -0.5843
  586TMC3    C5 8687   2.686   0.641  17.195 -0.1081 -0.0675 -0.0855
  586TMC3    C6 8688   2.804   0.698  17.158 -0.4530  0.6838 -0.3248
  586TMC3     C 8689   2.653   0.807  17.528 -0.1357 -0.3373  0.2493
  586TMC3     O 8690   2.735   0.849  17.606  0.3069  0.5107 -0.6249
  586TMC3     H 8691   2.888   0.809  17.459 -0.3863  2.0583 -0.3999
  586TMC3    H1 8692   2.537   0.637  17.344 -0.0949 -0.8232 -1.5472
  586TMC3    H2 8693   2.820   0.702  17.051 -1.9473 -1.8433 -0.6533
  586TMC3    C7 8694   2.677   0.501  17.176  0.4225 -0.3757  0.2406
  586TMC3    C8 8695   3.010   0.695  17.248 -0.3146  0.1100  0.0714
  586TMC3    O1 8696   2.592   0.445  17.242 -0.2270  0.1462 -0.0222
  586TMC3    O2 8697   3.051   0.648  17.352  0.1106  0.2271 -0.2386
  587TMC3    C1 8698   0.339   3.891  16.447 -0.2561  0.2204  0.1370
  587TMC3    C2 8699   0.355   3.972  16.338 -0.5896 -0.0590  0.3767
  587TMC3    C3 8700   0.426   4.093  16.354  0.2095 -0.0370 -0.3997
  587TMC3    C4 8701   0.424   3.906  16.551  0.4662 -0.2195 -0.4231
  587TMC3    C5 8702   0.497   4.019  16.557 -0.1067  0.2866  0.1161
  587TMC3    C6 8703   0.491   4.114  16.469  0.6995  0.4118  0.4736
  587TMC3     C 8704   0.200   3.881  16.502 -0.2764 -0.1133 -0.2774
  587TMC3     O 8705   0.185   3.916  16.615 -0.4015 -0.0987 -0.1202
  587TMC3     H 8706   0.283   3.961  16.258  0.1368  0.8401 -0.4057
  587TMC3    H1 8707   0.401   3.856  16.644  0.4162  3.2364  1.4138
  587TMC3    H2 8708   0.559   4.195  16.491 -0.0833  1.0151  0.6908
  587TMC3    C7 8709   0.580   4.029  16.676 -0.0099 -0.2654  0.1821
  587TMC3    C8 8710   0.385   4.204  16.273  0.0645  0.5242  0.3386
  587TMC3    O1 8711   0.634   4.133  16.708  0.3263 -0.1168  0.0379
  587TMC3    O2 8712   0.346   4.169  16.160  0.1388 -0.3013 -0.3876
  588TMC3    C1 8713   2.470   2.255  10.013  0.2603 -0.5387 -0.9132
  588TMC3    C2 8714   2.415   2.130  10.009 -0.0525  0.5899  0.0719
  588TMC3    C3 8715   2.505   2.026   9.990  0.5818 -0.0478  0.3655
  588TMC3    C4 8716   2.606   2.281   9.999  0.2248 -0.3578  0.3357
  588TMC3    C5 8717   2.691   2.176   9.983 -0.3638 -0.4314  0.5195
  588TMC3    C6 8718   2.648   2.047   9.990 -0.5831 -0.5099 -0.8064
  588TMC3     C 8719   2.373   2.363   9.974  0.4182  0.0280  0.3590
  588TMC3     O 8720   2.252   2.340   9.965  0.3496 -0.4943  0.0479
  588TMC3     H 8721   2.307   2.117  10.000  0.2059 -2.3495  1.4576
  588TMC3    H1 8722   2.654   2.375  10.024  0.2795  0.1057 -1.5385
  588TMC3    H2 8723   2.721   1.980   9.947  0.6557 -0.6339  1.5097
  588TMC3    C7 8724   2.832   2.215   9.976  0.7017  0.0394  0.9668
  588TMC3    C8 8725   2.447   1.890   9.992  0.5481  0.2938 -0.7662
  588TMC3    O1 8726   2.919   2.135  10.009 -0.1669  0.5201 -0.0519
  588TMC3    O2 8727   2.325   1.876   9.985  0.2230  0.3424  0.1406
  589TMC3    C1 8728   1.981   4.539   1.299  0.1942  0.8544  0.2682
  589TMC3    C2 8729   2.049   4.601   1.402 -0.0734  0.6890  0.7016
  589TMC3    C3 8730   2.176   4.556   1.436  0.6098  0.1409  0.0293
  589TMC3    C4 8731   2.039   4.440   1.228 -0.2871  0.1267  0.8617
  589TMC3    C5 8732   2.176   4.404   1.250 -0.0766 -0.6134  0.2529
  589TMC3    C6 8733   2.241   4.458   1.361 -0.5613  0.4654  0.0850
  589TMC3     C 8734   1.843   4.560   1.275 -0.7218 -0.5091 -0.3294
  589TMC3     O 8735   1.798   4.512   1.172 -0.1282  0.2922 -0.1495
  589TMC3     H 8736   2.010   4.689   1.451  1.3568  0.7009  1.8311
  589TMC3    H1 8737   1.985   4.395   1.146  2.1485  0.6051 -0.9978
  589TMC3    H2 8738   2.339   4.420   1.388 -0.3027  0.9677 -0.1383
  589TMC3    C7 8739   2.222   4.282   1.182 -0.6932  0.4717  0.2416
  589TMC3    C8 8740   2.245   4.654   1.508 -0.3966 -1.0278  0.1057
  589TMC3    O1 8741   2.142   4.228   1.110  0.6769 -0.0151 -0.1985
  589TMC3    O2 8742   2.186   4.704   1.604  0.0797  0.3251  0.4042
  590MPD2     C 8743   1.627   2.561  16.674 -0.5259  0.1923 -0.0019
  590MPD2    C1 8744   1.576   2.668  16.607  0.6333 -0.2347  0.2641
  590MPD2    C2 8745   1.662   2.755  16.546 -0.2209  0.1980  0.5160
  590MPD2    C3 8746   1.796   2.728  16.539 -0.3864  0.7452  0.4302
  590MPD2    C4 8747   1.850   2.621  16.612 -0.5283  0.1748 -0.2892
  590MPD2    C5 8748   1.762   2.536  16.678 -0.1535 -0.8632 -0.0976
  590MPD2     H 8749   1.635   2.840  16.484  0.7498 -0.2877 -0.5859
  590MPD2    H1 8750   1.956   2.604  16.624 -0.5736 -0.7616 -1.1750
  590MPD2    H2 8751   1.573   2.485  16.729 -0.4560 -0.8536 -1.3805
  590MPD2    H3 8752   1.806   2.463  16.744  0.7582 -1.3624 -1.2547
  590MPD2     N 8753   1.869   2.813  16.458  0.0490 -0.3555 -0.1089
  590MPD2    H5 8754   1.818   2.884  16.406  0.5404  0.8233  1.0218
  590MPD2    N1 8755   1.435   2.687  16.611 -0.7034 -0.4770  0.0745
  590MPD2    H7 8756   1.384   2.619  16.667 -2.4341 -0.2483 -1.2297
  591TMC3    C1 8757   2.049   2.871  16.307 -0.5584 -0.3218 -0.5952
  591TMC3    C2 8758   2.078   2.803  16.192  0.1890  0.7675 -0.1924
  591TMC3    C3 8759   2.032   2.860  16.075 -0.6443 -0.1665  0.5568
  591TMC3    C4 8760   1.999   2.996  16.306  1.2451  0.2530  0.5134
  591TMC3    C5 8761   1.967   3.058  16.189  0.1226 -0.5158  0.6689
  591TMC3    C6 8762   1.980   2.982  16.072  0.4714  0.5528  0.1681
  591TMC3     C 8763   1.998   2.787  16.419  0.3131  0.5379 -0.3418
  591TMC3     O 8764   2.052   2.679  16.428  0.8153 -0.3335  0.0487
  591TMC3     H 8765   2.117   2.702  16.198  0.5076  0.8348 -1.2050
  591TMC3    H1 8766   1.982   3.042  16.402  1.0058 -2.3817  1.7215
  591TMC3    H2 8767   1.929   3.026  15.986  1.4544  0.4524 -0.4614
  591TMC3    C7 8768   1.901   3.182  16.192 -0.1137  0.4048 -0.3777
  591TMC3    C8 8769   2.007   2.762  15.965  0.2148  0.2441 -0.6096
  591TMC3    O1 8770   1.852   3.219  16.298  0.5797  0.7669  0.8378
  591TMC3    O2 8771   2.055   2.649  15.982 -0.4417  0.5345  0.0745
  592MPD2     C 8772   2.046   0.087  11.109 -0.5428 -0.0859  0.3203
  592MPD2    C1 8773   2.019   0.108  11.244 -0.1108 -0.4851  0.0735
  592MPD2    C2 8774   1.939   0.021  11.320 -0.1020 -0.2310 -0.0107
  592MPD2    C3 8775   1.883   4.635  11.257  0.2830 -0.1978  0.4005
  592MPD2    C4 8776   1.911   4.611  11.125  0.0516  0.1555  0.1971
  592MPD2    C5 8777   1.988   4.696  11.055  0.0161  0.2661 -0.3709
  592MPD2     H 8778   1.928   0.029  11.428  1.2954 -2.3841  0.2747
  592MPD2    H1 8779   1.876   4.521  11.077  0.0276  0.9003 -1.1726
  592MPD2    H2 8780   2.115   0.149  11.053 -0.3369  0.7436  1.4931
  592MPD2    H3 8781   2.017   4.678  10.952  0.2720  0.6243 -0.3639
  592MPD2     N 8782   1.789   4.555  11.328  0.0297 -0.8215 -0.6327
  592MPD2    H5 8783   1.775   4.563  11.428  0.3205  0.1866 -0.6755
  592MPD2    N1 8784   2.082   0.223  11.299  0.8408  0.2955  0.0181
  592MPD2    H7 8785   2.136   0.281  11.236  2.6210  0.3904  1.6364
  593TMC3    C1 8786   2.144   0.387  11.461  0.2941  0.0652 -0.6475
  593TMC3    C2 8787   2.105   0.467  11.565 -0.3061 -0.1393 -0.2134
  593TMC3    C3 8788   2.192   0.566  11.602 -0.2189 -0.6495 -0.7288
  593TMC3    C4 8789   2.260   0.411  11.387  0.3633 -0.3314  0.1397
  593TMC3    C5 8790   2.335   0.519  11.419 -0.5926  0.4557 -0.2607
  593TMC3    C6 8791   2.300   0.597  11.525 -0.3788 -0.3015  0.1555
  593TMC3     C 8792   2.060   0.273  11.424  0.3748  0.9880  0.1239
  593TMC3     O 8793   1.996   0.233  11.521  0.0937  0.0831 -0.3254
  593TMC3     H 8794   2.022   0.436  11.626 -0.2489 -2.4022 -1.2549
  593TMC3    H1 8795   2.286   0.341  11.309 -1.3053 -1.4367  0.5928
  593TMC3    H2 8796   2.362   0.677  11.564  1.0373 -1.4595  0.3018
  593TMC3    C7 8797   2.446   0.571  11.341  0.5998  0.2000 -0.5715
  593TMC3    C8 8798   2.178   0.612  11.738 -0.8048 -0.2988  0.4626
  593TMC3    O1 8799   2.488   0.678  11.380 -0.2994 -0.0948 -0.0044
  593TMC3    O2 8800   2.066   0.640  11.782  0.1296  0.7333 -0.1297
  594MPD2     C 8801   0.221   3.611  14.107  0.0799  0.1227  0.1248
  594MPD2    C1 8802   0.267   3.509  14.185  0.9947  0.6468 -0.5635
  594MPD2    C2 8803   0.404   3.510  14.212  0.2858 -0.3809 -0.0837
  594MPD2    C3 8804   0.493   3.600  14.167 -0.6070 -0.4016 -0.6352
  594MPD2    C4 8805   0.442   3.693  14.076 -0.0750  0.1534 -0.0958
  594MPD2    C5 8806   0.311   3.705  14.062  0.2705  0.3329  0.2106
  594MPD2     H 8807   0.447   3.444  14.287  1.5494  1.0987  0.4899
  594MPD2    H1 8808   0.497   3.778  14.035 -1.9340 -0.4776 -3.9485
  594MPD2    H2 8809   0.115   3.624  14.093  0.2770  2.5573  0.9111
  594MPD2    H3 8810   0.265   3.786  14.007 -3.3040 -0.1224  2.5782
  594MPD2     N 8811   0.634   3.592  14.196  0.0289  0.1864 -0.2821
  594MPD2    H5 8812   0.668   3.512  14.249 -0.7793  0.0400  0.0200
  594MPD2    N1 8813   0.174   3.408  14.232  0.0752  0.1033 -0.2267
  594MPD2    H7 8814   0.076   3.409  14.206 -0.0558 -1.4178  0.2037
  595TMC3    C1 8815   1.054   3.769  14.257 -0.0941  0.8359 -0.4760
  595TMC3    C2 8816   0.966   3.729  14.155  0.0730 -0.4968 -0.1752
  595TMC3    C3 8817   0.853   3.669  14.206  0.1519  0.6007 -0.4722
  595TMC3    C4 8818   1.043   3.749  14.387  0.5858  0.1365 -0.7815
  595TMC3    C5 8819   0.935   3.683  14.427  0.8619 -0.0217 -0.5592
  595TMC3    C6 8820   0.841   3.641  14.342 -0.0926  0.4833 -0.6231
  595TMC3     C 8821   1.173   3.839  14.216 -0.4527  0.1449 -0.1672
  595TMC3     O 8822   1.224   3.917  14.296 -0.1141  0.5062 -0.6936
  595TMC3     H 8823   0.980   3.749  14.050 -1.0985 -1.7026 -0.5653
  595TMC3    H1 8824   1.120   3.788  14.453  0.3214 -1.3077  0.3485
  595TMC3    H2 8825   0.758   3.594  14.393  1.6940 -1.1005  0.8619
  595TMC3    C7 8826   0.898   3.694  14.567  0.2607  0.2997  0.1790
  595TMC3    C8 8827   0.732   3.675  14.138 -0.2536 -0.2183  0.7184
  595TMC3    O1 8828   0.787   3.653  14.597  0.1855 -0.7343 -0.1976
  595TMC3    O2 8829   0.723   3.749  14.040 -0.2955  0.3669 -0.3317
  596MPD2     C 8830   4.548   1.605  16.588  0.1603 -0.3841 -0.2294
  596MPD2    C1 8831   4.522   1.688  16.480  0.5663  0.2566 -0.3669
  596MPD2    C2 8832   4.510   1.649  16.351  0.0014 -0.1870 -0.5414
  596MPD2    C3 8833   4.517   1.510  16.327 -0.5265 -0.4810  0.1384
  596MPD2    C4 8834   4.556   1.425  16.433  1.1755  0.4079 -0.5281
  596MPD2    C5 8835   4.575   1.474  16.559 -0.1546  0.0938 -0.2276
  596MPD2     H 8836   4.480   1.726  16.281  0.1945  0.6455  0.2856
  596MPD2    H1 8837   4.593   1.328  16.402  1.1151 -0.5464  2.4305
  596MPD2    H2 8838   4.548   1.641  16.690 -1.8613  0.2647 -0.4555
  596MPD2    H3 8839   4.609   1.418  16.645 -0.3114  1.0149  0.4395
  596MPD2     N 8840   4.492   1.453  16.198 -0.4799  0.0533 -0.2031
  596MPD2    H5 8841   4.510   1.355  16.178  1.9801  0.3642  0.4238
  596MPD2    N1 8842   4.493   1.827  16.497  0.1440  0.0025  0.0961
  596MPD2    H7 8843   4.486   1.894  16.422 -1.9157  0.3127  0.5655
  597TMC3    C1 8844   4.405   2.022  16.617 -0.6873 -0.6482  0.1375
  597TMC3    C2 8845   4.439   2.107  16.519  0.4007  0.2357 -0.2365
  597TMC3    C3 8846   4.387   2.237  16.525  0.2955 -0.1840 -0.6508
  597TMC3    C4 8847   4.333   2.070  16.721  0.2979  0.5885  0.3649
  597TMC3    C5 8848   4.272   2.196  16.720  0.1894  0.1460 -0.6033
  597TMC3    C6 8849   4.304   2.285  16.623  0.1342 -0.6426 -0.0298
  597TMC3     C 8850   4.454   1.888  16.623  0.0889  0.2329  0.4409
  597TMC3     O 8851   4.429   1.834  16.727  0.3543  0.4283  0.0763
  597TMC3     H 8852   4.517   2.076  16.450  0.2547 -1.1150  0.1966
  597TMC3    H1 8853   4.310   2.004  16.804 -1.7010  1.6318  0.6435
  597TMC3    H2 8854   4.276   2.389  16.620 -1.6147 -1.1507 -2.0467
  597TMC3    C7 8855   4.172   2.235  16.820 -0.5606  0.4655  0.0017
  597TMC3    C8 8856   4.428   2.334  16.418 -0.3535  0.1342  0.1620
  597TMC3    O1 8857   4.184   2.177  16.924  0.4576  0.8746  0.3693
  597TMC3    O2 8858   4.432   2.450  16.438 -0.8359 -0.1617 -0.2986
  598TMC3    C1 8859   2.396   2.883  15.084  0.2941 -0.0564 -0.0195
  598TMC3    C2 8860   2.277   2.812  15.072 -0.8146 -0.1371  0.1164
  598TMC3    C3 8861   2.184   2.864  14.985  0.7750  0.5103  0.3407
  598TMC3    C4 8862   2.429   2.996  15.018  0.0972  0.8766  0.4355
  598TMC3    C5 8863   2.338   3.031  14.921 -0.2360  0.3188 -0.2486
  598TMC3    C6 8864   2.216   2.968  14.907  0.2314  0.7407  0.0561
  598TMC3     C 8865   2.498   2.835  15.177 -0.1704 -1.1752 -0.8177
  598TMC3     O 8866   2.611   2.885  15.177 -0.1222 -0.3063  0.5126
  598TMC3     H 8867   2.264   2.723  15.131 -2.6510  0.6620  0.8918
  598TMC3    H1 8868   2.526   3.042  15.034  1.4735 -1.3122 -1.5803
  598TMC3    H2 8869   2.143   2.999  14.833 -0.7981 -0.9255  0.3823
  598TMC3    C7 8870   2.389   3.078  14.797  0.3467 -0.3848 -0.1200
  598TMC3    C8 8871   2.101   2.759  14.914  0.7564 -0.1478 -0.0673
  598TMC3    O1 8872   2.342   3.024  14.695  0.0308 -0.4505 -0.4126
  598TMC3    O2 8873   2.088   2.776  14.791 -0.0466  0.4587  0.0481
  599MPD2     C 8874   2.915   0.627  16.019  0.0291 -0.5741 -0.1916
  599MPD2    C1 8875   2.844   0.508  15.995 -0.1504 -0.0628 -0.5514
  599MPD2    C2 8876   2.706   0.503  16.037 -0.4792 -0.2055 -0.5776
  599MPD2    C3 8877   2.643   0.612  16.082 -0.3326  0.4061 -0.2821
  599MPD2    C4 8878   2.714   0.727  16.109  0.2478 -0.3668  0.0340
  599MPD2    C5 8879   2.845   0.736  16.075 -0.0485 -0.2266  0.0401
  599MPD2     H 8880   2.650   0.412  16.021  0.1517 -0.5489 -0.8405
  599MPD2    H1 8881   2.672   0.809  16.167 -0.5095 -1.6276  1.2471
  599MPD2    H2 8882   3.018   0.636  15.987 -0.9199  0.4486 -2.9222
  599MPD2    H3 8883   2.909   0.823  16.090  0.2015 -0.5506  0.8796
  599MPD2     N 8884   2.510   0.609  16.131  0.3244 -0.3389 -0.1345
  599MPD2    H5 8885   2.471   0.698  16.160 -1.6196 -0.9169 -0.9815
  599MPD2    N1 8886   2.924   0.400  15.943  0.2511  0.1033 -0.1134
  599MPD2    H7 8887   3.024   0.413  15.932  0.7140 -1.5035  2.1776
  600TMC3    C1 8888   2.304   0.530  16.214 -0.3293 -0.3652 -0.0780
  600TMC3    C2 8889   2.256   0.437  16.302  0.4207  0.5399 -1.3131
  600TMC3    C3 8890   2.141   0.472  16.367 -0.3403 -0.1920 -0.9437
  600TMC3    C4 8891   2.252   0.651  16.213  1.0151  0.3250  0.3149
  600TMC3    C5 8892   2.141   0.683  16.279 -0.8629  0.2740  0.0153
  600TMC3    C6 8893   2.079   0.594  16.356  0.0212 -0.0184  0.6343
  600TMC3     C 8894   2.428   0.502  16.139 -0.0761  0.3490 -1.0462
  600TMC3     O 8895   2.438   0.382  16.105 -0.0413  0.7835  0.1373
  600TMC3     H 8896   2.312   0.344  16.311 -0.0832  0.7029  3.4994
  600TMC3    H1 8897   2.275   0.722  16.134 -1.6786 -0.9368 -1.6266
  600TMC3    H2 8898   1.997   0.607  16.425 -2.2426 -1.8340 -1.6820
  600TMC3    C7 8899   2.091   0.818  16.287  0.0148  0.4923 -0.1290
  600TMC3    C8 8900   2.103   0.380  16.476 -0.2666  0.6655  0.5247
  600TMC3    O1 8901   1.996   0.836  16.360  0.1580  0.0783 -0.0641
  600TMC3    O2 8902   2.183   0.346  16.566  0.5944 -0.1402 -0.1463
  601MPD2     C 8903   4.298   4.016  17.634  0.2435  0.1557 -0.2836
  601MPD2    C1 8904   4.185   3.951  17.579 -0.4145  0.0255  0.1506
  601MPD2    C2 8905   4.174   3.811  17.593 -0.0099  0.3947  0.3028
  601MPD2    C3 8906   4.281   3.740  17.647 -0.2125 -0.5732  0.5774
  601MPD2    C4 8907   4.387   3.803   0.006 -0.0339 -0.3392 -0.1520
  601MPD2    C5 8908   4.394   3.940   0.005  0.1649  0.2170  0.5558
  601MPD2     H 8909   4.090   3.760  17.547  1.0934 -0.7269 -0.4440
  601MPD2    H1 8910   4.469   3.746   0.048  1.2260  0.4601 -1.5234
  601MPD2    H2 8911   4.309   4.123  17.624 -0.7477  0.2809 -0.0568
  601MPD2    H3 8912   4.478   3.979   0.061 -0.4526  1.5090  0.5783
  601MPD2     N 8913   4.276   3.600  17.654 -0.3390 -0.7375 -0.1112
  601MPD2    H5 8914   4.363   3.555  17.682  0.9510  2.6595  1.3134
  601MPD2    N1 8915   4.071   4.029  17.527  0.4090  0.1140 -0.0054
  601MPD2    H7 8916   3.991   3.979  17.488 -0.1656  0.4298  0.7763
  602TMC3    C1 8917   3.964   4.203  17.412 -0.3207  0.1925 -0.2116
  602TMC3    C2 8918   3.946   4.336  17.398  0.8812  0.0800 -0.5465
  602TMC3    C3 8919   3.861   4.372  17.294  0.6176  0.3342  1.1001
  602TMC3    C4 8920   3.899   4.109  17.332  0.3066  0.0770 -0.0560
  602TMC3    C5 8921   3.820   4.152  17.233 -0.4051  0.3287 -0.1009
  602TMC3    C6 8922   3.807   4.283  17.208  0.1262 -0.7903  0.0912
  602TMC3     C 8923   4.075   4.157  17.487 -0.6147 -0.2664  0.0668
  602TMC3     O 8924   4.165   4.242  17.496 -0.2246 -0.1955 -0.5060
  602TMC3     H 8925   3.992   4.406  17.467  1.8930 -1.2366  0.1227
  602TMC3    H1 8926   3.929   4.005  17.338  1.4427  0.5125  1.8361
  602TMC3    H2 8927   3.738   4.327  17.137 -1.2017  0.8138  2.4181
  602TMC3    C7 8928   3.760   4.065  17.135  0.6398  0.4502  0.0364
  602TMC3    C8 8929   3.848   4.508  17.241  0.2577 -0.2188  0.5159
  602TMC3    O1 8930   3.704   3.964  17.175 -0.2917  0.2748 -0.2298
  602TMC3    O2 8931   3.800   4.584  17.325 -0.2905  0.1021  0.3866
  603TMC3    C1 8932   3.210   4.155  10.527  0.1428  0.5060  0.1478
  603TMC3    C2 8933   3.218   4.166  10.668  0.1063  0.2540  0.1595
  603TMC3    C3 8934   3.215   4.294  10.716 -0.2986 -0.0386 -0.5259
  603TMC3    C4 8935   3.184   4.265  10.449 -0.1110  0.1257 -0.4839
  603TMC3    C5 8936   3.158   4.385  10.511  0.4932 -0.4113  0.3136
  603TMC3    C6 8937   3.192   4.408  10.643  0.2773 -0.1879 -0.2949
  603TMC3     C 8938   3.206   4.016  10.475 -0.8048 -0.9196  0.2921
  603TMC3     O 8939   3.138   4.013  10.371  0.4873  0.5123 -0.3449
  603TMC3     H 8940   3.225   4.080  10.734 -2.4151  1.5971  2.1697
  603TMC3    H1 8941   3.182   4.258  10.341 -2.3824  3.1751 -0.6343
  603TMC3    H2 8942   3.210   4.505  10.690  2.3275  0.5115 -2.5097
  603TMC3    C7 8943   3.099   4.508  10.454 -0.3603  0.0317 -0.1505
  603TMC3    C8 8944   3.189   4.293  10.867  0.0047  0.5571 -0.4515
  603TMC3    O1 8945   3.098   4.615  10.518 -0.8185  0.2147 -0.2288
  603TMC3    O2 8946   3.220   4.189  10.921 -0.6712 -0.3094  0.2474
  604MPD2     C 8947   3.522   2.674  16.329 -0.1980 -0.4533 -0.5806
  604MPD2    C1 8948   3.387   2.667  16.334  0.4237 -0.2908 -0.0763
  604MPD2    C2 8949   3.324   2.570  16.256  0.0206 -0.0452  0.2805
  604MPD2    C3 8950   3.394   2.485  16.176 -0.1245 -0.0843  0.0778
  604MPD2    C4 8951   3.528   2.505  16.162  0.0781  0.6948 -0.1930
  604MPD2    C5 8952   3.595   2.600  16.233  0.4887 -0.1628 -0.1022
  604MPD2     H 8953   3.217   2.557  16.255 -0.1180  1.1964 -1.0233
  604MPD2    H1 8954   3.592   2.444  16.099 -0.0072  2.1000 -1.6456
  604MPD2    H2 8955   3.578   2.743  16.391 -0.8015  0.9765 -1.6469
  604MPD2    H3 8956   3.702   2.600  16.244  0.5713 -3.9293 -0.7308
  604MPD2     N 8957   3.329   2.390  16.090 -0.1942  0.3769  0.2190
  604MPD2    H5 8958   3.231   2.373  16.109 -0.0985 -1.3154 -0.8046
  604MPD2    N1 8959   3.320   2.750  16.424 -0.2552 -0.5113 -0.1526
  604MPD2    H7 8960   3.376   2.818  16.474 -0.7390 -1.8377  2.2092
  605TMC3    C1 8961   3.148   2.856  16.551 -0.8209  0.7800 -0.4277
  605TMC3    C2 8962   3.250   2.935  16.590  0.6719  0.3175  0.3365
  605TMC3    C3 8963   3.239   3.071  16.571  0.0870 -0.1216  0.2641
  605TMC3    C4 8964   3.023   2.913  16.511 -0.5042 -0.2163  0.4301
  605TMC3    C5 8965   3.014   3.048  16.499  0.7179  0.3856  1.0645
  605TMC3    C6 8966   3.123   3.122  16.523  0.1533  0.3732 -0.4240
  605TMC3     C 8967   3.188   2.752  16.459  0.0744  0.5749 -0.3726
  605TMC3     O 8968   3.100   2.672  16.429  0.6865  0.1485  0.0861
  605TMC3     H 8969   3.343   2.894  16.627  1.6818  2.1578 -0.1773
  605TMC3    H1 8970   2.945   2.842  16.486  0.2620 -0.4001 -1.4755
  605TMC3    H2 8971   3.123   3.219  16.475  0.7785  0.2983 -0.5740
  605TMC3    C7 8972   2.919   3.101  16.399 -0.7716 -0.2718 -0.0317
  605TMC3    C8 8973   3.359   3.137  16.522  0.1735  0.0781  0.2160
  605TMC3    O1 8974   2.895   3.221  16.398  0.1150  0.0428 -0.4096
  605TMC3    O2 8975   3.445   3.065  16.469 -0.5689 -0.2074 -0.4201
  606TMC3    C1 8976   0.194   0.832  17.066 -0.3300  0.8875 -0.8067
  606TMC3    C2 8977   0.329   0.832  17.088  0.1038  0.2836 -0.0460
  606TMC3    C3 8978   0.386   0.744  17.172 -0.1617 -0.0466  0.0894
  606TMC3    C4 8979   0.117   0.772  17.156  1.0361 -0.3091  0.1177
  606TMC3    C5 8980   0.178   0.687  17.249 -0.1498 -0.0610 -1.0967
  606TMC3    C6 8981   0.313   0.660  17.253 -0.2224  0.4188 -0.2869
  606TMC3     C 8982   0.133   0.908  16.967 -0.0982  0.1310  0.2652
  606TMC3     O 8983   0.204   0.923  16.870 -0.3854  0.2418 -0.0282
  606TMC3     H 8984   0.394   0.898  17.032  2.2354 -1.2068  0.6454
  606TMC3    H1 8985   0.010   0.763  17.143  1.0605  0.6810 -0.8748
  606TMC3    H2 8986   0.360   0.602  17.331 -1.3279 -1.6590 -1.1538
  606TMC3    C7 8987   0.091   0.592  17.318  0.3195  0.9874 -0.1009
  606TMC3    C8 8988   0.519   0.785  17.220  0.5096 -0.5391 -0.0606
  606TMC3    O1 8989   0.111   0.468  17.316 -0.2696 -0.2488  0.0312
  606TMC3    O2 8990   0.533   0.904  17.199 -0.6423 -0.6454  0.4075
  607MPD2     C 8991   2.019   4.294  11.291 -0.3935 -0.9616  0.1554
  607MPD2    C1 8992   2.069   4.348  11.409 -0.0352 -0.3267 -0.2662
  607MPD2    C2 8993   2.027   4.297  11.528 -0.2376 -0.4454  0.1728
  607MPD2    C3 8994   1.957   4.175  11.534  0.6334  1.0745  0.5128
  607MPD2    C4 8995   1.915   4.119  11.414 -0.3148 -0.5493 -0.1527
  607MPD2    C5 8996   1.945   4.180  11.295  0.1579 -0.7169  0.7362
  607MPD2     H 8997   2.037   4.353  11.621  2.8555 -3.9878  1.9580
  607MPD2    H1 8998   1.852   4.031  11.413 -1.0236 -0.0395 -0.2776
  607MPD2    H2 8999   2.047   4.336  11.195 -1.4464  1.1333  0.7639
  607MPD2    H3 9000   1.921   4.127  11.203 -0.1667 -0.3397  0.6017
  607MPD2     N 9001   1.945   4.113  11.661 -0.3146  0.0677  0.1398
  607MPD2    H5 9002   1.963   4.174  11.740 -0.2076 -2.5002  2.1347
  607MPD2    N1 9003   2.148   4.469  11.414  0.2098 -0.4505 -0.0353
  607MPD2    H7 9004   2.160   4.508  11.507  0.9852  1.7516 -1.0640
  608TMC3    C1 9005   2.300   4.639  11.354  0.3082 -0.3948 -0.3055
  608TMC3    C2 9006   2.316   4.647  11.493 -0.5562  0.1412 -0.1811
  608TMC3    C3 9007   2.431   4.709  11.541 -0.1625 -0.4225 -0.4281
  608TMC3    C4 9008   2.404   4.675  11.270  0.6215 -0.0645 -0.3718
  608TMC3    C5 9009   2.512   0.008  11.325 -0.3509  0.6762 -0.2259
  608TMC3    C6 9010   2.535   0.032  11.458  0.0432 -0.2834 -0.8384
  608TMC3     C 9011   2.216   4.528  11.308  0.0736  0.9475  0.0986
  608TMC3     O 9012   2.223   4.484  11.192 -0.1701  0.1464  0.3784
  608TMC3     H 9013   2.232   4.634  11.560  0.0746 -3.3674 -0.0551
  608TMC3    H1 9014   2.402   4.656  11.163  0.6478  0.3949 -0.4544
  608TMC3    H2 9015   2.625   0.075  11.499 -0.4474  1.4105 -1.5324
  608TMC3    C7 9016   2.605   0.052  11.225 -0.0854 -0.2077 -0.3925
  608TMC3    C8 9017   2.463   4.690  11.681  0.1487 -0.0773 -0.5140
  608TMC3    O1 9018   2.562   0.064  11.111 -0.2397  0.0928  0.1016
  608TMC3    O2 9019   2.535   0.052  11.736  0.3369 -0.0323  0.9407
  609TMC3    C1 9020   0.761   3.764   8.879  0.4062  0.1151  0.4948
  609TMC3    C2 9021   0.718   3.754   8.746  0.5669 -0.3790  0.3587
  609TMC3    C3 9022   0.806   3.705   8.654 -0.3704 -0.2015 -0.0673
  609TMC3    C4 9023   0.876   3.713   8.926 -0.0433  0.2870 -0.3781
  609TMC3    C5 9024   0.961   3.666   8.822  0.1242 -0.5866 -0.4101
  609TMC3    C6 9025   0.932   3.665   8.689 -0.4018  0.0831 -0.1531
  609TMC3     C 9026   0.667   3.828   8.971  0.7909  0.6422  0.0091
  609TMC3     O 9027   0.546   3.832   8.946  0.0335 -0.4035 -0.1572
  609TMC3     H 9028   0.614   3.780   8.730  1.3022  2.1849 -0.2578
  609TMC3    H1 9029   0.918   3.724   9.025 -0.6540  1.2310 -0.2209
  609TMC3    H2 9030   1.011   3.656   8.616  0.5771  0.4104  0.8591
  609TMC3    C7 9031   1.075   3.588   8.866  0.1561  0.5929  0.0911
  609TMC3    C8 9032   0.759   3.701   8.517 -0.3612  0.5742  0.2683
  609TMC3    O1 9033   1.120   3.625   8.972  0.0566  0.7843 -0.0291
  609TMC3    O2 9034   0.642   3.732   8.503  0.2836 -0.0317 -0.1503
  610TMC3    C1 9035   2.386   3.769  12.323  0.0649  0.0814 -0.5095
  610TMC3    C2 9036   2.419   3.892  12.270  0.1080 -0.1486 -0.8753
  610TMC3    C3 9037   2.545   3.907  12.229  0.4953  0.2635 -0.1590
  610TMC3    C4 9038   2.478   3.672  12.355 -0.0697 -0.4158  0.5614
  610TMC3    C5 9039   2.611   3.691  12.314  0.2012 -0.7080  0.2899
  610TMC3    C6 9040   2.638   3.805  12.245  0.4187  0.1555  0.0242
  610TMC3     C 9041   2.243   3.728  12.337 -0.9795 -0.1521 -0.5585
  610TMC3     O 9042   2.209   3.615  12.372 -0.4640 -0.1319  0.0383
  610TMC3     H 9043   2.340   3.966  12.263  0.6501  0.5438  0.4030
  610TMC3    H1 9044   2.439   3.585  12.406 -3.2312  0.8902  0.3769
  610TMC3    H2 9045   2.743   3.816  12.220  0.3388  2.1414  0.5599
  610TMC3    C7 9046   2.719   3.604  12.365  0.0989  0.4662  0.0409
  610TMC3    C8 9047   2.575   4.031  12.175  0.1383 -0.1367  0.4984
  610TMC3    O1 9048   2.832   3.640  12.337  0.3068  0.1050 -0.3748
  610TMC3    O2 9049   2.475   4.107  12.155 -0.0193  0.4888 -0.0955
  611MPD2     C 9050   2.175   3.813  10.234 -0.6132  0.1743 -0.1865
  611MPD2    C1 9051   2.070   3.901  10.187 -0.4538  0.8150  0.2927
  611MPD2    C2 9052   2.108   4.020  10.146  0.3626 -0.4607 -0.7171
  611MPD2    C3 9053   2.238   4.064  10.132  1.0169 -0.5588 -0.1437
  611MPD2    C4 9054   2.334   3.967  10.156 -0.2062  0.6911  0.4003
  611MPD2    C5 9055   2.303   3.847  10.203 -1.0471 -0.2855  0.1918
  611MPD2     H 9056   2.039   4.097  10.113 -0.5524 -0.5990  0.8885
  611MPD2    H1 9057   2.441   3.988  10.155  0.1512 -1.0754  0.7334
  611MPD2    H2 9058   2.151   3.711  10.262 -1.0920 -0.3072 -2.3441
  611MPD2    H3 9059   2.388   3.785  10.230  0.8279  2.1163 -0.2715
  611MPD2     N 9060   2.280   4.195  10.082 -0.6423  0.0678 -0.8191
  611MPD2    H5 9061   2.378   4.212  10.062 -0.2874 -0.5208  0.4642
  611MPD2    N1 9062   1.934   3.859  10.202  0.1868 -0.3005  0.0758
  611MPD2    H7 9063   1.912   3.767  10.239  0.7501 -1.2144 -1.8614
  612TMC3    C1 9064   2.253   4.409   9.976 -0.3605  0.5688  0.0161
  612TMC3    C2 9065   2.385   4.453   9.996  0.7848 -0.1866 -0.0672
  612TMC3    C3 9066   2.417   4.579   9.948 -0.2090  0.5345  0.2429
  612TMC3    C4 9067   2.151   4.493   9.928  0.2015  0.6711  0.2421
  612TMC3    C5 9068   2.196   4.609   9.879  0.5657 -0.4263  0.1097
  612TMC3    C6 9069   2.327   4.654   9.877 -0.2318 -0.4143  0.5430
  612TMC3     C 9070   2.198   4.299  10.058  0.3108  0.9413  0.4790
  612TMC3     O 9071   2.077   4.309  10.081 -0.1096  0.0773  0.1522
  612TMC3     H 9072   2.457   4.397  10.055  0.6677  0.3059  0.5475
  612TMC3    H1 9073   2.050   4.458   9.912  0.8461 -0.1273 -2.0717
  612TMC3    H2 9074   2.359   0.026   9.834  0.6129  0.1452  2.3994
  612TMC3    C7 9075   2.090   4.707   9.847  0.0681 -0.1057  0.5156
  612TMC3    C8 9076   2.553   4.640   9.973  0.2620 -0.4676 -1.1528
  612TMC3    O1 9077   1.981   4.659   9.819  0.2208 -0.1720 -0.5450
  612TMC3    O2 9078   2.569   0.036   9.942  0.5375  0.0601  0.6434
  613MPD2     C 9079   1.369   2.136  16.114  0.0799  0.0518  0.0204
  613MPD2    C1 9080   1.255   2.117  16.037  0.0976 -0.0071 -0.3569
  613MPD2    C2 9081   1.215   1.984  16.019  0.3948  0.0577 -0.0616
  613MPD2    C3 9082   1.290   1.880  16.074  0.0066  0.4294  0.6877
  613MPD2    C4 9083   1.393   1.912  16.155 -0.0050  0.2090  0.0679
  613MPD2    C5 9084   1.432   2.032  16.175 -0.5477  0.2574 -0.1401
  613MPD2     H 9085   1.138   1.949  15.952 -1.0700  2.6717  0.2501
  613MPD2    H1 9086   1.450   1.833  16.202 -1.6373 -1.1481 -0.2154
  613MPD2    H2 9087   1.412   2.235  16.119  1.4642 -0.7095  3.3297
  613MPD2    H3 9088   1.515   2.052  16.243 -0.5866  4.1457 -1.2354
  613MPD2     N 9089   1.278   1.745  16.034  0.0642 -0.5439 -0.5851
  613MPD2    H5 9090   1.350   1.677  16.052  0.5103 -0.4031 -1.7973
  613MPD2    N1 9091   1.206   2.222  15.959  0.8413  0.0262 -0.0802
  613MPD2    H7 9092   1.280   2.287  15.936  0.8590 -0.9112 -2.7205
  614TMC3    C1 9093   1.075   2.280  15.780 -0.8169 -0.6208 -0.1815
  614TMC3    C2 9094   1.189   2.277  15.695 -0.5100  0.2142  0.0330
  614TMC3    C3 9095   1.185   2.241  15.561  0.4726  0.8334 -0.6538
  614TMC3    C4 9096   0.951   2.267  15.709 -0.1410 -0.2153 -0.6324
  614TMC3    C5 9097   0.951   2.258  15.570 -0.0352 -0.6826  0.3609
  614TMC3    C6 9098   1.064   2.238  15.495 -0.1574  0.3228  0.6780
  614TMC3     C 9099   1.086   2.211  15.902 -0.1996  0.1403  0.1371
  614TMC3     O 9100   0.984   2.144  15.927 -0.2048  0.6946  0.2921
  614TMC3     H 9101   1.289   2.267  15.736 -0.8786 -0.4773  0.7670
  614TMC3    H1 9102   0.858   2.257  15.763  0.7230  1.6877  1.1845
  614TMC3    H2 9103   1.049   2.224  15.389 -2.1232 -2.9713  1.3745
  614TMC3    C7 9104   0.819   2.258  15.510 -0.9089  0.1127  0.1471
  614TMC3    C8 9105   1.280   2.142  15.517 -0.4079  0.4137 -0.2011
  614TMC3    O1 9106   0.760   2.357  15.545  0.1254  0.9255  0.0944
  614TMC3    O2 9107   1.349   2.094  15.605  0.0838  0.1234  0.6094
  615MPD2     C 9108   0.453   2.835  15.922 -0.7536 -0.1075 -0.0260
  615MPD2    C1 9109   0.418   2.960  15.880  0.3085 -0.4318 -0.2740
  615MPD2    C2 9110   0.406   2.987  15.749 -0.5744  0.5744  0.3740
  615MPD2    C3 9111   0.413   2.890  15.646  0.6645  0.1938  0.0080
  615MPD2    C4 9112   0.457   2.771  15.691 -0.5776 -0.8742  0.2052
  615MPD2    C5 9113   0.470   2.744  15.823  1.1360  0.3742  0.1189
  615MPD2     H 9114   0.383   3.090  15.723 -0.9768 -0.7770 -4.5747
  615MPD2    H1 9115   0.462   2.687  15.623  0.3420 -0.3287 -0.4072
  615MPD2    H2 9116   0.455   2.801  16.025 -1.0505 -0.4529 -0.1318
  615MPD2    H3 9117   0.506   2.647  15.856  2.5248  0.6709 -0.5714
  615MPD2     N 9118   0.396   2.912  15.506 -0.0152 -0.0070 -0.2335
  615MPD2    H5 9119   0.410   2.833  15.445 -0.0097  0.1404 -0.4230
  615MPD2    N1 9120   0.411   3.073  15.960 -0.1601  0.1282 -0.0284
  615MPD2    H7 9121   0.388   3.162  15.918  0.5411  0.1559 -0.3447
  616TMC3    C1 9122   0.461   3.225  16.131  0.5750  0.1041  1.0749
  616TMC3    C2 9123   0.568   3.274  16.200  0.2519 -0.1891 -0.4675
  616TMC3    C3 9124   0.559   3.401  16.248 -0.7941 -0.6816  0.5331
  616TMC3    C4 9125   0.350   3.298  16.091 -0.3496 -0.3303  0.4487
  616TMC3    C5 9126   0.346   3.427  16.144 -0.4541 -0.3473 -0.6419
  616TMC3    C6 9127   0.445   3.477  16.225  0.7086 -0.2036  0.4656
  616TMC3     C 9128   0.469   3.089  16.085 -0.0659 -0.3173  0.2964
  616TMC3     O 9129   0.546   3.014  16.140 -0.0952  0.4175  0.7031
  616TMC3     H 9130   0.655   3.213  16.217 -0.8165 -1.5249  0.2073
  616TMC3    H1 9131   0.264   3.262  16.035  0.3489 -0.1210 -0.7535
  616TMC3    H2 9132   0.440   3.579  16.260  3.5495 -0.8411  2.7293
  616TMC3    C7 9133   0.242   3.519  16.123 -0.0198  0.1918 -0.5455
  616TMC3    C8 9134   0.687   3.473  16.253 -0.2889  0.1793 -0.6224
  616TMC3    O1 9135   0.226   3.614  16.197  0.0882  0.1626 -0.2992
  616TMC3    O2 9136   0.791   3.406  16.239  0.0548 -0.0714 -0.0316
  617MPD2     C 9137   2.984   1.250  13.585 -0.3227 -0.4047 -0.2272
  617MPD2    C1 9138   3.043   1.154  13.669 -1.1005  0.0206 -0.5659
  617MPD2    C2 9139   2.974   1.033  13.673  0.5466 -0.8828 -0.8971
  617MPD2    C3 9140   2.856   1.014  13.602 -0.2475  0.4854 -0.6650
  617MPD2    C4 9141   2.814   1.108  13.506 -0.0122 -0.1075 -0.0076
  617MPD2    C5 9142   2.875   1.230  13.504  0.2097 -0.1601 -0.0914
  617MPD2     H 9143   2.998   0.960  13.750  2.1032 -0.6873 -1.1966
  617MPD2    H1 9144   2.731   1.095  13.438  0.7055  0.5913 -1.0091
  617MPD2    H2 9145   3.028   1.348  13.587  2.0953 -1.4910 -0.1746
  617MPD2    H3 9146   2.831   1.316  13.454  2.3771  2.0419  1.7989
  617MPD2     N 9147   2.766   0.900  13.613 -0.4326 -0.1082  0.1947
  617MPD2    H5 9148   2.692   0.885  13.545 -0.8148  1.9087  0.1671
  617MPD2    N1 9149   3.158   1.194  13.741  0.8963  0.3445  0.2579
  617MPD2    H7 9150   3.193   1.289  13.745  0.7706  0.4389 -0.8355
  618TMC3    C1 9151   3.337   1.176  13.895  0.2342 -0.2162  0.6150
  618TMC3    C2 9152   3.439   1.089  13.916 -0.3657 -0.1577  0.5902
  618TMC3    C3 9153   3.565   1.134  13.890 -0.3193  0.5415  0.1198
  618TMC3    C4 9154   3.356   1.309  13.863  0.7521 -0.0607 -0.6451
  618TMC3    C5 9155   3.488   1.352  13.844  0.0849  0.0706 -0.4890
  618TMC3    C6 9156   3.592   1.264  13.858 -0.6045  0.1172 -0.2734
  618TMC3     C 9157   3.223   1.114  13.829  0.1707  0.3252  0.1272
  618TMC3     O 9158   3.208   0.994  13.855 -0.1470  0.0244  0.6609
  618TMC3     H 9159   3.426   0.985  13.945  0.2473 -1.0094 -2.2017
  618TMC3    H1 9160   3.268   1.373  13.865 -1.2333 -2.8152  0.2656
  618TMC3    H2 9161   3.692   1.298  13.833 -0.0731 -0.4315  1.1492
  618TMC3    C7 9162   3.495   1.463  13.755 -0.4446  0.3542 -0.3049
  618TMC3    C8 9163   3.617   1.044  13.792  0.1378  0.7108 -0.6031
  618TMC3    O1 9164   3.408   1.464  13.667  0.3508  1.2506  0.2121
  618TMC3    O2 9165   3.530   0.996  13.727  0.1299 -0.2921  0.4796
  619MPD2     C 9166   0.205   1.961  13.730 -0.5802  0.5711  0.3701
  619MPD2    C1 9167   0.183   2.069  13.646  0.8238  0.3078  0.6723
  619MPD2    C2 9168   0.064   2.076  13.583 -0.7019 -0.4086  0.1561
  619MPD2    C3 9169   4.681   1.991  13.597  0.0405  0.4661  0.1640
  619MPD2    C4 9170   4.704   1.881  13.674 -0.8005 -0.0256  0.2222
  619MPD2    C5 9171   0.101   1.869  13.744 -0.1166  0.6901 -0.2718
  619MPD2     H 9172   0.053   2.154  13.508  0.8827 -0.3122  0.0334
  619MPD2    H1 9173   4.626   1.811  13.702 -0.5826 -1.2197 -2.1719
  619MPD2    H2 9174   0.296   1.943  13.787 -1.6463  0.0968  1.9406
  619MPD2    H3 9175   0.112   1.781  13.806  0.0786  1.3735  0.6567
  619MPD2     N 9176   4.553   2.009  13.545 -0.4725  0.5423  0.2052
  619MPD2    H5 9177   4.490   1.929  13.541  0.3133 -0.0170 -1.0226
  619MPD2    N1 9178   0.264   2.181  13.626 -0.0870 -0.0586  0.8114
  619MPD2    H7 9179   0.231   2.264  13.576  0.8359  0.7198  1.5045
  620TMC3    C1 9180   0.443   2.316  13.635  0.3018  0.4425  0.4264
  620TMC3    C2 9181   0.430   2.333  13.500 -0.6312 -0.3036 -0.1236
  620TMC3    C3 9182   0.449   2.460  13.458  0.0242  0.0845  0.0337
  620TMC3    C4 9183   0.462   2.421  13.722  1.0977 -0.4548 -0.7035
  620TMC3    C5 9184   0.470   2.547  13.677  0.5358  0.1863 -0.1951
  620TMC3    C6 9185   0.466   2.565  13.543 -0.3664  0.1269 -0.7582
  620TMC3     C 9186   0.385   2.199  13.694 -0.3366  0.1867  0.6321
  620TMC3     O 9187   0.433   2.159  13.798  0.3129 -0.2646  0.6025
  620TMC3     H 9188   0.412   2.251  13.432 -2.0103 -0.4662  0.4409
  620TMC3    H1 9189   0.444   2.410  13.828  2.3829 -0.0091 -0.4382
  620TMC3    H2 9190   0.468   2.667  13.508 -1.7135  0.8609  1.3108
  620TMC3    C7 9191   0.372   2.635  13.739  0.2239  0.1991  0.3241
  620TMC3    C8 9192   0.370   2.496  13.348  0.6400 -0.6925  0.2393
  620TMC3    O1 9193   0.378   2.654  13.859  0.4666  0.2680 -0.1721
  620TMC3    O2 9194   0.323   2.608  13.360  0.1345 -0.1489 -0.4437
  621MPD2     C 9195   0.171   3.007   9.570 -0.0548 -0.1414 -0.4134
  621MPD2    C1 9196   0.242   2.943   9.668  0.3039 -0.4885  0.4997
  621MPD2    C2 9197   0.383   2.964   9.685 -0.0862 -0.3326  0.9364
  621MPD2    C3 9198   0.448   3.071   9.616  0.5689  0.8958  0.1148
  621MPD2    C4 9199   0.363   3.141   9.524  0.4243 -0.2129 -0.3372
  621MPD2    C5 9200   0.234   3.106   9.499 -0.8167 -0.1387  0.0072
  621MPD2     H 9201   0.437   2.902   9.757 -1.5726  0.1455  2.4729
  621MPD2    H1 9202   0.384   3.234   9.472 -2.2933  0.2854 -0.5388
  621MPD2    H2 9203   0.064   3.001   9.553  0.0696 -2.1792 -0.4531
  621MPD2    H3 9204   0.171   3.163   9.432 -1.5704  0.6312  1.3810
  621MPD2     N 9205   0.585   3.099   9.630 -0.7129 -0.0359  0.2781
  621MPD2    H5 9206   0.629   3.059   9.712  0.1863 -0.2612 -0.3032
  621MPD2    N1 9207   0.186   2.853   9.761  0.3584 -0.6830 -0.8359
  621MPD2    H7 9208   0.238   2.804   9.833 -0.9536  1.0479  1.3246
  622TMC3    C1 9209   0.006   2.744   9.883 -0.6256  0.1654  0.3188
  622TMC3    C2 9210   4.623   2.774   9.959 -0.2996 -0.4610 -0.2631
  622TMC3    C3 9211   4.575   2.684  10.054  0.5912 -0.1428  0.7448
  622TMC3    C4 9212   0.061   2.616   9.883  0.6371 -0.0932 -0.3613
  622TMC3    C5 9213   0.020   2.533   9.985  0.1092 -0.1441 -0.0695
  622TMC3    C6 9214   4.634   2.562  10.064  0.2572  0.1105 -0.0742
  622TMC3     C 9215   0.049   2.835   9.776 -0.3049 -0.1190  0.0315
  622TMC3     O 9216   4.677   2.901   9.735  0.0321 -0.2823  0.5569
  622TMC3     H 9217   4.588   2.876   9.950 -0.9552 -0.6439  0.2236
  622TMC3    H1 9218   0.140   2.582   9.818 -0.2050 -1.6741 -0.5630
  622TMC3    H2 9219   4.595   2.503  10.146  0.5141  2.1564  1.5105
  622TMC3    C7 9220   0.075   2.399   9.976 -0.5718 -0.9178  0.1160
  622TMC3    C8 9221   4.448   2.696  10.112  0.8184 -0.1107 -0.6855
  622TMC3    O1 9222   0.182   2.384   9.927 -0.1435 -0.1494  0.1455
  622TMC3    O2 9223   4.425   2.627  10.210  0.1066 -0.2176  0.1490
  623MPD2     C 9224   3.589   2.714  15.733 -0.2832  0.0413 -0.1168
  623MPD2    C1 9225   3.543   2.802  15.833  0.0045 -0.0671 -0.1765
  623MPD2    C2 9226   3.625   2.889  15.895 -0.9070 -0.0901  0.3863
  623MPD2    C3 9227   3.761   2.902  15.859 -0.0164 -0.4812 -0.0531
  623MPD2    C4 9228   3.813   2.810  15.772  0.1941 -0.7086 -0.2625
  623MPD2    C5 9229   3.727   2.720  15.710 -0.7617 -0.9079  0.5961
  623MPD2     H 9230   3.586   2.957  15.970 -1.6577 -0.0141 -0.0725
  623MPD2    H1 9231   3.920   2.805  15.754  0.2584 -0.6174  0.1076
  623MPD2    H2 9232   3.526   2.634  15.694 -1.9763  0.3223  2.0714
  623MPD2    H3 9233   3.767   2.656  15.633 -0.0415 -1.3590  1.3421
  623MPD2     N 9234   3.834   3.001  15.935  0.0024  0.3663 -0.0416
  623MPD2    H5 9235   3.782   3.063  15.996  0.4718 -0.8968  1.6515
  623MPD2    N1 9236   3.416   2.796  15.890 -0.1788 -0.6385 -0.0828
  623MPD2    H7 9237   3.392   2.873  15.951  2.2833 -0.7837  1.0789
  624TMC3    C1 9238   4.191   3.149  16.205 -0.6377  1.0457 -0.4740
  624TMC3    C2 9239   4.102   3.212  16.295  0.0680 -0.1421  0.0054
  624TMC3    C3 9240   3.968   3.214  16.251  0.0905  0.2212 -0.0595
  624TMC3    C4 9241   4.150   3.078  16.090 -0.2152  0.4059  0.4684
  624TMC3    C5 9242   4.014   3.084  16.060 -0.0319 -0.2109 -0.1865
  624TMC3    C6 9243   3.929   3.155  16.136  0.8710  0.3878  0.8008
  624TMC3     C 9244   4.334   3.151  16.249 -0.5429 -0.7348  0.1497
  624TMC3     O 9245   4.363   3.199  16.357  0.6507  0.0337 -0.7587
  624TMC3     H 9246   4.128   3.259  16.390 -0.5195 -1.1457  0.6602
  624TMC3    H1 9247   4.214   3.005  16.043  0.9869  2.2126 -0.6694
  624TMC3    H2 9248   3.822   3.149  16.123  0.9530 -0.3527  0.4712
  624TMC3    C7 9249   3.973   2.998  15.950  0.4100  0.4151  0.7719
  624TMC3    C8 9250   3.870   3.217  16.358  0.2813 -0.0351  0.0929
  624TMC3    O1 9251   4.055   2.943  15.881  0.1986 -0.3107 -0.1936
  624TMC3    O2 9252   3.797   3.114  16.359 -0.2415 -0.1581  0.5860
  625MPD2     C 9253   3.933   3.933   0.576 -0.7799 -0.6331 -0.4524
  625MPD2    C1 9254   4.019   4.031   0.611  0.1694  1.0094 -0.4454
  625MPD2    C2 9255   4.131   3.996   0.691  1.1290  0.1541 -0.3683
  625MPD2    C3 9256   4.155   3.860   0.725  0.0475  0.2239  0.2485
  625MPD2    C4 9257   4.073   3.765   0.670 -0.4015  0.2677  0.0446
  625MPD2    C5 9258   3.965   3.800   0.593  0.1085 -0.0669 -0.0838
  625MPD2     H 9259   4.188   4.076   0.738 -0.6207  0.9143  0.4868
  625MPD2    H1 9260   4.088   3.660   0.691 -0.8585 -0.0324 -1.1689
  625MPD2    H2 9261   3.840   3.967   0.532  0.3324  2.7706 -0.1897
  625MPD2    H3 9262   3.894   3.726   0.557  0.9224 -0.6967 -0.3928
  625MPD2     N 9263   4.262   3.841   0.815  0.8096 -0.1280  0.3173
  625MPD2    H5 9264   4.287   3.927   0.863  0.9743  0.3793 -0.6848
  625MPD2    N1 9265   3.999   4.171   0.592  0.7315 -0.0558  0.5249
  625MPD2    H7 9266   4.056   4.243   0.634  0.2865 -0.2442  1.4565
  626TMC3    C1 9267   3.884   4.366   0.525  0.5101 -0.3125 -0.3421
  626TMC3    C2 9268   3.860   4.442   0.408  0.1023  0.0746 -0.9259
  626TMC3    C3 9269   3.796   4.559   0.427 -0.6800  0.1860  0.1115
  626TMC3    C4 9270   3.823   4.392   0.645  0.0434 -0.2367  0.2243
  626TMC3    C5 9271   3.757   4.509   0.649 -0.2353 -0.1765  0.7776
  626TMC3    C6 9272   3.743   4.590   0.539  0.3219  0.7011  0.4088
  626TMC3     C 9273   3.914   4.228   0.497  0.0100  0.8658  0.7264
  626TMC3     O 9274   3.862   4.179   0.396 -0.5074 -0.0462  0.2603
  626TMC3     H 9275   3.904   4.409   0.316  0.7646 -0.1900 -0.5111
  626TMC3    H1 9276   3.842   4.334   0.735 -0.2296  0.8383  0.9844
  626TMC3    H2 9277   3.721   4.696   0.540 -3.9058 -0.1589 -0.3238
  626TMC3    C7 9278   3.703   4.551   0.780 -0.8043  0.3450  0.1547
  626TMC3    C8 9279   3.752   4.641   0.315  0.1860  0.4939  0.3135
  626TMC3    O1 9280   3.715   4.469   0.870  0.3723  0.1225  0.1136
  626TMC3    O2 9281   3.842   4.659   0.230 -0.2958 -0.2215 -0.1206
  627MPD2     C 9282   3.063   4.209  13.814 -0.0132  0.1054 -0.1419
  627MPD2    C1 9283   3.031   4.293  13.917 -0.7097 -0.2138 -0.1725
  627MPD2    C2 9284   2.896   4.277  13.970 -0.4260  0.4698  0.6674
  627MPD2    C3 9285   2.819   4.166  13.943  0.0858 -0.4352 -0.0844
  627MPD2    C4 9286   2.870   4.078  13.844 -0.2606 -0.1658  0.3268
  627MPD2    C5 9287   2.989   4.096  13.780  0.0702 -0.1719 -0.2188
  627MPD2     H 9288   2.857   4.335  14.053  1.4788  0.2072  1.7396
  627MPD2    H1 9289   2.822   3.984  13.819 -1.4364 -0.1466  2.5362
  627MPD2    H2 9290   3.167   4.201  13.783 -0.4749 -1.6130 -1.2490
  627MPD2    H3 9291   3.030   4.012  13.725  2.7550  1.1274 -0.2158
  627MPD2     N 9292   2.706   4.132  14.026 -0.2774  0.2501  0.1509
  627MPD2    H5 9293   2.678   4.206  14.090  0.4514 -0.0821  0.8545
  627MPD2    N1 9294   3.119   4.385  13.979 -0.9761  0.0883 -0.7061
  627MPD2    H7 9295   3.090   4.428  14.066  1.1915 -1.0035  0.5628
  628TMC3    C1 9296   3.318   4.493  14.026  0.7529  0.0394  0.3366
  628TMC3    C2 9297   3.444   4.462  14.064  0.0577 -0.4110  0.5619
  628TMC3    C3 9298   3.530   4.563  14.087 -0.1307 -0.1025  0.1041
  628TMC3    C4 9299   3.277   4.625  14.008  0.0269 -0.1464  0.0269
  628TMC3    C5 9300   3.374   0.001  14.023 -0.2667  0.1246  0.0098
  628TMC3    C6 9301   3.503   4.689  14.054 -0.6725  0.3126 -0.4109
  628TMC3     C 9302   3.254   4.396  13.949  0.4065  0.5092  0.2264
  628TMC3     O 9303   3.325   4.322  13.883 -0.0855  0.6438  0.3018
  628TMC3     H 9304   3.475   4.359  14.070  0.8186 -0.0710  2.5174
  628TMC3    H1 9305   3.181   4.644  13.961  1.3274  1.2592 -2.0578
  628TMC3    H2 9306   3.568   0.041  14.099 -1.3197  0.9365 -0.4976
  628TMC3    C7 9307   3.354   0.139  13.981 -0.2088 -0.5107  0.4584
  628TMC3    C8 9308   3.667   4.534  14.128  0.1223 -0.6714  0.0033
  628TMC3    O1 9309   3.457   0.204  13.970 -0.0276  0.5060  0.6521
  628TMC3    O2 9310   3.756   4.616  14.095  0.0561  0.2820  0.1083
  629MPD2     C 9311   0.983   3.895  16.334 -0.6489 -0.4720  0.1630
  629MPD2    C1 9312   1.017   3.765  16.313  0.0266  0.0517  0.2338
  629MPD2    C2 9313   0.919   3.672  16.285  0.3403 -0.2889  0.1488
  629MPD2    C3 9314   0.780   3.706  16.292  0.0017  0.1404 -0.1084
  629MPD2    C4 9315   0.750   3.839  16.316  0.1760  0.3644 -0.5565
  629MPD2    C5 9316   0.848   3.929  16.340  0.2422  0.6060  0.3907
  629MPD2     H 9317   0.962   3.574  16.269 -0.3668 -0.7261  0.9511
  629MPD2    H1 9318   0.646   3.868  16.327 -0.3260 -1.3868 -0.6282
  629MPD2    H2 9319   1.056   3.971  16.361 -1.5347  0.5066 -0.2180
  629MPD2    H3 9320   0.834   4.035  16.360  2.6339  0.9681  0.2083
  629MPD2     N 9321   0.672   3.611  16.268 -0.1289 -0.1015  0.1416
  629MPD2    H5 9322   0.579   3.650  16.279 -0.7089 -1.6815  0.7216
  629MPD2    N1 9323   1.152   3.735  16.321 -0.1920  0.0562  0.0969
  629MPD2    H7 9324   1.218   3.811  16.337  0.8487 -0.4805 -1.6436
  630TMC3    C1 9325   1.341   3.609  16.356  0.6578 -0.6085  0.4399
  630TMC3    C2 9326   1.416   3.724  16.330 -0.4786 -0.0849 -0.9222
  630TMC3    C3 9327   1.540   3.723  16.380  0.0437 -0.0738  0.5540
  630TMC3    C4 9328   1.387   3.502  16.426  0.4806  0.1186 -0.3522
  630TMC3    C5 9329   1.511   3.511  16.487  0.0596 -0.5933  0.3276
  630TMC3    C6 9330   1.589   3.622  16.460 -0.1096 -0.1427  0.0416
  630TMC3     C 9331   1.207   3.606  16.310 -0.5294  0.9214 -0.1414
  630TMC3     O 9332   1.163   3.494  16.294 -0.1303 -0.2070 -0.4603
  630TMC3     H 9333   1.378   3.811  16.277 -1.4838  0.8348  1.3462
  630TMC3    H1 9334   1.305   3.437  16.454  1.1551 -0.6610 -0.1774
  630TMC3    H2 9335   1.671   3.660  16.520 -1.7024  0.9906  1.5084
  630TMC3    C7 9336   1.527   3.434  16.605  0.4240 -0.0730  0.0916
  630TMC3    C8 9337   1.633   3.825  16.348  0.2816  0.1439 -0.3393
  630TMC3    O1 9338   1.427   3.386  16.654  0.6246 -0.3274  0.3564
  630TMC3    O2 9339   1.728   3.841  16.421  0.1136 -1.0020 -0.1799
  631MPD2     C 9340   4.303   3.076  15.254  0.1510 -0.1632 -0.2189
  631MPD2    C1 9341   4.371   3.185  15.200 -0.0885  0.7248  0.5408
  631MPD2    C2 9342   4.506   3.166  15.157  0.7271 -0.0339 -0.1536
  631MPD2    C3 9343   4.571   3.045  15.178  0.3220 -0.7633 -0.2470
  631MPD2    C4 9344   4.496   2.941  15.233 -0.2526  0.3265 -0.5038
  631MPD2    C5 9345   4.368   2.957  15.266 -0.3031 -0.5417 -0.4792
  631MPD2     H 9346   4.566   3.243  15.110 -1.5108  1.7549 -0.0247
  631MPD2    H1 9347   4.534   2.843  15.256  2.3867  1.5099  0.2192
  631MPD2    H2 9348   4.204   3.087  15.297  0.6115  5.8925 -0.7561
  631MPD2    H3 9349   4.311   2.879  15.314 -0.8457 -0.0275 -0.2887
  631MPD2     N 9350   4.711   3.041  15.145 -0.2770  0.5866 -0.0691
  631MPD2    H5 9351   0.033   3.128  15.117  0.9571  0.1905  0.6597
  631MPD2    N1 9352   4.298   3.305  15.201 -0.2481  0.0910 -0.7607
  631MPD2    H7 9353   4.214   3.310  15.258 -1.0279  0.3289 -1.9358
  632TMC3    C1 9354   4.242   3.531  15.152 -0.1262  0.4577  0.4356
  632TMC3    C2 9355   4.107   3.503  15.160 -0.6076 -0.2493  0.3639
  632TMC3    C3 9356   4.028   3.603  15.114  0.1232  0.0435  0.6486
  632TMC3    C4 9357   4.289   3.651  15.103  0.2526 -0.6024  0.2673
  632TMC3    C5 9358   4.204   3.740  15.051  0.1027  0.0554  0.0724
  632TMC3    C6 9359   4.068   3.719  15.063 -0.9607  0.2841  0.2350
  632TMC3     C 9360   4.336   3.420  15.136  0.0577 -0.3005  0.3805
  632TMC3     O 9361   4.430   3.426  15.055  0.3984 -0.2912  0.0236
  632TMC3     H 9362   4.061   3.407  15.176  0.1688 -0.6567  0.1607
  632TMC3    H1 9363   4.396   3.665  15.100 -0.3273  3.2241 -2.1201
  632TMC3    H2 9364   3.990   3.783  15.024 -0.5282 -0.3968 -1.7563
  632TMC3    C7 9365   4.248   3.822  14.941 -0.7084 -0.4804  0.2190
  632TMC3    C8 9366   3.887   3.571  15.104 -0.0830 -0.3431  0.0527
  632TMC3    O1 9367   4.163   3.874  14.872 -1.0776 -0.2084 -0.1296
  632TMC3    O2 9368   3.863   3.456  15.072  0.4653 -0.0758 -1.1253
  633MPD2     C 9369   4.139   1.776  17.451  0.3615  0.3074  0.0004
  633MPD2    C1 9370   4.144   1.682  17.357 -0.0949  0.2678  0.5384
  633MPD2    C2 9371   4.155   1.551  17.394 -0.2547 -0.1015  0.2128
  633MPD2    C3 9372   4.163   1.507  17.520 -0.3171  0.2824  0.1874
  633MPD2    C4 9373   4.153   1.602  17.624  0.4534  0.9113  0.1167
  633MPD2    C5 9374   4.149   1.733  17.582  0.0225 -0.2942  0.0865
  633MPD2     H 9375   4.141   1.481  17.313 -0.5868 -0.1824  0.3413
  633MPD2    H1 9376   4.142   1.575   0.036 -2.1119  1.0004 -0.1518
  633MPD2    H2 9377   4.128   1.881  17.427  1.6896  0.5914  0.6596
  633MPD2    H3 9378   4.140   1.808  17.659 -0.1106 -1.8306  1.5603
  633MPD2     N 9379   4.151   1.369  17.550 -0.1158  0.3813  0.7252
  633MPD2    H5 9380   4.121   1.317  17.469  0.4847 -0.5354  1.0873
  633MPD2    N1 9381   4.136   1.714  17.218 -0.5947 -0.3999  0.5523
  633MPD2    H7 9382   4.146   1.632  17.159 -0.6796  1.0751 -1.5018
  634TMC3    C1 9383   4.115   1.819  17.007 -1.2932  0.0376  0.3823
  634TMC3    C2 9384   4.184   1.709  16.953  0.0133  0.5014  0.0893
  634TMC3    C3 9385   4.173   1.694  16.817  0.2235  0.5599  0.0585
  634TMC3    C4 9386   4.053   1.910  16.931 -0.2677 -0.4241  0.0740
  634TMC3    C5 9387   4.048   1.889  16.790  0.5033  0.0170 -0.2204
  634TMC3    C6 9388   4.108   1.784  16.741 -0.0521 -0.1336  0.3777
  634TMC3     C 9389   4.115   1.831  17.153  0.6739  0.2050  0.7439
  634TMC3     O 9390   4.068   1.931  17.204 -0.0478 -0.0973 -0.2408
  634TMC3     H 9391   4.241   1.644  17.019  1.0778  0.3446 -0.9711
  634TMC3    H1 9392   3.996   1.989  16.978 -0.6617 -0.8667  0.3380
  634TMC3    H2 9393   4.084   1.766  16.636 -1.6811 -1.3021  0.9457
  634TMC3    C7 9394   3.969   1.972  16.705  0.2090 -0.5086 -0.6248
  634TMC3    C8 9395   4.203   1.562  16.762 -0.3167 -0.1199 -0.3983
  634TMC3    O1 9396   3.968   1.946  16.586 -0.3426 -0.1948 -0.4762
  634TMC3    O2 9397   4.239   1.472  16.840 -0.5527  0.1101  0.2268
  635TMC3    C1 9398   4.606   2.936  16.740  0.0828  0.1983 -0.3859
  635TMC3    C2 9399   0.019   2.934  16.714  0.3834  0.2058 -0.0569
  635TMC3    C3 9400   0.064   2.903  16.588 -0.1888  0.0105  0.4757
  635TMC3    C4 9401   4.511   2.902  16.646 -0.5206  0.3701  0.2581
  635TMC3    C5 9402   4.558   2.867  16.521  0.1876  0.2080 -0.6219
  635TMC3    C6 9403   4.695   2.874  16.487 -0.5022  0.4282 -0.4304
  635TMC3     C 9404   4.563   2.993  16.865 -0.0972  0.1225  0.6671
  635TMC3     O 9405   4.446   2.974  16.900 -0.0261  0.2436  0.4518
  635TMC3     H 9406   0.082   2.936  16.802  1.0401 -0.0543 -0.5266
  635TMC3    H1 9407   4.407   2.902  16.675 -0.5291  0.4800  0.2266
  635TMC3    H2 9408   0.003   2.857  16.385 -0.0526  0.9768 -0.3911
  635TMC3    C7 9409   4.476   2.812  16.420  0.0650  0.1811 -0.5915
  635TMC3    C8 9410   0.199   2.856  16.586  0.4697  0.9612 -0.4251
  635TMC3    O1 9411   4.523   2.774  16.311  0.0996 -0.0840  0.3442
  635TMC3    O2 9412   0.271   2.869  16.685  0.1231 -0.0261 -0.4677
  636MPD2     C 9413   0.610   1.951  15.575  0.1529  0.1552  0.1634
  636MPD2    C1 9414   0.649   1.946  15.707  0.5606  0.1450 -0.1999
  636MPD2    C2 9415   0.747   1.857  15.736  0.1002 -0.0854 -0.1092
  636MPD2    C3 9416   0.795   1.760  15.654 -0.0746  0.3074 -0.4800
  636MPD2    C4 9417   0.736   1.750  15.534  0.1833 -0.5528  0.2731
  636MPD2    C5 9418   0.649   1.844  15.489  0.2154  0.2889  0.0948
  636MPD2     H 9419   0.787   1.867  15.836  0.0828  1.2323 -0.2301
  636MPD2    H1 9420   0.770   1.669  15.471 -1.4916 -1.1649  0.1529
  636MPD2    H2 9421   0.523   2.005  15.540  0.6903  0.3540 -0.8503
  636MPD2    H3 9422   0.610   1.829  15.389  1.1540  1.8908 -0.5212
  636MPD2     N 9423   0.888   1.673  15.707  0.1326 -0.4108  0.0116
  636MPD2    H5 9424   0.932   1.690  15.797 -0.2326  0.3712  0.0425
  636MPD2    N1 9425   0.608   2.032  15.816 -0.7590 -0.0248 -0.5154
  636MPD2    H7 9426   0.668   2.040  15.897 -1.0442 -1.7712 -0.1321
  637TMC3    C1 9427   1.049   1.501  15.721 -0.0284 -0.3976 -0.3087
  637TMC3    C2 9428   1.060   1.530  15.854 -0.1189  0.0248  0.3118
  637TMC3    C3 9429   1.187   1.571  15.899 -0.4565 -0.7107  0.0045
  637TMC3    C4 9430   1.154   1.515  15.630  0.1848  0.3301 -0.2292
  637TMC3    C5 9431   1.281   1.555  15.679 -0.1427  0.3439  0.0555
  637TMC3    C6 9432   1.293   1.587  15.809 -0.8007 -0.1657 -0.1237
  637TMC3     C 9433   0.929   1.551  15.657  0.3619  0.7679 -0.1583
  637TMC3     O 9434   0.910   1.505  15.543  0.2090 -0.1565  0.4455
  637TMC3     H 9435   0.974   1.514  15.919  0.0896  0.0051  0.5856
  637TMC3    H1 9436   1.130   1.486  15.529  0.6180  1.7974 -0.7517
  637TMC3    H2 9437   1.383   1.631  15.853 -1.0047  2.2406 -2.0974
  637TMC3    C7 9438   1.369   1.636  15.595  0.1896 -0.6497  0.0376
  637TMC3    C8 9439   1.165   1.693  15.970  0.0154  0.3341  0.4610
  637TMC3    O1 9440   1.444   1.712  15.652  0.7426 -0.3053  0.2661
  637TMC3    O2 9441   1.055   1.741  15.944  0.2570  0.5304  0.4911
  638MPD2     C 9442   0.517   0.512  14.873 -0.0542 -0.0955  0.1072
  638MPD2    C1 9443   0.462   0.423  14.780 -0.0201  0.3612  0.9294
  638MPD2    C2 9444   0.395   0.310  14.828  0.2228  0.9497  0.0905
  638MPD2    C3 9445   0.376   0.288  14.961 -0.7650 -0.8073 -0.3513
  638MPD2    C4 9446   0.423   0.386  15.050 -0.2025 -0.1170  0.4047
  638MPD2    C5 9447   0.484   0.500  15.007 -0.5898 -0.1567 -0.1231
  638MPD2     H 9448   0.360   0.235  14.758 -1.8786  1.8712  0.1549
  638MPD2    H1 9449   0.414   0.385  15.158  0.4846 -0.3596  0.4586
  638MPD2    H2 9450   0.569   0.600  14.837  0.2578 -0.1172  0.4990
  638MPD2    H3 9451   0.511   0.574  15.081  1.6627  2.6800 -3.8181
  638MPD2     N 9452   0.317   0.159  14.995 -0.0145  0.5609 -0.7575
  638MPD2    H5 9453   0.311   0.087  14.924 -0.6193  0.2462 -0.3879
  638MPD2    N1 9454   0.495   0.447  14.640 -0.1348  0.8959  0.6744
  638MPD2    H7 9455   0.585   0.490  14.624 -0.9379  2.2067 -0.3305
  639TMC3    C1 9456   0.256   4.707  15.137  0.5827 -0.4039  0.4775
  639TMC3    C2 9457   0.184   4.650  15.040  0.7633 -0.1588  0.5049
  639TMC3    C3 9458   0.137   4.525  15.067  0.4774 -0.2219  0.3361
  639TMC3    C4 9459   0.269   4.649  15.266  0.4755 -0.1069  0.0240
  639TMC3    C5 9460   0.250   4.517  15.276  0.4244 -0.0440  0.8995
  639TMC3    C6 9461   0.181   4.452  15.177 -0.0474 -0.6663 -0.5604
  639TMC3     C 9462   0.289   0.127  15.125 -0.2786 -0.7166  0.3228
  639TMC3     O 9463   0.287   0.198  15.228  0.5868  0.0229 -0.5134
  639TMC3     H 9464   0.148   4.715  14.961  1.3743 -1.8904 -1.1980
  639TMC3    H1 9465   0.335   4.699  15.336  1.1259 -0.0742 -0.6115
  639TMC3    H2 9466   0.155   4.349  15.199 -0.3503 -0.3739  0.4387
  639TMC3    C7 9467   0.341   4.432  15.350  0.4385 -0.7655 -0.2119
  639TMC3    C8 9468   0.074   4.456  14.951 -0.9797  0.2253  0.3719
  639TMC3    O1 9469   0.283   4.344  15.412  0.0156  0.5933 -0.0753
  639TMC3    O2 9470   0.112   4.497  14.840 -0.2934  0.3722  0.6231
  640MPD2     C 9471   1.520   4.595   9.826 -0.1567  0.4526  0.0285
  640MPD2    C1 9472   1.390   4.591   9.780 -0.2263 -0.2902 -0.4775
  640MPD2    C2 9473   1.326   4.705   9.744 -0.1563 -1.1165 -0.2284
  640MPD2    C3 9474   1.399   0.099   9.749  0.6602 -1.0474  0.4057
  640MPD2    C4 9475   1.517   0.108   9.814  0.1012  0.0976 -0.4222
  640MPD2    C5 9476   1.581   4.718   9.851 -0.3743 -0.1026  0.4487
  640MPD2     H 9477   1.222   4.706   9.711  0.1417 -1.6546 -1.2084
  640MPD2    H1 9478   1.561   0.207   9.812 -2.3951  1.2100 -0.0680
  640MPD2    H2 9479   1.575   4.503   9.842 -2.5506 -1.1226 -0.7001
  640MPD2    H3 9480   1.683   0.007   9.884 -0.3457  0.7326  0.0586
  640MPD2     N 9481   1.339   0.221   9.693 -0.2496  0.0687  0.3289
  640MPD2    H5 9482   1.375   0.307   9.734  0.3201  0.6921 -1.4948
  640MPD2    N1 9483   1.322   4.466   9.770 -0.6874 -0.0447  0.0883
  640MPD2    H7 9484   1.380   4.390   9.805 -1.3198 -0.4097  0.3411
  641TMC3    C1 9485   1.144   4.322   9.742  0.1999  0.1858 -0.5063
  641TMC3    C2 9486   1.234   4.216   9.736 -0.4443  0.2530  0.5133
  641TMC3    C3 9487   1.180   4.093   9.728 -0.4936 -0.4161  0.4688
  641TMC3    C4 9488   1.007   4.301   9.736 -0.9366  0.6547  0.4832
  641TMC3    C5 9489   0.965   4.174   9.722 -0.3801 -0.3105  0.3760
  641TMC3    C6 9490   1.048   4.066   9.719  0.7509  0.5836 -0.0503
  641TMC3     C 9491   1.191   4.454   9.729  0.3390  0.4769 -0.6199
  641TMC3     O 9492   1.107   4.533   9.680  0.7420  0.8100  0.0709
  641TMC3     H 9493   1.342   4.231   9.737 -0.3867 -0.2695  1.7874
  641TMC3    H1 9494   0.947   4.391   9.724 -1.2216  0.5009  0.7695
  641TMC3    H2 9495   1.017   3.962   9.711  4.2453 -0.6285  2.3686
  641TMC3    C7 9496   0.827   4.128   9.725 -1.0118 -0.4114 -0.3177
  641TMC3    C8 9497   1.263   3.983   9.686 -0.3414  0.3493  0.3454
  641TMC3    O1 9498   0.809   4.024   9.658 -0.3263  0.1264  0.2995
  641TMC3    O2 9499   1.206   3.883   9.652 -0.3892  0.4069 -0.0731
  642TMC3    C1 9500   2.050   0.229  12.215  0.0402  0.1395 -0.0069
  642TMC3    C2 9501   2.107   0.194  12.336  0.0395  0.4239  0.5039
  642TMC3    C3 9502   2.120   0.061  12.352 -0.3203  0.1661 -0.1926
  642TMC3    C4 9503   2.038   0.145  12.111 -0.1075  0.6800  0.1685
  642TMC3    C5 9504   2.062   0.017  12.136  0.2280  0.3578 -0.7935
  642TMC3    C6 9505   2.110   4.695  12.253  0.1607 -0.1947 -0.9917
  642TMC3     C 9506   1.985   0.357  12.200 -0.8900 -0.8181  0.0845
  642TMC3     O 9507   1.990   0.407  12.088  0.4211 -0.3026  0.1520
  642TMC3     H 9508   2.124   0.268  12.414 -0.1929  1.6661 -0.6277
  642TMC3    H1 9509   1.982   0.175  12.023  2.0050 -0.3129 -1.5109
  642TMC3    H2 9510   2.139   4.591  12.266 -2.1649 -0.7658 -0.3271
  642TMC3    C7 9511   1.993   4.650  12.048 -0.3251 -0.0431  0.0478
  642TMC3    C8 9512   2.175   0.003  12.473 -0.1116 -0.1838 -0.7587
  642TMC3    O1 9513   1.988   4.683  11.932  0.1157  0.2837 -0.8039
  642TMC3    O2 9514   2.237   4.619  12.475 -0.5204 -0.0284 -0.8640
  643TMC3    C1 9515   1.089   4.301   0.452 -0.3591 -0.0534  0.3646
  643TMC3    C2 9516   0.951   4.282   0.423  0.0448 -1.3297  0.1279
  643TMC3    C3 9517   0.918   4.259   0.290 -0.1133 -1.0885  0.6637
  643TMC3    C4 9518   1.187   4.298   0.360  0.8449  0.2948  0.0709
  643TMC3    C5 9519   1.152   4.262   0.233  0.7662 -0.5642  0.3837
  643TMC3    C6 9520   1.023   4.241   0.201  0.0818  0.6948 -0.5594
  643TMC3     C 9521   1.122   4.384   0.565 -0.4228 -0.5905  0.1331
  643TMC3     O 9522   1.030   4.451   0.607 -0.5065  0.0173  0.0410
  643TMC3     H 9523   0.885   4.293   0.508 -0.3403  0.0207 -0.3378
  643TMC3    H1 9524   1.286   4.342   0.367  1.1343 -0.6593  1.8714
  643TMC3    H2 9525   1.002   4.219   0.097 -0.7947 -0.8723 -0.0582
  643TMC3    C7 9526   1.234   4.288   0.121  0.2735  0.1479 -0.4327
  643TMC3    C8 9527   0.809   4.332   0.228 -0.2048  0.0293  0.4812
  643TMC3    O1 9528   1.178   4.340   0.025  0.8114  0.3751  0.7947
  643TMC3    O2 9529   0.707   4.358   0.293  0.0519 -0.2166  0.1363
  644MPD2     C 9530   1.383   0.379   9.302  0.3646 -0.6495  0.2021
  644MPD2    C1 9531   1.477   0.370   9.399 -0.2104 -0.5808  0.2422
  644MPD2    C2 9532   1.512   0.479   9.477 -0.3334  0.0553 -0.0609
  644MPD2    C3 9533   1.457   0.604   9.458  0.3124  0.7342 -0.1819
  644MPD2    C4 9534   1.376   0.616   9.346  0.3830 -0.0407 -0.2241
  644MPD2    C5 9535   1.339   0.504   9.275 -0.0017  0.4265  0.0306
  644MPD2     H 9536   1.597   0.472   9.545 -0.2337  1.5159 -0.0317
  644MPD2    H1 9537   1.346   0.714   9.310  0.6184  0.0539 -0.1584
  644MPD2    H2 9538   1.354   0.297   9.237 -1.1255  0.4912 -0.5690
  644MPD2    H3 9539   1.269   0.504   9.192  1.0763 -3.7382 -0.8589
  644MPD2     N 9540   1.494   0.722   9.528  0.5464 -0.3019  0.2056
  644MPD2    H5 9541   1.450   0.810   9.503  2.0705  0.4972  0.3210
  644MPD2    N1 9542   1.526   0.238   9.416 -0.6540 -0.0844 -0.7224
  644MPD2    H7 9543   1.483   0.159   9.370  0.4645 -0.4216 -1.1799
  645TMC3    C1 9544   1.604   0.867   9.685 -0.0998  0.1908 -0.1275
  645TMC3    C2 9545   1.493   0.945   9.704 -0.2016 -0.2798 -0.0140
  645TMC3    C3 9546   1.503   1.066   9.772  0.6503 -0.8160 -0.2555
  645TMC3    C4 9547   1.729   0.911   9.718  0.6279  1.0542 -0.0942
  645TMC3    C5 9548   1.732   1.036   9.792  0.3930  0.2654 -0.2129
  645TMC3    C6 9549   1.619   1.115   9.823  0.0511  0.1405  0.0110
  645TMC3     C 9550   1.595   0.734   9.627 -0.8880 -0.2506  0.4700
  645TMC3     O 9551   1.674   0.650   9.662  0.4521  0.7812  0.1915
  645TMC3     H 9552   1.395   0.903   9.685 -0.7158  0.4290  1.0461
  645TMC3    H1 9553   1.822   0.856   9.706  1.4117  2.2401  0.4840
  645TMC3    H2 9554   1.616   1.200   9.891  2.1426 -0.6439  1.0713
  645TMC3    C7 9555   1.863   1.099   9.801  0.3155 -0.3117 -0.7985
  645TMC3    C8 9556   1.395   1.142   9.825  0.5055 -0.1989  0.5404
  645TMC3    O1 9557   1.968   1.034   9.802 -0.0418  0.4734 -0.5236
  645TMC3    O2 9558   1.411   1.199   9.929 -0.4375  0.4357  0.2211
  646MPD2     C 9559   0.543   3.864  14.411  0.4299 -0.2913 -0.8242
  646MPD2    C1 9560   0.431   3.840  14.482 -0.0969 -0.3760 -0.0813
  646MPD2    C2 9561   0.313   3.903  14.451  0.2964 -0.0359 -0.6665
  646MPD2    C3 9562   0.299   3.974  14.339  0.0761  0.1906 -1.1578
  646MPD2    C4 9563   0.416   4.005  14.265  0.1125 -0.2954 -0.4737
  646MPD2    C5 9564   0.535   3.957  14.314 -1.0370  0.9148  0.6013
  646MPD2     H 9565   0.227   3.897  14.517  0.0559  1.6100 -0.8288
  646MPD2    H1 9566   0.415   4.059  14.171  1.2192  1.7161  0.6807
  646MPD2    H2 9567   0.637   3.817  14.436 -0.2201 -0.4308  1.3729
  646MPD2    H3 9568   0.626   3.976  14.257 -0.0877  1.1641  2.1929
  646MPD2     N 9569   0.182   4.029  14.305  0.0643 -0.1861  0.0393
  646MPD2    H5 9570   0.103   4.005  14.364  0.3496 -2.1870 -0.3919
  646MPD2    N1 9571   0.443   3.751  14.591  1.0678 -0.1184 -0.1684
  646MPD2    H7 9572   0.541   3.740  14.616  1.3921  1.3581 -0.7639
  647TMC3    C1 9573   0.398   3.612  14.774 -0.2240 -1.0833 -0.0839
  647TMC3    C2 9574   0.335   3.633  14.895 -0.0372 -0.2696 -0.1026
  647TMC3    C3 9575   0.413   3.649  15.003  0.5809  0.4129  0.4253
  647TMC3    C4 9576   0.530   3.590  14.764  0.5928  0.1994 -0.0117
  647TMC3    C5 9577   0.610   3.586  14.876  0.2296  0.8226  0.8373
  647TMC3    C6 9578   0.551   3.625  14.993 -0.0049  0.1540 -0.6746
  647TMC3     C 9579   0.345   3.688  14.662 -0.5789  0.5336 -0.0717
  647TMC3     O 9580   0.226   3.706  14.644  0.6604 -0.3250  0.0845
  647TMC3     H 9581   0.229   3.652  14.886  0.1945  1.0522 -0.0809
  647TMC3    H1 9582   0.568   3.559  14.668 -1.3442 -0.5350 -0.5412
  647TMC3    H2 9583   0.616   3.666  15.069  1.1275 -1.1152 -0.9630
  647TMC3    C7 9584   0.695   3.467  14.901  0.0865  0.0402  0.3495
  647TMC3    C8 9585   0.353   3.639  15.137  0.3131 -0.0454  0.2697
  647TMC3    O1 9586   0.791   3.481  14.981 -0.2432 -0.1069  0.0500
  647TMC3    O2 9587   0.244   3.683  15.162  0.3739 -0.2104  0.6354
  648TMC3    C1 9588   4.376   1.432  16.000 -0.1714 -0.4097  0.6346
  648TMC3    C2 9589   4.453   1.323  15.957  0.3791 -0.1780  0.7876
  648TMC3    C3 9590   4.383   1.229  15.883 -0.1700  0.7845 -0.0361
  648TMC3    C4 9591   4.248   1.448  15.959 -0.4212 -0.2006  0.2994
  648TMC3    C5 9592   4.197   1.370  15.861 -0.2214  0.0713 -0.6954
  648TMC3    C6 9593   4.257   1.251  15.832  0.2396 -0.2694 -0.2018
  648TMC3     C 9594   4.413   1.517  16.107  0.0091 -0.1733  0.3034
  648TMC3     O 9595   4.355   1.628  16.114 -0.7245 -0.1273 -0.0202
  648TMC3     H 9596   4.558   1.309  15.978  0.1977 -1.8530  0.5620
  648TMC3    H1 9597   4.184   1.524  16.003  0.4586  0.5618  0.2689
  648TMC3    H2 9598   4.215   1.181  15.761  0.8544 -0.6114 -0.2302
  648TMC3    C7 9599   4.055   1.395  15.818  0.4127 -0.4722  0.3857
  648TMC3    C8 9600   4.459   1.110  15.835 -0.1194 -0.0967 -0.7538
  648TMC3    O1 9601   3.999   1.304  15.756  0.2339 -0.0954  0.1392
  648TMC3    O2 9602   4.580   1.119  15.834 -0.4443  0.2899 -0.0053
  649TMC3    C1 9603   3.079   2.372  12.887 -0.1213 -0.8942 -0.7269
  649TMC3    C2 9604   3.211   2.401  12.869 -0.4026 -0.1326 -0.0697
  649TMC3    C3 9605   3.301   2.358  12.969 -0.3081 -1.1863  0.8865
  649TMC3    C4 9606   3.032   2.305  12.997  0.1831 -0.0562  0.1840
  649TMC3    C5 9607   3.127   2.257  13.083  0.0172  0.0094  0.3652
  649TMC3    C6 9608   3.259   2.272  13.069 -0.4308 -0.1004  0.0311
  649TMC3     C 9609   2.991   2.432  12.789 -1.1005 -0.2757  0.8407
  649TMC3     O 9610   3.026   2.537  12.736 -0.1997 -0.0180  0.2962
  649TMC3     H 9611   3.235   2.477  12.795 -0.8473  2.0630  2.0658
  649TMC3    H1 9612   2.925   2.302  13.008  0.1078  0.9051 -0.3216
  649TMC3    H2 9613   3.331   2.217  13.128 -1.0263 -1.4105 -0.4440
  649TMC3    C7 9614   3.073   2.190  13.204  0.1810 -0.5513 -0.7092
  649TMC3    C8 9615   3.440   2.387  12.963 -0.1010 -0.2131 -0.0465
  649TMC3    O1 9616   2.950   2.162  13.203 -0.0024  0.9114  0.3040
  649TMC3    O2 9617   3.506   2.371  13.066  0.0021 -0.0378 -0.0075
  650TMC3    C1 9618   1.654   4.149  12.645  0.2689 -0.0278 -0.3402
  650TMC3    C2 9619   1.634   4.269  12.700  0.1928  0.4261  0.2249
  650TMC3    C3 9620   1.525   4.347  12.653 -0.5127  0.2464 -0.3352
  650TMC3    C4 9621   1.558   4.092  12.560 -0.5659  0.1451 -0.0964
  650TMC3    C5 9622   1.449   4.174  12.517 -0.3108  0.1565  0.4523
  650TMC3    C6 9623   1.427   4.300  12.575  0.1310 -0.2084  0.7305
  650TMC3     C 9624   1.767   4.076  12.689 -0.5068  0.3740  0.7874
  650TMC3     O 9625   1.863   4.121  12.746  1.0995  0.0669  0.1809
  650TMC3     H 9626   1.710   4.307  12.769 -0.3957  2.3794 -0.1931
  650TMC3    H1 9627   1.574   3.992  12.523 -1.1059 -0.2888  0.8293
  650TMC3    H2 9628   1.346   4.362  12.540  0.1219 -0.2169  0.7364
  650TMC3    C7 9629   1.381   4.134  12.391 -0.3110  1.1015  0.3328
  650TMC3    C8 9630   1.497   4.471  12.718  0.5713 -0.2399 -0.4258
  650TMC3    O1 9631   1.394   4.013  12.371  0.2568 -0.2745 -0.0286
  650TMC3    O2 9632   1.587   4.536  12.767 -0.5138  0.2896  0.3533
  651MPD2     C 9633   0.661   1.677  11.243 -0.1269 -0.5132 -0.1302
  651MPD2    C1 9634   0.604   1.713  11.122 -0.1517 -0.0965 -0.4973
  651MPD2    C2 9635   0.689   1.757  11.017  0.7043 -0.3648 -0.4670
  651MPD2    C3 9636   0.822   1.752  11.031  0.1674  0.1761 -0.6634
  651MPD2    C4 9637   0.875   1.721  11.157 -0.2571 -0.0364  0.0640
  651MPD2    C5 9638   0.799   1.691  11.261  1.0217  0.5117  0.1469
  651MPD2     H 9639   0.646   1.784  10.921  1.5035  2.0246 -0.1479
  651MPD2    H1 9640   0.982   1.728  11.172 -0.5463  1.2440  1.5169
  651MPD2    H2 9641   0.601   1.644  11.327 -0.5437  3.1664  0.9748
  651MPD2    H3 9642   0.838   1.659  11.357 -1.0026 -1.3103  0.3695
  651MPD2     N 9643   0.905   1.779  10.920  0.6758 -0.4990 -0.4878
  651MPD2    H5 9644   0.864   1.808  10.831  1.0617  0.0644 -0.4837
  651MPD2    N1 9645   0.467   1.706  11.087  0.7017 -0.5489  0.4172
  651MPD2    H7 9646   0.451   1.702  10.987 -0.2920 -2.4417  0.6460
  652TMC3    C1 9647   1.304   1.869  10.673 -0.3174  0.8696  0.9669
  652TMC3    C2 9648   1.237   1.876  10.795  0.0502  0.2693 -0.2588
  652TMC3    C3 9649   1.103   1.842  10.790 -0.4791  0.1586 -0.9193
  652TMC3    C4 9650   1.245   1.826  10.557  0.7179  0.0730  0.1407
  652TMC3    C5 9651   1.112   1.794  10.565  0.1039  0.7091  0.4039
  652TMC3    C6 9652   1.040   1.789  10.678 -0.2433  0.0662  0.2212
  652TMC3     C 9653   1.451   1.860  10.689 -0.0478 -0.3150  0.2847
  652TMC3     O 9654   1.489   1.856  10.805 -0.5048  0.2376  0.3850
  652TMC3     H 9655   1.278   1.922  10.884  1.9973 -0.6470 -0.6893
  652TMC3    H1 9656   1.303   1.822  10.466 -0.0310  1.8510 -0.4188
  652TMC3    H2 9657   0.940   1.750  10.660  0.0716  0.8926 -3.3655
  652TMC3    C7 9658   1.043   1.812  10.441  0.5112  0.1955  0.5637
  652TMC3    C8 9659   1.049   1.794  10.921 -0.0659 -0.1833 -0.1704
  652TMC3    O1 9660   1.091   1.765  10.343  0.1295  0.6913  0.6163
  652TMC3    O2 9661   1.130   1.764  11.008 -0.0015 -0.6001  0.7801
  653MPD2     C 9662   3.781   1.664  17.500 -0.9916  0.1716 -0.7832
  653MPD2    C1 9663   3.679   1.745  17.471 -0.8234  0.2243  0.1568
  653MPD2    C2 9664   3.559   1.690  17.421  0.2494  0.1901 -0.1303
  653MPD2    C3 9665   3.544   1.553  17.400  0.6424  0.1705 -0.2388
  653MPD2    C4 9666   3.660   1.474  17.426  0.8838  0.3031 -0.5896
  653MPD2    C5 9667   3.769   1.530  17.479 -0.6072 -0.4988  0.0527
  653MPD2     H 9668   3.477   1.757  17.398 -0.9514 -1.4468 -0.5716
  653MPD2    H1 9669   3.664   1.366  17.414  2.1406  0.2457  0.2452
  653MPD2    H2 9670   3.872   1.698  17.549 -0.1942  0.6239 -2.5662
  653MPD2    H3 9671   3.864   1.480  17.492 -0.9451 -0.9844  0.6242
  653MPD2     N 9672   3.420   1.513  17.343  1.0352  0.1246 -0.1310
  653MPD2    H5 9673   3.353   1.582  17.308  0.5867 -0.2385  0.0130
  653MPD2    N1 9674   3.695   1.884  17.485  0.0882  0.7502  0.4746
  653MPD2    H7 9675   3.623   1.938  17.438  0.1671 -0.0633 -0.5846
  654TMC3    C1 9676   3.244   1.353  17.274 -0.3662  0.0018 -0.0986
  654TMC3    C2 9677   3.180   1.447  17.202 -0.1511  0.1893  0.9067
  654TMC3    C3 9678   3.093   1.401  17.109 -0.0471  0.2682  0.7259
  654TMC3    C4 9679   3.218   1.218  17.256  0.2506  0.8264  0.6543
  654TMC3    C5 9680   3.138   1.180  17.154  0.8123 -0.0388  0.5217
  654TMC3    C6 9681   3.070   1.272  17.084  0.7060 -0.6150 -0.0067
  654TMC3     C 9682   3.376   1.380  17.345 -0.3617 -0.4755 -0.6891
  654TMC3     O 9683   3.438   1.281  17.379  0.0698  0.2319 -0.2071
  654TMC3     H 9684   3.197   1.553  17.218 -0.2995  0.4486 -0.7220
  654TMC3    H1 9685   3.294   1.148  17.290 -1.8959 -2.4255 -1.1879
  654TMC3    H2 9686   3.015   1.234  16.998  0.4200 -0.4574  0.1084
  654TMC3    C7 9687   3.189   1.077  17.067  0.0816  0.3055  0.1541
  654TMC3    C8 9688   3.035   1.495  17.018  0.3288  0.3344  0.7333
  654TMC3    O1 9689   3.179   1.107  16.949  0.0932  0.7291  0.7982
  654TMC3    O2 9690   2.999   1.605  17.063  0.4737  0.3208  0.1022
  655MPD2     C 9691   4.694   1.625  15.302 -0.4406 -0.7038  0.3260
  655MPD2    C1 9692   4.557   1.584  15.295 -0.2660  0.1621 -0.1357
  655MPD2    C2 9693   4.522   1.479  15.212 -0.6731 -0.7437  0.3308
  655MPD2    C3 9694   4.619   1.405  15.142  0.1325 -0.1948  0.2739
  655MPD2    C4 9695   0.032   1.444  15.153  0.3571  0.3226  0.3477
  655MPD2    C5 9696   0.062   1.554  15.225  0.0569  0.0447  0.5036
  655MPD2     H 9697   4.419   1.457  15.187 -0.3518  1.0628 -2.5309
  655MPD2    H1 9698   0.109   1.392  15.097  0.7435  2.1834 -0.8393
  655MPD2    H2 9699   0.008   1.706  15.364  0.7796  0.4868 -1.9420
  655MPD2    H3 9700   0.164   1.593  15.220 -0.1073  0.4557  0.3726
  655MPD2     N 9701   4.594   1.291  15.072 -0.0552  0.2170 -0.2112
  655MPD2    H5 9702   4.675   1.254  15.024  1.2993 -1.2521  3.2128
  655MPD2    N1 9703   4.458   1.665  15.360  0.2302 -0.0819 -0.0017
  655MPD2    H7 9704   4.361   1.645  15.342  0.6849 -1.0194 -1.4034
  656TMC3    C1 9705   4.360   1.818  15.511 -0.3698 -0.2982  0.5943
  656TMC3    C2 9706   4.378   1.894  15.629 -0.1496 -0.0999 -0.7006
  656TMC3    C3 9707   4.263   1.926  15.694 -0.0065  0.2588 -0.3651
  656TMC3    C4 9708   4.233   1.796  15.466 -0.1305 -0.0644 -0.3529
  656TMC3    C5 9709   4.126   1.859  15.523 -0.2627 -0.4530  0.0555
  656TMC3    C6 9710   4.138   1.928  15.633 -0.0093 -0.5984 -0.2015
  656TMC3     C 9711   4.483   1.764  15.446  0.9234  0.0416 -0.2103
  656TMC3     O 9712   4.585   1.821  15.493  0.2513 -0.0900 -0.1077
  656TMC3     H 9713   4.477   1.899  15.675 -0.9197  1.0254  0.8644
  656TMC3    H1 9714   4.215   1.738  15.376  0.2892  2.6073 -2.1403
  656TMC3    H2 9715   4.049   1.957  15.688 -1.5160 -0.8334 -2.5130
  656TMC3    C7 9716   3.999   1.803  15.491 -0.5225 -0.6866  0.7518
  656TMC3    C8 9717   4.251   1.886  15.833 -0.3348  0.6117  0.1538
  656TMC3    O1 9718   3.994   1.681  15.462  0.0659  0.6564 -0.1571
  656TMC3    O2 9719   4.236   1.766  15.862  0.3928  0.1788 -0.1941
  657TMC3    C1 9720   4.050   0.697  14.381 -0.3673 -0.2051 -0.6133
  657TMC3    C2 9721   3.925   0.682  14.422  0.3322  0.0038  0.0529
  657TMC3    C3 9722   3.847   0.797  14.434  0.2652 -0.0683  0.1780
  657TMC3    C4 9723   4.104   0.820  14.354  0.1822 -0.1332 -0.0032
  657TMC3    C5 9724   4.025   0.931  14.369 -0.4994 -0.4554  0.0512
  657TMC3    C6 9725   3.900   0.921  14.418  0.3438 -0.2537  0.2389
  657TMC3     C 9726   4.124   0.576  14.356  0.8206  0.1594 -0.9687
  657TMC3     O 9727   4.057   0.477  14.311  0.3321 -0.6758  0.0355
  657TMC3     H 9728   3.880   0.585  14.439  1.3415  0.2135  4.0956
  657TMC3    H1 9729   4.208   0.823  14.325  0.7882 -2.4258  1.8645
  657TMC3    H2 9730   3.833   1.007  14.419  0.9983  0.2737 -0.4345
  657TMC3    C7 9731   4.086   1.060  14.344 -0.4303  0.0388  0.0098
  657TMC3    C8 9732   3.710   0.783  14.493  0.1095  0.1230  0.7430
  657TMC3    O1 9733   4.181   1.060  14.269 -0.0187 -0.0978  0.7479
  657TMC3    O2 9734   3.663   0.890  14.527 -0.5300 -0.1993 -0.2014
  658MPD2     C 9735   0.314   0.857  14.780  0.3567  0.1219 -0.1100
  658MPD2    C1 9736   0.197   0.903  14.720 -0.2865  0.0771  0.5562
  658MPD2    C2 9737   0.202   0.967  14.601 -0.3081  0.2203 -0.0886
  658MPD2    C3 9738   0.325   0.979  14.535  0.2715  0.1313  0.0283
  658MPD2    C4 9739   0.434   0.924  14.585 -0.1078 -1.1111  0.7315
  658MPD2    C5 9740   0.429   0.862  14.710 -0.1081  0.3555 -0.7212
  658MPD2     H 9741   0.116   1.018  14.558  0.1389  2.1499  1.2913
  658MPD2    H1 9742   0.533   0.929  14.540 -0.9147 -0.7368 -0.9968
  658MPD2    H2 9743   0.304   0.805  14.875 -0.5512  0.1755 -0.1725
  658MPD2    H3 9744   0.519   0.815  14.749 -0.9591  1.5871  2.6957
  658MPD2     N 9745   0.331   1.057  14.414 -0.1786 -0.0665 -0.3087
  658MPD2    H5 9746   0.244   1.085  14.370 -1.3462 -1.7712  0.9355
  658MPD2    N1 9747   0.081   0.914  14.797 -0.1616  0.0521 -0.0279
  658MPD2    H7 9748   0.085   0.900  14.898 -0.1442 -0.4811 -0.1018
  659TMC3    C1 9749   4.569   0.942  14.839 -0.6069  0.0148 -0.2774
  659TMC3    C2 9750   4.580   1.051  14.921  0.3344 -0.2829 -0.1691
  659TMC3    C3 9751   4.475   1.100  14.988 -0.0705 -0.1626 -0.0510
  659TMC3    C4 9752   4.456   0.878  14.824  1.1502 -0.7052 -0.1668
  659TMC3    C5 9753   4.356   0.913  14.909  0.3025 -0.0539 -0.0630
  659TMC3    C6 9754   4.364   1.028  14.986 -0.3103  0.1067 -0.0899
  659TMC3     C 9755   4.674   0.924  14.742 -0.4978 -0.0210 -0.0946
  659TMC3     O 9756   4.649   0.904  14.624 -0.1279 -0.0141  0.1283
  659TMC3     H 9757   4.677   1.099  14.926  0.5999 -0.7565 -0.7473
  659TMC3    H1 9758   4.451   0.788  14.765 -0.5024 -0.6715 -0.0672
  659TMC3    H2 9759   4.274   1.062  15.034  1.8813  0.1348  4.0028
  659TMC3    C7 9760   4.222   0.854  14.901  0.4697 -0.2355 -0.4825
  659TMC3    C8 9761   4.477   1.220  15.067 -0.2269  0.2342  0.0308
  659TMC3    O1 9762   4.139   0.890  14.986 -0.3397  0.6440  0.6193
  659TMC3    O2 9763   4.373   1.246  15.127  0.2845 -0.1128 -0.0626
  660MPD2     C 9764   3.256   0.161  12.577 -0.3417  0.2651  0.3720
  660MPD2    C1 9765   3.122   0.170  12.547  0.1707  0.0332 -0.2919
  660MPD2    C2 9766   3.030   0.067  12.586 -0.1738 -0.1925  0.4398
  660MPD2    C3 9767   3.078   4.696  12.681 -0.1432 -0.6361 -0.1586
  660MPD2    C4 9768   3.210   4.694  12.720  0.3830 -0.9776  0.0057
  660MPD2    C5 9769   3.296   0.070  12.671 -0.2855 -0.2814  0.0263
  660MPD2     H 9770   2.925   0.071  12.560 -0.2738  0.1518  0.8745
  660MPD2    H1 9771   3.246   4.620  12.790 -2.1250 -2.0416  0.1716
  660MPD2    H2 9772   3.327   0.235  12.541  0.3963  0.1228  1.5247
  660MPD2    H3 9773   3.400   0.070  12.701  0.2391 -1.3887 -1.7432
  660MPD2     N 9774   3.001   4.584  12.727 -0.0035 -0.0275  0.8773
  660MPD2    H5 9775   3.048   4.511  12.780 -0.0159 -1.3380 -0.9017
  660MPD2    N1 9776   3.088   0.279  12.466  0.2619 -0.0430 -0.3525
  660MPD2    H7 9777   3.155   0.337  12.415 -0.1158 -0.5479 -1.4340
  661TMC3    C1 9778   2.946   0.431  12.354 -0.0605 -0.1153 -0.2322
  661TMC3    C2 9779   3.047   0.452  12.263  0.3039 -0.4158 -0.1403
  661TMC3    C3 9780   3.031   0.547  12.171  0.3349 -1.6372  0.2568
  661TMC3    C4 9781   2.833   0.509  12.355 -0.1645 -0.5172  0.4648
  661TMC3    C5 9782   2.830   0.612  12.267 -0.1194 -0.3653 -0.1028
  661TMC3    C6 9783   2.920   0.632  12.168  0.0701 -0.4030  0.1973
  661TMC3     C 9784   2.964   0.329  12.458  0.3876 -0.0835 -0.4659
  661TMC3     O 9785   2.870   0.291  12.528  0.0062 -0.0016 -0.2820
  661TMC3     H 9786   3.127   0.380  12.254  1.9415  1.0227  3.1100
  661TMC3    H1 9787   2.755   0.498  12.430 -0.0884 -1.3289  0.4297
  661TMC3    H2 9788   2.914   0.706  12.090 -1.5864 -1.7550 -0.9363
  661TMC3    C7 9789   2.699   0.661  12.249  0.0310 -1.4058  0.4145
  661TMC3    C8 9790   3.153   0.579  12.101  1.0121  0.3620  0.0642
  661TMC3    O1 9791   2.658   0.703  12.356  0.5384  0.0599 -0.2754
  661TMC3    O2 9792   3.229   0.490  12.074 -1.0876 -0.2477 -0.2344
  662MPD2     C 9793   3.336   0.398  16.959 -0.6104  0.7748 -0.2932
  662MPD2    C1 9794   3.283   0.378  17.084 -0.1405  0.1835 -0.1057
  662MPD2    C2 9795   3.196   0.466  17.143  0.0639  0.2467  0.9466
  662MPD2    C3 9796   3.149   0.578  17.070  0.7930  0.1400  0.2555
  662MPD2    C4 9797   3.179   0.576  16.931  0.1323 -0.2679 -0.0526
  662MPD2    C5 9798   3.278   0.497  16.881  0.0538 -0.5862  0.0827
  662MPD2     H 9799   3.151   0.459  17.242  1.4353  1.3497  1.6393
  662MPD2    H1 9800   3.138   0.659  16.875  0.3147 -0.8445 -1.0364
  662MPD2    H2 9801   3.410   0.328  16.922  1.7889  2.9617  0.3637
  662MPD2    H3 9802   3.324   0.519  16.785 -3.1753 -0.0016 -1.3414
  662MPD2     N 9803   3.056   0.680  17.118 -0.5280  0.4479 -0.3075
  662MPD2    H5 9804   3.024   0.751  17.052 -1.2938  0.6392  0.2723
  662MPD2    N1 9805   3.310   0.257  17.152  0.0640 -0.0224  0.2055
  662MPD2    H7 9806   3.274   0.245  17.246 -3.3415 -0.8931 -1.2255
  663TMC3    C1 9807   3.333   0.021  17.168  0.7473  0.5438  0.6815
  663TMC3    C2 9808   3.268   0.033  17.286 -0.5219 -0.4010 -0.2193
  663TMC3    C3 9809   3.282   4.658  17.379  0.0082  0.3519 -0.8788
  663TMC3    C4 9810   3.423   4.644  17.154  0.2787  0.5096  1.1193
  663TMC3    C5 9811   3.428   4.541  17.242  0.0787  0.2411 -0.1950
  663TMC3    C6 9812   3.338   4.537  17.347 -0.1892  0.5807  1.2321
  663TMC3     C 9813   3.353   0.140  17.084  0.5833 -0.6171  0.1930
  663TMC3     O 9814   3.397   0.116  16.970  0.8174 -0.6780  0.5582
  663TMC3     H 9815   3.177   0.092  17.285 -0.1437  0.1917  0.7662
  663TMC3    H1 9816   3.463   4.631  17.055 -1.1020 -2.0420  0.8967
  663TMC3    H2 9817   3.348   4.467  17.429  0.7482 -0.5558  0.1574
  663TMC3    C7 9818   3.437   4.416  17.173  0.3790  0.2802  0.1340
  663TMC3    C8 9819   3.168   4.642  17.468 -0.9123 -0.0742  0.5033
  663TMC3    O1 9820   3.522   4.392  17.092  0.0417 -1.0494 -0.6093
  663TMC3    O2 9821   3.135   4.527  17.491  0.0307  0.2529  0.0515
  664MPD2     C 9822   1.563   2.956   0.117  0.7092  0.0494  0.1371
  664MPD2    C1 9823   1.560   3.093   0.110 -0.9939  0.1629  0.4981
  664MPD2    C2 9824   1.589   3.165   0.226 -0.3942 -0.4754 -1.0037
  664MPD2    C3 9825   1.595   3.102   0.347 -0.6604 -0.3538 -0.7188
  664MPD2    C4 9826   1.585   2.970   0.353  0.1533  0.1195  0.1539
  664MPD2    C5 9827   1.580   2.895   0.240 -0.0335 -0.6663 -0.0462
  664MPD2     H 9828   1.579   3.273   0.227 -1.2882 -0.5646 -0.2875
  664MPD2    H1 9829   1.586   2.916   0.447 -1.3721 -0.7958 -0.3503
  664MPD2    H2 9830   1.561   2.890   0.032  0.7234 -0.2439  0.3647
  664MPD2    H3 9831   1.593   2.787   0.240  1.7564 -0.4579  0.2755
  664MPD2     N 9832   1.602   3.179   0.462 -0.1221 -0.1335 -0.8900
  664MPD2    H5 9833   1.629   3.276   0.445 -2.5099  0.4590 -1.3041
  664MPD2    N1 9834   1.531   3.169  17.688 -0.2205 -0.3176  0.2005
  664MPD2    H7 9835   1.536   3.270   0.003 -1.9935 -0.2440  0.4168
  665TMC3    C1 9836   1.599   3.246   0.684 -0.1824  0.0741 -0.4027
  665TMC3    C2 9837   1.504   3.259   0.786  0.2217 -0.7689  0.3888
  665TMC3    C3 9838   1.510   3.380   0.848  0.9118 -0.3139 -0.1936
  665TMC3    C4 9839   1.704   3.330   0.669  0.6902 -0.2083 -0.1629
  665TMC3    C5 9840   1.696   3.453   0.730  0.2239 -0.3222 -0.5202
  665TMC3    C6 9841   1.600   3.480   0.823 -0.3880 -0.5814  0.0076
  665TMC3     C 9842   1.589   3.131   0.593 -0.2836 -0.5344 -0.0211
  665TMC3     O 9843   1.552   3.026   0.643 -0.9732  0.2409  0.0113
  665TMC3     H 9844   1.432   3.182   0.811 -0.9321  0.4577  0.8029
  665TMC3    H1 9845   1.790   3.304   0.608  1.9936  0.5778  1.3681
  665TMC3    H2 9846   1.592   3.577   0.870  1.9154 -0.3107 -0.1486
  665TMC3    C7 9847   1.800   3.557   0.709  0.1833  0.1770 -0.4400
  665TMC3    C8 9848   1.421   3.412   0.959  0.7774 -0.0509  0.8553
  665TMC3    O1 9849   1.854   3.547   0.599  0.2706  0.2474 -0.3812
  665TMC3    O2 9850   1.460   3.495   1.042  0.2545 -0.0089  0.0164
  666TMC3    C1 9851   0.791   3.211   9.607 -0.4258  0.9948  0.4723
  666TMC3    C2 9852   0.853   3.129   9.698 -0.7625  0.0163 -0.7240
  666TMC3    C3 9853   0.951   3.181   9.782 -0.1890  0.0659  0.1478
  666TMC3    C4 9854   0.827   3.343   9.610 -0.3465 -0.5415 -0.3384
  666TMC3    C5 9855   0.921   3.393   9.706  0.1973  0.2236 -0.4137
  666TMC3    C6 9856   0.977   3.310   9.790 -1.1222 -0.1704  0.4608
  666TMC3     C 9857   0.660   3.185   9.546 -0.1644 -0.3540 -0.9920
  666TMC3     O 9858   0.625   3.241   9.443 -0.0263  0.3624  0.5768
  666TMC3     H 9859   0.828   3.024   9.705  0.0177 -0.0455  0.9872
  666TMC3    H1 9860   0.760   3.413   9.561  1.7177  2.2268  0.7429
  666TMC3    H2 9861   1.072   3.345   9.829  0.2455 -0.6156 -2.4703
  666TMC3    C7 9862   0.916   3.530   9.746  0.0924  0.5804 -0.2085
  666TMC3    C8 9863   0.960   3.097   9.905 -0.8697  0.5950  0.7687
  666TMC3    O1 9864   1.021   3.593   9.755 -0.0473 -0.0967  0.3179
  666TMC3    O2 9865   0.945   2.980   9.888 -0.0084  0.7272  0.3738
  667MPD2     C 9866   1.748   2.820  14.843  0.2323 -0.3658 -0.5733
  667MPD2    C1 9867   1.655   2.913  14.891  0.3462  0.7803  0.6675
  667MPD2    C2 9868   1.528   2.888  14.854 -0.2719 -0.5195  0.9737
  667MPD2    C3 9869   1.484   2.794  14.757 -1.0748  0.4099 -0.0238
  667MPD2    C4 9870   1.579   2.717  14.695 -0.9146  0.3569  0.6241
  667MPD2    C5 9871   1.711   2.731  14.742 -0.1469 -0.3245  0.8346
  667MPD2     H 9872   1.456   2.944  14.913  1.3511 -0.4132  2.8388
  667MPD2    H1 9873   1.542   2.652  14.616 -0.2727  0.6292  0.0955
  667MPD2    H2 9874   1.855   2.820  14.863  0.0669  1.5435  0.3850
  667MPD2    H3 9875   1.791   2.666  14.709 -0.7398 -0.7100  0.1635
  667MPD2     N 9876   1.346   2.773  14.727  0.1575 -0.2795 -0.1346
  667MPD2    H5 9877   1.325   2.698  14.662 -1.9340 -0.3689  0.6393
  667MPD2    N1 9878   1.689   3.027  14.964 -0.4915  0.2486 -0.0495
  667MPD2    H7 9879   1.612   3.081  15.004 -2.5721 -2.5996 -0.1596
  668TMC3    C1 9880   1.842   3.171  15.076 -0.5799  0.0485  0.5828
  668TMC3    C2 9881   1.962   3.243  15.059 -1.1554  0.1951 -0.2492
  668TMC3    C3 9882   1.995   3.329  15.164  0.3421  0.4104  0.1573
  668TMC3    C4 9883   1.789   3.157  15.199 -0.2621  0.2579  0.3524
  668TMC3    C5 9884   1.826   3.236  15.303  0.3374  0.6460 -0.7834
  668TMC3    C6 9885   1.924   3.327  15.281  0.0715  0.3046 -0.2210
  668TMC3     C 9886   1.817   3.070  14.979  0.1285 -0.5192 -0.3127
  668TMC3     O 9887   1.916   3.054  14.902  0.0247  0.2970  0.3051
  668TMC3     H 9888   2.021   3.233  14.969 -0.9485  0.3520 -0.1305
  668TMC3    H1 9889   1.712   3.083  15.217 -0.3851 -0.0361 -1.4129
  668TMC3    H2 9890   1.942   3.410  15.348  0.2471 -1.1080  1.4919
  668TMC3    C7 9891   1.771   3.241  15.436  0.1168  0.0893 -0.4949
  668TMC3    C8 9892   2.122   3.404  15.154  0.0446 -0.0414  0.1187
  668TMC3    O1 9893   1.847   3.288  15.522 -0.1633 -0.0244  0.6287
  668TMC3    O2 9894   2.163   3.446  15.262 -0.0014 -0.0246 -0.4310
  669TMC3    C1 9895   0.030   3.019  14.399 -0.2639 -0.0446 -0.9072
  669TMC3    C2 9896   4.677   2.988  14.293  0.2588 -0.1209 -0.2881
  669TMC3    C3 9897   4.666   3.090  14.201  0.0225  0.2343 -0.5660
  669TMC3    C4 9898   0.121   3.121  14.413 -0.5300  0.2242  0.1537
  669TMC3    C5 9899   0.101   3.216  14.321 -0.2452 -0.1637 -0.0807
  669TMC3    C6 9900   0.023   3.204  14.211 -0.2506  0.0016 -0.7105
  669TMC3     C 9901   0.039   2.905  14.496 -0.5319 -0.1985  0.0232
  669TMC3     O 9902   4.674   2.820  14.490  0.0203 -0.1084 -0.2344
  669TMC3     H 9903   4.619   2.896  14.289  0.1702 -0.0446 -0.8004
  669TMC3    H1 9904   0.182   3.138  14.501 -1.8707  2.8529  0.5776
  669TMC3    H2 9905   0.034   3.256  14.116 -2.1984 -0.0011 -0.9383
  669TMC3    C7 9906   0.211   3.309  14.321  0.7640 -0.2299 -0.8556
  669TMC3    C8 9907   4.590   3.052  14.081  0.6862 -0.2523  0.2692
  669TMC3    O1 9908   0.319   3.279  14.372 -0.4487 -0.3316 -0.3470
  669TMC3    O2 9909   4.604   2.939  14.036  0.3603 -0.3181 -0.3775
  670MPD2     C 9910   3.001   1.207  13.126  0.1076  0.2764  0.1414
  670MPD2    C1 9911   3.123   1.143  13.117  0.3123 -0.4256  0.2531
  670MPD2    C2 9912   3.137   1.013  13.167  0.4764  0.4114  0.0697
  670MPD2    C3 9913   3.033   0.948  13.229  0.1451  0.4197 -0.2134
  670MPD2    C4 9914   2.912   1.009  13.233  0.1617 -0.2556  0.3348
  670MPD2    C5 9915   2.895   1.138  13.182 -0.7416 -0.2541  0.4286
  670MPD2     H 9916   3.229   0.958  13.150 -1.2834 -1.9978 -1.6320
  670MPD2    H1 9917   2.829   0.943  13.253 -0.6712  0.6142 -0.2522
  670MPD2    H2 9918   2.983   1.310  13.099 -1.7926 -0.5277 -1.6811
  670MPD2    H3 9919   2.797   1.180  13.200 -0.8997 -0.3710 -0.1773
  670MPD2     N 9920   3.053   0.823  13.294  0.5198  0.4374 -0.2915
  670MPD2    H5 9921   3.150   0.794  13.293  1.1171  2.3879 -0.2714
  670MPD2    N1 9922   3.241   1.208  13.069  0.4578 -0.8280 -0.1933
  670MPD2    H7 9923   3.326   1.153  13.077  0.0620 -1.5262 -0.7913
  671TMC3    C1 9924   3.014   0.618  13.420  0.1940  0.7899 -0.3986
  671TMC3    C2 9925   3.126   0.632  13.496  0.0548 -0.0522 -0.0931
  671TMC3    C3 9926   3.148   0.523  13.580 -0.6266  0.5693  0.2931
  671TMC3    C4 9927   2.918   0.524  13.439  0.2011  0.3045  0.4171
  671TMC3    C5 9928   2.933   0.437  13.542  0.1722  0.0882 -0.5718
  671TMC3    C6 9929   3.052   0.428  13.600 -0.0993  0.0376  0.1436
  671TMC3     C 9930   2.958   0.741  13.365  0.1514  0.1933 -0.1194
  671TMC3     O 9931   2.833   0.738  13.365  0.2104  0.0179 -0.2966
  671TMC3     H 9932   3.206   0.703  13.480 -0.2648  0.2385 -0.4224
  671TMC3    H1 9933   2.835   0.515  13.370  1.8503 -0.2716 -1.4952
  671TMC3    H2 9934   3.080   0.338  13.654 -0.0768 -0.7942 -1.2453
  671TMC3    C7 9935   2.865   0.306  13.533 -0.8871  0.0367 -0.1802
  671TMC3    C8 9936   3.280   0.468  13.564 -0.1551 -0.6572 -0.3252
  671TMC3    O1 9937   2.817   0.271  13.426  0.4122 -0.2395  0.7655
  671TMC3    O2 9938   3.274   0.360  13.505 -0.5250 -0.2758  0.0133
  672MPD2     C 9939   3.689   1.409   0.986  0.4501  0.6957 -0.3799
  672MPD2    C1 9940   3.754   1.445   0.871  0.2875 -0.5075 -0.6619
  672MPD2    C2 9941   3.880   1.509   0.875 -0.2401 -0.2163  0.1063
  672MPD2    C3 9942   3.941   1.533   0.995  0.0862 -0.5598 -0.3979
  672MPD2    C4 9943   3.875   1.511   1.113 -0.7741  0.2484  0.0829
  672MPD2    C5 9944   3.751   1.446   1.106 -0.1934  0.7025 -0.4565
  672MPD2     H 9945   3.917   1.544   0.779  1.3443  2.8316  1.8415
  672MPD2    H1 9946   3.918   1.542   1.207 -1.6002  0.6184  0.3423
  672MPD2    H2 9947   3.593   1.358   0.994  0.0633  1.4027 -0.5735
  672MPD2    H3 9948   3.720   1.417   1.207  1.5516  1.7645  0.3807
  672MPD2     N 9949   4.073   1.594   1.000  0.3446 -0.4787 -0.3431
  672MPD2    H5 9950   4.102   1.619   1.094 -3.3227  1.1552  0.3760
  672MPD2    N1 9951   3.708   1.409   0.742  0.1568 -0.4387  0.4124
  672MPD2    H7 9952   3.751   1.465   0.669 -1.1052  1.2884  1.0123
  673TMC3    C1 9953   3.581   1.290   0.587  0.2704 -0.1480 -0.0516
  673TMC3    C2 9954   3.537   1.166   0.551 -0.3327  0.1215  0.0957
  673TMC3    C3 9955   3.495   1.156   0.424 -0.7005  0.2029  0.2580
  673TMC3    C4 9956   3.568   1.405   0.514 -0.3841 -0.2382 -0.0325
  673TMC3    C5 9957   3.523   1.387   0.389  0.8491  0.3080 -0.0145
  673TMC3    C6 9958   3.488   1.265   0.343 -0.5199 -0.8058 -0.6643
  673TMC3     C 9959   3.616   1.307   0.724  0.5925 -0.3190  1.0948
  673TMC3     O 9960   3.570   1.229   0.808  0.1573  0.5032 -0.0954
  673TMC3     H 9961   3.563   1.080   0.613  2.3411  0.8863  0.0454
  673TMC3    H1 9962   3.578   1.504   0.556  0.6730  0.3944 -1.7884
  673TMC3    H2 9963   3.472   1.238   0.240  0.2593  0.2243 -1.0573
  673TMC3    C7 9964   3.510   1.497   0.294 -0.2632 -0.0170 -0.3008
  673TMC3    C8 9965   3.534   1.043   0.349  0.0585  0.0305  0.1085
  673TMC3    O1 9966   3.468   1.464   0.184 -0.2202 -0.4457 -0.0607
  673TMC3    O2 9967   3.464   1.013   0.253  1.1201 -0.6158  0.1783
  674MPD2     C 9968   3.188   1.507   0.308  0.5272 -1.1270  0.3537
  674MPD2    C1 9969   3.161   1.374   0.270 -0.1235  0.4941 -0.0178
  674MPD2    C2 9970   3.065   1.301   0.338 -0.2964 -0.0676 -0.0129
  674MPD2    C3 9971   2.990   1.366   0.434  0.0443  0.4812 -0.0741
  674MPD2    C4 9972   3.011   1.497   0.460  0.2537 -0.6865  0.5787
  674MPD2    C5 9973   3.102   1.569   0.386  0.0061  0.4480  0.1250
  674MPD2     H 9974   3.046   1.195   0.327  2.5564 -0.5465 -0.4334
  674MPD2    H1 9975   2.947   1.557   0.523  2.2677 -0.6525  2.6228
  674MPD2    H2 9976   3.262   1.564   0.253  0.8837 -2.1309 -0.2090
  674MPD2    H3 9977   3.109   1.677   0.399 -0.0294  0.5206 -0.4599
  674MPD2     N 9978   2.900   1.282   0.495 -0.4547 -0.4439 -0.3847
  674MPD2    H5 9979   2.890   1.186   0.466  2.1422 -0.5753 -0.8966
  674MPD2    N1 9980   3.229   1.314   0.155  0.0713 -0.1508  0.0100
  674MPD2    H7 9981   3.302   1.374   0.118  1.0224 -1.3942 -0.1259
  675TMC3    C1 9982   3.310   1.143   0.007 -0.1467 -0.1801  0.0338
  675TMC3    C2 9983   3.289   1.012  17.661 -0.1674  0.4130  0.2421
  675TMC3    C3 9984   3.387   0.948  17.592  0.1598 -0.3318 -0.8295
  675TMC3    C4 9985   3.420   1.218  17.665 -0.0583  1.2644  0.0831
  675TMC3    C5 9986   3.517   1.148  17.612  0.1696  0.2877  0.4496
  675TMC3    C6 9987   3.509   1.013  17.573  0.7167 -0.3543 -1.0545
  675TMC3     C 9988   3.217   1.179   0.114 -0.2262  0.5344  0.1256
  675TMC3     O 9989   3.153   1.088   0.170  0.1059 -0.6793  0.0902
  675TMC3     H 9990   3.192   0.966  17.674 -0.0289  0.5689  1.8044
  675TMC3    H1 9991   3.424   1.323  17.692  1.6247  1.3309 -0.4587
  675TMC3    H2 9992   3.595   0.960  17.533  1.1210 -0.4180 -0.1043
  675TMC3    C7 9993   3.653   1.185  17.664  0.2059 -0.3051  0.6803
  675TMC3    C8 9994   3.411   0.807  17.625  0.9513  0.0560 -0.1592
  675TMC3    O1 9995   3.729   1.089  17.675 -0.1159 -0.8144  0.1033
  675TMC3    O2 9996   3.492   0.748  17.550 -0.5706  0.3768  0.7097
  676MPD2     C 9997   1.504   3.931  10.822  0.5776 -0.7855  0.0073
  676MPD2    C1 9998   1.374   3.894  10.821  0.0798 -0.7605  0.2762
  676MPD2    C2 9999   1.339   3.768  10.861  0.0220  0.0982 -0.2280
  676MPD2    C310000   1.427   3.677  10.903 -0.0732  0.5015 -0.0379
  676MPD2    C410001   1.557   3.705  10.900  0.8337  0.3009 -0.2968
  676MPD2    C510002   1.597   3.834  10.869  0.5834  0.4171 -0.1514
  676MPD2     H10003   1.232   3.748  10.871  0.4251 -0.8270  2.3843
  676MPD2    H110004   1.628   3.628  10.929 -0.1724  0.6027  3.0156
  676MPD2    H210005   1.548   4.029  10.812 -2.2148  0.3468 -1.1299
  676MPD2    H310006   1.704   3.855  10.870 -0.0788  3.7872  0.6764
  676MPD2     N10007   1.387   3.551  10.956  0.4075 -0.3604  0.4322
  676MPD2    H510008   1.468   3.493  10.980  2.2129  0.9247 -2.5600
  676MPD2    N110009   1.271   3.981  10.782  0.2039  0.3154  0.5251
  676MPD2    H710010   1.180   3.939  10.796  0.6419 -1.0172 -0.7268
  677TMC3    C110011   1.152   4.173  10.698 -0.2788 -0.2244  0.0919
  677TMC3    C210012   1.043   4.098  10.698 -0.8327 -0.4955  0.1167
  677TMC3    C310013   0.941   4.131  10.780 -0.6979 -0.2575 -0.0667
  677TMC3    C410014   1.153   4.297  10.756  0.0963 -0.2626  0.1658
  677TMC3    C510015   1.048   4.329  10.841  0.9557  0.0577 -0.2891
  677TMC3    C610016   0.945   4.247  10.850 -0.3365  0.0878  0.8532
  677TMC3     C10017   1.283   4.112  10.733  0.2785  0.3804  0.3391
  677TMC3     O10018   1.381   4.186  10.729  0.2128  0.8161  0.0806
  677TMC3     H10019   1.054   3.996  10.664 -2.2661 -0.5735 -0.1180
  677TMC3    H110020   1.240   4.360  10.767  1.1768 -1.5306 -1.1221
  677TMC3    H210021   0.854   4.271  10.903  0.0157  1.6472  0.7353
  677TMC3    C710022   1.052   4.423  10.952 -0.2930 -0.4430  0.2590
  677TMC3    C810023   0.937   4.019  10.878  0.0158  0.2758 -0.9261
  677TMC3    O110024   0.967   4.414  11.035  0.0344  0.0377 -0.2860
  677TMC3    O210025   0.925   3.907  10.832 -0.0313  0.5723 -0.7451
  678MPD2     C10026   2.699   0.176   1.604 -0.3925 -0.0505 -0.0936
  678MPD2    C110027   2.715   0.085   1.499 -0.4526 -0.2113  0.1802
  678MPD2    C210028   2.610   4.721   1.463  0.6488  0.3632 -0.1481
  678MPD2    C310029   2.484   0.009   1.522 -0.5304  0.5047  0.2676
  678MPD2    C410030   2.478   0.086   1.632 -0.2337 -0.3540 -0.4946
  678MPD2    C510031   2.581   0.172   1.672 -0.0325  0.3186  0.4883
  678MPD2     H10032   2.618   4.653   1.378  0.6190  0.0366  0.1120
  678MPD2    H110033   2.388   0.094   1.691  0.7414  2.5283  0.6460
  678MPD2    H210034   2.767   0.250   1.644  0.8767 -1.2249 -0.0931
  678MPD2    H310035   2.564   0.241   1.754  0.2309  0.0931  0.7312
  678MPD2     N10036   2.378   4.664   1.466 -0.3479 -0.1768 -0.4552
  678MPD2    H510037   2.400   4.620   1.378 -0.6866  0.1973 -0.7269
  678MPD2    N110038   2.839   0.085   1.431 -0.3185 -0.4102 -0.1717
  678MPD2    H710039   2.847   0.022   1.353 -3.1763 -1.1915  0.1792
  679TMC3    C110040   3.146   4.684   1.217  0.0025 -0.4654 -0.5493
  679TMC3    C210041   3.074   4.711   1.330 -0.4677  0.2842 -0.0367
  679TMC3    C310042   3.054   0.121   1.364  0.0644 -0.2609 -0.2873
  679TMC3    C410043   3.195   0.059   1.140  0.4327  0.5878  0.0586
  679TMC3    C510044   3.179   0.193   1.180 -0.0946  0.0975  0.4616
  679TMC3    C610045   3.126   0.221   1.301  0.0354 -0.2123 -0.0059
  679TMC3     C10046   3.155   4.549   1.176 -0.1056 -0.1791  0.0402
  679TMC3     O10047   3.074   4.483   1.240 -0.4978 -0.7323  0.0651
  679TMC3     H10048   3.040   4.641   1.405  0.3796 -1.1534 -0.9847
  679TMC3    H110049   3.232   0.031   1.042  3.1712 -0.1322  1.2844
  679TMC3    H210050   3.105   0.324   1.328  0.5274 -0.1242  0.0428
  679TMC3    C710051   3.146   0.279   1.072  0.3350  0.2679 -0.0124
  679TMC3    C810052   2.944   0.169   1.449  0.7136  0.0107  0.5494
  679TMC3    O110053   3.150   0.236   0.960 -0.4193  0.3714  0.1868
  679TMC3    O210054   2.952   0.282   1.504  0.4108  0.0016 -0.1380
  680MPD2     C10055   2.558   2.422  13.459 -0.2453 -0.5077 -0.3964
  680MPD2    C110056   2.602   2.423  13.591  0.1844 -0.1391 -0.5598
  680MPD2    C210057   2.680   2.528  13.628  0.2055 -0.5197 -0.0932
  680MPD2    C310058   2.715   2.634  13.546  0.6376  0.3755 -0.7530
  680MPD2    C410059   2.654   2.638  13.423 -0.5021  0.3303  0.6061
  680MPD2    C510060   2.568   2.537  13.386  0.6075  0.3993 -0.4545
  680MPD2     H10061   2.724   2.513  13.726  0.8999 -0.3477 -0.3753
  680MPD2    H110062   2.658   2.726  13.359  0.7032  0.1571  0.4514
  680MPD2    H210063   2.503   2.339  13.416 -1.5722 -0.3087  0.9086
  680MPD2    H310064   2.525   2.535  13.287 -0.0368  1.2664 -0.1878
  680MPD2     N10065   2.805   2.737  13.582  0.3986  0.3090  0.5912
  680MPD2    H510066   2.852   2.783  13.505  0.6361  1.4383  1.4199
  680MPD2    N110067   2.590   2.319  13.681  0.5700 -0.1292  0.0529
  680MPD2    H710068   2.629   2.327  13.774  1.3449 -0.1768 -0.2700
  681TMC3    C110069   2.538   2.107  13.766  0.6406 -0.2261  0.0380
  681TMC3    C210070   2.506   2.160  13.890 -0.1687 -0.5486  0.0527
  681TMC3    C310071   2.575   2.109  13.990  0.7011  0.1366  0.1631
  681TMC3    C410072   2.635   2.021  13.738  0.2704 -0.1233 -0.8352
  681TMC3    C510073   2.717   1.983  13.839  0.6580 -0.8096 -0.0927
  681TMC3    C610074   2.686   2.020  13.972  0.0650  0.0228  0.1228
  681TMC3     C10075   2.537   2.191  13.652 -0.3640  0.2635 -0.2657
  681TMC3     O10076   2.509   2.148  13.544 -0.2275 -0.7329 -0.2835
  681TMC3     H10077   2.431   2.238  13.900 -1.1701 -1.3453 -1.1657
  681TMC3    H110078   2.652   1.991  13.635 -0.2414  0.1147 -0.9914
  681TMC3    H210079   2.755   2.009  14.054  0.1338 -2.8889 -0.3468
  681TMC3    C710080   2.859   1.989  13.807 -0.0284 -0.1529  0.5229
  681TMC3    C810081   2.524   2.159  14.125 -0.6342  0.4275  0.0513
  681TMC3    O110082   2.944   1.966  13.892  0.7583  0.0056  0.3954
  681TMC3    O210083   2.411   2.209  14.128 -0.0495  0.0738 -0.1570
  682MPD2     C10084   0.209   4.054  10.918  1.2739  0.7875 -0.3613
  682MPD2    C110085   0.212   3.923  10.882  0.6078 -0.2382 -0.8578
  682MPD2    C210086   0.213   3.823  10.982  0.3226 -0.0556  0.1424
  682MPD2    C310087   0.218   3.860  11.114  0.0129 -0.2332 -0.1934
  682MPD2    C410088   0.231   3.994  11.146  0.0501 -0.1102 -0.3876
  682MPD2    C510089   0.216   4.092  11.049 -0.2450 -0.1808 -0.1434
  682MPD2     H10090   0.192   3.722  10.950  2.2492 -0.7109  0.9496
  682MPD2    H110091   0.221   4.025  11.249  1.5739 -1.2091  0.1000
  682MPD2    H210092   0.208   4.132  10.843  0.3274 -0.8815 -2.0830
  682MPD2    H310093   0.202   4.199  11.052  3.4644  0.3437 -0.8398
  682MPD2     N10094   0.214   3.765  11.215  0.2641 -0.7548 -0.1494
  682MPD2    H510095   0.207   3.810  11.306  1.0582  0.4660 -0.6911
  682MPD2    N110096   0.210   3.879  10.748 -0.7894  0.0196 -0.3237
  682MPD2    H710097   0.202   3.778  10.740 -0.8296 -0.0793  1.0563
  683TMC3    C110098   0.400   3.540  11.497 -0.0617 -0.2304  0.8683
  683TMC3    C210099   0.375   3.410  11.518 -0.4985 -0.1275 -0.3041
  683TMC3    C310100   0.288   3.349  11.428  0.3650  0.8029  0.9833
  683TMC3    C410101   0.344   3.618  11.406 -0.2426 -0.0473  0.4353
  683TMC3    C510102   0.251   3.560  11.327 -0.4415 -0.0996  0.8821
  683TMC3    C610103   0.227   3.424  11.333  0.2997 -0.3261 -0.6104
  683TMC3     C10104   0.463   3.615  11.603  0.4113  0.4000 -0.1146
  683TMC3     O10105   0.444   3.736  11.598  0.0738  0.4708 -0.3392
  683TMC3     H10106   0.406   3.351  11.604 -1.2021  0.3732  0.2925
  683TMC3    H110107   0.377   3.721  11.392  0.2572 -0.1219  1.0472
  683TMC3    H210108   0.148   3.380  11.273  0.1726  0.8249 -1.2871
  683TMC3    C710109   0.221   3.628  11.200 -0.4743 -0.2024  0.8766
  683TMC3    C810110   0.250   3.210  11.433 -0.2749  0.3836  0.2247
  683TMC3    O110111   0.186   3.566  11.100 -0.2802 -0.1468  0.1667
  683TMC3    O210112   0.151   3.174  11.371 -0.1771 -0.1082 -0.4976
  684MPD2     C10113   3.168   3.314  16.214  0.1591 -0.0702  0.2145
  684MPD2    C110114   3.201   3.289  16.078  0.3518  0.3304  0.2028
  684MPD2    C210115   3.252   3.393  16.007 -0.1010 -0.5414  0.1693
  684MPD2    C310116   3.271   3.516  16.060 -0.4835 -0.3494 -0.0999
  684MPD2    C410117   3.228   3.544  16.189 -0.2928 -0.0576 -0.5081
  684MPD2    C510118   3.170   3.444  16.263 -0.0018 -0.2198  0.0963
  684MPD2     H10119   3.290   3.370  15.908 -0.6774  2.0937 -0.6789
  684MPD2    H110120   3.242   3.643  16.231  1.6227  0.3002 -1.9773
  684MPD2    H210121   3.120   3.239  16.276  0.6728 -0.0113  0.6845
  684MPD2    H310122   3.130   3.475  16.358 -1.5886  0.1782 -0.6972
  684MPD2     N10123   3.328   3.622  15.984 -0.1996 -0.4252  0.4302
  684MPD2    H510124   3.347   3.711  16.030 -1.1593 -0.2556  0.4888
  684MPD2    N110125   3.184   3.159  16.028 -0.2261 -0.0283  0.5214
  684MPD2    H710126   3.206   3.134  15.932 -0.7877  1.2294  0.0713
  685TMC3    C110127   3.105   2.958  16.011  0.4962 -0.8605 -0.2431
  685TMC3    C210128   3.024   2.992  15.910  0.0114  0.4069  0.4339
  685TMC3    C310129   3.019   2.915  15.804 -0.0474 -0.3889 -0.8841
  685TMC3    C410130   3.190   2.856  16.004 -0.2276  0.4230  0.0164
  685TMC3    C510131   3.183   2.778  15.889 -0.1605  0.1931 -0.0205
  685TMC3    C610132   3.094   2.805  15.788 -0.1193  0.0172 -0.0555
  685TMC3     C10133   3.151   3.053  16.104  0.0566  0.4404  0.2175
  685TMC3     O10134   3.170   3.022  16.220  0.2318 -0.0381  0.2241
  685TMC3     H10135   2.968   3.083  15.932 -1.4569 -0.6671  1.1309
  685TMC3    H110136   3.252   2.831  16.089  0.1081  1.8471  0.2026
  685TMC3    H210137   3.067   2.749  15.699 -1.4068  1.4349 -0.5610
  685TMC3    C710138   3.310   2.726  15.841 -0.2562  0.0948 -0.0366
  685TMC3    C810139   2.927   2.957  15.697  0.2535  0.4660 -0.0851
  685TMC3    O110140   3.301   2.655  15.738 -0.2391  0.1381  0.3142
  685TMC3    O210141   2.921   2.885  15.600  0.2355 -0.6826 -0.1061
  686MPD2     C10142   4.545   3.462  15.409 -0.2325 -0.4970  0.0864
  686MPD2    C110143   4.605   3.356  15.478 -0.3503  0.1504 -0.1300
  686MPD2    C210144   0.013   3.329  15.442 -0.4040 -0.2139 -0.0936
  686MPD2    C310145   0.060   3.360  15.312 -0.3397  0.3865  0.3615
  686MPD2    C410146   0.012   3.467  15.253 -0.1953 -0.3730 -0.0591
  686MPD2    C510147   4.617   3.521  15.309  1.4299 -0.3638  0.3588
  686MPD2     H10148   0.064   3.248  15.493  0.2990  0.4516  0.2588
  686MPD2    H110149   0.068   3.512  15.172 -0.7914  0.0482 -0.2426
  686MPD2    H210150   4.450   3.502  15.442  0.7422  1.8093  0.1073
  686MPD2    H310151   4.581   3.617  15.274 -1.1782 -0.5183  2.6575
  686MPD2     N10152   0.176   3.287  15.263 -1.6531 -0.1829 -0.1473
  686MPD2    H510153   0.204   3.207  15.319 -0.3027  0.7581  0.5083
  686MPD2    N110154   4.540   3.291  15.588  0.5824  0.5865  0.3617
  686MPD2    H710155   4.442   3.306  15.609  0.9124 -0.3480  2.5706
  687TMC3    C110156   0.301   3.164  15.124  0.2442 -0.2185 -0.2676
  687TMC3    C210157   0.215   3.070  15.074  0.5021 -0.2547  0.4667
  687TMC3    C310158   0.202   2.953  15.141  0.0666  0.4268  0.1399
  687TMC3    C410159   0.366   3.141  15.240  0.8864  0.1982  0.7217
  687TMC3    C510160   0.352   3.024  15.311  0.7784  0.1532  0.2597
  687TMC3    C610161   0.271   2.930  15.258 -0.0858  0.0306 -0.2543
  687TMC3     C10162   0.235   3.291  15.135 -0.2953 -0.0732 -0.1611
  687TMC3     O10163   0.204   3.342  15.029 -0.1971  0.6550  0.0473
  687TMC3     H10164   0.169   3.075  14.976  1.2120  1.9083  0.2474
  687TMC3    H110165   0.424   3.221  15.286  0.7374  1.4948 -1.2954
  687TMC3    H210166   0.240   2.848  15.322 -2.2143  2.2955  1.6388
  687TMC3    C710167   0.364   3.031  15.454 -0.7404  1.0328  0.2516
  687TMC3    C810168   0.064   2.926  15.161  0.5827 -0.0819 -0.5927
  687TMC3    O110169   0.360   3.146  15.497  0.1598 -0.1664 -0.1141
  687TMC3    O210170   0.024   2.828  15.222  0.5981  0.3562  0.1071
  688MPD2     C10171   3.760   2.481  17.032 -0.8998 -0.0258 -0.4160
  688MPD2    C110172   3.842   2.380  17.078 -0.4441  0.2385 -0.0074
  688MPD2    C210173   3.936   2.321  16.994 -0.8260 -0.0170 -0.3608
  688MPD2    C310174   3.972   2.371  16.866 -0.5532 -0.2558  0.8682
  688MPD2    C410175   3.892   2.470  16.824 -0.4072 -0.4914 -0.5244
  688MPD2    C510176   3.793   2.526  16.901  0.3097  0.1604 -0.1689
  688MPD2     H10177   3.995   2.245  17.042 -1.4306 -0.4958 -0.3768
  688MPD2    H110178   3.914   2.510  16.726  0.4773 -0.5207 -0.3439
  688MPD2    H210179   3.691   2.533  17.097  1.9431  0.5724  2.1099
  688MPD2    H310180   3.743   2.612  16.858 -0.4855  0.2322  0.8888
  688MPD2     N10181   4.081   2.326  16.783  0.8279 -0.1457 -0.2458
  688MPD2    H510182   4.090   2.365  16.690 -2.2072  0.2160 -0.4131
  688MPD2    N110183   3.831   2.326  17.207  0.2891  0.3595 -0.1841
  688MPD2    H710184   3.897   2.253  17.234 -1.1403  0.2153  2.8787
  689TMC3    C110185   3.759   2.295  17.424  0.1707  0.6425  0.3154
  689TMC3    C210186   3.737   2.375  17.528  0.2165  0.0602  0.7711
  689TMC3    C310187   3.740   2.313  17.649  0.1909  0.4941  0.1414
  689TMC3    C410188   3.753   2.160  17.419 -0.1284 -0.6097  0.7875
  689TMC3    C510189   3.765   2.106  17.545 -0.4255  0.3896 -0.1852
  689TMC3    C610190   3.747   2.177  17.659  0.4737  0.0360 -0.0015
  689TMC3     C10191   3.744   2.371  17.301 -0.1265 -0.1712 -0.5010
  689TMC3     O10192   3.661   2.459  17.292  0.0738  0.0754  0.0953
  689TMC3     H10193   3.742   2.480  17.500  1.5458  0.2168  1.5636
  689TMC3    H110194   3.781   2.106  17.329  1.4228 -0.2607  1.0603
  689TMC3    H210195   3.771   2.136   0.064  0.9721  1.0229  0.2950
  689TMC3    C710196   3.782   1.960  17.561  0.7623  0.1877  0.0661
  689TMC3    C810197   3.750   2.384   0.086 -0.5535  0.7536  0.3764
  689TMC3    O110198   3.865   1.916  17.639 -0.0517 -0.8701 -0.1926
  689TMC3    O210199   3.762   2.314   0.186 -0.1684  0.0837 -0.4917
  690MPD2     C10200   2.036   4.073  15.526  0.7659  0.4802  0.6586
  690MPD2    C110201   1.961   4.051  15.408 -0.0181 -0.2739 -0.0367
  690MPD2    C210202   2.022   4.098  15.290  0.3374  0.0570 -0.3262
  690MPD2    C310203   2.150   4.157  15.283  0.2206 -0.0290  0.0946
  690MPD2    C410204   2.222   4.169  15.401  0.5469 -0.5536 -0.3663
  690MPD2    C510205   2.165   4.133  15.521 -0.5608 -0.1745 -0.7311
  690MPD2     H10206   1.968   4.095  15.196  1.1712  2.3375 -0.8706
  690MPD2    H110207   2.321   4.212  15.407 -0.2195  1.1689  0.1130
  690MPD2    H210208   1.993   4.054  15.624 -0.3320  3.1676  0.6997
  690MPD2    H310209   2.216   4.141  15.616  0.8075 -0.6097 -1.4262
  690MPD2     N10210   2.204   4.200  15.161  0.3690  0.5903 -0.0254
  690MPD2    H510211   2.142   4.195  15.080  0.8149  2.3561 -0.4899
  690MPD2    N110212   1.833   3.984  15.411 -0.0199  0.0518  0.6787
  690MPD2    H710213   1.790   3.965  15.321  0.4277 -0.6716  0.6165
  691TMC3    C110214   1.615   3.951  15.511  0.0609  0.3710  0.3957
  691TMC3    C210215   1.547   4.003  15.615  0.1266 -0.0236 -0.5470
  691TMC3    C310216   1.410   4.013  15.594 -0.6192  0.4092  0.1225
  691TMC3    C410217   1.556   3.920  15.389 -0.1125 -0.2192 -0.3213
  691TMC3    C510218   1.420   3.923  15.379 -0.3574  0.4853 -0.3515
  691TMC3    C610219   1.346   3.964  15.482 -0.3913 -0.3475 -0.4875
  691TMC3     C10220   1.759   3.961  15.522  0.0123  0.2991 -0.2956
  691TMC3     O10221   1.792   3.962  15.640 -0.2940 -0.1229 -0.1485
  691TMC3     H10222   1.587   4.047  15.706 -0.4145 -0.2739 -0.1845
  691TMC3    H110223   1.621   3.867  15.319  0.2480  0.1287 -0.2497
  691TMC3    H210224   1.240   3.959  15.462 -0.8685 -0.3163  2.0574
  691TMC3    C710225   1.369   3.818  15.287  0.3306 -0.5201 -0.6574
  691TMC3    C810226   1.338   4.011  15.714 -0.3797 -0.4198 -0.5651
  691TMC3    O110227   1.433   3.788  15.185 -0.3971 -0.1477 -0.3170
  691TMC3    O210228   1.394   3.964  15.811  0.0979 -0.3420 -0.4219
  692TMC3    C110229   2.976   0.208  15.825  0.4080 -0.1283 -0.3243
  692TMC3    C210230   3.105   0.240  15.839  0.8803 -0.2281  0.3673
  692TMC3    C310231   3.211   0.162  15.781  1.0081  0.2880  0.5190
  692TMC3    C410232   2.952   0.082  15.771  0.5994  0.4353 -0.2000
  692TMC3    C510233   3.051   0.010  15.719  0.2367 -0.7869  0.2771
  692TMC3    C610234   3.181   0.037  15.732  0.6753  0.7603 -0.4536
  692TMC3     C10235   2.871   0.282  15.893  1.3865  0.2938  0.3293
  692TMC3     O10236   2.752   0.250  15.870  0.2649 -0.1072  0.2305
  692TMC3     H10237   3.135   0.342  15.856 -1.1685  0.1536  1.6466
  692TMC3    H110238   2.852   0.042  15.758  0.4030  1.1991 -0.9729
  692TMC3    H210239   3.256   4.717  15.666  0.5826  0.9517 -0.6809
  692TMC3    C710240   3.019   4.617  15.633 -0.7169 -0.7446 -0.5875
  692TMC3    C810241   3.331   0.139  15.865  0.0570  0.3338 -0.2683
  692TMC3    O110242   2.902   4.604  15.598 -0.1268 -0.1405 -0.0439
  692TMC3    O210243   3.404   0.043  15.840 -0.4640  0.8222 -0.5659
  693MPD2     C10244   2.553   3.294  10.533  0.0956 -0.0672 -0.2281
  693MPD2    C110245   2.518   3.174  10.597  0.0030  0.7415  0.3738
  693MPD2    C210246   2.617   3.092  10.639 -0.5142 -0.2365  0.1966
  693MPD2    C310247   2.750   3.118  10.606 -0.1545 -0.2045  0.1932
  693MPD2    C410248   2.789   3.237  10.544  0.4139 -0.1210 -0.0421
  693MPD2    C510249   2.685   3.317  10.498 -0.5473 -0.1224  0.1631
  693MPD2     H10250   2.590   3.001  10.692  0.3301 -0.3920  0.3599
  693MPD2    H110251   2.887   3.273  10.515  0.6040 -1.6213 -1.2318
  693MPD2    H210252   2.479   3.363  10.495  0.2622 -0.4224 -1.1957
  693MPD2    H310253   2.704   3.414  10.453 -1.7024 -0.3980 -0.9073
  693MPD2     N10254   2.856   3.028  10.641 -0.1926 -0.4732  0.7914
  693MPD2    H510255   2.949   3.045  10.604 -0.1505  0.2384  1.2185
  693MPD2    N110256   2.381   3.141  10.597 -0.0201 -0.0745 -0.0834
  693MPD2    H710257   2.312   3.207  10.563 -0.6314 -0.9019 -0.4727
  694TMC3    C110258   2.174   3.036  10.637 -0.8374  0.3175  0.3405
  694TMC3    C210259   2.104   2.940  10.573  0.2471  0.0396  0.4768
  694TMC3    C310260   2.001   2.873  10.638  0.2242  0.4965 -0.0861
  694TMC3    C410261   2.152   3.067  10.766  0.3733  0.6848 -0.7769
  694TMC3    C510262   2.062   2.985  10.829  0.2491  0.4865 -0.0704
  694TMC3    C610263   1.987   2.888  10.767 -0.8646  0.0324  0.3399
  694TMC3     C10264   2.316   3.016  10.620 -0.8945 -0.7670  0.3775
  694TMC3     O10265   2.360   2.909  10.649  0.7249 -0.4150 -0.1249
  694TMC3     H10266   2.109   2.923  10.467  0.8893 -0.0908  0.5322
  694TMC3    H110267   2.226   3.129  10.815  0.1930  0.8813 -0.7514
  694TMC3    H210268   1.919   2.822  10.819  1.2809 -2.2484  0.2624
  694TMC3    C710269   2.040   3.004  10.971  0.0722  0.0137 -0.1049
  694TMC3    C810270   1.881   2.817  10.570 -0.0956 -0.4049  0.3903
  694TMC3    O110271   2.077   3.112  11.016  0.2662 -0.3254 -0.6808
  694TMC3    O210272   1.830   2.715  10.609 -0.1591 -0.4183 -0.3100
  695MPD2     C10273   3.288   4.109  13.491  0.7288 -0.4410  0.3414
  695MPD2    C110274   3.285   4.244  13.465 -0.0639 -0.0976  0.0802
  695MPD2    C210275   3.189   4.298  13.383 -0.0754  0.5612  0.5825
  695MPD2    C310276   3.088   4.217  13.329 -0.0408 -0.1649 -0.2603
  695MPD2    C410277   3.100   4.080  13.344 -0.3999  0.3814 -0.1981
  695MPD2    C510278   3.197   4.029  13.429 -0.0407 -0.1823  0.2692
  695MPD2     H10279   3.181   4.406  13.380 -1.5454  0.4180 -0.8306
  695MPD2    H110280   3.043   4.009  13.286  0.8109 -0.0983 -0.8110
  695MPD2    H210281   3.357   4.062  13.560 -0.5247 -2.1760  0.4357
  695MPD2    H310282   3.194   3.926  13.462  1.4632  0.1931  1.5332
  695MPD2     N10283   2.968   4.264  13.267  0.7470 -0.4831  0.4421
  695MPD2    H510284   2.903   4.187  13.257  0.4166  0.1605 -2.3104
  695MPD2    N110285   3.370   4.333  13.528  0.3880  0.6718  0.3649
  695MPD2    H710286   3.348   4.431  13.514 -0.1540  0.4424 -0.4449
  696TMC3    C110287   2.809   4.428  13.190 -0.2152  0.0933 -0.4801
  696TMC3    C210288   2.706   4.387  13.273 -0.6648  0.5352  0.3920
  696TMC3    C310289   2.594   4.463  13.285 -0.2006  0.6565  0.0241
  696TMC3    C410290   2.789   4.532  13.098  0.0611  0.4042  0.3992
  696TMC3    C510291   2.663   4.581  13.094 -0.3422  0.2960 -0.2691
  696TMC3    C610292   2.559   4.541  13.175 -0.4212  0.5187 -0.6498
  696TMC3     C10293   2.944   4.394  13.223  0.5474  1.0675  0.7803
  696TMC3     O10294   3.018   4.488  13.214  0.2321 -0.0980  0.4639
  696TMC3     H10295   2.738   4.315  13.348  2.3286  0.6613 -0.7421
  696TMC3    H110296   2.868   4.584  13.045 -0.9996  0.8471 -0.7593
  696TMC3    H210297   2.463   4.590  13.182 -0.4719  0.3776 -0.3125
  696TMC3    C710298   2.655   4.712  13.032 -0.0712 -0.4855 -0.4617
  696TMC3    C810299   2.603   4.564  13.392 -0.4212 -0.6243 -0.1126
  696TMC3    O110300   2.714   0.007  12.928 -0.2628  0.0145 -0.3879
  696TMC3    O210301   2.558   4.681  13.377 -0.1220 -0.5195 -0.4733
  697MPD2     C10302   2.371   1.795  15.750  0.3019  0.1634 -0.1959
  697MPD2    C110303   2.372   1.719  15.629 -0.1285  0.1886  0.3638
  697MPD2    C210304   2.350   1.788  15.516 -0.7746  0.5508 -0.4300
  697MPD2    C310305   2.332   1.924  15.506 -0.3721 -0.6569 -1.2988
  697MPD2    C410306   2.349   1.997  15.625  0.5719 -0.6873  0.0385
  697MPD2    C510307   2.367   1.932  15.742 -0.4732 -0.2576  0.4298
  697MPD2     H10308   2.349   1.736  15.421  0.7110  0.2934 -0.3110
  697MPD2    H110309   2.338   2.104  15.629  2.3698 -0.5253  0.2070
  697MPD2    H210310   2.377   1.752  15.849  1.4722  1.4218  0.2851
  697MPD2    H310311   2.381   1.986  15.835  0.3103 -0.9018  0.6866
  697MPD2     N10312   2.304   1.988  15.381  0.2700 -0.2761 -0.7436
  697MPD2    H510313   2.289   1.920  15.308  0.3909  0.3526 -1.3500
  697MPD2    N110314   2.397   1.582  15.619  0.2114  0.3416 -1.1391
  697MPD2    H710315   2.389   1.534  15.530 -5.3041 -0.7092 -0.1107
  698TMC3    C110316   2.348   2.150  15.217 -0.1814  0.2218  0.2218
  698TMC3    C210317   2.375   2.280  15.182 -1.1513  0.0897 -0.5396
  698TMC3    C310318   2.470   2.303  15.092 -0.2055 -0.4683 -0.0182
  698TMC3    C410319   2.428   2.052  15.154  0.2497  0.2116  0.3131
  698TMC3    C510320   2.521   2.082  15.064  0.3681 -0.0209  0.1064
  698TMC3    C610321   2.547   2.211  15.026 -0.2834 -0.5457 -0.3686
  698TMC3     C10322   2.302   2.124  15.355 -0.0665 -0.4105  0.3831
  698TMC3     O10323   2.301   2.226  15.426 -0.3912 -0.4524 -0.4352
  698TMC3     H10324   2.330   2.367  15.228  2.9722  0.8431  2.0251
  698TMC3    H110325   2.428   1.948  15.185 -1.8288  0.3266  0.7225
  698TMC3    H210326   2.610   2.241  14.943  0.0484  0.4303  0.2279
  698TMC3    C710327   2.554   1.987  14.962  0.2701 -0.0222 -0.5043
  698TMC3    C810328   2.483   2.440  15.048 -0.3162 -0.0832  0.0317
  698TMC3    O110329   2.487   1.885  14.953 -0.1356  0.4410 -0.1782
  698TMC3    O210330   2.391   2.515  15.064  0.0607 -0.7245 -0.1501
  699TMC3    C110331   2.818   4.433  12.721 -0.5777 -0.3148 -0.1687
  699TMC3    C210332   2.895   4.329  12.756 -0.2452  0.0242 -0.1383
  699TMC3    C310333   2.837   4.208  12.771 -0.1010  0.0745 -0.2788
  699TMC3    C410334   2.681   4.427  12.694 -0.0622  1.0450 -0.1314
  699TMC3    C510335   2.627   4.303  12.727 -0.3190  0.2916  0.3978
  699TMC3    C610336   2.702   4.190  12.760 -0.5667 -0.0507  0.1664
  699TMC3     C10337   2.872   4.563  12.689 -0.0932  0.1815  0.3936
  699TMC3     O10338   2.791   4.628  12.629 -0.3941 -0.0619 -0.2384
  699TMC3     H10339   3.001   4.330  12.780 -0.4319 -2.4114  0.7657
  699TMC3    H110340   2.615   4.510  12.673  0.8564  1.3489 -1.8086
  699TMC3    H210341   2.656   4.095  12.783  0.6331 -0.9409 -1.1283
  699TMC3    C710342   2.493   4.299  12.788 -0.0916 -0.0861 -0.3998
  699TMC3    C810343   2.895   4.121  12.863  0.3641 -0.4856  0.4564
  699TMC3    O110344   2.402   4.365  12.743  0.1639 -0.2771 -0.6743
  699TMC3    O210345   2.962   4.165  12.952 -0.2331  0.0995  0.3065
  700TMC3    C110346   1.584   2.661  17.105 -0.6274 -0.0312 -0.6686
  700TMC3    C210347   1.684   2.574  17.071  0.0028 -0.2104  0.0547
  700TMC3    C310348   1.769   2.529  17.173 -0.0969  0.7820 -0.7984
  700TMC3    C410349   1.580   2.706  17.228  0.1519  0.0427 -0.2105
  700TMC3    C510350   1.679   2.683  17.321  0.5229 -0.0614 -0.7610
  700TMC3    C610351   1.775   2.590  17.296  0.9132  0.4005 -0.4027
  700TMC3     C10352   1.553   2.752  17.002  0.2781 -0.7353  0.0107
  700TMC3     O10353   1.441   2.798  16.986  0.2610 -0.0984  0.2011
  700TMC3     H10354   1.676   2.518  16.979  0.4994  1.7629 -1.1624
  700TMC3    H110355   1.498   2.777  17.238  2.0961  2.2859 -0.3070
  700TMC3    H210356   1.865   2.570  17.353  1.3680 -0.6103 -1.4845
  700TMC3    C710357   1.737   2.807  17.357  0.0853  0.1669 -0.3520
  700TMC3    C810358   1.850   2.410  17.144  0.1574 -0.0463 -0.1567
  700TMC3    O110359   1.706   2.898  17.281 -0.3638 -0.7795 -0.5792
  700TMC3    O210360   1.840   2.373  17.027 -0.0142  0.4410  0.6962
  701TMC3    C110361   1.923   1.039  15.585  0.7230  0.4755  0.6677
  701TMC3    C210362   1.979   0.991  15.471  0.4804 -0.0001 -0.4629
  701TMC3    C310363   2.079   1.071  15.412 -0.2735 -0.6034  0.4248
  701TMC3    C410364   1.982   1.140  15.652 -0.3173  0.2117  1.0364
  701TMC3    C510365   2.094   1.205  15.605 -0.6573 -0.4603 -0.0316
  701TMC3    C610366   2.145   1.168  15.484 -0.1854  0.4360  0.0162
  701TMC3     C10367   1.788   1.012  15.612  0.4723  0.3836  0.6123
  701TMC3     O10368   1.716   1.095  15.677  0.1234  0.4715 -0.4293
  701TMC3     H10369   1.935   0.907  15.421  1.2776 -0.8136  0.2009
  701TMC3    H110370   1.940   1.171  15.748  2.1309 -0.1298  2.2018
  701TMC3    H210371   2.234   1.218  15.448  0.8977  0.1620  2.3228
  701TMC3    C710372   2.091   1.347  15.626 -0.3614 -0.1153 -0.2374
  701TMC3    C810373   2.101   1.056  15.267 -0.3876 -0.8410 -0.9961
  701TMC3    O110374   2.155   1.412  15.543  0.2570  0.2129  0.1980
  701TMC3    O210375   2.200   1.121  15.226 -0.1065 -0.1046 -0.0019
  702MPD2     C10376   1.295   3.148  10.394  0.3901 -0.1626  0.5204
  702MPD2    C110377   1.360   3.236  10.477 -0.0643 -0.0729  0.0466
  702MPD2    C210378   1.413   3.354  10.424  0.4716 -0.0497 -0.0159
  702MPD2    C310379   1.413   3.377  10.284  0.1812 -0.0305  0.7181
  702MPD2    C410380   1.335   3.291  10.213 -0.6031 -0.0675  0.6226
  702MPD2    C510381   1.282   3.179  10.259 -0.4695  0.9232  0.8907
  702MPD2     H10382   1.466   3.413  10.498 -0.3231  1.9411 -1.0470
  702MPD2    H110383   1.319   3.307  10.107 -1.3746  1.6183  0.9953
  702MPD2    H210384   1.251   3.056  10.430  2.1984 -2.0613 -2.1257
  702MPD2    H310385   1.230   3.105  10.200 -2.0676  1.0460  2.1579
  702MPD2     N10386   1.448   3.499  10.224  0.5447 -0.1889  0.5988
  702MPD2    H510387   1.404   3.522  10.135 -0.3610  2.0599  1.6327
  702MPD2    N110388   1.369   3.217  10.615 -0.6909 -0.0600 -0.1487
  702MPD2    H710389   1.429   3.278  10.670 -0.7615 -3.2336  3.3820
  703TMC3    C110390   1.557   3.699  10.192  0.7811  0.4384  0.3677
  703TMC3    C210391   1.445   3.771  10.149 -0.3981  1.4884  0.3735
  703TMC3    C310392   1.471   3.896  10.103  0.5346 -0.7368 -0.2834
  703TMC3    C410393   1.685   3.741  10.188  0.7449 -0.1327 -0.2316
  703TMC3    C510394   1.699   3.871  10.139  0.1391  1.0108  0.2563
  703TMC3    C610395   1.592   3.951  10.105  0.3091  0.2967  0.9821
  703TMC3     C10396   1.542   3.580  10.268  0.1660  0.1713 -0.9370
  703TMC3     O10397   1.612   3.568  10.372 -0.5580  0.1473 -0.0384
  703TMC3     H10398   1.343   3.733  10.155  0.8708 -1.8365  1.0122
  703TMC3    H110399   1.766   3.683  10.230 -0.8767 -1.2080  1.4475
  703TMC3    H210400   1.610   4.050  10.066  1.1887 -0.0734  0.4456
  703TMC3    C710401   1.833   3.929  10.138 -0.1080  0.5513  0.6717
  703TMC3    C810402   1.357   3.986  10.082  0.6808  0.2041  0.7512
  703TMC3    O110403   1.834   4.026  10.061 -0.2299 -0.3849  0.7065
  703TMC3    O210404   1.384   4.086  10.017  0.3070  0.0913  0.3049
  704TMC3    C110405   3.732   1.573  12.336  0.0468 -0.2712  0.6735
  704TMC3    C210406   3.867   1.565  12.332  0.3425  0.3490 -0.2579
  704TMC3    C310407   3.931   1.482  12.421 -0.0404 -0.0211  0.6635
  704TMC3    C410408   3.662   1.497  12.422  0.6252 -0.4586  1.0251
  704TMC3    C510409   3.724   1.411  12.503 -0.0629 -0.1184 -0.1494
  704TMC3    C610410   3.861   1.403  12.507 -0.2518  1.1374 -0.1321
  704TMC3     C10411   3.663   1.670  12.244 -0.6101 -0.5475  0.4962
  704TMC3     O10412   3.548   1.700  12.269 -0.2796 -0.2824  0.4690
  704TMC3     H10413   3.922   1.638  12.275 -1.3932  2.0834  0.2833
  704TMC3    H110414   3.555   1.504  12.409  0.6746 -0.1489  0.7781
  704TMC3    H210415   3.918   1.333  12.568 -0.3058  1.1705 -0.0445
  704TMC3    C710416   3.646   1.293  12.539  0.1315 -0.0206 -0.5712
  704TMC3    C810417   4.076   1.473  12.405 -0.6702  0.0140 -0.0907
  704TMC3    O110418   3.522   1.292  12.544 -0.1856  0.2906  0.0438
  704TMC3    O210419   4.124   1.513  12.297  0.4415  0.1151 -0.1872
  705MPD2     C10420   3.525   4.239  15.997 -0.3827 -0.6901  0.4837
  705MPD2    C110421   3.560   4.353  16.061 -0.2047 -1.1055  0.0141
  705MPD2    C210422   3.495   4.389  16.177  0.1397 -0.1877 -0.4194
  705MPD2    C310423   3.392   4.318  16.226  0.1999  0.3843 -1.0151
  705MPD2    C410424   3.364   4.199  16.160 -0.0153 -0.1180 -0.8499
  705MPD2    C510425   3.428   4.158  16.053  0.6680  0.5048  0.8139
  705MPD2     H10426   3.523   4.482  16.225 -1.6445  0.9576 -1.5960
  705MPD2    H110427   3.275   4.148  16.195  0.7092 -0.1099  1.0111
  705MPD2    H210428   3.565   4.211  15.901 -0.8980  1.5320 -0.3865
  705MPD2    H310429   3.391   4.069  16.004 -1.4393  1.8555 -0.0393
  705MPD2     N10430   3.305   4.350  16.332 -0.0451  0.1274 -0.2102
  705MPD2    H510431   3.233   4.279  16.346 -0.1729  0.4976  1.0092
  705MPD2    N110432   3.649   4.447  16.007  0.2230  0.3175 -0.6084
  705MPD2    H710433   3.652   4.542  16.042 -0.3136 -0.5227  1.6846
  706TMC3    C110434   3.935   4.626  15.665  0.1551  0.7013 -0.2666
  706TMC3    C210435   3.895   0.031  15.694  0.2340 -0.0572 -0.1836
  706TMC3    C310436   3.800   0.043  15.788 -0.1333 -0.0827 -0.5856
  706TMC3    C410437   3.868   4.517  15.722  0.5983 -0.1135  0.2695
  706TMC3    C510438   3.782   4.542  15.830 -0.2305 -0.4480 -0.3880
  706TMC3    C610439   3.735   4.665  15.859 -0.1351  0.1941  0.1702
  706TMC3     C10440   4.009   4.607  15.544  0.7151  0.9771  0.0659
  706TMC3     O10441   4.059   4.709  15.502 -0.4887 -0.2275 -0.1575
  706TMC3     H10442   3.920   0.121  15.638 -1.9056  1.6864  1.6836
  706TMC3    H110443   3.918   4.421  15.725  2.5715  0.8837 -0.8585
  706TMC3    H210444   3.664   4.680  15.940  1.9550  1.6509  1.7604
  706TMC3    C710445   3.727   4.419  15.890 -0.0209  0.4967  0.4516
  706TMC3    C810446   3.757   0.184  15.813 -0.8821  0.2172 -0.3811
  706TMC3    O110447   3.748   4.320  15.824  0.4120 -0.0393  0.3436
  706TMC3    O210448   3.752   0.253  15.713  0.3474 -0.0830 -0.4705
  707TMC3    C110449   0.507   4.322   1.564  0.3205  0.0379  0.3644
  707TMC3    C210450   0.466   4.251   1.669 -0.2034  0.0046 -0.3968
  707TMC3    C310451   0.420   4.323   1.782  0.9338  0.2210 -0.4658
  707TMC3    C410452   0.505   4.460   1.566 -0.0053  0.3648  0.1645
  707TMC3    C510453   0.453   4.523   1.679 -0.1790 -0.4155  0.1352
  707TMC3    C610454   0.416   4.453   1.789 -0.5119 -0.6179  0.6311
  707TMC3     C10455   0.630   4.271   1.508  0.2611 -0.1441  0.4330
  707TMC3     O10456   0.692   4.192   1.578  0.1488 -0.7248 -0.6547
  707TMC3     H10457   0.452   4.143   1.660  2.6380 -0.1954 -2.2501
  707TMC3    H110458   0.549   4.519   1.486 -0.4879  1.1560  0.4890
  707TMC3    H210459   0.401   4.499   1.886  2.0642 -0.8846  1.1513
  707TMC3    C710460   0.436   4.666   1.663 -0.0920 -0.2365  0.1283
  707TMC3    C810461   0.477   4.270   1.903 -0.2451 -0.1202 -0.6072
  707TMC3    O110462   0.517   0.003   1.592 -0.5271 -0.4347  0.0924
  707TMC3    O210463   0.457   4.308   2.016 -0.5178 -0.3539  0.2389
  708MPD2     C10464   1.798   2.955  13.801  0.1186  0.1996  0.4549
  708MPD2    C110465   1.714   3.044  13.855 -0.3175  0.1053 -0.6278
  708MPD2    C210466   1.667   3.019  13.986  0.1899 -0.0152  0.7741
  708MPD2    C310467   1.701   2.904  14.054 -0.0310  0.6716  0.0369
  708MPD2    C410468   1.786   2.811  13.989 -0.5364  0.2920 -0.0095
  708MPD2    C510469   1.831   2.840  13.865 -0.2559 -0.2105  0.3743
  708MPD2     H10470   1.618   3.095  14.045  1.2446  0.3560  1.1759
  708MPD2    H110471   1.811   2.716  14.034  2.2490  1.3351  0.6360
  708MPD2    H210472   1.847   2.980  13.708 -2.3759  2.7820 -0.1577
  708MPD2    H310473   1.905   2.771  13.825 -0.9066 -0.5616 -0.2074
  708MPD2     N10474   1.658   2.874  14.184 -0.1940 -0.0243 -0.1284
  708MPD2    H510475   1.726   2.819  14.236 -0.1124  0.0878 -0.1163
  708MPD2    N110476   1.687   3.167  13.791  0.2164 -0.1716  0.1908
  708MPD2    H710477   1.740   3.184  13.706  1.3055 -2.6228  0.3649
  709TMC3    C110478   1.560   3.372  13.754  0.5054  0.6602 -0.7278
  709TMC3    C210479   1.520   3.318  13.634 -0.1320  0.1249  0.2860
  709TMC3    C310480   1.398   3.346  13.585 -0.3541  0.0390 -0.4526
  709TMC3    C410481   1.473   3.457  13.815  0.3489 -0.0025 -0.2250
  709TMC3    C510482   1.350   3.478  13.767  0.1210 -0.1986  0.3617
  709TMC3    C610483   1.307   3.427  13.654  0.1691 -0.0115 -0.0444
  709TMC3     C10484   1.608   3.269  13.844  0.6043  0.5473 -0.5574
  709TMC3     O10485   1.560   3.287  13.957 -0.1066 -0.0902  0.0009
  709TMC3     H10486   1.580   3.245  13.581 -0.3373 -0.1758  0.4645
  709TMC3    H110487   1.521   3.511  13.897 -0.0497 -2.6790  1.7818
  709TMC3    H210488   1.208   3.455  13.618 -0.1495 -0.0699  0.7716
  709TMC3    C710489   1.255   3.487  13.876  0.6575  0.4035  0.8476
  709TMC3    C810490   1.348   3.250  13.481  0.1762 -0.1029  0.4349
  709TMC3    O110491   1.145   3.535  13.851 -0.2564 -0.0148 -0.4383
  709TMC3    O210492   1.226   3.233  13.480 -0.3370  0.0591 -0.3432
  710TMC3    C110493   2.731   0.588   0.355  0.0676  0.0584  0.2750
  710TMC3    C210494   2.786   0.527   0.247 -0.2089  0.0151  0.1053
  710TMC3    C310495   2.920   0.504   0.249 -0.1377  0.1446 -0.0908
  710TMC3    C410496   2.807   0.625   0.466 -0.0957 -0.5111 -0.2119
  710TMC3    C510497   2.943   0.588   0.464 -0.2831  0.0035 -0.0332
  710TMC3    C610498   3.005   0.537   0.357 -0.1067 -0.6297  0.6758
  710TMC3     C10499   2.586   0.580   0.359  0.8074  0.2058  0.9205
  710TMC3     O10500   2.528   0.558   0.250 -0.0510 -0.2473 -0.0323
  710TMC3     H10501   2.727   0.481   0.169  1.6592 -0.5632 -0.9674
  710TMC3    H110502   2.754   0.670   0.549 -0.6411  1.0689 -1.4200
  710TMC3    H210503   3.106   0.497   0.357  0.7545  1.5484  2.6095
  710TMC3    C710504   3.002   0.558   0.596 -0.0138 -0.9836  0.1342
  710TMC3    C810505   2.970   0.398   0.169 -0.1043 -0.3680 -0.0993
  710TMC3    O110506   3.082   0.464   0.592 -0.0709 -0.2090 -0.2760
  710TMC3    O210507   3.083   0.397   0.134  0.4378 -0.3943  0.1887
  711TMC3    C110508   2.187   0.668  15.045 -0.2869 -0.0682 -0.3889
  711TMC3    C210509   2.188   0.676  15.182 -0.1535 -0.2978  0.5891
  711TMC3    C310510   2.286   0.755  15.245  0.2633 -0.2817 -0.0157
  711TMC3    C410511   2.285   0.720  14.972  0.2182  0.2514 -0.4607
  711TMC3    C510512   2.392   0.787  15.038 -0.5793  0.4954  0.0806
  711TMC3    C610513   2.384   0.819  15.172  0.1482  0.0753 -0.3750
  711TMC3     C10514   2.083   0.591  14.975 -0.3182 -0.3644  0.0452
  711TMC3     O10515   2.099   0.571  14.859 -0.0587  0.0281  0.8469
  711TMC3     H10516   2.110   0.628  15.239 -0.2130 -1.3034 -0.3216
  711TMC3    H110517   2.296   0.674  14.875  0.5469 -1.7767  0.5355
  711TMC3    H210518   2.466   0.876  15.214  0.4943 -1.6575  1.2537
  711TMC3    C710519   2.530   0.768  14.994  0.4629 -0.7578 -0.0027
  711TMC3    C810520   2.326   0.693  15.372  0.6973  0.2720 -0.6538
  711TMC3    O110521   2.610   0.750  15.086 -0.1101  0.7319  0.7234
  711TMC3    O210522   2.246   0.614  15.433  0.5039  0.0876 -0.2382
  712MPD2     C10523   3.664   1.934  13.854  0.9691 -0.5620  0.1543
  712MPD2    C110524   3.675   1.928  13.715 -0.0707 -0.2361 -0.0363
  712MPD2    C210525   3.789   1.942  13.641 -0.5548 -0.1356 -0.0817
  712MPD2    C310526   3.896   2.001  13.704 -0.2951  0.8107 -0.5646
  712MPD2    C410527   3.889   2.019  13.843  0.0139 -0.2456  0.0455
  712MPD2    C510528   3.777   1.983  13.918  0.5007  0.0440  0.8925
  712MPD2     H10529   3.793   1.914  13.537  1.9280 -0.2033  0.0216
  712MPD2    H110530   3.978   2.053  13.895 -1.2510  2.6894  0.2981
  712MPD2    H210531   3.577   1.930  13.918 -1.3632 -1.1771 -3.0795
  712MPD2    H310532   3.779   1.989  14.026 -1.7883  2.7498  0.7746
  712MPD2     N10533   4.016   2.035  13.639  0.1125 -0.4984 -0.2712
  712MPD2    H510534   4.094   2.071  13.694 -0.3409 -0.4273  0.3182
  712MPD2    N110535   3.564   1.897  13.639 -0.0437 -0.5207 -0.2680
  712MPD2    H710536   3.579   1.887  13.539 -2.7262 -2.6189 -0.4581
  713TMC3    C110537   4.158   2.089  13.454  0.2958  0.0202  0.3555
  713TMC3    C210538   4.282   2.051  13.495  0.1643 -0.1373  0.4351
  713TMC3    C310539   4.385   2.090  13.422  0.3980 -0.5260 -0.5568
  713TMC3    C410540   4.149   2.164  13.344 -0.1282 -0.5743  0.3448
  713TMC3    C510541   4.252   2.197  13.257 -0.7596 -0.8333  0.8673
  713TMC3    C610542   4.376   2.164  13.303 -0.9180 -0.0996 -0.4690
  713TMC3     C10543   4.029   2.036  13.502 -0.4571 -0.0881 -0.0159
  713TMC3     O10544   3.937   2.031  13.419  0.0161  0.6033 -0.2420
  713TMC3     H10545   4.287   1.980  13.577  0.6489 -0.8630 -0.2329
  713TMC3    H110546   4.050   2.188  13.306 -0.1877 -0.4375  0.5863
  713TMC3    H210547   4.465   2.204  13.255  0.8830 -0.7995  2.2773
  713TMC3    C710548   4.242   2.299  13.157 -0.2692  0.4202 -0.2418
  713TMC3    C810549   4.507   2.121  13.486 -0.0232 -0.4078 -0.4557
  713TMC3    O110550   4.348   2.350  13.128 -0.3814  0.5521 -0.1659
  713TMC3    O210551   4.564   2.232  13.478 -0.3685  0.0188 -0.2116
  714MPD2     C10552   1.107   0.689   1.630  0.2776  0.1479 -0.0747
  714MPD2    C110553   1.179   0.649   1.513 -0.4965  0.1823 -0.6621
  714MPD2    C210554   1.116   0.674   1.391  0.3742  0.5289 -0.3325
  714MPD2    C310555   0.993   0.736   1.374  0.0210  0.3414  0.2640
  714MPD2    C410556   0.926   0.773   1.491  0.0380  0.5157 -0.2183
  714MPD2    C510557   0.980   0.741   1.615 -1.1491 -0.7355  0.3605
  714MPD2     H10558   1.166   0.645   1.299  1.0792 -1.3088  0.6295
  714MPD2    H110559   0.833   0.829   1.491  1.3004  2.5862  0.8015
  714MPD2    H210560   1.145   0.679   1.731 -1.5111 -1.3800  0.4366
  714MPD2    H310561   0.918   0.760   1.702 -0.0930  0.4069  0.8678
  714MPD2     N10562   0.936   0.748   1.242  0.0234 -0.9550  0.4018
  714MPD2    H510563   0.982   0.718   1.157 -2.3006 -1.6135 -0.6265
  714MPD2    N110564   1.299   0.581   1.523  0.1962 -0.7010  0.8067
  714MPD2    H710565   1.338   0.581   1.616 -0.7936  0.7205  1.2224
  715TMC3    C110566   1.514   0.500   1.460  0.6903 -0.0172 -0.3163
  715TMC3    C210567   1.574   0.394   1.399  0.0866  0.7701 -0.8589
  715TMC3    C310568   1.693   0.351   1.444  0.7123  0.4489  0.2606
  715TMC3    C410569   1.574   0.563   1.566 -0.3112 -0.3455 -0.9319
  715TMC3    C510570   1.690   0.502   1.617 -1.0149 -0.5356 -0.0652
  715TMC3    C610571   1.753   0.397   1.550 -0.2073  0.0172 -0.0298
  715TMC3     C10572   1.374   0.529   1.426  0.8157  0.1240  0.8169
  715TMC3     O10573   1.344   0.501   1.309 -0.3854  0.0878 -0.6280
  715TMC3     H10574   1.524   0.354   1.311  0.9898 -1.6035 -0.2993
  715TMC3    H110575   1.530   0.651   1.610 -0.0265  0.2049 -1.7484
  715TMC3    H210576   1.844   0.345   1.578 -0.2262  0.1567  0.2936
  715TMC3    C710577   1.751   0.550   1.743 -0.2246  0.3110  0.5203
  715TMC3    C810578   1.778   0.273   1.347  0.7573  0.6071 -0.5295
  715TMC3    O110579   1.869   0.528   1.759 -0.0868  0.2479 -0.6357
  715TMC3    O210580   1.709   0.220   1.261  0.5684 -0.6235 -0.2478
  716MPD2     C10581   1.602   3.917   9.786  0.0023 -0.1311 -0.0504
  716MPD2    C110582   1.493   3.891   9.710 -0.2310 -0.7132 -0.5458
  716MPD2    C210583   1.487   3.781   9.631 -0.0519  0.3887 -0.5742
  716MPD2    C310584   1.583   3.689   9.639  0.0177 -0.2816 -0.3801
  716MPD2    C410585   1.690   3.703   9.726 -0.4220  0.3032 -0.7358
  716MPD2    C510586   1.698   3.820   9.799  0.0160 -0.3298 -0.2892
  716MPD2     H10587   1.399   3.768   9.569 -0.8905  0.5618  0.5947
  716MPD2    H110588   1.769   3.629   9.721 -0.5326  0.1114  0.5314
  716MPD2    H210589   1.609   4.005   9.848 -1.1625  0.0314 -0.1464
  716MPD2    H310590   1.776   3.833   9.873 -0.3311 -1.9404  0.3714
  716MPD2     N10591   1.569   3.568   9.556  0.2109  0.1073 -0.0688
  716MPD2    H510592   1.490   3.564   9.493 -0.9193 -0.4645  1.3955
  716MPD2    N110593   1.395   3.992   9.724 -0.2071  0.2880 -0.5401
  716MPD2    H710594   1.434   4.077   9.765  0.6165  0.0729 -0.8731
  717TMC3    C110595   1.590   3.346   9.497  0.2411  0.7941 -0.5938
  717TMC3    C210596   1.535   3.382   9.378  0.7643 -0.4244  0.1660
  717TMC3    C310597   1.502   3.278   9.289 -0.0855 -0.4367 -0.0323
  717TMC3    C410598   1.609   3.214   9.537  0.1216 -0.1208  0.2888
  717TMC3    C510599   1.566   3.119   9.453 -0.1187  0.4038  0.2303
  717TMC3    C610600   1.501   3.146   9.333 -0.1079 -0.2721  0.1429
  717TMC3     C10601   1.625   3.451   9.587 -0.3570  0.2833  0.6329
  717TMC3     O10602   1.671   3.408   9.694  0.2022 -0.6842 -0.2675
  717TMC3     H10603   1.560   3.480   9.339 -2.9542  0.6481  0.4442
  717TMC3    H110604   1.671   3.198   9.624 -0.4193 -2.1610  0.2992
  717TMC3    H210605   1.441   3.070   9.283  4.1553 -2.1095 -2.1981
  717TMC3    C710606   1.590   2.982   9.499 -0.1941  0.4310 -0.0051
  717TMC3    C810607   1.398   3.317   9.190 -0.4910 -0.0940 -0.1901
  717TMC3    O110608   1.647   2.975   9.607  0.2513  0.1149  0.4743
  717TMC3    O210609   1.373   3.436   9.199 -0.2322 -0.6990 -0.5698
  718MPD2     C10610   0.921   1.936  13.085 -0.1076  0.4679  0.2962
  718MPD2    C110611   0.826   1.995  13.002 -0.1061  0.0040  0.3956
  718MPD2    C210612   0.705   1.930  12.978 -0.0847 -0.3024 -0.3603
  718MPD2    C310613   0.665   1.815  13.040 -0.5405 -0.3427  0.6421
  718MPD2    C410614   0.755   1.757  13.127 -0.1890  0.7576 -0.2628
  718MPD2    C510615   0.878   1.819  13.152  0.3354 -0.2291 -0.6716
  718MPD2     H10616   0.626   1.964  12.912  0.8599 -0.3723 -1.5265
  718MPD2    H110617   0.723   1.668  13.180 -2.2348  1.3097 -0.5946
  718MPD2    H210618   1.019   1.976  13.111  0.1077 -2.2829  3.6829
  718MPD2    H310619   0.942   1.785  13.233 -1.5824 -1.3395  0.3894
  718MPD2     N10620   0.540   1.754  13.003 -0.2286  0.0890 -0.0130
  718MPD2    H510621   0.479   1.797  12.935 -0.0021 -0.5173 -0.6069
  718MPD2    N110622   0.855   2.124  12.950 -0.6361  0.4978 -0.0575
  718MPD2    H710623   0.950   2.159  12.956 -0.2674 -0.8162  1.5474
  719TMC3    C110624   0.798   2.306  12.803  0.7062  0.8492 -0.0586
  719TMC3    C210625   0.702   2.361  12.725 -0.5748 -0.6668  0.2898
  719TMC3    C310626   0.735   2.393  12.595  0.4882 -0.3395 -0.1384
  719TMC3    C410627   0.927   2.294  12.755  0.6669  0.5483  0.1876
  719TMC3    C510628   0.954   2.347  12.625  0.0820 -0.1281  0.5731
  719TMC3    C610629   0.859   2.389  12.543  0.3472 -0.5486 -0.0596
  719TMC3     C10630   0.751   2.202  12.892  0.6746 -0.8073  0.1483
  719TMC3     O10631   0.627   2.190  12.890  0.0563  0.2303  0.1633
  719TMC3     H10632   0.604   2.378  12.768  0.1900  3.3757  0.3733
  719TMC3    H110633   1.010   2.244  12.802 -0.1240 -0.1066  0.8999
  719TMC3    H210634   0.874   2.419  12.440  2.6565 -2.3572 -0.2560
  719TMC3    C710635   1.078   2.337  12.563 -0.3013  0.2623 -0.5318
  719TMC3    C810636   0.648   2.324  12.497  0.5741 -0.1199  0.0518
  719TMC3    O110637   1.073   2.294  12.445  0.4465 -0.3664  0.1447
  719TMC3    O210638   0.686   2.325  12.382  0.5159  0.9526 -0.3601
  720MPD2     C10639   3.730   3.771  13.859  0.3730 -0.2798  0.3323
  720MPD2    C110640   3.842   3.800  13.786 -0.8392 -0.5482 -0.3432
  720MPD2    C210641   3.965   3.774  13.831 -0.8097  0.0476 -0.0866
  720MPD2    C310642   3.988   3.713  13.949 -0.3828  0.6765  0.0143
  720MPD2    C410643   3.879   3.680  14.026  0.2933  0.0508  0.3353
  720MPD2    C510644   3.748   3.697  13.977 -0.2922 -0.0804 -0.0715
  720MPD2     H10645   4.047   3.789  13.762 -0.2852  0.3217  0.6009
  720MPD2    H110646   3.899   3.640  14.124 -2.6328  0.9848  1.3313
  720MPD2    H210647   3.626   3.792  13.836  0.6534  1.3910  0.5953
  720MPD2    H310648   3.665   3.677  14.044  0.6815  0.8656  1.4079
  720MPD2     N10649   4.121   3.686  13.987  0.3631  0.1456 -0.6763
  720MPD2    H510650   4.196   3.731  13.937 -0.7053  4.0749  1.2426
  720MPD2    N110651   3.825   3.875  13.670 -0.3105  0.7640  0.5230
  720MPD2    H710652   3.906   3.925  13.633 -1.9534  0.9587 -2.8478
  721TMC3    C110653   4.301   3.633  14.107 -0.4645  0.4364 -0.5338
  721TMC3    C210654   4.326   3.696  14.222  0.6090  1.1049 -0.4385
  721TMC3    C310655   4.419   3.799  14.209 -0.8863  0.1674 -0.3068
  721TMC3    C410656   4.371   3.654  13.982 -0.0308 -0.4517  0.7710
  721TMC3    C510657   4.455   3.764  13.983  0.8361 -0.0368  0.3832
  721TMC3    C610658   4.480   3.830  14.094  0.0886 -0.6650 -0.0594
  721TMC3     C10659   4.159   3.613  14.091 -0.1603 -0.2700 -0.6352
  721TMC3     O10660   4.098   3.561  14.179 -0.1205 -0.3667  0.3139
  721TMC3     H10661   4.279   3.668  14.315  0.3816  0.5808 -0.7135
  721TMC3    H110662   4.330   3.608  13.893  0.5291  0.3162  0.1179
  721TMC3    H210663   4.559   3.905  14.086 -0.4632 -0.2218 -1.2907
  721TMC3    C710664   4.576   3.756  13.896 -0.3373 -0.3008  0.4910
  721TMC3    C810665   4.497   3.827  14.326 -0.7938 -0.2129  0.2178
  721TMC3    O110666   4.640   3.859  13.885 -0.3989 -0.1344 -0.4386
  721TMC3    O210667   4.617   3.848  14.309  0.1090 -0.2713 -0.0512
  722MPD2     C10668   3.067   2.571  13.243  0.1102 -0.2927  0.5946
  722MPD2    C110669   3.080   2.649  13.129  0.1193  0.0607  0.6429
  722MPD2    C210670   2.967   2.660  13.042  0.7239 -0.2227 -0.2441
  722MPD2    C310671   2.851   2.589  13.067  0.2246 -0.6626 -0.4371
  722MPD2    C410672   2.840   2.512  13.188  0.1155 -0.3649  0.2815
  722MPD2    C510673   2.953   2.505  13.276  0.2742  0.6931 -0.3305
  722MPD2     H10674   2.972   2.721  12.953  1.6692 -0.3696 -0.2887
  722MPD2    H110675   2.747   2.463  13.214 -0.5431  0.2973 -0.8052
  722MPD2    H210676   3.142   2.554  13.320  0.3642 -0.1736  0.3713
  722MPD2    H310677   2.943   2.445  13.365 -0.5575 -0.1662 -1.0077
  722MPD2     N10678   2.743   2.601  12.972 -0.6275 -0.5462 -0.5969
  722MPD2    H510679   2.741   2.664  12.892 -2.5014 -0.1737 -0.2525
  722MPD2    N110680   3.195   2.716  13.095  0.1266  0.3017 -0.4962
  722MPD2    H710681   3.196   2.758  13.002 -2.6521 -0.5825 -0.9218
  723TMC3    C110682   2.523   2.583  12.894  0.1880  0.1378  0.0736
  723TMC3    C210683   2.408   2.508  12.872 -0.6187  0.0237  0.6327
  723TMC3    C310684   2.314   2.563  12.792 -0.0824 -0.3840  0.7770
  723TMC3    C410685   2.533   2.717  12.844  0.3626 -1.0155 -0.3832
  723TMC3    C510686   2.430   2.763  12.770  0.6271 -0.4700 -0.3789
  723TMC3    C610687   2.316   2.694  12.742  0.4141 -0.1603 -0.5013
  723TMC3     C10688   2.622   2.537  12.985  0.4986 -0.2108  0.1825
  723TMC3     O10689   2.586   2.441  13.051  0.7587 -0.5162  0.0820
  723TMC3     H10690   2.400   2.404  12.900  2.9053 -0.1260  1.0498
  723TMC3    H110691   2.606   2.790  12.877 -0.9786  0.9452 -1.8355
  723TMC3    H210692   2.244   2.718  12.665  0.8981  1.2394 -0.5093
  723TMC3    C710693   2.427   2.902  12.733 -0.3589 -0.2406  0.0493
  723TMC3    C810694   2.186   2.500  12.773  0.0242  0.2622  0.2031
  723TMC3    O110695   2.530   2.953  12.693 -0.0246  0.3611  0.1862
  723TMC3    O210696   2.098   2.566  12.724 -0.4852 -0.1216  0.1420
  724TMC3    C110697   3.814   1.047   9.722 -0.3783  0.1027  0.4140
  724TMC3    C210698   3.695   0.986   9.755  0.2885 -0.0014  0.1913
  724TMC3    C310699   3.593   1.022   9.676 -1.0320  0.2231 -0.8365
  724TMC3    C410700   3.819   1.164   9.655  0.3488  0.0666  1.0648
  724TMC3    C510701   3.712   1.194   9.577 -0.2940  0.1344  0.0360
  724TMC3    C610702   3.595   1.125   9.577 -0.3527  0.5341  0.0956
  724TMC3     C10703   3.931   1.014   9.813 -0.0577  0.2972  0.1156
  724TMC3     O10704   4.036   1.019   9.760 -0.3965  0.4468 -0.1428
  724TMC3     H10705   3.692   0.891   9.807 -0.9453  1.3329  2.5719
  724TMC3    H110706   3.915   1.215   9.654 -2.3063  4.9386 -1.9720
  724TMC3    H210707   3.507   1.157   9.521 -1.4628 -1.3255  0.7720
  724TMC3    C710708   3.715   1.307   9.490  0.0083 -0.5916 -0.6709
  724TMC3    C810709   3.467   0.959   9.713  0.7656 -0.2872  0.7885
  724TMC3    O110710   3.645   1.296   9.394 -0.5997 -0.1343  0.4186
  724TMC3    O210711   3.468   0.882   9.812  0.7617 -0.6756 -0.2191
  725TMC3    C110712   4.682   4.190  12.990  0.5774 -0.5963  0.4309
  725TMC3    C210713   4.571   4.238  12.924 -0.4973 -0.6594 -0.5580
  725TMC3    C310714   4.477   4.150  12.887  0.0717 -0.1282 -0.2648
  725TMC3    C410715   4.699   4.066  13.041  0.6206 -0.6857  0.1391
  725TMC3    C510716   4.603   3.983  12.997  0.6566  0.5675  0.2137
  725TMC3    C610717   4.495   4.020  12.930  0.3161  0.8740  0.0794
  725TMC3     C10718   0.068   4.277  12.992 -0.0694  0.0522 -0.5497
  725TMC3     O10719   0.034   4.395  12.974  0.2934 -0.6200 -0.5176
  725TMC3     H10720   4.561   4.343  12.899 -1.5505 -0.1969  1.7585
  725TMC3    H110721   0.067   4.029  13.087  1.0463  1.4219  1.0157
  725TMC3    H210722   4.426   3.948  12.888  0.4194  1.6743 -1.4894
  725TMC3    C710723   4.636   3.843  12.981 -0.4282  0.2838 -0.2697
  725TMC3    C810724   4.405   4.167  12.759  0.2778  0.3467 -0.5003
  725TMC3    O110725   4.596   3.784  12.878 -0.3809  0.5970  0.3335
  725TMC3    O210726   4.317   4.086  12.731  0.3126 -0.3302 -0.2708
  726MPD2     C10727   2.698   0.812  10.669 -0.4939  0.3665  1.0064
  726MPD2    C110728   2.675   0.930  10.594  0.3975  0.8285  0.5086
  726MPD2    C210729   2.550   0.980  10.559 -0.6023 -0.0659  0.4810
  726MPD2    C310730   2.441   0.913  10.617  0.3204 -0.5648 -0.6249
  726MPD2    C410731   2.460   0.797  10.691  0.5653 -0.6173 -0.3755
  726MPD2    C510732   2.586   0.744  10.713 -1.2894  0.1216 -0.4042
  726MPD2     H10733   2.542   1.068  10.497  1.7799 -1.6433 -2.0102
  726MPD2    H110734   2.371   0.757  10.738  0.7501 -1.1586 -0.4913
  726MPD2    H210735   2.793   0.764  10.688  0.1144  0.9235 -0.5817
  726MPD2    H310736   2.600   0.651  10.767 -0.2746 -0.4060 -1.6041
  726MPD2     N10737   2.309   0.962  10.625  0.1720  0.2143  0.0471
  726MPD2    H510738   2.255   0.899  10.683  0.8348 -1.7697 -1.4939
  726MPD2    N110739   2.785   1.005  10.547 -0.1146 -0.1939 -0.1145
  726MPD2    H710740   2.765   1.083  10.485 -0.9652 -0.2450  0.0997
  727TMC3    C110741   3.008   1.079  10.526 -0.0026 -0.5186 -0.6346
  727TMC3    C210742   3.141   1.070  10.558 -0.7650  0.2509  0.4323
  727TMC3    C310743   3.232   1.162  10.510 -0.6435 -0.4434 -0.2760
  727TMC3    C410744   2.960   1.179  10.445 -0.2577 -0.6825  0.3735
  727TMC3    C510745   3.058   1.264  10.402 -0.4317 -0.9569 -0.0802
  727TMC3    C610746   3.190   1.255  10.420 -0.2747  0.8521  0.4472
  727TMC3     C10747   2.911   0.988  10.584 -0.2395 -0.5227 -0.2503
  727TMC3     O10748   2.963   0.902  10.658 -0.2727  0.3033  0.3184
  727TMC3     H10749   3.170   0.973  10.597  2.7315  0.3270 -1.9771
  727TMC3    H110750   2.855   1.193  10.423 -0.4698  0.1328  1.8997
  727TMC3    H210751   3.256   1.322  10.367 -0.0881  0.0659 -0.3221
  727TMC3    C710752   3.003   1.380  10.340 -0.2302  0.3212 -0.1130
  727TMC3    C810753   3.367   1.124  10.474  0.4301 -0.6137 -0.5672
  727TMC3    O110754   2.889   1.369  10.299 -0.5114  0.2262 -0.0994
  727TMC3    O210755   3.412   1.167  10.370  0.4165 -0.1940 -0.8144
  728TMC3    C110756   2.346   4.298  15.005  0.0749  0.8490 -1.0893
  728TMC3    C210757   2.476   4.307  14.964  0.2620  0.1604  0.5724
  728TMC3    C310758   2.490   4.316  14.829 -0.5485 -0.0422 -0.9315
  728TMC3    C410759   2.237   4.303  14.922 -0.6949  0.0546  0.1987
  728TMC3    C510760   2.265   4.312  14.785 -0.1750 -0.4256 -0.5493
  728TMC3    C610761   2.390   4.318  14.734  0.2041  0.4563 -0.4012
  728TMC3     C10762   2.328   4.246  15.141  0.3444  0.4876  0.0849
  728TMC3     O10763   2.428   4.241  15.206 -0.8089  0.3968  0.3738
  728TMC3     H10764   2.556   4.289  15.035  2.1880  1.8064 -1.1934
  728TMC3    H110765   2.138   4.305  14.968 -1.2582  1.3257 -1.0366
  728TMC3    H210766   2.404   4.335  14.628 -0.4594  1.7654 -0.2756
  728TMC3    C710767   2.158   4.343  14.694 -0.0580 -0.2179 -0.3137
  728TMC3    C810768   2.631   4.335  14.788  0.0343 -0.4132  0.8164
  728TMC3    O110769   2.069   4.411  14.744  0.4404 -0.0941  0.0462
  728TMC3    O210770   2.707   4.377  14.873 -0.7258  0.4355 -0.0573
  729MPD2     C10771   3.691   1.048  17.054 -0.4249  0.2758  0.1606
  729MPD2    C110772   3.799   0.963  17.066 -0.5044  0.6324  0.6631
  729MPD2    C210773   3.858   0.942  17.191 -0.7410 -0.2941 -0.6482
  729MPD2    C310774   3.809   1.002  17.306  0.7474 -0.4286 -0.1086
  729MPD2    C410775   3.699   1.078  17.292  0.8214  0.1838 -0.1207
  729MPD2    C510776   3.640   1.106  17.173  0.0262 -0.3761 -0.1612
  729MPD2     H10777   3.941   0.873  17.199 -0.0403  1.1561  4.8886
  729MPD2    H110778   3.648   1.120  17.378  0.2479  1.8170 -1.2629
  729MPD2    H210779   3.644   1.067  16.959  1.0485  3.3720  0.0293
  729MPD2    H310780   3.547   1.159  17.159  0.1856  0.2879  1.3190
  729MPD2     N10781   3.868   0.995  17.439 -0.2346  0.8256 -0.2574
  729MPD2    H510782   3.823   1.044  17.516  1.5234  0.8996  0.7147
  729MPD2    N110783   3.849   0.904  16.950 -0.7384 -0.1220 -0.0434
  729MPD2    H710784   3.792   0.924  16.868 -0.0858 -1.6121 -0.8456
  730TMC3    C110785   4.039   0.993  17.594  0.5564  0.6367  0.1301
  730TMC3    C210786   4.125   0.903  17.647  0.0072 -0.2134  0.6549
  730TMC3    C310787   4.231   0.947   0.035  0.0936 -1.1318  0.5853
  730TMC3    C410788   4.062   1.123  17.595 -0.0411 -0.3127 -0.2657
  730TMC3    C510789   4.164   1.168  17.673 -0.0514  0.0695 -0.8929
  730TMC3    C610790   4.245   1.084   0.050  1.0202 -0.6237  0.5755
  730TMC3     C10791   3.985   0.940  17.468  0.2848 -0.0298  0.3938
  730TMC3     O10792   4.069   0.876  17.401 -0.0306  0.1217 -0.3436
  730TMC3     H10793   4.108   0.801  17.614  0.0759 -0.3243  0.9621
  730TMC3    H110794   4.000   1.186  17.533 -0.3866 -1.0120 -0.6301
  730TMC3    H210795   4.321   1.130   0.112 -0.4189  0.0798  1.8191
  730TMC3    C710796   4.197   1.311  17.667  0.3705  0.4361  0.6520
  730TMC3    C810797   4.353   0.876   0.003 -0.3458  0.0462 -1.1936
  730TMC3    O110798   4.262   1.370   0.063 -0.4336  0.0147  0.5779
  730TMC3    O210799   4.448   0.951  17.676 -0.2577 -0.3345  0.5067
  731MPD2     C10800   4.556   2.616  11.760  0.0515 -1.0156 -0.7837
  731MPD2    C110801   4.491   2.725  11.824  0.1139 -0.4235 -0.2638
  731MPD2    C210802   4.451   2.706  11.957  0.3568  0.7331  0.4353
  731MPD2    C310803   4.491   2.604  12.033  0.4893 -0.4520 -0.0499
  731MPD2    C410804   4.551   2.501  11.969 -0.1365  0.0094  0.2764
  731MPD2    C510805   4.584   2.506  11.835 -0.2984  0.1007 -0.0134
  731MPD2     H10806   4.385   2.779  12.003 -0.0578  1.2551 -1.0010
  731MPD2    H110807   4.580   2.404  12.009 -2.1626 -0.3822  0.7719
  731MPD2    H210808   4.580   2.608  11.654  1.6791 -0.4518 -0.4568
  731MPD2    H310809   4.642   2.427  11.789  1.5355  0.4654  1.7077
  731MPD2     N10810   4.454   2.590  12.166  0.0626 -0.2374  0.0734
  731MPD2    H510811   4.379   2.653  12.194 -0.2392 -0.6621  0.2100
  731MPD2    N110812   4.461   2.836  11.754  0.6477 -0.1183  0.0245
  731MPD2    H710813   4.477   2.837  11.654 -0.4952  1.1130 -0.1628
  732TMC3    C110814   4.444   3.068  11.715  0.4014 -0.0134  0.4612
  732TMC3    C210815   4.378   3.081  11.591 -0.1616 -0.2617  0.4155
  732TMC3    C310816   4.442   3.153  11.496  0.0145 -0.0284 -0.6299
  732TMC3    C410817   4.558   3.132  11.745  0.1193 -0.3253 -0.0838
  732TMC3    C510818   4.624   3.202  11.646  0.7510 -0.0006  0.6580
  732TMC3    C610819   4.566   3.210  11.520 -0.9352  0.1007  0.0834
  732TMC3     C10820   4.414   2.959  11.803 -0.1736 -0.1173  0.0758
  732TMC3     O10821   4.401   2.996  11.920  0.0188  0.2243  0.1303
  732TMC3     H10822   4.296   3.014  11.568  0.3914 -1.3040  1.4959
  732TMC3    H110823   4.612   3.098  11.833 -0.0754 -1.5456 -0.4372
  732TMC3    H210824   4.613   3.269  11.442 -2.1348  0.9722  0.0220
  732TMC3    C710825   0.011   3.288  11.675 -0.3497  0.5181 -0.3905
  732TMC3    C810826   4.362   3.225  11.399 -0.4839 -0.7054 -0.0251
  732TMC3    O110827   0.032   3.379  11.595 -0.1412 -0.1081 -0.3219
  732TMC3    O210828   4.422   3.283  11.313  0.2055  0.0768 -0.3505
  733TMC3    C110829   0.157   1.517  12.932  0.0086 -0.0996 -0.2744
  733TMC3    C210830   0.268   1.542  13.019 -0.3898  0.9993  0.0545
  733TMC3    C310831   0.377   1.597  12.967 -0.0775  0.7415 -0.3508
  733TMC3    C410832   0.173   1.543  12.795  0.0282 -0.1630 -0.3755
  733TMC3    C510833   0.286   1.606  12.753  0.1064 -0.1850 -0.1345
  733TMC3    C610834   0.381   1.641  12.839  0.4782 -0.1523  0.3785
  733TMC3     C10835   0.051   1.606  12.971 -0.4346  0.2857 -0.5949
  733TMC3     O10836   0.034   1.711  12.910  0.2731  0.0683 -0.3263
  733TMC3     H10837   0.255   1.541  13.126 -1.5015  0.4970 -0.0898
  733TMC3    H110838   0.086   1.539  12.730 -0.7257 -0.6263  0.6462
  733TMC3    H210839   0.477   1.669  12.797 -0.1805  0.6100 -0.6339
  733TMC3    C710840   0.272   1.703  12.639  0.4906 -0.5311 -0.4715
  733TMC3    C810841   0.481   1.646  13.064 -0.1594  0.3678  0.3112
  733TMC3    O110842   0.222   1.666  12.534  0.2677 -0.0884  0.2443
  733TMC3    O210843   0.492   1.607  13.180  0.0437 -0.4753 -0.1408
  734MPD2     C10844   2.328   4.467  12.118  0.2487  0.3383  0.2447
  734MPD2    C110845   2.290   4.382  12.018  0.3607 -0.6737  0.0882
  734MPD2    C210846   2.315   4.424  11.888 -0.2779 -0.1377  0.0458
  734MPD2    C310847   2.381   4.542  11.868  0.2154  0.3018  0.5018
  734MPD2    C410848   2.405   4.634  11.966  0.3540  0.3128 -0.1978
  734MPD2    C510849   2.381   4.595  12.095  0.4670 -0.6267  0.3860
  734MPD2     H10850   2.283   4.362  11.805  0.4439 -0.0657 -0.2876
  734MPD2    H110851   2.471   4.716  11.939 -1.6142  0.7623 -3.7391
  734MPD2    H210852   2.318   4.432  12.220  0.7257  3.3767  1.3046
  734MPD2    H310853   2.405   4.671  12.168 -3.3868  0.5364  0.4313
  734MPD2     N10854   2.403   4.577  11.731 -0.0642 -0.3031  0.1055
  734MPD2    H510855   2.364   4.513  11.663 -0.2908  0.5488 -0.5527
  734MPD2    N110856   2.209   4.266  12.043  0.6851  0.1543  0.2477
  734MPD2    H710857   2.228   4.216  12.129  2.2321  1.1743  0.5017
  735TMC3    C110858   2.063   4.098  11.985 -0.4475  0.2748 -0.1045
  735TMC3    C210859   1.951   4.080  11.909 -0.2488  0.4824 -0.1006
  735TMC3    C310860   1.945   3.963  11.831  0.0251  0.5618 -0.5918
  735TMC3    C410861   2.157   3.999  11.999 -0.5502  0.1707 -0.7760
  735TMC3    C510862   2.142   3.887  11.924 -0.4943  0.8531 -0.2552
  735TMC3    C610863   2.037   3.857  11.839  0.0020  0.4072  0.1750
  735TMC3     C10864   2.119   4.226  11.947 -0.7682  0.2326  0.7186
  735TMC3     O10865   2.070   4.282  11.849  0.2357  0.2375  0.5894
  735TMC3     H10866   1.873   4.155  11.903 -1.0315 -0.3881 -0.6832
  735TMC3    H110867   2.252   4.015  12.049 -0.4445 -1.4917 -0.4249
  735TMC3    H210868   2.040   3.772  11.772  0.1583  0.1006  0.5705
  735TMC3    C710869   2.247   3.782  11.938 -0.4432  0.0736 -0.3544
  735TMC3    C810870   1.913   3.986  11.692  0.1749 -0.4511  0.0857
  735TMC3    O110871   2.209   3.663  11.930 -0.2115  1.0517  0.0313
  735TMC3    O210872   1.889   3.890  11.622  0.0655  0.0167  0.2509
  736MPD2     C10873   2.488   3.611  11.991  0.2313 -0.5517 -0.0587
  736MPD2    C110874   2.489   3.745  11.949  0.1327  1.0609 -0.5567
  736MPD2    C210875   2.615   3.795  11.900 -0.0004  0.2636  0.0481
  736MPD2    C310876   2.732   3.720  11.888 -0.1950 -0.3083  0.0977
  736MPD2    C410877   2.719   3.592  11.929 -0.6325  0.3784 -0.4588
  736MPD2    C510878   2.604   3.535  11.984 -0.4190 -0.4462  0.0903
  736MPD2     H10879   2.619   3.902  11.882 -0.9797  0.5968  1.9234
  736MPD2    H110880   2.806   3.528  11.918 -1.3142 -0.1877 -2.5958
  736MPD2    H210881   2.397   3.564  12.027  1.0553 -1.4166  0.9070
  736MPD2    H310882   2.598   3.433  12.021 -0.2461 -1.0728 -1.5831
  736MPD2     N10883   2.855   3.768  11.839 -0.3472  0.2152  0.4188
  736MPD2    H510884   2.939   3.713  11.826 -0.8817 -0.2698 -0.9951
  736MPD2    N110885   2.376   3.831  11.935  0.2995  0.5791 -0.0011
  736MPD2    H710886   2.398   3.927  11.912 -0.9952  0.1403 -3.0695
  737TMC3    C110887   2.979   3.921  11.694  0.4358  0.0619  0.6214
  737TMC3    C210888   3.007   4.050  11.663 -0.5881 -0.2294 -0.0923
  737TMC3    C310889   3.073   4.080  11.548 -0.3560  0.1076  0.1505
  737TMC3    C410890   3.027   3.817  11.618 -0.3205  0.2301 -0.6007
  737TMC3    C510891   3.094   3.845  11.498  0.0737  0.9301  0.1010
  737TMC3    C610892   3.116   3.975  11.465 -0.2755 -0.1601  0.3293
  737TMC3     C10893   2.869   3.903  11.792  0.5924 -0.0537 -0.2651
  737TMC3     O10894   2.793   3.996  11.815 -0.1310 -0.4378 -0.1497
  737TMC3     H10895   2.975   4.129  11.729 -0.4873 -0.3288  0.0761
  737TMC3    H110896   3.004   3.714  11.644 -1.4821 -0.2545 -3.5283
  737TMC3    H210897   3.190   4.001  11.390  0.0470  0.6009  0.9106
  737TMC3    C710898   3.138   3.724  11.435 -0.1139  0.5295 -0.1333
  737TMC3    C810899   3.038   4.209  11.487  0.2917  0.0936  0.3360
  737TMC3    O110900   3.101   3.620  11.483 -0.3517 -0.2002 -0.0617
  737TMC3    O210901   2.950   4.273  11.548 -0.7290  0.6239 -0.2161
  738MPD2     C10902   2.545   2.663  14.870 -0.2914 -0.1945 -0.2770
  738MPD2    C110903   2.639   2.588  14.936  0.5265  0.2748  0.1622
  738MPD2    C210904   2.775   2.619  14.915 -0.1281 -0.1323 -0.4519
  738MPD2    C310905   2.812   2.741  14.852 -0.0867  0.2511 -0.3983
  738MPD2    C410906   2.714   2.820  14.803  1.0997 -0.5570  0.5573
  738MPD2    C510907   2.585   2.774  14.804 -0.1942  0.3340  0.6605
  738MPD2     H10908   2.851   2.552  14.953  2.7363  3.1442 -0.5339
  738MPD2    H110909   2.726   2.919  14.762 -1.1764 -0.0445  1.1169
  738MPD2    H210910   2.438   2.647  14.864 -0.6316  1.1611  2.1516
  738MPD2    H310911   2.512   2.824  14.740 -0.2771 -1.0947 -0.3748
  738MPD2     N10912   2.946   2.793  14.830  0.0694 -0.0860  0.6243
  738MPD2    H510913   2.956   2.877  14.774  2.0268 -0.1013  0.9652
  738MPD2    N110914   2.611   2.470  15.008  0.2734 -0.1874  0.1414
  738MPD2    H710915   2.684   2.402  15.029  0.3141 -0.5782 -1.2971
  739TMC3    C110916   3.179   2.812  14.836  0.0779 -0.4150  0.1397
  739TMC3    C210917   3.181   2.851  14.703 -0.2789  0.4121  0.3629
  739TMC3    C310918   3.302   2.892  14.659 -1.1688 -0.2839 -0.1550
  739TMC3    C410919   3.286   2.794  14.915 -0.1039 -0.0346 -0.8079
  739TMC3    C510920   3.401   2.857  14.869 -0.0576 -0.0567 -0.3817
  739TMC3    C610921   3.414   2.903  14.737 -0.4431  0.2588  0.6687
  739TMC3     C10922   3.062   2.738  14.883 -0.6529  0.4293  0.3614
  739TMC3     O10923   3.083   2.642  14.958  0.4941  0.0906  0.5586
  739TMC3     H10924   3.091   2.847  14.642 -0.5908  2.4939  0.6812
  739TMC3    H110925   3.273   2.759  15.017 -0.0626 -0.4145 -0.9308
  739TMC3    H210926   3.511   2.935  14.700 -0.5171  0.5065  0.6925
  739TMC3    C710927   3.509   2.894  14.963 -0.2562 -0.0315 -0.3334
  739TMC3    C810928   3.303   2.902  14.513  0.7307 -0.2229  0.1376
  739TMC3    O110929   3.578   2.991  14.934  0.3683  0.4076 -0.1060
  739TMC3    O210930   3.205   2.858  14.454  0.6308 -0.2725  0.2710
  740TMC3    C110931   3.791   4.025  14.171 -0.2507  0.6026  0.1741
  740TMC3    C210932   3.828   3.949  14.284 -0.0304 -0.0801 -0.0913
  740TMC3    C310933   3.963   3.930  14.303  0.7699 -0.3565  0.6631
  740TMC3    C410934   3.879   4.065  14.074  0.3875  0.5920  0.2155
  740TMC3    C510935   4.013   4.051  14.104  0.1044 -0.4951  0.2045
  740TMC3    C610936   4.053   3.978  14.220 -0.2348 -0.0846  0.5842
  740TMC3     C10937   3.649   4.047  14.143  0.6064 -0.3718  0.5689
  740TMC3     O10938   3.619   4.071  14.025 -0.7661 -0.0323  0.0471
  740TMC3     H10939   3.753   3.924  14.358  0.0238  2.9653  0.9745
  740TMC3    H110940   3.845   4.113  13.983  1.7838  3.7255  1.3767
  740TMC3    H210941   4.157   3.948  14.225 -0.6950 -1.7069  0.4536
  740TMC3    C710942   4.104   4.035  13.992 -0.1227 -0.3526  0.4596
  740TMC3    C810943   4.019   3.832  14.401 -0.0664 -0.0785 -0.5539
  740TMC3    O110944   4.219   3.996  14.017  0.1741  0.2972  0.4102
  740TMC3    O210945   4.137   3.836  14.424 -0.6559  0.0548  0.1366
  741TMC3    C110946   3.240   3.246  14.238 -0.3113  0.5992 -0.4584
  741TMC3    C210947   3.127   3.176  14.210  0.3010 -0.1455 -0.7583
  741TMC3    C310948   3.036   3.143  14.307  0.5198 -0.0245 -0.4244
  741TMC3    C410949   3.270   3.288  14.367  0.3047 -0.1598  0.0493
  741TMC3    C510950   3.182   3.245  14.464 -0.7210  0.0471 -0.2532
  741TMC3    C610951   3.059   3.185  14.438  0.2152 -0.5374  0.0343
  741TMC3     C10952   3.339   3.276  14.137  0.1393 -0.3248  0.4146
  741TMC3     O10953   3.441   3.338  14.177  0.3481 -0.5364  0.1893
  741TMC3     H10954   3.101   3.136  14.113  0.3607  1.3112 -1.3677
  741TMC3    H110955   3.363   3.340  14.387 -0.7655  2.2100 -1.1578
  741TMC3    H210956   2.982   3.177  14.514  1.0266  1.2538  1.0450
  741TMC3    C710957   3.189   3.305  14.597 -1.0410 -0.3009  0.3174
  741TMC3    C810958   2.927   3.055  14.276  0.0140 -0.3378  0.3821
  741TMC3    O110959   3.150   3.243  14.698 -0.0151 -0.2920  0.5361
  741TMC3    O210960   2.849   3.085  14.188  0.6581 -0.2070  0.4008
  742TMC3    C110961   2.854   1.368  15.186 -0.2870 -0.2805  0.2464
  742TMC3    C210962   2.827   1.407  15.057  0.0981  0.3185 -0.1042
  742TMC3    C310963   2.913   1.345  14.958  0.5981 -0.4682 -0.4427
  742TMC3    C410964   2.954   1.292  15.227 -0.2989 -0.0590  0.2697
  742TMC3    C510965   3.042   1.257  15.130  0.0542  0.5967 -0.0219
  742TMC3    C610966   3.027   1.289  14.997 -0.2014 -0.3030  0.0682
  742TMC3     C10967   2.805   1.449  15.292 -0.2314  0.7619 -0.1753
  742TMC3     O10968   2.802   1.396  15.406 -0.1790  0.1371 -0.2902
  742TMC3     H10969   2.723   1.433  15.040  0.5686  2.8265  0.8486
  742TMC3    H110970   2.978   1.262  15.328 -1.2667  0.0542  0.5278
  742TMC3    H210971   3.101   1.250  14.928  1.3299  3.2459 -0.2615
  742TMC3    C710972   3.178   1.225  15.171  0.1055  0.2706  0.1542
  742TMC3    C810973   2.878   1.350  14.820  0.4666  0.0445  0.5426
  742TMC3    O110974   3.245   1.168  15.086  0.1751 -0.2802  0.5067
  742TMC3    O210975   2.943   1.278  14.740 -0.0921 -0.0594 -0.2236
  743MPD2     C10976   1.415   3.874   2.173 -1.4503  0.6894 -0.4230
  743MPD2    C110977   1.475   3.837   2.057  0.0677 -0.5879  0.4284
  743MPD2    C210978   1.607   3.804   2.050 -0.2155  0.4249  0.9846
  743MPD2    C310979   1.690   3.815   2.163  0.6052  0.1025  0.5098
  743MPD2    C410980   1.636   3.860   2.283 -0.0358  0.0854  0.4637
  743MPD2    C510981   1.498   3.888   2.282  0.1890 -0.3535  0.5460
  743MPD2     H10982   1.657   3.771   1.960 -1.5648 -0.9400  0.7458
  743MPD2    H110983   1.693   3.875   2.374 -1.5228  0.8860  1.2754
  743MPD2    H210984   1.307   3.886   2.176 -1.4491  0.1142  2.3419
  743MPD2    H310985   1.461   3.912   2.381  0.0174  0.3481  0.3082
  743MPD2     N10986   1.823   3.767   2.147  0.2972  0.5134 -0.8014
  743MPD2    H510987   1.838   3.712   2.063  0.2383  0.6736 -0.9178
  743MPD2    N110988   1.388   3.837   1.946 -0.5461 -0.2801 -0.4741
  743MPD2    H710989   1.291   3.865   1.948  0.3420  3.0004 -3.3425
  744TMC3    C110990   1.294   3.769   1.734  0.5045 -0.3716  0.3840
  744TMC3    C210991   1.171   3.802   1.784 -0.3576  0.0172 -0.1045
  744TMC3    C310992   1.061   3.779   1.709 -0.4531 -0.5552  0.1265
  744TMC3    C410993   1.309   3.698   1.617 -0.0857  0.1988  0.2444
  744TMC3    C510994   1.197   3.665   1.546  0.5464 -0.7187 -0.3322
  744TMC3    C610995   1.078   3.708   1.587 -0.0414  0.0398  0.4833
  744TMC3     C10996   1.406   3.778   1.827  0.1527  0.2236  0.0943
  744TMC3     O10997   1.507   3.723   1.789 -0.1066  0.0546 -0.0158
  744TMC3     H10998   1.168   3.869   1.869  0.0055 -0.4277  0.2657
  744TMC3    H110999   1.403   3.653   1.584  0.2561  2.4487 -1.8925
  744TMC3    H211000   0.991   3.698   1.523 -0.6093 -2.6221  1.6941
  744TMC3    C711001   1.221   3.604   1.418  0.1561 -0.2142 -0.2843
  744TMC3    C811002   0.934   3.831   1.746 -0.2369 -0.2648  0.0738
  744TMC3    O111003   1.339   3.584   1.393  0.1133 -0.5550  0.1149
  744TMC3    O211004   0.849   3.847   1.660 -0.3967  0.0080 -0.0734
  745TMC3    C111005   3.346   1.842  13.572 -0.6838 -0.3601  0.5130
  745TMC3    C211006   3.233   1.776  13.607 -0.3880 -0.2087 -0.0143
  745TMC3    C311007   3.144   1.747  13.507  1.0188 -0.1024 -0.0033
  745TMC3    C411008   3.372   1.888  13.445  0.2263  0.9083 -0.0690
  745TMC3    C511009   3.275   1.868  13.349  0.2595  0.3624  0.1216
  745TMC3    C611010   3.158   1.790  13.377  0.0233  0.1454  0.1013
  745TMC3     C11011   3.434   1.877  13.680 -0.1717 -0.5102  0.2040
  745TMC3     O11012   3.384   1.905  13.788  0.1184  0.3114 -0.0941
  745TMC3     H11013   3.215   1.753  13.711  2.2117  1.9729  0.8937
  745TMC3    H111014   3.447   1.965  13.428 -2.6375  3.3212 -1.8335
  745TMC3    H211015   3.076   1.783  13.306 -1.0599  2.0543  1.1525
  745TMC3    C711016   3.298   1.903  13.207  0.0412  0.1867 -0.4792
  745TMC3    C811017   3.012   1.691  13.537 -0.3077 -0.2074 -0.0637
  745TMC3    O111018   3.205   1.881  13.134 -0.0724  0.0148  0.5441
  745TMC3    O211019   2.921   1.682  13.454 -0.2807 -0.9577  0.3600
  746TMC3    C111020   1.262   3.358  10.957 -0.2360  0.0194  0.1787
  746TMC3    C211021   1.330   3.297  10.857 -0.3670  0.1743 -0.5583
  746TMC3    C311022   1.304   3.166  10.829 -0.2999 -0.2407  0.6324
  746TMC3    C411023   1.152   3.301  11.014 -0.5687  0.2840 -0.4790
  746TMC3    C511024   1.124   3.176  10.982 -0.0506  0.4278  1.0158
  746TMC3    C611025   1.212   3.103  10.902  0.2291  0.2407  0.2910
  746TMC3     C11026   1.257   3.500  10.956 -0.1498 -0.5101  0.1987
  746TMC3     O11027   1.149   3.557  10.973 -0.0087 -0.2187 -0.6693
  746TMC3     H11028   1.403   3.358  10.804  1.2280 -1.2683 -0.0172
  746TMC3    H111029   1.085   3.361  11.076  1.8230  1.0533  1.3531
  746TMC3    H211030   1.192   2.996  10.900 -1.5977  0.6150 -0.6786
  746TMC3    C711031   1.006   3.105  11.012 -0.0146 -0.1235  0.3580
  746TMC3    C811032   1.297   3.127  10.691 -0.1017  0.3234 -0.0096
  746TMC3    O111033   0.977   3.010  10.938 -0.1524  0.3150 -0.1693
  746TMC3    O211034   1.233   3.027  10.660  0.2129  0.2291 -0.1543
  747TMC3    C111035   3.649   3.899  10.587 -0.9964  0.2229 -0.4576
  747TMC3    C211036   3.617   3.779  10.640  0.4703  0.7367 -0.1190
  747TMC3    C311037   3.636   3.754  10.773  0.7112  0.0884 -0.3494
  747TMC3    C411038   3.702   3.999  10.667  0.2250  0.3384  0.1135
  747TMC3    C511039   3.743   3.960  10.789  0.5099 -0.2178  0.0073
  747TMC3    C611040   3.705   3.842  10.852  0.2427  0.2076  0.5440
  747TMC3     C11041   3.573   3.940  10.469  0.0069  0.4425  0.3279
  747TMC3     O11042   3.535   4.052  10.465  0.0724  0.6389  0.5318
  747TMC3     H11043   3.554   3.703  10.595  0.5462  0.0466  0.9370
  747TMC3    H111044   3.746   4.081  10.612  0.3453 -0.2445 -0.6610
  747TMC3    H211045   3.732   3.808  10.951 -0.1684 -1.6088  0.0183
  747TMC3    C711046   3.805   4.061  10.878  0.1170 -0.2765 -0.0122
  747TMC3    C811047   3.559   3.644  10.833  0.0385 -0.1614 -0.5404
  747TMC3    O111048   3.814   4.032  10.994  0.1906  0.2020 -0.1652
  747TMC3    O211049   3.565   3.528  10.798 -0.4948  0.2359 -0.1853
  748MPD2     C11050   0.144   0.308   1.256  0.3059  0.0549 -0.0316
  748MPD2    C111051   0.150   0.184   1.316 -0.3973 -0.4548 -0.2716
  748MPD2    C211052   0.273   0.113   1.322  1.0366  0.0493  0.0299
  748MPD2    C311053   0.388   0.164   1.266  0.3113 -0.5955  0.2801
  748MPD2    C411054   0.374   0.288   1.205 -0.4729  0.5716 -0.1845
  748MPD2    C511055   0.255   0.364   1.198 -0.1242 -0.5255 -0.8331
  748MPD2     H11056   0.274   0.019   1.378 -1.2281 -0.8416 -1.4354
  748MPD2    H111057   0.458   0.335   1.154  0.4806 -1.2495 -0.3003
  748MPD2    H211058   0.051   0.363   1.243  1.7702  2.7090  0.8435
  748MPD2    H311059   0.255   0.466   1.159 -0.7970  0.3461  1.4628
  748MPD2     N11060   0.503   0.084   1.253 -0.1766  0.1611  0.2304
  748MPD2    H511061   0.495   4.712   1.289 -0.8980  0.0732 -0.1452
  748MPD2    N111062   0.027   0.148   1.377 -0.2595  0.3690  0.2246
  748MPD2    H711063   4.669   0.205   1.357 -0.7947 -0.3723  0.2563
  749TMC3    C111064   0.718   0.017   1.187  0.4048 -0.6717 -0.0356
  749TMC3    C211065   0.760   4.687   1.309  0.3505  0.5726  0.6603
  749TMC3    C311066   0.895   4.690   1.327 -0.9650 -0.1150 -0.2024
  749TMC3    C411067   0.807   0.045   1.075 -0.7442  0.5933 -0.3620
  749TMC3    C511068   0.943   0.038   1.110 -0.7121 -0.2354  0.3461
  749TMC3    C611069   0.984   0.013   1.238 -0.5716  0.0582  0.5960
  749TMC3     C11070   0.622   0.122   1.197  0.6186  0.2027  0.3361
  749TMC3     O11071   0.653   0.239   1.167 -0.2324 -0.1160  0.0338
  749TMC3     H11072   0.695   4.658   1.391  0.3871 -0.1753  0.4264
  749TMC3    H111073   0.772   0.094   0.985  0.8644  1.6944 -0.4036
  749TMC3    H211074   1.089   0.026   1.260  0.2476 -1.7007 -2.1773
  749TMC3    C711075   1.037   0.102   1.021  0.1728  0.1928  0.2557
  749TMC3    C811076   0.942   4.615   1.439 -0.4635 -0.3176  0.6377
  749TMC3    O111077   1.134   0.161   1.072  0.7383  0.1429  0.0764
  749TMC3    O211078   0.868   4.589   1.536  0.0118  0.5817 -0.0520
  750MPD2     C11079   1.364   0.728  11.210 -0.4694  0.2280  0.2747
  750MPD2    C111080   1.236   0.694  11.255 -0.5497 -0.8332  0.0846
  750MPD2    C211081   1.168   0.587  11.190 -0.1087 -1.4312 -0.0309
  750MPD2    C311082   1.224   0.518  11.086 -0.2588  0.4521 -0.5166
  750MPD2    C411083   1.350   0.549  11.045 -0.7034 -1.2235  0.2640
  750MPD2    C511084   1.418   0.658  11.101 -0.8643 -0.4809  0.2946
  750MPD2     H11085   1.068   0.559  11.221 -1.3660  4.6107  1.5346
  750MPD2    H111086   1.396   0.508  10.956  0.8660  2.5128 -0.6315
  750MPD2    H211087   1.433   0.798  11.256 -1.6566  1.8623 -0.4706
  750MPD2    H311088   1.517   0.679  11.063 -0.5205  2.1244  2.6264
  750MPD2     N11089   1.165   0.402  11.024 -0.1211  0.2396  0.0468
  750MPD2    H511090   1.228   0.355  10.960  1.9947  0.3238  2.0354
  750MPD2    N111091   1.183   0.765  11.367  0.1850 -0.0880  0.8339
  750MPD2    H711092   1.250   0.823  11.417  1.1591  0.1117 -0.7128
  751TMC3    C111093   1.011   0.235  10.952 -0.2310 -0.0550  0.0236
  751TMC3    C211094   0.889   0.186  10.955  0.3427 -0.0155 -0.3317
  751TMC3    C311095   0.845   0.097  10.863 -0.2409 -0.5156  0.0284
  751TMC3    C411096   1.102   0.186  10.860 -0.1066  0.1265 -0.6595
  751TMC3    C511097   1.063   0.091  10.763  0.5952 -0.1983  0.8452
  751TMC3    C611098   0.933   0.053  10.760 -0.2169 -0.5548 -0.4330
  751TMC3     C11099   1.042   0.341  11.048  0.6353  0.0973 -0.6827
  751TMC3     O11100   0.958   0.375  11.125 -0.0882 -0.1621  0.2516
  751TMC3     H11101   0.819   0.230  11.025 -1.3598 -0.5505 -1.6859
  751TMC3    H111102   1.204   0.223  10.861  0.0776 -0.3346 -2.7977
  751TMC3    H211103   0.889   4.711  10.684  0.5087 -1.0325 -0.4524
  751TMC3    C711104   1.171   0.024  10.697 -0.1282 -0.7434  0.3669
  751TMC3    C811105   0.717   0.036  10.891  0.0089  0.0817 -0.2824
  751TMC3    O111106   1.278   0.088  10.694  0.0379 -0.0848 -0.6826
  751TMC3    O211107   0.665   4.721  10.787 -0.2127  0.0884  0.1200
  752TMC3    C111108   4.450   0.137  17.375 -0.1695 -0.1317 -0.5071
  752TMC3    C211109   4.513   0.049  17.456  0.3754  0.5657 -0.0838
  752TMC3    C311110   4.468   0.024  17.581  0.4962  0.4038  0.2708
  752TMC3    C411111   4.338   0.199  17.428  0.4784  0.2062  0.7935
  752TMC3    C511112   4.295   0.181  17.555 -0.3819 -0.3371 -0.2662
  752TMC3    C611113   4.365   0.092  17.638 -0.2323 -0.0201 -0.0657
  752TMC3     C11114   4.509   0.168  17.250  0.6192  0.3613  0.0572
  752TMC3     O11115   4.623   0.124  17.229  0.1368  0.5831 -0.0555
  752TMC3     H11116   4.600   4.720  17.417  0.9717  3.1872 -2.2663
  752TMC3    H111117   4.273   0.254  17.361 -2.1480 -2.3354  1.2438
  752TMC3    H211118   4.331   0.074   0.047 -1.5823 -3.3267 -1.1170
  752TMC3    C711119   4.167   0.231  17.602  0.1282 -0.3355 -0.1976
  752TMC3    C811120   4.497   4.615  17.634 -0.2829  0.1592  0.3776
  752TMC3    O111121   4.129   0.160  17.692 -0.3136  0.2418 -0.2780
  752TMC3    O211122   4.507   4.528  17.549  0.1448  0.1657 -0.2254
  753TMC3    C111123   2.021   1.679  13.249  0.1979  0.2821 -0.0349
  753TMC3    C211124   2.109   1.606  13.321 -0.3747 -0.0979 -0.1834
  753TMC3    C311125   2.081   1.468  13.329 -0.7108  0.1543 -0.2981
  753TMC3    C411126   1.906   1.622  13.198 -0.3593  0.1030 -0.5681
  753TMC3    C511127   1.879   1.488  13.227 -0.7545  0.2084 -0.2694
  753TMC3    C611128   1.967   1.402  13.284 -0.2031  0.6453 -0.6669
  753TMC3     C11129   2.053   1.803  13.181  0.3014  0.1549  0.0308
  753TMC3     O11130   1.964   1.857  13.117 -0.4410 -0.0678 -0.2054
  753TMC3     H11131   2.206   1.630  13.362 -0.2347  2.3499 -1.9579
  753TMC3    H111132   1.826   1.677  13.151 -1.2401  0.2208  1.0815
  753TMC3    H211133   1.939   1.298  13.295  0.3579  0.5951  0.2923
  753TMC3    C711134   1.755   1.436  13.176 -0.0592 -0.2478 -0.6253
  753TMC3    C811135   2.142   1.390  13.433 -0.0153  0.1502  0.1922
  753TMC3    O111136   1.713   1.467  13.063  0.2156 -0.2184  0.3495
  753TMC3    O211137   2.157   1.272  13.420  0.3837 -0.0339 -0.0359
  754MPD2     C11138   1.229   0.458  13.216  0.1966  0.5697 -0.7209
  754MPD2    C111139   1.200   0.325  13.193 -0.1662 -0.0897 -0.0106
  754MPD2    C211140   1.071   0.299  13.152  0.4194  0.8216  0.6421
  754MPD2    C311141   0.972   0.395  13.150 -0.1551  0.7335 -0.6742
  754MPD2    C411142   1.000   0.529  13.181 -0.0683 -0.3765  0.0669
  754MPD2    C511143   1.130   0.558  13.217  0.6579  0.1557  0.1340
  754MPD2     H11144   1.041   0.199  13.122 -0.4151  1.1291  0.4629
  754MPD2    H111145   0.925   0.607  13.175  0.1709 -0.2491 -1.2052
  754MPD2    H211146   1.325   0.494  13.249  0.4094 -2.4035  1.8123
  754MPD2    H311147   1.163   0.660  13.231 -1.6706  0.8828  0.3214
  754MPD2     N11148   0.838   0.363  13.127  0.1834  0.3357 -0.0595
  754MPD2    H511149   0.761   0.430  13.126  0.1381  0.2994  0.9354
  754MPD2    N111150   1.304   0.235  13.194  0.1519 -0.5640 -0.9237
  754MPD2    H711151   1.391   0.286  13.190  0.1773 -0.4468  1.2076
  755MPD2     C11152   0.134   0.828  13.216 -0.1516 -0.6441 -0.0763
  755MPD2    C111153   0.111   0.740  13.315  0.2978 -0.8183  0.7835
  755MPD2    C211154   0.196   0.631  13.326  0.0673 -0.4033 -0.4880
  755MPD2    C311155   0.305   0.611  13.236 -0.4748 -0.0155 -0.2953
  755MPD2    C411156   0.313   0.707  13.140  0.1869  0.6001 -0.2265
  755MPD2    C511157   0.240   0.816  13.132 -0.0843 -0.3159  0.4150
  755MPD2     H11158   0.175   0.568  13.411 -1.1593  0.1291 -0.4050
  755MPD2    H111159   0.394   0.690  13.070  0.9221 -0.7743  0.9525
  755MPD2    H211160   0.067   0.910  13.194 -1.1742 -1.9679 -1.9719
  755MPD2    H311161   0.254   0.904  13.070  1.1507 -0.2509  0.7837
  755MPD2     N11162   0.381   0.494  13.236  0.3922 -0.3408 -0.1204
  755MPD2    H511163   0.451   0.485  13.162 -0.5031 -0.8197 -0.9039
  755MPD2    N111164   0.020   0.754  13.420  0.5318  0.1198 -0.2444
  755MPD2    H711165   4.717   0.677  13.481 -0.9029  0.4085 -0.4916
  756MPD2     C11166   1.272   1.560   9.557  0.0651 -0.2114 -0.3668
  756MPD2    C111167   1.182   1.511   9.648  0.9274 -0.3432 -0.1266
  756MPD2    C211168   1.054   1.467   9.600  0.3786 -0.0153 -0.1066
  756MPD2    C311169   1.022   1.488   9.459  0.1565  0.0494 -0.6354
  756MPD2    C411170   1.114   1.540   9.369 -0.0860  0.3372  0.4663
  756MPD2    C511171   1.236   1.577   9.423 -0.1474 -0.0003  0.0067
  756MPD2     H11172   0.972   1.446   9.667 -0.2148  0.7427 -0.5866
  756MPD2    H111173   1.103   1.560   9.263 -2.9498 -0.7915  0.5474
  756MPD2    H211174   1.369   1.596   9.592  0.5065 -2.9697  1.2062
  756MPD2    H311175   1.306   1.615   9.350  1.2170 -0.3162  1.1614
  756MPD2     N11176   0.891   1.457   9.419  0.0226  0.8646 -0.4736
  756MPD2    H511177   0.836   1.397   9.480  0.3700  1.7043  0.6680
  756MPD2    N111178   1.214   1.484   9.777 -0.0103 -0.4098 -0.4712
  756MPD2    H711179   1.140   1.438   9.830 -1.4165  2.5621  0.1463
  757MPD2     C11180   0.290   0.725   9.594 -0.0799  0.4085 -0.5535
  757MPD2    C111181   0.411   0.794   9.625  0.7509  0.5390 -0.2493
  757MPD2    C211182   0.442   0.903   9.542  0.0304 -0.0611  0.1336
  757MPD2    C311183   0.374   0.945   9.434  0.1324  0.3260 -0.3684
  757MPD2    C411184   0.250   0.887   9.414  0.2589  0.2357  0.0121
  757MPD2    C511185   0.211   0.781   9.489  0.1165  0.0073  0.1806
  757MPD2     H11186   0.529   0.960   9.574 -0.1213 -0.0371  0.5037
  757MPD2    H111187   0.195   0.918   9.326 -2.6255 -1.3308  1.2570
  757MPD2    H211188   0.253   0.639   9.650  0.4840  0.2111 -0.4816
  757MPD2    H311189   0.111   0.741   9.474  0.2019 -0.5434  1.1074
  757MPD2     N11190   0.416   1.062   9.361 -0.0397 -0.1962  0.0369
  757MPD2    H511191   0.347   1.103   9.299  0.6133  0.2723 -0.3785
  757MPD2    N111192   0.490   0.763   9.740  0.0893  0.8229 -0.2966
  757MPD2    H711193   0.476   0.680   9.797 -4.5879  2.0737  0.3735
  758MPD2     C11194   0.741   4.616  15.895 -0.2553 -0.4838 -0.1128
  758MPD2    C111195   0.791   4.534  15.994  0.3420 -0.5124 -0.4128
  758MPD2    C211196   0.722   4.536  16.108  0.0513 -0.0849  0.3631
  758MPD2    C311197   0.608   4.604  16.128  0.9764 -0.6589 -0.0097
  758MPD2    C411198   0.554   4.680  16.029 -0.7784 -0.2886  0.3325
  758MPD2    C511199   0.614   4.682  15.910  0.3625 -0.4032 -0.0169
  758MPD2     H11200   0.765   4.492  16.197 -1.5936 -1.2669  0.5832
  758MPD2    H111201   0.463   0.011  16.052 -0.0410  1.4943 -0.9436
  758MPD2    H211202   0.796   4.615  15.801 -0.4988 -1.1750 -0.2469
  758MPD2    H311203   0.577   0.021  15.829 -3.0103 -0.9846  1.0838
  758MPD2     N11204   0.542   4.609  16.248  0.0660 -0.4817 -0.1861
  758MPD2    H511205   0.454   4.660  16.253  0.6941  0.5534  0.2099
  758MPD2    N111206   0.914   4.467  15.963 -0.0230  0.9335 -0.4336
  758MPD2    H711207   0.952   4.490  15.872  2.9150 -0.5420  0.4198
  759MPD2     C11208   4.097   3.435   9.200 -0.4052 -0.4162  1.4913
  759MPD2    C111209   4.128   3.426   9.338 -0.4924  0.1834  0.4050
  759MPD2    C211210   4.235   3.500   9.377 -0.4046  0.5363  0.3670
  759MPD2    C311211   4.315   3.581   9.299 -0.5641  0.4230  0.3697
  759MPD2    C411212   4.276   3.587   9.168  0.3160 -0.8837  0.8745
  759MPD2    C511213   4.169   3.527   9.123 -0.5343  0.0268  0.2553
  759MPD2     H11214   4.254   3.498   9.484 -1.3853 -0.7491  0.5206
  759MPD2    H111215   4.325   3.649   9.094 -2.5934 -0.9053 -1.0466
  759MPD2    H211216   4.006   3.388   9.163  0.0325  0.4489 -0.6756
  759MPD2    H311217   4.142   3.545   9.020  0.6551  0.7439  0.0614
  759MPD2     N11218   4.433   3.644   9.348 -0.4759  1.4413 -0.1625
  759MPD2    H511219   4.463   3.628   9.443  0.1267  0.2328 -0.5532
  759MPD2    N111220   4.050   3.348   9.432 -0.0596  0.4795  0.3257
  759MPD2    H711221   4.092   3.336   9.524 -0.7896  1.8112  0.8358
  760MPD2     C11222   4.448   0.408  11.587 -0.7005  0.0318 -0.4905
  760MPD2    C111223   4.554   0.443  11.667  0.2715  0.1768 -0.9882
  760MPD2    C211224   4.600   0.341  11.747  0.5395 -0.6499 -0.3070
  760MPD2    C311225   4.553   0.213  11.739  0.7751  0.7354  0.1786
  760MPD2    C411226   4.449   0.185  11.657  0.0488  0.3235  0.4935
  760MPD2    C511227   4.394   0.279  11.583 -0.0997  0.2767  0.5593
  760MPD2     H11228   4.684   0.358  11.813 -0.6932  2.1374  0.5567
  760MPD2    H111229   4.414   0.084  11.640 -0.4033  0.6596 -0.5304
  760MPD2    H211230   4.394   0.472  11.518  0.9113  0.5913 -1.2343
  760MPD2    H311231   4.317   0.249  11.512 -1.3559  2.3494  1.0473
  760MPD2     N11232   4.604   0.103  11.816 -0.5347  0.4144  0.7478
  760MPD2    H511233   4.587   0.010  11.780 -1.2756  0.4178  1.0656
  760MPD2    N111234   4.628   0.563  11.665  0.2571 -1.0894  0.1296
  760MPD2    H711235   4.698   0.580  11.736 -0.8310 -0.1770  0.9891
  761MPD2     C11236   0.616   4.331  11.154  0.2559  0.0777  0.4269
  761MPD2    C111237   0.613   4.354  11.020 -0.0759 -0.4444 -0.0578
  761MPD2    C211238   0.620   4.487  10.974  0.1121 -0.5303 -0.7304
  761MPD2    C311239   0.649   4.593  11.063 -0.4044  0.4331  0.0246
  761MPD2    C411240   0.659   4.561  11.202 -0.2013 -0.0524  0.2271
  761MPD2    C511241   0.645   4.436  11.237  0.0279 -0.3832 -0.6668
  761MPD2     H11242   0.621   4.510  10.868  1.0921 -1.5425 -0.9454
  761MPD2    H111243   0.701   4.628  11.275  0.7335 -0.3847  0.0045
  761MPD2    H211244   0.606   4.235  11.202 -0.7809 -0.1503 -0.2398
  761MPD2    H311245   0.652   4.422  11.344 -1.3700 -2.6726 -0.8706
  761MPD2     N11246   0.706   4.717  11.023 -0.0692 -0.3856  0.2869
  761MPD2    H511247   0.742   0.062  11.090 -0.9878 -0.9672  1.3543
  761MPD2    N111248   0.604   4.238  10.938 -0.2000 -0.0379  0.0397
  761MPD2    H711249   0.600   4.142  10.973 -0.6134  0.8259  2.3248
  762MPD2     C11250   0.919   4.215  10.196  0.2912 -0.1093  0.3789
  762MPD2    C111251   0.932   4.100  10.270  0.4353 -0.0367 -0.2064
  762MPD2    C211252   1.042   4.015  10.261 -0.1058  0.0487 -0.4665
  762MPD2    C311253   1.135   4.045  10.165 -0.1672 -0.9253  0.1512
  762MPD2    C411254   1.122   4.168  10.098 -0.1749 -0.0309 -0.2009
  762MPD2    C511255   1.014   4.248  10.103 -0.2197  0.2654 -0.9858
  762MPD2     H11256   1.062   3.932  10.328  0.2313  2.3330  2.2865
  762MPD2    H111257   1.191   4.202  10.022 -1.0776 -0.0612 -1.0296
  762MPD2    H211258   0.836   4.286  10.198  0.4213  0.0704 -0.7793
  762MPD2    H311259   1.008   4.344  10.053  1.3587  0.4730 -0.7946
  762MPD2     N11260   1.245   3.955  10.156 -0.0761 -0.1745 -0.6389
  762MPD2    H511261   1.248   3.870  10.211 -2.2354  0.2437  0.1287
  762MPD2    N111262   0.832   4.083  10.366  0.7882 -0.2588  0.2370
  762MPD2    H711263   0.767   4.160  10.376  1.8483  0.7848 -0.9574
  763MPD2     C11264   3.116   4.464  15.994  0.0011 -0.7741  0.0906
  763MPD2    C111265   2.989   4.514  15.994 -0.2248 -0.3548 -0.4249
  763MPD2    C211266   2.954   4.627  16.063  0.2170  0.0972 -0.0255
  763MPD2    C311267   3.050   4.699  16.133 -0.3494  0.5718 -0.4914
  763MPD2    C411268   3.176   4.647  16.143 -0.4099  0.3282 -0.6960
  763MPD2    C511269   3.206   4.534  16.074 -0.1680  0.3082  0.8782
  763MPD2     H11270   2.850   4.655  16.077 -0.4031 -1.0655 -2.2234
  763MPD2    H111271   3.263   4.679  16.200 -0.9445 -0.0357  0.3169
  763MPD2    H211272   3.147   4.375  15.941 -2.5440 -0.8884 -1.2141
  763MPD2    H311273   3.312   4.511  16.075 -0.5436 -1.4463 -1.2293
  763MPD2     N11274   3.032   0.089  16.220 -0.2165 -0.1921  0.6705
  763MPD2    H511275   3.119   0.127  16.255 -0.8024  1.5238  0.2633
  763MPD2    N111276   2.886   4.444  15.930 -0.0768  0.5037 -0.2123
  763MPD2    H711277   2.791   4.478  15.937 -0.2951 -0.5169  1.9964
  764MPD2     C11278   0.438   1.891  17.252  0.1118 -0.3928  0.2186
  764MPD2    C111279   0.425   1.764  17.199  0.1967 -0.5382  0.1973
  764MPD2    C211280   0.474   1.662  17.279  0.5253 -0.4342  0.7668
  764MPD2    C311281   0.530   1.686  17.406 -0.5205  0.8407 -0.1352
  764MPD2    C411282   0.527   1.812  17.457  0.0605  0.0872 -0.2630
  764MPD2    C511283   0.473   1.911  17.384 -0.1869 -0.1269  0.3396
  764MPD2     H11284   0.466   1.560  17.242 -0.9691  0.2228 -0.7698
  764MPD2    H111285   0.559   1.844  17.555 -0.6005 -3.1977  1.0102
  764MPD2    H211286   0.420   1.982  17.197 -0.5608 -0.9674 -0.5152
  764MPD2    H311287   0.488   2.011  17.424  0.2085 -0.3217  0.6806
  764MPD2     N11288   0.577   1.578  17.480 -0.0058 -0.3983  0.2671
  764MPD2    H511289   0.559   1.486  17.443  1.0096 -0.1686 -0.7801
  764MPD2    N111290   0.372   1.746  17.071  0.7693  0.2926  0.4870
  764MPD2    H711291   0.362   1.651  17.038 -1.1033  0.3224  0.9823
  765MPD2     C11292   0.877   3.996  15.955 -0.5412  0.3906 -0.0895
  765MPD2    C111293   0.869   4.081  15.845  0.2184  0.4170  0.2906
  765MPD2    C211294   0.975   4.088  15.756 -0.4692 -0.0164  0.2663
  765MPD2    C311295   1.099   4.025  15.784  0.0178  0.3073 -0.0387
  765MPD2    C411296   1.115   3.959  15.907  0.0245  0.7758  0.1482
  765MPD2    C511297   1.001   3.941  15.987 -0.2347  0.5955  0.6782
  765MPD2     H11298   0.972   4.156  15.672 -0.2831 -0.0105  0.2641
  765MPD2    H111299   1.209   3.923  15.946  0.7967  2.9348  0.2577
  765MPD2    H211300   0.790   3.977  16.016  1.0162 -1.4196  1.5868
  765MPD2    H311301   1.020   3.888  16.079 -1.5796 -1.7162 -0.3991
  765MPD2     N11302   1.204   4.056  15.695 -0.2774 -0.4866 -0.5660
  765MPD2    H511303   1.176   4.080  15.600 -1.5585 -0.7160 -0.2449
  765MPD2    N111304   0.749   4.159  15.836 -0.6319  0.2404  0.6486
  765MPD2    H711305   0.680   4.127  15.903 -0.2702 -1.4607  0.2258
  766MPD2     C11306   0.114   3.946  15.636 -1.0285 -0.7354  0.9461
  766MPD2    C111307   0.165   4.053  15.562 -0.0429 -0.1716 -0.2066
  766MPD2    C211308   0.142   4.057  15.426 -0.3453  0.0187 -0.1374
  766MPD2    C311309   0.101   3.947  15.359 -0.0654  0.0013 -0.3306
  766MPD2    C411310   0.062   3.835  15.429  0.3744  0.0477  0.4594
  766MPD2    C511311   0.067   3.836  15.567  0.3590 -0.0014 -0.0802
  766MPD2     H11312   0.179   4.142  15.371  0.4745  0.1892  0.6679
  766MPD2    H111313   0.040   3.742  15.378  0.8913 -1.3911  2.8529
  766MPD2    H211314   0.110   3.952  15.744  0.6219 -0.9411  1.0113
  766MPD2    H311315   0.035   3.749  15.624 -1.6669  0.8841  0.1210
  766MPD2     N11316   0.122   3.936  15.223  0.2811 -0.2902 -0.3723
  766MPD2    H511317   0.155   3.848  15.186 -0.9606 -1.8707  2.2551
  766MPD2    N111318   0.239   4.159  15.618  0.0108 -0.3047  0.1038
  766MPD2    H711319   0.264   4.229  15.549 -0.6431  0.1142  0.2914
  767MPD2     C11320   4.466   4.287  14.948  0.4789  0.1852 -0.1900
  767MPD2    C111321   4.583   4.340  14.898  0.1410 -0.0002  0.1347
  767MPD2    C211322   4.607   4.310  14.761  0.0214 -0.5912  0.1269
  767MPD2    C311323   4.510   4.255  14.679 -0.0845 -0.1418  0.1786
  767MPD2    C411324   4.388   4.224  14.734  0.3596  0.0882  0.7636
  767MPD2    C511325   4.368   4.236  14.869 -0.1835  0.2271 -0.1358
  767MPD2     H11326   4.700   4.335  14.710  0.3907  0.3509  1.2409
  767MPD2    H111327   4.315   4.182  14.666 -0.9713  0.5350  1.9134
  767MPD2    H211328   4.450   4.288  15.055  0.1777 -1.9650 -0.2267
  767MPD2    H311329   4.274   4.216  14.917 -0.2325 -0.3627 -0.4752
  767MPD2     N11330   4.545   4.240  14.543 -0.1716 -0.0303  0.1069
  767MPD2    H511331   4.634   4.276  14.511 -0.0873 -1.5057 -1.2746
  767MPD2    N111332   4.679   4.388  14.989 -0.1330  0.0605  0.0416
  767MPD2    H711333   4.650   4.386  15.087 -1.8991 -0.4116 -0.5047
  768MPD2     C11334   0.796   2.581  10.573  0.4425 -0.3181  0.5297
  768MPD2    C111335   0.762   2.605  10.706  0.2634  0.2276 -0.4311
  768MPD2    C211336   0.851   2.588  10.809  0.0703 -0.9562 -0.3325
  768MPD2    C311337   0.986   2.560  10.777 -0.3940  0.0051 -0.2559
  768MPD2    C411338   1.022   2.534  10.647 -0.1433 -0.2515 -0.9450
  768MPD2    C511339   0.927   2.553  10.543 -0.2141 -0.0378 -0.0228
  768MPD2     H11340   0.820   2.607  10.911  0.3820 -1.5045 -0.1326
  768MPD2    H111341   1.126   2.512  10.630 -0.0438  0.1540 -0.8506
  768MPD2    H211342   0.730   2.590  10.487  2.1776 -1.0265 -0.8842
  768MPD2    H311343   0.952   2.549  10.438 -0.2985  2.6259 -0.1556
  768MPD2     N11344   1.087   2.557  10.875  0.8775  0.3844 -0.0649
  768MPD2    H511345   1.180   2.546  10.835  1.6242  2.1478  1.1805
  768MPD2    N111346   0.638   2.656  10.728  0.0589  0.7143 -0.4435
  768MPD2    H711347   0.610   2.661  10.825 -1.7778  1.1203 -0.9955
  769MPD2     C11348   1.994   0.932  14.789  0.6385  0.5884  0.8087
  769MPD2    C111349   1.878   0.900  14.869  0.3153  0.5253  0.0099
  769MPD2    C211350   1.882   0.923  15.003 -0.2253  1.1267  0.2935
  769MPD2    C311351   1.998   0.970  15.060  0.1196  0.6656  0.4142
  769MPD2    C411352   2.110   1.000  14.988 -0.4953 -0.7004 -0.6516
  769MPD2    C511353   2.106   0.968  14.853  0.8723 -0.0060  0.3731
  769MPD2     H11354   1.796   0.898  15.064  0.1106  0.3890  0.4628
  769MPD2    H111355   2.211   1.016  15.021 -1.6722 -0.1100  2.6262
  769MPD2    H211356   2.000   0.897  14.686 -0.2933  2.6770  0.0449
  769MPD2    H311357   2.201   0.983  14.803  2.2272 -0.4978  2.7885
  769MPD2     N11358   2.002   0.989  15.199  0.2036  1.1023 -0.0765
  769MPD2    H511359   1.919   0.962  15.251  0.6776  0.8577  0.5431
  769MPD2    N111360   1.768   0.835  14.810  0.0935  1.0376  0.6612
  769MPD2    H711361   1.784   0.787  14.722  1.9735 -1.4987  2.4183
  770MPD2     C11362   1.065   0.071  15.105  0.1730 -0.1798 -1.0178
  770MPD2    C111363   1.138   0.031  14.995  0.2575  0.4076 -0.2613
  770MPD2    C211364   1.203   0.121  14.923  0.2492  0.0152 -0.3358
  770MPD2    C311365   1.217   0.255  14.955  0.4342  0.0214 -0.3282
  770MPD2    C411366   1.165   0.280  15.081  0.1566  0.1567  0.2160
  770MPD2    C511367   1.087   0.195  15.152 -0.0388 -0.2735 -0.5728
  770MPD2     H11368   1.247   0.089  14.829 -0.3922 -0.2573 -0.5444
  770MPD2    H111369   1.173   0.373  15.136 -0.3595  0.3513 -0.0331
  770MPD2    H211370   1.014   4.719  15.165 -2.1703  2.3442  0.1416
  770MPD2    H311371   1.056   0.241  15.246  0.5326 -0.1331 -0.4521
  770MPD2     N11372   1.293   0.350  14.874 -0.0534 -0.4362 -0.0544
  770MPD2    H511373   1.297   0.331  14.775  0.3928  0.6584 -0.2504
  770MPD2    N111374   1.138   4.611  14.976  0.2953 -0.4289  0.1470
  770MPD2    H711375   1.087   4.557  15.045  0.9608 -0.3661  0.6830
  771MPD2     C11376   2.316   3.502  13.760 -0.6614 -0.0783  0.5568
  771MPD2    C111377   2.284   3.593  13.663  0.5099  1.1778 -0.9988
  771MPD2    C211378   2.174   3.575  13.579  0.0630  0.1803  0.0478
  771MPD2    C311379   2.098   3.463  13.597 -0.3188 -0.0769  0.2472
  771MPD2    C411380   2.122   3.374  13.698 -0.4951 -0.4510 -0.4363
  771MPD2    C511381   2.231   3.396  13.777 -0.6222 -0.0709 -0.6793
  771MPD2     H11382   2.160   3.639  13.493  1.1633  1.2237  0.6407
  771MPD2    H111383   2.062   3.285  13.714 -0.5876 -0.2386  0.4208
  771MPD2    H211384   2.398   3.519  13.828 -0.0442  3.4380 -1.0680
  771MPD2    H311385   2.251   3.345  13.870  3.5560  1.4351 -0.7591
  771MPD2     N11386   2.008   3.434  13.492  0.0182 -0.2400  0.1284
  771MPD2    H511387   2.034   3.484  13.408  2.1039 -0.0024  0.9161
  771MPD2    N111388   2.368   3.700  13.626 -0.3275  0.3530 -0.2801
  771MPD2    H711389   2.327   3.767  13.562  2.9699  2.8790  0.2956
  772MPD2     C11390   2.327   4.389  13.633 -0.0621 -0.1255  0.7109
  772MPD2    C111391   2.292   4.258  13.621  0.2250 -1.2913  0.4020
  772MPD2    C211392   2.158   4.225  13.617 -0.0701  0.3504  0.2359
  772MPD2    C311393   2.062   4.325  13.628 -0.2686  0.4448 -0.0446
  772MPD2    C411394   2.102   4.456  13.642  0.2705  0.0086 -0.3110
  772MPD2    C511395   2.234   4.491  13.650  0.1818 -0.3279  0.4433
  772MPD2     H11396   2.121   4.123  13.609  2.0795 -0.5349  1.5931
  772MPD2    H111397   2.023   4.528  13.656  0.7152  0.5725 -0.6867
  772MPD2    H211398   2.427   4.432  13.634 -0.3663  0.5762  0.3133
  772MPD2    H311399   2.278   4.588  13.672  0.5349 -0.2765 -0.4698
  772MPD2     N11400   1.925   4.305  13.625 -0.8437 -0.0733  0.4833
  772MPD2    H511401   1.875   4.393  13.637 -0.9608 -0.2490  1.2909
  772MPD2    N111402   2.395   4.156  13.603  0.9912  0.7984  0.4813
  772MPD2    H711403   2.363   4.060  13.596 -0.5012  1.1298  2.6445
  773MPD2     C11404   1.445   0.387   0.403  0.3034 -0.2131 -0.5666
  773MPD2    C111405   1.445   0.285   0.310  0.2709  0.5188  0.2075
  773MPD2    C211406   1.504   0.168   0.339  0.2461  0.8989 -0.4054
  773MPD2    C311407   1.582   0.159   0.452 -0.4392 -0.3588  0.2868
  773MPD2    C411408   1.603   0.268   0.530 -1.1722 -0.1322  0.2432
  773MPD2    C511409   1.526   0.378   0.509  0.3970  0.0413  0.2181
  773MPD2     H11410   1.485   0.076   0.284 -1.1526  0.7098  0.3964
  773MPD2    H111411   1.666   0.265   0.618 -0.5323 -1.5148 -0.2686
  773MPD2    H211412   1.406   0.484   0.373  0.9224  0.3841  0.5556
  773MPD2    H311413   1.543   0.462   0.575  0.6457  2.1553 -2.5196
  773MPD2     N11414   1.645   0.035   0.480  0.9479  0.0177  0.7214
  773MPD2    H511415   1.641   4.697   0.399  1.2720  0.0399  0.6868
  773MPD2    N111416   1.383   0.295   0.179  0.1633  0.0254  0.4060
  773MPD2    H711417   1.371   0.212   0.122 -0.6671 -1.3886  2.6466
  774MPD2     C11418   0.726   4.000  13.155  0.3680  0.1982  0.1630
  774MPD2    C111419   0.708   4.079  13.264 -0.0351 -0.0852 -0.8595
  774MPD2    C211420   0.787   4.189  13.274 -0.3926  0.6707  0.4117
  774MPD2    C311421   0.891   4.208  13.189  0.4432  0.5752 -0.7336
  774MPD2    C411422   0.919   4.124  13.086  0.1463  0.5457 -0.1261
  774MPD2    C511423   0.828   4.020  13.066  0.0480 -0.6502  0.2591
  774MPD2     H11424   0.764   4.262  13.351 -1.9210 -2.4186  2.8864
  774MPD2    H111425   0.998   4.137  13.013  0.1041  0.8196 -0.1215
  774MPD2    H211426   0.645   3.932  13.130  1.2804 -0.9242  0.2272
  774MPD2    H311427   0.825   3.957  12.978  0.1656 -1.9549  1.1900
  774MPD2     N11428   0.961   4.333  13.223 -0.4918 -0.9585 -0.6983
  774MPD2    H511429   0.931   4.389  13.302 -0.5009 -1.6552 -0.2080
  774MPD2    N111430   0.600   4.055  13.360 -0.5295  0.4285 -0.4845
  774MPD2    H711431   0.551   3.967  13.352  1.5804 -0.7383 -0.6239
  775MPD2     C11432   2.134   0.585  15.887  0.7449  0.0412  0.6814
  775MPD2    C111433   2.077   0.702  15.928 -0.5744  0.6659  0.1468
  775MPD2    C211434   2.155   0.820  15.899  0.0999  0.0906 -0.2373
  775MPD2    C311435   2.289   0.810  15.848 -0.3605  0.5317 -0.0852
  775MPD2    C411436   2.338   0.684  15.817 -0.0350  0.3014 -0.3449
  775MPD2    C511437   2.265   0.571  15.841 -0.1771 -0.4707  0.4092
  775MPD2     H11438   2.126   0.922  15.920 -2.6030 -0.4578 -1.3100
  775MPD2    H111439   2.437   0.674  15.773  0.4403 -0.7111  0.9360
  775MPD2    H211440   2.081   0.490  15.897 -0.9907  0.9315  0.0157
  775MPD2    H311441   2.298   0.471  15.817 -0.6511 -0.1822 -1.4252
  775MPD2     N11442   2.366   0.920  15.823  0.1378  0.0431  0.1579
  775MPD2    H511443   2.459   0.916  15.782  0.3675  0.8221  0.6070
  775MPD2    N111444   1.939   0.700  15.961 -0.1894 -0.1792  0.1862
  775MPD2    H711445   1.891   0.611  15.965 -0.4339 -0.0687 -0.2936
  776MPD2     C11446   1.394   1.275  11.928  0.0485 -0.1943  0.1011
  776MPD2    C111447   1.346   1.280  11.798 -0.5875 -0.2756 -0.1237
  776MPD2    C211448   1.410   1.364  11.707 -0.0509  0.2717  0.1207
  776MPD2    C311449   1.523   1.439  11.745  0.0796  0.9865 -0.2527
  776MPD2    C411450   1.566   1.432  11.876 -0.6677  0.3252 -0.5350
  776MPD2    C511451   1.502   1.350  11.965  0.5077  0.4395  0.0371
  776MPD2     H11452   1.390   1.358  11.601  1.6256 -0.6412 -0.1497
  776MPD2    H111453   1.647   1.488  11.922 -1.3157 -0.4268  1.5247
  776MPD2    H211454   1.350   1.207  12.000  0.5141 -1.6538 -1.0096
  776MPD2    H311455   1.532   1.347  12.069 -0.1195  2.2135  0.2731
  776MPD2     N11456   1.592   1.528  11.651  0.3533  0.5002  0.2825
  776MPD2    H511457   1.677   1.564  11.692  1.6829  0.1170 -2.1574
  776MPD2    N111458   1.246   1.184  11.771 -0.4059 -0.0235 -0.2146
  776MPD2    H711459   1.225   1.126  11.852  1.8927 -0.8402 -0.1930
  777MPD2     C11460   2.074   3.981   0.857 -0.5072 -0.4623 -1.2928
  777MPD2    C111461   1.957   3.974   0.929 -0.9138  0.0287  0.0711
  777MPD2    C211462   1.883   3.860   0.907 -0.1174  0.1656  0.0139
  777MPD2    C311463   1.905   3.762   0.816  0.3569 -0.1174  0.1463
  777MPD2    C411464   2.007   3.785   0.729  0.6198  0.3220 -0.5189
  777MPD2    C511465   2.093   3.888   0.756  0.3940  0.1623  0.3509
  777MPD2     H11466   1.816   3.836   0.989 -1.5308  1.4547 -0.7784
  777MPD2    H111467   2.035   3.716   0.650  0.4658 -1.2810  0.8276
  777MPD2    H211468   2.153   4.053   0.873  0.7151 -1.5143 -2.5369
  777MPD2    H311469   2.175   3.912   0.689  1.5585 -0.9948  1.3778
  777MPD2     N11470   1.817   3.652   0.810 -0.4424  0.0755 -0.0929
  777MPD2    H511471   1.755   3.643   0.890  3.1780 -0.3108  2.6491
  777MPD2    N111472   1.933   4.067   1.027  0.2039  0.1907  0.7625
  777MPD2    H711473   2.001   4.142   1.033 -0.2050  0.7049 -0.7782
  778MPD2     C11474   2.367   3.560  15.094 -0.6966 -0.1409 -0.5828
  778MPD2    C111475   2.281   3.513  14.997 -1.2361  0.4053  0.5771
  778MPD2    C211476   2.304   3.544  14.860  0.0889  0.0451  0.2569
  778MPD2    C311477   2.422   3.611  14.824  0.4253 -0.1435 -0.2265
  778MPD2    C411478   2.515   3.653  14.921  0.0333  0.1537  0.1549
  778MPD2    C511479   2.482   3.634  15.054  0.4195  0.3008 -0.4263
  778MPD2     H11480   2.238   3.510  14.781  0.2549 -1.0364  0.5872
  778MPD2    H111481   2.600   3.715  14.899  1.3470 -0.6431  2.9929
  778MPD2    H211482   2.360   3.541  15.200  0.1113  1.2412 -0.2709
  778MPD2    H311483   2.543   3.683  15.128  0.0996  0.4890 -0.2848
  778MPD2     N11484   2.454   3.619  14.686  0.2015 -0.4866  0.2867
  778MPD2    H511485   2.396   3.555  14.631 -0.0509  0.7113 -0.8469
  778MPD2    N111486   2.165   3.437  15.027  0.1157 -0.2899 -0.2088
  778MPD2    H711487   2.111   3.400  14.950  2.0178  0.2337 -1.7910
  779MPD2     C11488   1.932   2.198  14.284  0.6440  0.4405 -0.5930
  779MPD2    C111489   2.060   2.219  14.234  0.9175  0.2636 -0.1642
  779MPD2    C211490   2.086   2.351  14.201  0.2131 -0.6014 -0.3175
  779MPD2    C311491   2.000   2.452  14.239  0.7205  0.2074  0.6064
  779MPD2    C411492   1.882   2.424  14.292  0.3950  0.2910 -0.0153
  779MPD2    C511493   1.843   2.300  14.310 -0.2555 -1.0090 -0.9233
  779MPD2     H11494   2.179   2.380  14.155  0.9879 -0.0544  1.5807
  779MPD2    H111495   1.811   2.502  14.316  1.1808  1.0430 -0.1686
  779MPD2    H211496   1.902   2.094  14.291  0.9192  0.4144  0.2155
  779MPD2    H311497   1.744   2.277  14.346  0.7156 -0.8904  1.8016
  779MPD2     N11498   2.037   2.589  14.224 -0.0483  0.2505  0.0832
  779MPD2    H511499   2.124   2.601  14.172  0.0855 -2.2955 -0.2845
  779MPD2    N111500   2.157   2.118  14.206  0.1630  0.0154  0.3130
  779MPD2    H711501   2.240   2.141  14.153  1.2988  1.4967  2.7188
  780MPD2     C11502   1.065   2.098   0.914  0.4450 -1.0817 -0.0548
  780MPD2    C111503   1.044   2.071   0.783  0.5629 -0.4915  0.2142
  780MPD2    C211504   1.153   2.088   0.698 -0.3079  0.4734 -0.2356
  780MPD2    C311505   1.280   2.118   0.756 -0.1331 -0.1829  0.6550
  780MPD2    C411506   1.300   2.129   0.889 -0.4378 -0.2210  0.0675
  780MPD2    C511507   1.193   2.127   0.962  0.3905 -1.1822  0.4877
  780MPD2     H11508   1.145   2.064   0.593  1.7147  1.3114 -0.5821
  780MPD2    H111509   1.394   2.149   0.938 -0.5632 -1.5523  0.8493
  780MPD2    H211510   0.990   2.089   0.992  0.2865  2.7993  0.2398
  780MPD2    H311511   1.216   2.134   1.067  0.1569  2.1135  0.2980
  780MPD2     N11512   1.391   2.131   0.664  0.4705 -0.0441 -0.1651
  780MPD2    H511513   1.368   2.109   0.567  0.5460  1.2711 -0.4750
  780MPD2    N111514   0.910   2.059   0.747 -0.0319  0.4930  0.2944
  780MPD2    H711515   0.849   2.036   0.825 -0.1911 -2.5965 -0.7191
  781MPD2     C11516   3.654   4.690  11.806 -0.5180 -0.0154  0.7695
  781MPD2    C111517   3.711   4.582  11.865 -0.5152  0.1772 -0.0680
  781MPD2    C211518   3.828   4.523  11.809 -1.1042 -0.2560  0.4435
  781MPD2    C311519   3.872   4.576  11.689  0.2549  0.6944 -0.3476
  781MPD2    C411520   3.808   4.678  11.621 -0.4990 -0.0569  0.2251
  781MPD2    C511521   3.697   0.011  11.684  0.1512  0.1248 -0.3868
  781MPD2     H11522   3.881   4.448  11.867 -0.2470  0.0474  0.0498
  781MPD2    H111523   3.845   4.719  11.527  0.0471 -2.4409 -0.6036
  781MPD2    H211524   3.564   0.008  11.850 -0.0736 -1.9468  3.4586
  781MPD2    H311525   3.635   0.090  11.642 -0.9102 -2.3173 -3.4090
  781MPD2     N11526   3.991   4.534  11.631 -1.5503 -0.5640  0.5418
  781MPD2    H511527   4.019   4.583  11.546 -1.3317  2.1456  2.1820
  781MPD2    N111528   3.673   4.540  11.994 -0.2683  0.1690 -0.2802
  781MPD2    H711529   3.737   4.482  12.048  0.0121  2.4077  1.8084
  782MPD2     C11530   1.640   0.629  10.048  0.2712 -0.3393 -0.1549
  782MPD2    C111531   1.709   0.567  10.151 -0.0750  0.6004  0.1259
  782MPD2    C211532   1.763   0.645  10.256  0.0688  0.0265  1.2277
  782MPD2    C311533   1.746   0.781  10.258 -0.1031  0.0321 -0.6596
  782MPD2    C411534   1.681   0.840  10.154 -0.5638 -0.1881  0.7093
  782MPD2    C511535   1.638   0.768  10.042 -1.0606  0.4098 -0.4642
  782MPD2     H11536   1.800   0.593  10.343  0.0234 -4.0466 -1.1739
  782MPD2    H111537   1.674   0.948  10.142 -0.6730 -0.3769 -0.9731
  782MPD2    H211538   1.596   0.573   9.966 -0.1543 -0.0644 -0.1164
  782MPD2    H311539   1.590   0.817   9.958 -1.7019  0.8638  0.1610
  782MPD2     N11540   1.810   0.854  10.359 -0.1153  0.4292  0.1657
  782MPD2    H511541   1.839   0.802  10.442  1.2831 -2.8182 -2.3675
  782MPD2    N111542   1.710   0.427  10.183  0.0250 -0.1189 -0.4145
  782MPD2    H711543   1.761   0.412  10.269  1.6795 -0.1461 -1.3990
  783MPD2     C11544   1.145   4.459  10.464  0.1239 -0.7320 -1.0643
  783MPD2    C111545   1.201   4.569  10.525 -0.0127  0.3040 -0.2884
  783MPD2    C211546   1.316   4.618  10.474 -0.6482  0.3477  0.0732
  783MPD2    C311547   1.380   4.558  10.369 -0.1423 -0.4417  0.2395
  783MPD2    C411548   1.334   4.445  10.308  0.1775  0.5342  0.4735
  783MPD2    C511549   1.213   4.392  10.359 -0.7491  0.1631 -0.5180
  783MPD2     H11550   1.357   4.710  10.516  1.9002  0.1102 -1.9130
  783MPD2    H111551   1.368   4.399  10.216  2.0463 -2.7293  2.7808
  783MPD2    H211552   1.043   4.423  10.474 -0.4633  0.6403 -1.9739
  783MPD2    H311553   1.169   4.304  10.315  2.1672 -1.4530 -0.2346
  783MPD2     N11554   1.483   4.629  10.308  0.1485 -0.0405 -0.1883
  783MPD2    H511555   1.486   0.005  10.333 -1.8330 -0.5977  2.2848
  783MPD2    N111556   1.130   4.640  10.620  0.1161 -0.0053  0.1558
  783MPD2    H711557   1.036   4.605  10.634 -0.3388  0.9257 -0.5638
  784MPD2     C11558   3.920   0.727   0.211 -0.2611  0.5897  0.0295
  784MPD2    C111559   3.965   0.818   0.305 -0.0546  0.4068  0.5307
  784MPD2    C211560   3.873   0.903   0.367  0.0680  0.3955  0.0082
  784MPD2    C311561   3.746   0.920   0.322  0.5996  0.1111  1.0135
  784MPD2    C411562   3.709   0.844   0.216  0.4288 -0.3886  0.6015
  784MPD2    C511563   3.793   0.738   0.169  0.1079  0.3487  0.6486
  784MPD2     H11564   3.899   0.963   0.453 -1.4582  1.7911 -0.4997
  784MPD2    H111565   3.615   0.858   0.165 -0.9340  0.4250  3.3970
  784MPD2    H211566   3.979   0.659   0.152  0.7129 -0.3521  2.1024
  784MPD2    H311567   3.764   0.689   0.077  1.0388 -0.5962  0.8615
  784MPD2     N11568   3.662   1.014   0.393  0.1685  0.4106  0.1980
  784MPD2    H511569   3.705   1.055   0.475  0.0432  1.9807 -0.5326
  784MPD2    N111570   4.092   0.816   0.358 -0.2916  0.1239 -0.9243
  784MPD2    H711571   4.119   0.876   0.436  1.8566 -2.5418  0.3681
  785MPD2     C11572   4.273   3.909  10.289 -0.0735  0.3969  0.0626
  785MPD2    C111573   4.208   4.013  10.236 -0.0222  0.0650  0.1320
  785MPD2    C211574   4.149   4.003  10.116 -0.7220 -0.1660 -0.0040
  785MPD2    C311575   4.175   3.901  10.027  0.1129  0.0784  0.8445
  785MPD2    C411576   4.247   3.793  10.084 -0.6479  0.0073  0.3096
  785MPD2    C511577   4.288   3.801  10.210  0.0951 -0.4886 -0.0048
  785MPD2     H11578   4.093   4.085  10.074 -3.3882 -1.9809  0.0104
  785MPD2    H111579   4.268   3.703  10.027  1.3049  0.9951 -0.5277
  785MPD2    H211580   4.309   3.911  10.391  2.2693  0.8505 -0.7812
  785MPD2    H311581   4.335   3.710  10.245  0.3078 -0.9679 -1.5433
  785MPD2     N11582   4.137   3.901   9.890 -0.0231 -0.0036  0.0255
  785MPD2    H511583   4.085   3.980   9.853  2.4209  1.5910 -0.0097
  785MPD2    N111584   4.191   4.133  10.304  0.0262 -0.4806  0.3744
  785MPD2    H711585   4.135   4.205  10.258 -0.5625 -2.0223 -1.3223
  786MPD2     C11586   2.516   1.437  14.452 -0.1261 -0.6277 -0.2916
  786MPD2    C111587   2.644   1.391  14.445  0.3024 -0.4451 -0.9424
  786MPD2    C211588   2.721   1.385  14.560 -0.4199 -0.2830 -0.2979
  786MPD2    C311589   2.680   1.441  14.680 -0.6077 -0.4744  0.1777
  786MPD2    C411590   2.555   1.498  14.675 -0.5887 -0.3166  0.2557
  786MPD2    C511591   2.470   1.486  14.568  0.0293 -0.3581  0.5049
  786MPD2     H11592   2.822   1.348  14.549  0.0190  1.0926 -0.8380
  786MPD2    H111593   2.511   1.537  14.766 -1.3752  1.2012 -0.7765
  786MPD2    H211594   2.454   1.424  14.364 -0.0944  1.4612 -0.6088
  786MPD2    H311595   2.369   1.522  14.583 -0.8952 -1.9165 -2.0196
  786MPD2     N11596   2.765   1.437  14.800 -0.2249  0.5980 -0.7889
  786MPD2    H511597   2.729   1.500  14.870  0.4665 -0.3227  0.3951
  786MPD2    N111598   2.707   1.335  14.332  0.3643 -0.4947 -0.3593
  786MPD2    H711599   2.800   1.298  14.349  0.0473 -0.8068  0.6874
  787MPD2     C11600   2.582   0.564  14.200  0.2540 -0.1827  0.5576
  787MPD2    C111601   2.690   0.659  14.208 -0.2109 -0.5328 -0.0604
  787MPD2    C211602   2.819   0.615  14.223  0.9138  0.3574  0.0320
  787MPD2    C311603   2.841   0.483  14.244 -0.0489 -0.1700 -0.5770
  787MPD2    C411604   2.738   0.392  14.241  0.2082  0.6202 -0.3721
  787MPD2    C511605   2.614   0.437  14.209  0.1283 -0.3726 -0.4756
  787MPD2     H11606   2.898   0.689  14.225  0.4530  0.8827 -1.1687
  787MPD2    H111607   2.744   0.286  14.263  2.6770  0.3785 -2.2067
  787MPD2    H211608   2.479   0.595  14.187  0.1957  0.0135  1.4544
  787MPD2    H311609   2.535   0.364  14.197  0.8322 -1.2476  0.2228
  787MPD2     N11610   2.973   0.433  14.260  0.2378 -0.1635 -0.1428
  787MPD2    H511611   3.043   0.506  14.245 -1.3496  1.6207  1.1008
  787MPD2    N111612   2.655   0.791  14.190  0.2335  0.9557  1.1487
  787MPD2    H711613   2.558   0.811  14.169  1.0388  1.6103 -1.9799
  788MPD2     C11614   4.586   4.235   1.289  0.3846  0.2083  0.6115
  788MPD2    C111615   4.545   4.188   1.167  0.3679 -0.2102  0.5024
  788MPD2    C211616   4.524   4.286   1.069  1.1257 -0.6332 -0.6318
  788MPD2    C311617   4.561   4.417   1.090 -0.0879 -0.5424  0.2750
  788MPD2    C411618   4.617   4.454   1.214  0.3935 -0.1329 -0.1729
  788MPD2    C511619   4.616   4.364   1.312  0.1707  0.5426  0.3062
  788MPD2     H11620   4.483   4.255   0.973 -1.0220 -0.6841  0.3031
  788MPD2    H111621   4.644   4.557   1.233 -1.7136  0.9733 -3.1975
  788MPD2    H211622   4.591   4.161   1.367  1.2099 -0.1768  0.1891
  788MPD2    H311623   4.667   4.380   1.406  0.5606  0.0767  0.1737
  788MPD2     N11624   4.542   4.512   0.993 -0.3578  0.2596  0.2432
  788MPD2    H511625   4.572   4.608   1.009 -1.1436  0.6809 -0.8082
  788MPD2    N111626   4.514   4.055   1.130 -0.7534  0.7502 -0.5602
  788MPD2    H711627   4.472   4.038   1.039  1.2912 -0.0974 -1.3521
  789MPD2     C11628   0.247   4.438  16.156  0.0163 -0.6387 -0.3315
  789MPD2    C111629   0.251   4.409  16.292 -0.7408  0.7604 -0.0515
  789MPD2    C211630   0.179   4.485  16.377 -0.0360  0.2954  0.2419
  789MPD2    C311631   0.094   4.591  16.336 -0.2907  0.5975  0.0156
  789MPD2    C411632   0.097   4.616  16.201 -0.0434 -0.2138 -0.0773
  789MPD2    C511633   0.166   4.543  16.111 -0.2304  0.4429 -0.1287
  789MPD2     H11634   0.187   4.460  16.482 -2.8513 -2.3764 -0.1789
  789MPD2    H111635   0.031   4.689  16.155  0.1724  0.3236  0.4590
  789MPD2    H211636   0.314   4.387  16.088 -1.5611 -1.6091 -1.1502
  789MPD2    H311637   0.166   4.579  16.008 -2.5266  1.6792  0.2935
  789MPD2     N11638   0.024   4.674  16.426 -0.5689  0.2730  0.2002
  789MPD2    H511639   4.673   0.011  16.391  0.4835  1.4471  0.0013
  789MPD2    N111640   0.333   4.310  16.346  0.0384  0.0404 -0.3925
  789MPD2    H711641   0.352   4.305  16.446 -0.0434 -0.2283 -0.3891
  790MPD2     C11642   1.562   1.627  13.520 -0.1681  0.1222 -0.4842
  790MPD2    C111643   1.457   1.541  13.504  0.1979  0.0507 -0.6277
  790MPD2    C211644   1.381   1.546  13.385 -0.9266  0.0588  0.2786
  790MPD2    C311645   1.408   1.637  13.284  0.1009  0.3042  0.0978
  790MPD2    C411646   1.513   1.725  13.306 -0.0442 -0.5213 -0.0547
  790MPD2    C511647   1.595   1.712  13.418 -0.0413 -0.3136 -0.3620
  790MPD2     H11648   1.313   1.463  13.367 -1.1258  0.3036 -0.0809
  790MPD2    H111649   1.535   1.798  13.229  1.3729  0.4260  1.2564
  790MPD2    H211650   1.615   1.650  13.612 -0.3943 -1.4666  0.0381
  790MPD2    H311651   1.671   1.788  13.431 -1.4199  0.7334  1.5808
  790MPD2     N11652   1.335   1.650  13.165  0.1867  0.3011 -0.5246
  790MPD2    H511653   1.380   1.714  13.101 -0.1422 -0.1230 -1.1765
  790MPD2    N111654   1.422   1.450  13.608  0.6966 -0.0127 -0.1967
  790MPD2    H711655   1.489   1.433  13.682  0.8861 -2.0345 -0.8393
  791MPD2     C11656   0.600   1.560  12.555  0.2746 -0.1047  0.4063
  791MPD2    C111657   0.660   1.494  12.653 -0.3593  0.6196  0.5742
  791MPD2    C211658   0.615   1.372  12.686  0.3710 -0.2733  0.8524
  791MPD2    C311659   0.507   1.315  12.617 -0.0264 -0.4194 -0.0496
  791MPD2    C411660   0.449   1.385  12.516  0.3986  0.1012  0.3776
  791MPD2    C511661   0.497   1.505  12.480  0.1919 -0.2319  0.6323
  791MPD2     H11662   0.660   1.317  12.767  1.0417  0.3995  0.9351
  791MPD2    H111663   0.367   1.347  12.456  0.3143  0.2503  0.3975
  791MPD2    H211664   0.646   1.644  12.505  1.4561 -0.3958  0.9924
  791MPD2    H311665   0.451   1.556  12.396  0.9198  0.8945  0.9208
  791MPD2     N11666   0.466   1.189  12.655 -0.0193 -0.5576 -0.6969
  791MPD2    H511667   0.536   1.155  12.721 -1.1402  0.8649  1.2154
  791MPD2    N111668   0.767   1.554  12.724 -0.4377 -0.4212 -0.0472
  791MPD2    H711669   0.792   1.647  12.691  0.2747 -0.6382 -0.1034
  792MPD2     C11670   1.789   1.250  11.468 -0.3640  0.0234 -0.5970
  792MPD2    C111671   1.764   1.307  11.341  0.1619 -0.1028 -0.1043
  792MPD2    C211672   1.634   1.306  11.295  0.5406 -0.1433  0.0774
  792MPD2    C311673   1.535   1.240  11.363  0.4833  0.2707 -0.1797
  792MPD2    C411674   1.564   1.185  11.482  0.4566  0.1535  0.6068
  792MPD2    C511675   1.688   1.189  11.535 -0.1219  0.2945 -0.0002
  792MPD2     H11676   1.618   1.357  11.201  0.2733  1.5973  1.0550
  792MPD2    H111677   1.482   1.139  11.536  2.2483 -1.1761  2.1432
  792MPD2    H211678   1.887   1.257  11.514 -0.4779  0.1281 -0.3714
  792MPD2    H311679   1.697   1.156  11.638 -0.3343 -0.2514 -0.1579
  792MPD2     N11680   1.404   1.227  11.309  0.7490 -0.2008  0.0165
  792MPD2    H511681   1.335   1.184  11.371  1.6225 -1.4953  0.0783
  792MPD2    N111682   1.874   1.353  11.278 -0.6084  0.1089  0.4421
  792MPD2    H711683   1.952   1.377  11.338  0.2622 -0.7436 -0.3568
  793MPD2     C11684   0.893   1.499  10.476 -0.6391 -0.4036 -0.0260
  793MPD2    C111685   1.017   1.456  10.494 -1.0147 -0.1732 -0.1194
  793MPD2    C211686   1.057   1.427  10.622  0.7303  0.1311 -0.4580
  793MPD2    C311687   0.973   1.451  10.731  1.0480 -0.2134 -0.0171
  793MPD2    C411688   0.842   1.487  10.711 -0.2086  0.3046  0.2202
  793MPD2    C511689   0.803   1.505  10.580  0.1074  0.8792  0.5749
  793MPD2     H11690   1.159   1.392  10.635  0.5219 -0.2477  0.1143
  793MPD2    H111691   0.768   1.501  10.789 -0.2331 -1.1334  0.4659
  793MPD2    H211692   0.853   1.538  10.383  0.1357  0.5085  0.0223
  793MPD2    H311693   0.701   1.538  10.561  0.8011  1.8151 -1.5004
  793MPD2     N11694   1.025   1.428  10.857 -0.3903 -0.1276 -0.3371
  793MPD2    H511695   1.123   1.403  10.865 -0.0849  1.3147  0.6479
  793MPD2    N111696   1.110   1.446  10.393 -0.3008  0.0700  0.0387
  793MPD2    H711697   1.204   1.421  10.421 -0.4852  1.3001  1.7902
  794MPD2     C11698   1.049   0.893  17.321  0.0089 -0.0655  0.6681
  794MPD2    C111699   1.010   0.768  17.278  0.2900 -0.1337  0.1690
  794MPD2    C211700   0.934   0.742  17.172 -0.3172  1.0386 -0.2221
  794MPD2    C311701   0.888   0.848  17.094 -0.0002 -0.4421 -0.4024
  794MPD2    C411702   0.934   0.973  17.120  0.2489 -0.5864  0.3320
  794MPD2    C511703   1.010   0.996  17.240 -0.0832  0.2305 -0.9043
  794MPD2     H11704   0.906   0.639  17.151  1.0452 -0.0770  3.4569
  794MPD2    H111705   0.886   1.059  17.075  1.1598  0.5979  1.6592
  794MPD2    H211706   1.116   0.905  17.405  0.5285 -1.2613  0.4228
  794MPD2    H311707   1.050   1.094  17.265  1.5046 -0.2385 -1.6457
  794MPD2     N11708   0.797   0.834  16.994 -0.0463  0.0367 -0.6775
  794MPD2    H511709   0.770   0.921  16.949 -2.4445 -0.4186 -0.1263
  794MPD2    N111710   1.055   0.655  17.351 -0.1726  0.1680 -0.0361
  794MPD2    H711711   1.023   0.568  17.308  1.4956 -0.3684 -0.1723
  795MPD2     C11712   4.031   2.741  13.002 -1.2392  0.5922  0.2319
  795MPD2    C111713   3.938   2.673  13.076 -0.5332 -0.3073 -0.1128
  795MPD2    C211714   3.973   2.552  13.136 -0.1749 -0.1059  0.3081
  795MPD2    C311715   4.090   2.487  13.097 -1.2017  0.3380  0.4262
  795MPD2    C411716   4.183   2.558  13.020 -0.5313 -0.2756  0.0854
  795MPD2    C511717   4.152   2.680  12.978  0.5471 -0.2432 -0.0977
  795MPD2     H11718   3.899   2.501  13.196  0.4185 -0.6122  0.6118
  795MPD2    H111719   4.278   2.517  12.989 -1.1344 -0.6947 -1.2009
  795MPD2    H211720   4.021   2.842  12.963  2.2836  1.7590  2.3569
  795MPD2    H311721   4.229   2.731  12.921  1.3915  0.9588  2.1165
  795MPD2     N11722   4.119   2.358  13.149  0.4654 -0.1173  0.0027
  795MPD2    H511723   4.050   2.302  13.198 -0.2607 -1.2395 -2.2980
  795MPD2    N111724   3.810   2.723  13.100 -0.9083  0.0622  0.4429
  795MPD2    H711725   3.740   2.670  13.152 -0.7115 -0.0251  0.6168
  796MPD2     C11726   3.069   4.137  15.462  0.2384  0.3816 -0.2653
  796MPD2    C111727   3.168   4.156  15.548 -0.2339 -0.0623 -0.3414
  796MPD2    C211728   3.180   4.284  15.605  0.1183  0.0912  0.3119
  796MPD2    C311729   3.103   4.392  15.574 -0.0924 -0.2513 -0.0919
  796MPD2    C411730   2.990   4.359  15.489 -0.3153 -0.0299 -0.5866
  796MPD2    C511731   2.975   4.237  15.436  0.8275 -0.1384 -0.4035
  796MPD2     H11732   3.262   4.301  15.674  1.3145 -1.2414 -0.7743
  796MPD2    H111733   2.927   4.437  15.448 -2.0061 -1.0051  0.1943
  796MPD2    H211734   3.059   4.036  15.424  0.0837  0.6433 -0.9164
  796MPD2    H311735   2.899   4.218  15.362  0.1040 -0.0323  0.3123
  796MPD2     N11736   3.121   4.520  15.640  0.2269  0.1907  0.1766
  796MPD2    H511737   3.201   4.532  15.701 -0.8443  2.6836  1.0980
  796MPD2    N111738   3.252   4.047  15.574 -0.1578  0.0742 -0.0508
  796MPD2    H711739   3.218   3.958  15.542  2.0991 -1.0105  0.5847
  797MPD2     C11740   3.670   3.944  16.872  0.6147  0.4885  0.0644
  797MPD2    C111741   3.704   4.075  16.889  0.3847  0.1364  1.0741
  797MPD2    C211742   3.695   4.170  16.790 -0.0761 -0.0173  0.0619
  797MPD2    C311743   3.652   4.129  16.665  0.3586  0.1795 -0.1339
  797MPD2    C411744   3.624   3.992  16.641  0.1892 -0.4556 -0.6288
  797MPD2    C511745   3.631   3.904  16.746  0.4840  0.7707 -0.5143
  797MPD2     H11746   3.731   4.269  16.813  1.4797 -0.2388 -1.4483
  797MPD2    H111747   3.583   3.967  16.544 -0.6163 -0.4894 -0.2809
  797MPD2    H211748   3.678   3.875  16.955  0.4452  0.8058  0.3438
  797MPD2    H311749   3.603   3.801  16.730  0.8901  1.0087 -2.8213
  797MPD2     N11750   3.651   4.219  16.557 -0.1547 -0.0728  0.0493
  797MPD2    H511751   3.664   4.181  16.464  0.9071 -1.3157  0.7019
  797MPD2    N111752   3.759   4.123  17.013 -0.1264  0.2251  0.4294
  797MPD2    H711753   3.787   4.220  17.006  1.1910 -0.1171  1.0145
  798MPD2     C11754   3.735   0.110  16.871  0.0147 -0.5834  0.1926
  798MPD2    C111755   3.810   0.014  16.811  0.5680  0.4599 -0.0002
  798MPD2    C211756   3.850   4.631  16.889 -0.4513  0.2329 -0.7066
  798MPD2    C311757   3.834   4.627  17.026 -0.3286  0.2734 -0.6195
  798MPD2    C411758   3.755   0.005  17.080 -0.0873 -0.1704  0.4085
  798MPD2    C511759   3.706   0.100  17.003 -0.3230  0.0811 -0.1790
  798MPD2     H11760   3.894   4.541  16.847 -0.2068  0.3804 -0.7657
  798MPD2    H111761   3.725   0.014  17.184 -1.5725 -0.1711 -0.0195
  798MPD2    H211762   3.680   0.185  16.816 -1.4920 -0.8503  1.3566
  798MPD2    H311763   3.637   0.168  17.052 -1.1948  0.0577 -1.3894
  798MPD2     N11764   3.869   4.515  17.107  0.6830 -0.3894  0.3073
  798MPD2    H511765   3.912   4.439  17.056 -0.9645 -0.2210 -1.3185
  798MPD2    N111766   3.822   0.009  16.672  0.2852 -0.1458  0.1901
  798MPD2    H711767   3.747   0.053  16.621  0.3520 -0.8579 -0.5254
  799MPD2     C11768   3.272   0.426  13.948 -0.1991  0.8622 -0.1698
  799MPD2    C111769   3.183   0.323  13.955 -0.5682  0.0648  0.6394
  799MPD2    C211770   3.045   0.345  13.939 -0.4294 -1.0699  0.5069
  799MPD2    C311771   2.998   0.476  13.921  0.3307 -0.7696 -0.7458
  799MPD2    C411772   3.096   0.578  13.918 -0.3050 -0.5159 -0.8268
  799MPD2    C511773   3.227   0.545  13.925 -0.6610  0.0260  0.0802
  799MPD2     H11774   2.981   0.257  13.942  1.9330 -2.6901  3.0398
  799MPD2    H111775   3.067   0.682  13.901 -0.3835 -0.4892 -0.5144
  799MPD2    H211776   3.378   0.408  13.961 -0.5908 -0.0463  1.8286
  799MPD2    H311777   3.300   0.624  13.912  1.7089 -1.9153  1.6896
  799MPD2     N11778   2.866   0.519  13.908  0.1418 -0.0726 -0.3039
  799MPD2    H511779   2.852   0.619  13.898  0.1649  0.3931  4.4464
  799MPD2    N111780   3.221   0.184  13.983  0.5533  0.2749 -0.2234
  799MPD2    H711781   3.142   0.124  14.005  0.7606 -0.0386 -0.3316
  800MPD2     C11782   2.690   1.685  13.928  0.0655 -0.7888 -0.4473
  800MPD2    C111783   2.808   1.629  13.971 -0.2491 -0.4020  0.2892
  800MPD2    C211784   2.907   1.610  13.876 -0.3340 -1.0620 -0.1135
  800MPD2    C311785   2.892   1.632  13.743 -0.5163 -0.0733  0.0060
  800MPD2    C411786   2.767   1.665  13.698 -0.1820 -0.0863  1.2129
  800MPD2    C511787   2.667   1.689  13.790  0.0448 -0.4797 -0.0288
  800MPD2     H11788   3.004   1.608  13.926 -1.1117 -1.1548  1.4084
  800MPD2    H111789   2.745   1.693  13.596 -1.0141 -0.3451  1.3207
  800MPD2    H211790   2.615   1.739  13.984  0.9090 -1.7535  1.5791
  800MPD2    H311791   2.574   1.737  13.760  0.2748  0.1662  0.2981
  800MPD2     N11792   3.010   1.653  13.668  0.2539 -0.5557 -0.1214
  800MPD2    H511793   3.105   1.660  13.704  0.2387  0.3130 -0.2457
  800MPD2    N111794   2.832   1.644  14.105  0.4684  0.3102 -0.6633
  800MPD2    H711795   2.773   1.712  14.152  0.2295 -1.4658  1.5855
  801MPD2     C11796   3.038   2.335  14.222  0.6320  0.3961 -0.3987
  801MPD2    C111797   3.100   2.278  14.327 -1.1082  0.1206 -0.3712
  801MPD2    C211798   3.170   2.347  14.423  0.5583 -0.4237  0.3296
  801MPD2    C311799   3.186   2.484  14.401  0.3836 -0.3817 -0.5415
  801MPD2    C411800   3.131   2.547  14.287  0.0934  0.2588  0.0984
  801MPD2    C511801   3.055   2.471  14.208  0.4759  0.3089  0.0745
  801MPD2     H11802   3.217   2.299  14.508 -1.1928 -2.3775  0.1955
  801MPD2    H111803   3.133   2.655  14.272 -3.4714  0.3970  0.6809
  801MPD2    H211804   2.981   2.278  14.150 -1.2178 -0.8811  2.0742
  801MPD2    H311805   3.009   2.519  14.122  1.7139 -0.1960 -0.8809
  801MPD2     N11806   3.248   2.564  14.489  0.1982  0.2362 -0.8393
  801MPD2    H511807   3.266   2.658  14.453 -1.4621  0.6422 -0.6096
  801MPD2    N111808   3.103   2.141  14.343  0.3543 -0.0506 -0.3252
  801MPD2    H711809   3.177   2.110  14.405  1.7258  1.1818 -1.3457
  802MPD2     C11810   2.150   2.424  16.899  0.2961 -0.0326  0.6278
  802MPD2    C111811   2.241   2.403  17.002 -0.6082  0.0833  0.2264
  802MPD2    C211812   2.354   2.326  16.977 -0.4553  0.5336 -0.3839
  802MPD2    C311813   2.380   2.281  16.849  0.1020  0.0471 -0.7955
  802MPD2    C411814   2.292   2.315  16.744  0.1741  0.6442  0.2887
  802MPD2    C511815   2.170   2.372  16.776 -0.1070 -0.0588  0.0387
  802MPD2     H11816   2.422   2.321  17.061  0.6388  0.9689 -1.2485
  802MPD2    H111817   2.303   2.292  16.638 -0.5517  1.3408  0.0610
  802MPD2    H211818   2.061   2.486  16.904  0.9404  1.0132 -0.7810
  802MPD2    H311819   2.096   2.389  16.699  2.0168 -2.1324 -2.4200
  802MPD2     N11820   2.502   2.215  16.827 -0.0393 -0.7063 -0.5989
  802MPD2    H511821   2.561   2.206  16.909 -1.2346 -0.9009  0.2409
  802MPD2    N111822   2.230   2.468  17.123 -0.2592  0.2222  0.3765
  802MPD2    H711823   2.282   2.423  17.197 -0.0140 -0.3079 -0.1208
  803MPD2     C11824   4.418   0.797  11.905  0.3991  0.5747 -0.2376
  803MPD2    C111825   4.454   0.827  12.031 -0.3951  0.5740  0.0778
  803MPD2    C211826   4.397   0.767  12.136  0.4634  0.8952  0.3174
  803MPD2    C311827   4.301   0.675  12.117 -0.1563 -0.8957 -0.1570
  803MPD2    C411828   4.264   0.643  11.991  0.3916 -0.1386 -0.1113
  803MPD2    C511829   4.315   0.712  11.882 -0.4646  0.0603  0.6029
  803MPD2     H11830   4.435   0.795  12.234 -0.0886 -1.2354  1.1431
  803MPD2    H111831   4.181   0.575  11.976  1.4364 -1.3362 -0.4868
  803MPD2    H211832   4.456   0.850  11.818  0.1311 -0.1925 -0.8170
  803MPD2    H311833   4.289   0.687  11.780 -1.5564  1.9398  0.4443
  803MPD2     N11834   4.224   0.606  12.222 -0.6794 -0.0331  0.1153
  803MPD2    H511835   4.148   0.544  12.196 -0.2037 -1.6505  2.5026
  803MPD2    N111836   4.553   0.923  12.065  0.9843 -0.3987 -0.2283
  803MPD2    H711837   4.577   0.925  12.163  0.5137 -0.0686 -0.1214
  804MPD2     C11838   3.456   2.633  16.783  0.1556 -0.8041  0.0785
  804MPD2    C111839   3.464   2.670  16.919  0.1131  0.1652  0.2475
  804MPD2    C211840   3.546   2.773  16.958  0.1791 -0.4827  0.3838
  804MPD2    C311841   3.625   2.843  16.868 -0.1700  0.2072 -0.2308
  804MPD2    C411842   3.609   2.810  16.739  0.0001  0.1979  0.7376
  804MPD2    C511843   3.529   2.708  16.699  1.1729 -0.6366  0.4716
  804MPD2     H11844   3.555   2.791  17.065  2.5747 -1.7380  0.4091
  804MPD2    H111845   3.674   2.857  16.666  0.0776 -0.5891  0.3033
  804MPD2    H211846   3.400   2.550  16.742 -1.0415  0.5681 -1.0569
  804MPD2    H311847   3.537   2.670  16.598  1.0988 -2.3988  1.1115
  804MPD2     N11848   3.733   2.922  16.921  0.2678 -0.1239 -0.7884
  804MPD2    H511849   3.748   2.929  17.021 -2.3057  0.7410 -0.4586
  804MPD2    N111850   3.408   2.582  17.018 -0.6320 -0.9034 -0.3788
  804MPD2    H711851   3.419   2.610  17.115  0.0397 -1.6944 -0.2278
  805MPD2     C11852   2.514   0.545  15.560 -0.0740 -0.9489 -0.3860
  805MPD2    C111853   2.547   0.651  15.481 -0.0574  0.3199 -0.4566
  805MPD2    C211854   2.677   0.698  15.490  0.0968 -0.7761 -0.6788
  805MPD2    C311855   2.774   0.633  15.563  0.7337 -0.2606 -0.1880
  805MPD2    C411856   2.734   0.529  15.644 -0.4264  0.4287  0.3532
  805MPD2    C511857   2.602   0.478  15.638  0.0163  1.0933  0.3900
  805MPD2     H11858   2.703   0.778  15.422  2.0247 -1.5686 -0.8891
  805MPD2    H111859   2.797   0.485  15.721  0.5519  2.7167  0.8469
  805MPD2    H211860   2.409   0.518  15.556 -0.3208 -0.0808  0.0178
  805MPD2    H311861   2.571   0.396  15.702 -0.2329  1.0887  0.2631
  805MPD2     N11862   2.904   0.693  15.565 -0.2753  0.0371  0.3163
  805MPD2    H511863   2.915   0.783  15.518  0.5738 -1.2167 -1.8945
  805MPD2    N111864   2.465   0.705  15.380  0.0726 -0.7511  0.5442
  805MPD2    H711865   2.512   0.754  15.304 -1.4482 -0.5310 -0.2514
  806MPD2     C11866   3.451   0.474   0.331 -0.8017 -0.0685  0.0929
  806MPD2    C111867   3.409   0.601   0.377 -0.5935  0.0542  0.3105
  806MPD2    C211868   3.382   0.699   0.282 -0.1180  0.0322  0.0382
  806MPD2    C311869   3.405   0.688   0.147 -0.4941 -0.3513  0.4911
  806MPD2    C411870   3.451   0.565   0.109  0.9370 -0.0893  0.6091
  806MPD2    C511871   3.466   0.461   0.191  0.3129 -0.3458  0.1848
  806MPD2     H11872   3.351   0.795   0.321 -3.8611 -0.8926 -0.6755
  806MPD2    H111873   3.481   0.546   0.006  1.9700  3.2926  0.2877
  806MPD2    H211874   3.481   0.392   0.395 -0.6761 -2.4051 -2.9981
  806MPD2    H311875   3.502   0.368   0.149  0.2537  0.4004 -1.4793
  806MPD2     N11876   3.386   0.796   0.060 -0.1334 -0.1426  0.3196
  806MPD2    H511877   3.348   0.879   0.104  0.4120 -0.1941  0.8939
  806MPD2    N111878   3.392   0.616   0.517  0.4270  0.0288 -0.0760
  806MPD2    H711879   3.409   0.526   0.562 -0.8433 -1.2316 -2.1289
  807MPD2     C11880   3.090   1.032   1.237 -0.7683  0.5161 -0.3283
  807MPD2    C111881   3.198   0.946   1.263  0.0989  0.4547 -0.6965
  807MPD2    C211882   3.218   0.914   1.395  0.4153  0.3142 -0.6947
  807MPD2    C311883   3.138   0.951   1.496  0.2007 -0.3172 -0.4293
  807MPD2    C411884   3.025   1.024   1.467 -0.2087  0.6237 -0.7400
  807MPD2    C511885   3.006   1.073   1.339  0.0019 -0.3851  0.5476
  807MPD2     H11886   3.310   0.858   1.412  0.5420  0.0725 -2.1841
  807MPD2    H111887   2.952   1.059   1.539  0.5530  0.1077  0.2772
  807MPD2    H211888   3.074   1.081   1.142 -0.8594  2.5631  0.7307
  807MPD2    H311889   2.925   1.139   1.311 -1.0407 -1.3552  1.2861
  807MPD2     N11890   3.163   0.909   1.626  0.3419 -0.2797  0.2242
  807MPD2    H511891   3.250   0.857   1.640  0.9260  0.5759 -0.2114
  807MPD2    N111892   3.286   0.894   1.166  0.6258  0.3126  0.6377
  807MPD2    H711893   3.354   0.829   1.203  1.9815  0.1602 -2.1319
  808MPD2     C11894   2.844   1.917   9.218  0.1107 -0.7173  0.5751
  808MPD2    C111895   2.916   1.848   9.309  0.1210  0.2567 -0.1976
  808MPD2    C211896   3.038   1.893   9.356 -0.4182 -0.3941 -0.9167
  808MPD2    C311897   3.091   2.008   9.307 -0.1728  0.2658  0.8422
  808MPD2    C411898   3.022   2.076   9.209  0.0291 -0.0316 -0.2720
  808MPD2    C511899   2.896   2.034   9.172 -0.3111 -0.8456  0.0375
  808MPD2     H11900   3.085   1.852   9.445  1.6328  3.3690 -0.2686
  808MPD2    H111901   3.059   2.166   9.162  1.7182 -0.7850 -0.4192
  808MPD2    H211902   2.755   1.876   9.172  1.4683 -1.2397 -1.5407
  808MPD2    H311903   2.839   2.088   9.098 -0.2125  0.2179  0.7387
  808MPD2     N11904   3.211   2.063   9.354  0.3033  0.0754  0.2668
  808MPD2    H511905   3.228   2.160   9.328 -2.0673  0.6944  0.9779
  808MPD2    N111906   2.864   1.733   9.377 -0.1898 -0.0717 -0.1089
  808MPD2    H711907   2.918   1.681   9.446  1.1622  0.4496 -0.7719
  809MPD2     C11908   3.684   1.751  10.181  0.2441 -0.1372  0.2423
  809MPD2    C111909   3.791   1.791  10.100 -1.2166 -0.7221 -0.0612
  809MPD2    C211910   3.756   1.852   9.978  0.6684 -0.4417  0.0825
  809MPD2    C311911   3.625   1.866   9.932 -0.1406 -0.6957 -0.5023
  809MPD2    C411912   3.521   1.818  10.005  0.2378 -0.4126 -0.6402
  809MPD2    C511913   3.555   1.759  10.128  0.0599  0.2456 -0.5361
  809MPD2     H11914   3.834   1.890   9.914  1.5598  0.7433  1.8787
  809MPD2    H111915   3.417   1.806   9.977 -0.5422  1.4120  1.4576
  809MPD2    H211916   3.687   1.693  10.273  0.8194  0.8389  0.8459
  809MPD2    H311917   3.469   1.720  10.181  0.0286  0.9071 -0.1011
  809MPD2     N11918   3.589   1.936   9.810 -0.0312 -0.4825  0.4620
  809MPD2    H511919   3.493   1.941   9.780  0.4508 -1.2297 -1.1720
  809MPD2    N111920   3.930   1.760  10.126  0.6991  0.4897 -0.1704
  809MPD2    H711921   3.995   1.791  10.054  1.3253 -0.3071  0.0593
  810MPD2     C11922   3.518   1.531   9.771  0.5125  0.1009 -0.8065
  810MPD2    C111923   3.485   1.452   9.880 -0.1712 -0.4519  0.4194
  810MPD2    C211924   3.587   1.416   9.966 -0.1973 -0.6621 -0.0512
  810MPD2    C311925   3.718   1.455   9.937  0.0718  0.5047  0.5799
  810MPD2    C411926   3.745   1.555   9.845 -0.3632 -0.2758 -0.2751
  810MPD2    C511927   3.639   1.592   9.762 -0.1995 -0.0931 -0.0711
  810MPD2     H11928   3.574   1.358  10.056  0.9303  2.3506  2.0555
  810MPD2    H111929   3.842   1.584   9.808  0.9275 -1.4196  2.2407
  810MPD2    H211930   3.450   1.549   9.688 -1.4466 -2.6414  0.2209
  810MPD2    H311931   3.662   1.657   9.679  1.0523 -0.1972  0.1967
  810MPD2     N11932   3.821   1.392  10.013 -0.3764 -0.1942  0.2698
  810MPD2    H511933   3.785   1.337  10.090  0.0840  0.1198  0.7136
  810MPD2    N111934   3.355   1.388   9.877  0.2073 -0.4761 -0.6980
  810MPD2    H711935   3.292   1.414   9.802 -1.6320  0.2332  1.1243
  811MPD2     C11936   2.496   1.370   9.982 -0.1615  0.7115  0.1525
  811MPD2    C111937   2.620   1.435   9.990 -0.2424  0.2383 -1.0431
  811MPD2    C211938   2.627   1.569   9.988 -0.2153 -0.5385  0.3592
  811MPD2    C311939   2.514   1.649   9.982  0.0111  0.2309 -0.3753
  811MPD2    C411940   2.390   1.588   9.976 -0.0080  0.3539  0.6122
  811MPD2    C511941   2.382   1.448   9.970 -0.1893  0.4671  0.1494
  811MPD2     H11942   2.720   1.621  10.007 -0.1375 -1.0943  1.4386
  811MPD2    H111943   2.292   1.635   9.978  0.0916  0.6539 -1.1305
  811MPD2    H211944   2.489   1.262   9.975  2.9371  0.3069  3.0839
  811MPD2    H311945   2.291   1.390   9.962  1.2424 -1.7861  0.1296
  811MPD2     N11946   2.539   1.787   9.991  0.3415 -0.5856 -0.0597
  811MPD2    H511947   2.635   1.814  10.009  0.4785 -1.9945  1.2726
  811MPD2    N111948   2.738   1.361   9.984 -0.1744 -0.0276 -0.7113
  811MPD2    H711949   2.721   1.261   9.990 -1.8526  0.3929  1.9689
  812MPD2     C11950   2.236   1.617  11.994  0.7882 -0.6024  0.0323
  812MPD2    C111951   2.160   1.637  12.107 -0.1537  0.4929 -0.6374
  812MPD2    C211952   2.096   1.534  12.162 -0.0379  0.7765  0.5823
  812MPD2    C311953   2.101   1.405  12.110  0.1071  0.8584  0.3287
  812MPD2    C411954   2.176   1.389  11.987  0.3387 -0.4745 -0.0217
  812MPD2    C511955   2.243   1.493  11.933  0.2354  0.3054  0.3967
  812MPD2     H11956   2.039   1.547  12.254 -0.2747  0.6763  0.4492
  812MPD2    H111957   2.198   1.290  11.951  0.4519 -0.0987 -0.9868
  812MPD2    H211958   2.285   1.704  11.951  0.0696  0.4671  1.3762
  812MPD2    H311959   2.295   1.475  11.840 -0.2072  0.4422  0.1260
  812MPD2     N11960   2.015   1.295  12.156 -0.9608 -0.1827 -0.1521
  812MPD2    H511961   1.967   1.311  12.243 -1.0026 -0.1573 -0.1803
  812MPD2    N111962   2.144   1.766  12.156 -1.0342  0.0715  0.2755
  812MPD2    H711963   2.176   1.835  12.090 -2.5867  0.5294 -0.0119
  813MPD2     C11964   1.093   3.229  12.698  0.0591 -0.0625 -0.3238
  813MPD2    C111965   1.175   3.125  12.730 -0.4520  0.1883  0.1696
  813MPD2    C211966   1.123   3.031  12.820  0.2155  0.8811  0.0825
  813MPD2    C311967   1.001   3.051  12.891  0.5383  1.1115  0.5753
  813MPD2    C411968   0.920   3.153  12.843  0.3005  0.7011  0.0673
  813MPD2    C511969   0.965   3.245  12.750 -0.2140  0.0967  0.5530
  813MPD2     H11970   1.189   2.953  12.855 -2.9501 -1.2656  1.2254
  813MPD2    H111971   0.828   3.179  12.894  0.7995 -1.2191  1.9417
  813MPD2    H211972   1.135   3.307  12.635 -0.4539  0.7596  0.3410
  813MPD2    H311973   0.907   3.327  12.709  3.6279  2.6133  0.2146
  813MPD2     N11974   0.970   2.971  13.004  0.0899  0.0933  0.2622
  813MPD2    H511975   1.039   2.901  13.028 -0.2754 -0.1611  0.5839
  813MPD2    N111976   1.304   3.133  12.685 -0.6837 -0.0496 -0.4606
  813MPD2    H711977   1.324   3.214  12.627 -0.7801 -0.9196 -1.7131
  814MPD2     C11978   1.612   4.301  11.999 -0.2079 -0.2351  0.4281
  814MPD2    C111979   1.696   4.360  11.904 -0.1025  0.2811 -0.3928
  814MPD2    C211980   1.794   4.448  11.948 -0.1467  0.1596  0.3393
  814MPD2    C311981   1.811   4.487  12.078 -0.2739  0.4120  0.2851
  814MPD2    C411982   1.714   4.440  12.164 -0.3677 -0.1118  0.6641
  814MPD2    C511983   1.616   4.352  12.128 -0.7913  0.9388  0.3624
  814MPD2     H11984   1.869   4.476  11.875  1.7401 -0.3591  2.0520
  814MPD2    H111985   1.714   4.465  12.270 -0.6914  0.6158  0.4919
  814MPD2    H211986   1.545   4.224  11.963 -0.0788  0.1032 -0.5273
  814MPD2    H311987   1.548   4.318  12.205  0.6857 -0.5492  1.0031
  814MPD2     N11988   1.909   4.572  12.126 -0.7368 -0.2263 -0.3246
  814MPD2    H511989   1.917   4.585  12.226 -0.1629  0.3176 -0.4409
  814MPD2    N111990   1.683   4.347  11.761 -0.1294  0.6570  0.6212
  814MPD2    H711991   1.734   4.405  11.696 -0.0283  0.2578  0.3489
  815MPD2     C11992   2.243   3.181  12.006  0.5137  0.1974 -0.1550
  815MPD2    C111993   2.261   3.045  12.012  0.3592 -0.6430  0.3487
  815MPD2    C211994   2.160   2.962  12.060  0.6489 -0.3144 -0.6359
  815MPD2    C311995   2.041   3.019  12.084 -0.6001  0.4066  0.3558
  815MPD2    C411996   2.019   3.155  12.071  0.4160  0.4760 -0.3287
  815MPD2    C511997   2.123   3.238  12.045 -0.1057  0.7254  0.6254
  815MPD2     H11998   2.171   2.854  12.064  0.1610 -0.3853 -1.1897
  815MPD2    H111999   1.918   3.194  12.078 -0.5936 -1.7438 -2.7746
  815MPD2    H212000   2.319   3.249  11.968 -0.5196  1.9326  0.8635
  815MPD2    H312001   2.098   3.344  12.051 -0.2469  0.7328 -0.1603
  815MPD2     N12002   1.936   2.928  12.111  0.2600 -0.4612 -0.6478
  815MPD2    H512003   1.969   2.832  12.111  0.7606 -0.2890  0.0736
  815MPD2    N112004   2.388   3.000  11.967 -0.4834 -0.1568 -0.5767
  815MPD2    H712005   2.452   3.075  11.939 -1.1884 -0.0167 -1.8200
  816MPD2     C12006   2.013   2.159  17.362 -0.7344 -0.0951 -0.2596
  816MPD2    C112007   1.977   2.225  17.248  0.3318  0.7482  0.7014
  816MPD2    C212008   2.019   2.173  17.131 -0.9178 -0.2813 -0.3753
  816MPD2    C312009   2.091   2.056  17.114  0.3001  0.1835  0.6042
  816MPD2    C412010   2.127   1.991  17.235  0.1027 -0.3517  0.5466
  816MPD2    C512011   2.091   2.044  17.360 -0.2344 -0.2028 -0.3118
  816MPD2     H12012   2.009   2.231  17.039 -1.0543  0.4164  0.0806
  816MPD2    H112013   2.176   1.895  17.237 -1.1931 -1.0003  1.2285
  816MPD2    H212014   1.975   2.187  17.460  0.2223  0.1518  0.0426
  816MPD2    H312015   2.117   2.002  17.457 -0.0473  0.1822 -0.1932
  816MPD2     N12016   2.127   2.016  16.985  0.1022  0.0342 -0.3439
  816MPD2    H512017   2.086   2.067  16.907  1.8167  0.3879 -1.0089
  816MPD2    N112018   1.894   2.338  17.253 -0.0575 -0.5809 -0.0556
  816MPD2    H712019   1.869   2.372  17.345 -1.9936  1.3549 -1.3072
  817MPD2     C12020   2.356   4.282   9.653 -1.2530 -0.1663 -0.0119
  817MPD2    C112021   2.234   4.220   9.683 -0.2739  0.3853  0.0843
  817MPD2    C212022   2.117   4.285   9.653 -0.4256  0.4539 -0.0506
  817MPD2    C312023   2.119   4.404   9.581 -0.0034 -0.3727  0.3862
  817MPD2    C412024   2.241   4.463   9.543 -0.5646  0.2585  0.6153
  817MPD2    C512025   2.358   4.408   9.586  0.2976 -0.0872  0.4013
  817MPD2     H12026   2.018   4.244   9.670  0.7771 -3.8085 -3.3563
  817MPD2    H112027   2.252   4.552   9.483  0.0865 -1.1501 -1.3646
  817MPD2    H212028   2.455   4.241   9.671 -1.2795 -1.5576 -3.0722
  817MPD2    H312029   2.447   4.461   9.552 -0.8668  1.6823  0.1468
  817MPD2     N12030   1.994   4.465   9.548 -0.5251 -0.0058  0.1768
  817MPD2    H512031   1.906   4.422   9.577 -0.7453 -0.6528 -1.4771
  817MPD2    N112032   2.218   4.086   9.723  0.1736  0.0084  0.1716
  817MPD2    H712033   2.126   4.053   9.749 -0.9709  3.2530  0.1923
  818MPD2     C12034   0.704   3.877  10.068  0.0143 -0.3570  0.0454
  818MPD2    C112035   0.624   3.762  10.073  0.5310  0.6347 -0.0419
  818MPD2    C212036   0.664   3.660   9.985 -0.2311  0.1800 -0.5350
  818MPD2    C312037   0.771   3.672   9.894 -0.2131  0.2841  0.0244
  818MPD2    C412038   0.848   3.787   9.891 -0.4345  0.6476 -0.1909
  818MPD2    C512039   0.813   3.887   9.982 -0.6410  0.5539 -0.0214
  818MPD2     H12040   0.607   3.568   9.991  0.7248 -0.5726 -2.7905
  818MPD2    H112041   0.930   3.802   9.821 -1.9970  2.7700 -1.5715
  818MPD2    H212042   0.693   3.960  10.137  2.7577  1.5608 -1.8019
  818MPD2    H312043   0.877   3.974   9.993  1.4693 -0.9436 -0.2450
  818MPD2     N12044   0.801   3.556   9.815 -0.0881 -0.1688  0.2243
  818MPD2    H512045   0.737   3.479   9.828 -1.6087  1.0218 -0.1232
  818MPD2    N112046   0.514   3.741  10.157 -0.2575 -0.4200  0.0382
  818MPD2    H712047   0.473   3.648  10.163  0.1676 -0.3682  3.7138
  819MPD2     C12048   3.423   0.686  15.442 -0.4258  0.1342  0.2054
  819MPD2    C112049   3.473   0.561  15.394  0.1403 -0.0728  0.7009
  819MPD2    C212050   3.589   0.511  15.455  0.5264 -0.1469  0.0250
  819MPD2    C312051   3.653   0.580  15.556  0.7311 -0.4827  0.0537
  819MPD2    C412052   3.603   0.703  15.595 -0.3516 -0.5265 -0.0264
  819MPD2    C512053   3.490   0.758  15.539 -0.1259 -0.1866 -0.1470
  819MPD2     H12054   3.630   0.418  15.417  1.0141 -0.9906  2.6499
  819MPD2    H112055   3.657   0.761  15.669  0.0137  0.2481 -0.8986
  819MPD2    H212056   3.332   0.733  15.406 -0.3461 -1.3132 -1.8747
  819MPD2    H312057   3.451   0.854  15.570  0.9938  0.8564 -2.0128
  819MPD2     N12058   3.771   0.529  15.610  0.3043 -0.5752  0.3063
  819MPD2    H512059   3.800   0.440  15.572  0.6253 -0.2815 -0.1385
  819MPD2    N112060   3.395   0.502  15.295 -0.7577  0.2150 -0.2183
  819MPD2    H712061   3.318   0.560  15.265 -2.5574 -0.9005  2.2042
  820MPD2     C12062   2.646   0.639  14.662  0.6273  0.1389  0.2028
  820MPD2    C112063   2.658   0.670  14.796 -0.2497  0.1507  0.0139
  820MPD2    C212064   2.770   0.625  14.866  0.6518  0.2522 -0.1272
  820MPD2    C312065   2.855   0.532  14.804 -0.5871  0.9107  0.4845
  820MPD2    C412066   2.837   0.500  14.666  0.2977  0.5089 -0.1056
  820MPD2    C512067   2.733   0.559  14.596  0.3686  0.6099 -0.3322
  820MPD2     H12068   2.788   0.648  14.970  0.2483 -1.1608  0.2515
  820MPD2    H112069   2.891   0.429  14.603  0.1134  0.2937 -0.0207
  820MPD2    H212070   2.574   0.694  14.604  0.9907  0.8242  0.4077
  820MPD2    H312071   2.729   0.544  14.489 -3.3953 -0.3857 -0.0627
  820MPD2     N12072   2.959   0.464  14.870 -0.5055 -0.0537 -0.6838
  820MPD2    H512073   3.006   0.395  14.812  0.2025  1.7348 -2.2514
  820MPD2    N112074   2.544   0.735  14.858 -0.4521 -0.1081  0.3015
  820MPD2    H712075   2.462   0.747  14.800  1.0540 -1.3723 -2.0716
  821MPD2     C12076   3.384   1.976  12.934 -0.8289 -0.0993  0.7876
  821MPD2    C112077   3.471   1.982  13.044  0.2039  0.0519 -0.3263
  821MPD2    C212078   3.600   2.025  13.024 -0.2360  0.3289 -0.2699
  821MPD2    C312079   3.640   2.063  12.892  0.1812 -0.5898  0.2909
  821MPD2    C412080   3.545   2.079  12.793  0.5087 -0.2881  0.2920
  821MPD2    C512081   3.418   2.026  12.813  0.3613  0.1194 -0.0066
  821MPD2     H12082   3.675   2.007  13.101  1.2207 -1.6642 -2.1626
  821MPD2    H112083   3.570   2.115  12.694  1.5976 -0.3489  0.5456
  821MPD2    H212084   3.279   1.950  12.943 -0.5626 -1.7938 -0.9256
  821MPD2    H312085   3.352   2.031  12.728  1.9325  0.0859 -1.2272
  821MPD2     N12086   3.770   2.075  12.847  0.7311  0.3747 -0.4126
  821MPD2    H512087   3.782   2.094  12.748  0.1470  1.6107 -0.2450
  821MPD2    N112088   3.420   1.945  13.174 -0.6591  0.2140 -0.0407
  821MPD2    H712089   3.488   1.946  13.249 -1.0881 -4.0098  0.3997
  822MPD2     C12090   3.764   1.487  15.820  0.5693 -0.0617  0.3152
  822MPD2    C112091   3.876   1.564  15.840  0.6332 -0.0939  0.1967
  822MPD2    C212092   3.860   1.691  15.893  0.9297  0.0881  0.4454
  822MPD2    C312093   3.737   1.746  15.915  0.2605  0.3186 -0.1912
  822MPD2    C412094   3.625   1.668  15.895 -0.0770  0.1177  0.3268
  822MPD2    C512095   3.645   1.542  15.839 -0.9969  0.0733  0.1499
  822MPD2     H12096   3.950   1.750  15.903  0.3474  1.3771 -1.8427
  822MPD2    H112097   3.524   1.708  15.901 -0.5484 -1.2273  1.5507
  822MPD2    H212098   3.778   1.394  15.767 -0.5964 -0.1900  0.2381
  822MPD2    H312099   3.553   1.489  15.819 -1.0704  0.0333  0.5959
  822MPD2     N12100   3.734   1.876  15.955  0.3428  0.6486  0.2194
  822MPD2    H512101   3.828   1.913  15.963  0.3710  0.5200  0.4826
  822MPD2    N112102   4.013   1.523  15.842 -0.3942  0.3135  0.2932
  822MPD2    H712103   4.078   1.585  15.889  0.0671  0.8607 -1.0573
  823MPD2     C12104   3.588   2.283  16.595 -0.3984  0.6330 -0.1527
  823MPD2    C112105   3.690   2.245  16.524  0.2548  0.2935 -0.6852
  823MPD2    C212106   3.797   2.175  16.581 -0.3633 -0.1823 -0.2861
  823MPD2    C312107   3.785   2.136  16.715 -1.2534 -0.2931 -0.4764
  823MPD2    C412108   3.690   2.194  16.789 -0.0423 -0.7956  0.2509
  823MPD2    C512109   3.590   2.266  16.734 -0.8005 -1.3146  0.1980
  823MPD2     H12110   3.882   2.146  16.520 -0.3669  1.2876 -0.9816
  823MPD2    H112111   3.695   2.187  16.897 -0.5016 -0.8743  0.2678
  823MPD2    H212112   3.509   2.346  16.555 -0.4997 -0.2344 -1.3098
  823MPD2    H312113   3.506   2.297  16.793  0.0604 -0.3428  0.9141
  823MPD2     N12114   3.887   2.055  16.776 -0.0232  0.9207  0.3724
  823MPD2    H512115   3.887   2.071  16.876  0.6095 -1.5604  0.7472
  823MPD2    N112116   3.678   2.274  16.384  0.2490  0.7615  0.3234
  823MPD2    H712117   3.585   2.285  16.347 -0.1486 -0.1403  1.0585
  824MPD2     C12118   4.291   0.813  15.720  0.4287  0.3442 -0.2705
  824MPD2    C112119   4.400   0.898  15.742 -0.1005  0.3943  0.2692
  824MPD2    C212120   4.521   0.863  15.695  0.1076  0.1684  0.0235
  824MPD2    C312121   4.537   0.741  15.635  0.1507 -0.2561  0.2025
  824MPD2    C412122   4.433   0.658  15.608  0.3135 -0.5949  0.2359
  824MPD2    C512123   4.305   0.694  15.653 -0.1112  0.6285  0.0910
  824MPD2     H12124   4.608   0.926  15.710  1.5787 -1.8125 -0.2015
  824MPD2    H112125   4.436   0.563  15.556 -0.2194 -1.1990  1.3069
  824MPD2    H212126   4.193   0.842  15.755  0.4605  2.1733 -1.7182
  824MPD2    H312127   4.220   0.630  15.634  1.9363 -2.0828  0.1249
  824MPD2     N12128   4.668   0.722  15.589 -0.5154 -0.4764 -0.2081
  824MPD2    H512129   0.021   0.784  15.617  0.2259 -0.1815 -2.8397
  824MPD2    N112130   4.373   1.016  15.803 -0.2937 -0.0269  0.2415
  824MPD2    H712131   4.276   1.034  15.826  0.0829  1.0558  0.9712
  825MPD2     C12132   0.614   1.161  15.494 -0.4595 -0.2418  0.0299
  825MPD2    C112133   0.500   1.128  15.415 -0.2513 -0.0143  0.3611
  825MPD2    C212134   0.460   1.218  15.318 -0.2032 -0.4952 -0.1692
  825MPD2    C312135   0.531   1.340  15.296  0.0861  0.5673 -0.1802
  825MPD2    C412136   0.641   1.365  15.375 -0.1105 -0.3520 -0.3346
  825MPD2    C512137   0.680   1.276  15.472 -0.2459  0.1595 -0.6458
  825MPD2     H12138   0.376   1.193  15.255 -0.6864 -1.7459  0.9602
  825MPD2    H112139   0.708   1.447  15.351  1.0135 -1.0624  0.3621
  825MPD2    H212140   0.650   1.091  15.570  0.2446 -0.9857 -0.9886
  825MPD2    H312141   0.774   1.291  15.523 -1.5038  3.7401  0.6513
  825MPD2     N12142   0.493   1.441  15.207  0.1267  0.0268  0.0231
  825MPD2    H512143   0.537   1.532  15.219 -0.0288  0.0261  0.5967
  825MPD2    N112144   0.441   0.999  15.440  0.5197 -0.2397 -0.4945
  825MPD2    H712145   0.495   0.935  15.497  0.5967  2.3729  2.3567
  826MPD2     C12146   0.292   0.990  13.894 -0.3784 -0.9124 -0.0805
  826MPD2    C112147   0.266   0.993  13.759 -0.0978  0.5142  0.5001
  826MPD2    C212148   0.149   1.051  13.708  0.2315 -0.4030  0.0923
  826MPD2    C312149   0.072   1.130  13.794 -0.3364 -0.7516 -0.4579
  826MPD2    C412150   0.104   1.139  13.926 -0.4940  0.1074 -0.4295
  826MPD2    C512151   0.213   1.068  13.971 -0.3686 -0.6217  0.1042
  826MPD2     H12152   0.126   1.043  13.602 -1.8619 -0.6545  0.5610
  826MPD2    H112153   0.057   1.216  13.987  0.4314  1.0306 -0.8767
  826MPD2    H212154   0.368   0.933  13.945 -0.4401 -1.5876 -0.7418
  826MPD2    H312155   0.237   1.067  14.077 -0.7427  1.9645  0.2091
  826MPD2     N12156   4.680   1.202  13.743 -1.0031 -1.1536 -0.6437
  826MPD2    H512157   4.610   1.237  13.807 -0.5594  0.4333 -1.0264
  826MPD2    N112158   0.351   0.914  13.680 -0.3493 -0.3268 -0.4675
  826MPD2    H712159   0.430   0.874  13.729 -1.8410 -1.6443  0.8353
  827MPD2     C12160   1.009   2.615   9.912 -1.0250  0.3302 -1.0368
  827MPD2    C112161   1.011   2.484   9.956  0.4746  0.3353  0.5395
  827MPD2    C212162   0.924   2.388   9.901  0.3653 -0.0900  0.7091
  827MPD2    C312163   0.824   2.427   9.808 -0.0285  0.6570 -0.7723
  827MPD2    C412164   0.821   2.558   9.768 -0.7745  0.2680 -0.2609
  827MPD2    C512165   0.912   2.650   9.819  0.5445  0.4011  0.0140
  827MPD2     H12166   0.915   2.283   9.926 -1.0204  0.2106  1.4331
  827MPD2    H112167   0.749   2.596   9.697  0.7059  0.8767 -1.4538
  827MPD2    H212168   1.058   2.701   9.957 -1.7425  0.3920 -0.3817
  827MPD2    H312169   0.915   2.755   9.791 -1.8436  0.6989  0.9096
  827MPD2     N12170   0.723   2.328   9.763 -0.1652  0.1953  0.4759
  827MPD2    H512171   0.741   2.233   9.796 -1.6883  0.2462  1.4431
  827MPD2    N112172   1.085   2.452  10.079  0.1875 -0.2209  0.3650
  827MPD2    H712173   1.127   2.527  10.133 -0.6661 -1.0971  2.2662
  828MPD2     C12174   4.387   1.783  12.600  0.1601  0.3673 -0.0704
  828MPD2    C112175   4.348   1.757  12.472 -0.2348 -0.5938  0.0879
  828MPD2    C212176   4.443   1.710  12.385 -0.0900 -0.2914 -0.2663
  828MPD2    C312177   4.575   1.679  12.426 -0.1031  0.1467 -0.3041
  828MPD2    C412178   4.608   1.706  12.552 -0.4421  0.5084  0.1522
  828MPD2    C512179   4.521   1.759  12.638  0.3791 -0.5502 -0.2599
  828MPD2     H12180   4.413   1.696  12.282  0.5623 -0.3148 -0.4525
  828MPD2    H112181   4.713   1.704  12.576 -0.7074  1.5834  1.4261
  828MPD2    H212182   4.316   1.821  12.673 -0.0023 -0.9847  0.4633
  828MPD2    H312183   4.563   1.784  12.735  0.6295  0.1160 -0.5429
  828MPD2     N12184   4.674   1.635  12.334 -1.0257 -0.2003 -0.2335
  828MPD2    H512185   0.044   1.634  12.374 -0.6282 -1.4708 -1.1763
  828MPD2    N112186   4.220   1.786  12.421 -0.1522  0.8663 -0.1786
  828MPD2    H712187   4.197   1.762  12.325  0.2594 -2.0081  0.4306
  829MPD2     C12188   4.295   2.020  11.646 -0.3879  0.0455  0.2811
  829MPD2    C112189   4.186   2.097  11.664 -0.1795  0.5427  0.6989
  829MPD2    C212190   4.125   2.100  11.793 -0.3498  0.7282  1.0054
  829MPD2    C312191   4.172   2.014  11.892  0.2538  0.1243 -0.6538
  829MPD2    C412192   4.284   1.939  11.870 -0.8549  0.5711  0.1170
  829MPD2    C512193   4.347   1.944  11.752 -0.3735  0.1265 -0.2685
  829MPD2     H12194   4.034   2.152  11.819  0.4021  1.3677  2.4039
  829MPD2    H112195   4.329   1.886  11.953  0.4580  0.4021 -0.7162
  829MPD2    H212196   4.346   2.010  11.551  0.7501 -0.4792  0.9528
  829MPD2    H312197   4.443   1.896  11.738 -0.0710  1.1184 -1.6419
  829MPD2     N12198   4.111   1.999  12.022 -0.8506  1.1755  0.2932
  829MPD2    H512199   4.142   1.923  12.081 -4.0989 -2.3910 -2.5905
  829MPD2    N112200   4.140   2.176  11.553 -0.2535 -0.0241 -0.4281
  829MPD2    H712201   4.186   2.159  11.464 -1.8218 -1.8469 -0.9133
  830MPD2     C12202   4.375   0.013  15.495  0.4701 -0.2158  0.1125
  830MPD2    C112203   4.359   0.147  15.500  0.1222 -0.4400  0.1585
  830MPD2    C212204   4.421   0.229  15.406 -0.5819 -0.2970  0.7337
  830MPD2    C312205   4.503   0.172  15.311  0.1488 -0.1765 -0.7897
  830MPD2    C412206   4.515   0.034  15.309 -0.6976  1.1041  0.5504
  830MPD2    C512207   4.454   4.679  15.394  0.5747 -0.3421 -0.1856
  830MPD2     H12208   4.418   0.337  15.416  2.1798 -0.2677  1.1431
  830MPD2    H112209   4.572   4.701  15.236 -1.6205  0.4785  0.3093
  830MPD2    H212210   4.319   4.679  15.569 -0.7285  1.7998  0.7435
  830MPD2    H312211   4.452   4.572  15.377  0.7434 -0.4653  0.5400
  830MPD2     N12212   4.575   0.259  15.230  0.5840 -0.3085  0.6268
  830MPD2    H512213   4.553   0.357  15.237 -0.6937 -0.6917  1.9803
  830MPD2    N112214   4.266   0.193  15.596  0.3216  0.3870 -0.4658
  830MPD2    H712215   4.231   0.133  15.670  0.0072 -1.7165 -2.3202
  831MPD2     C12216   4.203   2.141  16.091 -0.0951  0.5554  0.1156
  831MPD2    C112217   4.191   2.019  16.033  0.7269 -0.7268 -0.7046
  831MPD2    C212218   4.131   1.915  16.099 -0.6746 -0.0454  0.0685
  831MPD2    C312219   4.073   1.936  16.223  0.2148  0.7071  0.4184
  831MPD2    C412220   4.077   2.059  16.275 -0.0787  0.0564  0.4800
  831MPD2    C512221   4.143   2.159  16.211 -0.3102 -0.1902 -0.2717
  831MPD2     H12222   4.119   1.820  16.048  1.2123 -0.1559 -0.1975
  831MPD2    H112223   4.051   2.075  16.379 -1.4771  0.9844 -0.0022
  831MPD2    H212224   4.228   2.237  16.046 -1.0674  1.0797  0.6723
  831MPD2    H312225   4.154   2.259  16.251 -2.4326  0.4311 -1.1799
  831MPD2     N12226   4.006   1.830  16.298 -0.2985  0.1279  0.1758
  831MPD2    H512227   3.969   1.867  16.385 -0.5437 -2.2052  1.0738
  831MPD2    N112228   4.246   2.002  15.902  0.5506 -0.0516  0.3197
  831MPD2    H712229   4.283   2.085  15.855 -1.1320  1.0237  0.9101
  832MPD2     C12230   2.809   3.291  17.297  0.4480  0.1303 -0.1809
  832MPD2    C112231   2.749   3.408  17.252  0.6624 -0.0982 -0.0675
  832MPD2    C212232   2.656   3.402  17.157  0.1798  0.5320 -0.0218
  832MPD2    C312233   2.620   3.286  17.095 -0.0441 -0.0131 -0.1874
  832MPD2    C412234   2.686   3.170  17.137  0.3239  0.5286  0.2849
  832MPD2    C512235   2.770   3.171  17.244  0.8587 -0.1953  0.2376
  832MPD2     H12236   2.601   3.492  17.131  0.4100  0.6740 -0.0166
  832MPD2    H112237   2.658   3.076  17.090 -1.1538  0.8646  0.4774
  832MPD2    H212238   2.885   3.296  17.374  1.3517  1.3641 -1.1646
  832MPD2    H312239   2.802   3.075  17.281  1.0605  0.0043  0.5879
  832MPD2     N12240   2.511   3.283  16.995  0.3500  0.3677  0.0959
  832MPD2    H512241   2.474   3.190  16.977  1.8515 -0.0163 -0.9957
  832MPD2    N112242   2.776   3.518  17.326 -0.1457 -0.1252 -0.2876
  832MPD2    H712243   2.869   3.522  17.367 -0.4520  0.4081  0.3438
  833MPD2     C12244   0.105   4.451  12.651  0.1937 -0.4630 -0.0088
  833MPD2    C112245   0.180   4.519  12.554  0.3288  0.3077  0.3829
  833MPD2    C212246   0.253   4.438  12.468 -0.2422 -0.2855  0.2583
  833MPD2    C312247   0.250   4.303  12.471 -0.7881  0.6319  0.3975
  833MPD2    C412248   0.175   4.248  12.569 -0.1995  0.8597 -0.2925
  833MPD2    C512249   0.106   4.319  12.658  0.2054 -0.2050  0.1732
  833MPD2     H12250   0.324   4.487  12.402  1.3869  0.0120  2.2556
  833MPD2    H112251   0.168   4.141  12.579 -1.4044  0.8018 -1.8863
  833MPD2    H212252   0.045   4.511  12.719  0.9731  0.2746  0.0313
  833MPD2    H312253   0.061   4.266  12.742  1.7703 -0.7247  0.6873
  833MPD2     N12254   0.315   4.222  12.377  0.0808  0.2284 -0.7882
  833MPD2    H512255   0.312   4.122  12.390 -2.8334  0.5817  1.2605
  833MPD2    N112256   0.165   4.657  12.543  0.4637  0.9133 -0.5096
  833MPD2    H712257   0.120   4.717  12.611 -1.9783 -0.5764 -0.8095
  834MPD2     C12258   0.697   3.512  11.879  0.7492  0.1655 -0.5069
  834MPD2    C112259   0.618   3.596  11.799  0.4044  0.1484 -0.0685
  834MPD2    C212260   0.603   3.728  11.840  0.2364  0.1177  0.4951
  834MPD2    C312261   0.666   3.773  11.954 -0.2988  0.3148 -0.8761
  834MPD2    C412262   0.744   3.691  12.035 -0.1779  0.6781 -0.2840
  834MPD2    C512263   0.760   3.561  11.995 -0.5877 -0.7480  0.0963
  834MPD2     H12264   0.537   3.801  11.795 -0.0446 -0.3833  0.0952
  834MPD2    H112265   0.799   3.729  12.121  0.3989  0.7093 -0.6676
  834MPD2    H212266   0.731   3.412  11.854 -1.9716 -0.4412 -1.7844
  834MPD2    H312267   0.826   3.493  12.048  0.5630  1.2729  1.2726
  834MPD2     N12268   0.643   3.909  11.989 -0.6627 -0.1135  0.1136
  834MPD2    H512269   0.611   3.973  11.917 -0.0363 -0.2481 -0.2825
  834MPD2    N112270   0.550   3.543  11.686 -0.3517  0.7450  0.2858
  834MPD2    H712271   0.565   3.445  11.665 -1.0220  0.6732  0.1556
  835MPD2     C12272   0.644   2.270  10.693 -0.8465 -0.1537  0.6349
  835MPD2    C112273   0.522   2.203  10.678 -0.4470  0.4097  0.2935
  835MPD2    C212274   0.483   2.107  10.769 -0.2025 -0.2655  0.5762
  835MPD2    C312275   0.548   2.108  10.894 -0.6025  0.2132 -0.1125
  835MPD2    C412276   0.666   2.178  10.913  0.2425  0.1849  1.1407
  835MPD2    C512277   0.711   2.259  10.812 -0.4148 -0.6994 -0.3501
  835MPD2     H12278   0.389   2.057  10.747  0.0470 -0.4718 -0.0194
  835MPD2    H112279   0.719   2.168  11.007 -0.9730 -1.3819  1.6617
  835MPD2    H212280   0.687   2.342  10.623 -1.1042  0.3644  1.0168
  835MPD2    H312281   0.798   2.320  10.830 -2.7836  2.6297 -0.2349
  835MPD2     N12282   0.480   2.054  11.014 -0.0639  0.0833  0.1248
  835MPD2    H512283   0.546   2.059  11.091 -0.5772  0.8912  0.5106
  835MPD2    N112284   0.432   2.218  10.570  0.4118  0.1986 -0.2541
  835MPD2    H712285   0.345   2.171  10.590 -0.0742  1.5217  0.7398
  836MPD2     C12286   4.539   2.389  11.111  0.7182 -0.2483 -0.9161
  836MPD2    C112287   4.582   2.347  11.237 -0.0974 -1.0016  0.0570
  836MPD2    C212288   4.510   2.378  11.351 -0.7013 -0.2880  0.0365
  836MPD2    C312289   4.396   2.455  11.339  0.6972 -0.1785  0.5306
  836MPD2    C412290   4.354   2.495  11.218 -0.5259  0.4658  0.3982
  836MPD2    C512291   4.429   2.463  11.100  1.0152  0.4695 -0.4897
  836MPD2     H12292   4.555   2.354  11.447 -0.1789  1.2795  0.1795
  836MPD2    H112293   4.256   2.537  11.198 -0.5489 -1.1395 -2.9466
  836MPD2    H212294   4.594   2.361  11.022 -0.5343  1.2484 -2.1675
  836MPD2    H312295   4.377   2.482  11.006  1.6743  0.0673 -0.9348
  836MPD2     N12296   4.311   2.477  11.453  0.0800  0.4781 -0.0780
  836MPD2    H512297   4.245   2.552  11.435 -2.2919 -1.0482  2.4024
  836MPD2    N112298   4.702   2.271  11.240  0.3500  0.1684 -0.3985
  836MPD2    H712299   0.029   2.270  11.151  0.0718 -1.3407 -0.5268
  837MPD2     C12300   3.061   2.417   9.988  0.0479 -0.1989 -1.0136
  837MPD2    C112301   2.946   2.429   9.915  0.0876 -0.0003 -0.1068
  837MPD2    C212302   2.919   2.547   9.854 -0.2108 -0.1079  0.1999
  837MPD2    C312303   2.993   2.660   9.876  0.0077  0.1869  0.4384
  837MPD2    C412304   3.106   2.644   9.955  0.5289 -0.0496 -0.1732
  837MPD2    C512305   3.143   2.521  10.012 -0.2900  0.0471 -0.2079
  837MPD2     H12306   2.829   2.556   9.793  1.1630 -1.7155 -2.0488
  837MPD2    H112307   3.162   2.732   9.985  1.3492 -0.1565 -1.3697
  837MPD2    H212308   3.084   2.319  10.029  0.9127  0.8255  0.9812
  837MPD2    H312309   3.226   2.514  10.081 -1.7341 -0.3445  1.4780
  837MPD2     N12310   2.953   2.785   9.826  0.3003  0.2312 -0.0307
  837MPD2    H512311   2.862   2.783   9.782 -0.3134 -1.2177  1.3101
  837MPD2    N112312   2.844   2.332   9.903 -0.7934  0.0904 -0.1164
  837MPD2    H712313   2.763   2.366   9.853  0.8592  2.0471 -1.4332
  838MPD2     C12314   1.229   0.378  11.501 -0.1593 -0.0203 -0.4082
  838MPD2    C112315   1.296   0.275  11.561 -0.8845  0.4928 -0.5446
  838MPD2    C212316   1.223   0.179  11.637  0.5343  0.3839 -0.2650
  838MPD2    C312317   1.086   0.173  11.640  0.8076 -0.5322  0.1550
  838MPD2    C412318   1.024   0.265  11.548 -0.1191  0.9311  0.6967
  838MPD2    C512319   1.093   0.368  11.494 -0.6859  0.0164  0.0672
  838MPD2     H12320   1.281   0.113  11.701  0.9339 -0.2690 -1.2916
  838MPD2    H112321   0.916   0.276  11.539 -0.1168  2.6833  2.9755
  838MPD2    H212322   1.271   0.452  11.434 -1.1571  2.1393  1.3103
  838MPD2    H312323   1.039   0.429  11.422 -1.0945 -0.2391  0.1569
  838MPD2     N12324   1.014   0.066  11.709  0.1781  0.5578  0.4275
  838MPD2    H512325   1.072   0.016  11.776  1.2210  0.0723 -0.8295
  838MPD2    N112326   1.436   0.258  11.544 -0.4120  0.4019 -0.1411
  838MPD2    H712327   1.473   0.165  11.566  0.2119  0.6865  0.0304
  839MPD2     C12328   1.043   4.665  11.126 -0.0546  0.8840 -0.3451
  839MPD2    C112329   1.154   4.624  11.059  0.1078  1.1472  0.6734
  839MPD2    C212330   1.266   4.693  11.081 -0.1303 -0.4554  0.1010
  839MPD2    C312331   1.277   0.070  11.178 -1.0207 -0.7409  0.2102
  839MPD2    C412332   1.169   0.102  11.251 -0.8030 -0.2497  0.0707
  839MPD2    C512333   1.048   0.041  11.222 -1.3801 -0.1171 -0.1555
  839MPD2     H12334   1.355   4.653  11.032  3.4518  3.5237  3.3992
  839MPD2    H112335   1.166   0.175  11.330 -1.1974 -1.8093  1.5089
  839MPD2    H212336   0.945   4.622  11.108 -1.6635  4.0748  0.6524
  839MPD2    H312337   0.960   0.075  11.276 -1.6593 -0.9944 -0.0661
  839MPD2     N12338   1.402   0.127  11.218 -0.0095  0.2332 -0.3851
  839MPD2    H512339   1.400   0.178  11.306 -0.0486  1.2368 -0.9611
  839MPD2    N112340   1.147   4.523  10.956 -0.3705  1.1480 -0.7839
  839MPD2    H712341   1.230   4.511  10.900 -0.3460 -2.4188 -0.0074
  840MPD2     C12342   1.514   2.849  10.217  0.3997  0.4207 -0.1200
  840MPD2    C112343   1.527   2.749  10.314  0.2365 -0.0787  0.0133
  840MPD2    C212344   1.634   2.765  10.394 -0.0424 -0.0733 -0.3820
  840MPD2    C312345   1.722   2.881  10.387 -0.3676 -0.2160  0.7369
  840MPD2    C412346   1.690   2.983  10.304  0.0980 -0.1939 -0.1549
  840MPD2    C512347   1.588   2.968  10.217 -0.1568 -0.0999 -0.1623
  840MPD2     H12348   1.652   2.694  10.474 -2.5395  0.5292  0.7112
  840MPD2    H112349   1.732   3.083  10.305 -2.2695  0.8912 -4.5260
  840MPD2    H212350   1.445   2.836  10.135 -3.4433 -0.1892  3.2179
  840MPD2    H312351   1.556   3.047  10.150  2.0488  0.0451 -1.0454
  840MPD2     N12352   1.832   2.904  10.469 -0.4979 -0.3202 -0.1665
  840MPD2    H512353   1.889   2.987  10.460  0.6663 -1.2456 -1.3453
  840MPD2    N112354   1.437   2.639  10.316 -0.4858  0.3987 -0.0682
  840MPD2    H712355   1.367   2.632  10.243  1.0766  1.1947 -1.6421
  841MPD2     C12356   1.003   1.999  14.903  0.8639  0.3111  0.1454
  841MPD2    C112357   0.970   2.015  14.769  0.7470 -0.0709  0.0051
  841MPD2    C212358   0.959   2.147  14.722 -0.2222 -0.2066 -0.2435
  841MPD2    C312359   0.953   2.255  14.811  0.5125  0.1384 -0.7937
  841MPD2    C412360   0.968   2.233  14.948 -0.1464  0.2651 -0.0965
  841MPD2    C512361   0.993   2.105  14.993 -0.4504  0.3404 -0.1001
  841MPD2     H12362   0.935   2.166  14.618  0.5417 -0.0803 -0.3964
  841MPD2    H112363   0.957   2.310  15.023 -1.0380 -1.3262  1.4214
  841MPD2    H212364   1.008   1.904  14.956  2.3092  0.4082  0.1866
  841MPD2    H312365   1.017   2.083  15.096 -2.2938 -1.6602 -0.1082
  841MPD2     N12366   0.920   2.381  14.757 -0.4837 -0.3123 -0.0915
  841MPD2    H512367   0.926   2.400  14.658  1.5592 -2.0530 -0.2942
  841MPD2    N112368   0.963   1.913  14.672 -0.2978  0.2425  0.0217
  841MPD2    H712369   0.951   1.937  14.574 -2.7904 -3.2877 -0.5488
  842MPD2     C12370   1.838   3.430  16.819 -0.4065 -0.5449 -0.1289
  842MPD2    C112371   1.700   3.399  16.788  0.4626  0.1603  0.0625
  842MPD2    C212372   1.619   3.342  16.883 -0.3465  0.3516  0.6476
  842MPD2    C312373   1.673   3.302  17.007 -0.6598 -0.6753  0.1278
  842MPD2    C412374   1.807   3.327  17.027 -0.6310  0.1906  0.2228
  842MPD2    C512375   1.889   3.373  16.931 -0.9665 -0.0049  0.5553
  842MPD2     H12376   1.518   3.328  16.847 -0.0231  3.7687 -1.6409
  842MPD2    H112377   1.856   3.283  17.114  1.1079  1.2115 -0.2323
  842MPD2    H212378   1.902   3.494  16.760 -0.0257 -0.8507 -0.0501
  842MPD2    H312379   1.996   3.380  16.950 -0.7471 -0.2052 -0.5629
  842MPD2     N12380   1.599   3.253  17.117 -0.0887 -0.2977 -0.6414
  842MPD2    H512381   1.650   3.227  17.200  0.9045  1.9239 -0.5742
  842MPD2    N112382   1.654   3.440  16.655 -0.6315  0.1989 -0.7798
  842MPD2    H712383   1.725   3.477  16.593 -0.6155 -1.6270 -1.8255
  843MPD2     C12384   3.331   4.117   0.275 -0.0781  0.4835 -0.7277
  843MPD2    C112385   3.348   4.004   0.197  0.3144  0.0598 -0.0816
  843MPD2    C212386   3.478   3.953   0.188  0.8141 -0.2995 -0.2916
  843MPD2    C312387   3.584   4.008   0.265  0.3733 -0.2356 -0.1343
  843MPD2    C412388   3.554   4.123   0.336 -0.2502 -0.2629 -0.4646
  843MPD2    C512389   3.432   4.181   0.328 -0.0288 -0.3989 -0.1511
  843MPD2     H12390   3.493   3.864   0.129 -0.5037 -1.4061  1.0471
  843MPD2    H112391   3.633   4.183   0.380  1.0868 -2.2646 -0.1074
  843MPD2    H212392   3.228   4.145   0.294 -0.0057  0.5606 -0.4490
  843MPD2    H312393   3.417   4.280   0.369  1.9418 -1.0527  2.1245
  843MPD2     N12394   3.726   3.980   0.253 -0.5824  0.3167 -0.0222
  843MPD2    H512395   3.786   4.043   0.305 -0.4763 -0.5986  0.9695
  843MPD2    N112396   3.232   3.942   0.141  0.0588 -0.0872 -0.0855
  843MPD2    H712397   3.145   3.992   0.157 -0.5652 -0.5396 -2.0635
  844MPD2     C12398   2.358   3.009  16.199  0.1122 -0.2996  0.0650
  844MPD2    C112399   2.412   2.888  16.232 -0.4900 -0.5169  1.3010
  844MPD2    C212400   2.472   2.877  16.362  0.1197 -0.1258 -0.5215
  844MPD2    C312401   2.492   2.987  16.441 -0.3924  0.4222 -0.6200
  844MPD2    C412402   2.435   3.107  16.409 -0.5189 -1.0912 -0.1315
  844MPD2    C512403   2.365   3.116  16.285  0.0654 -0.0847  0.1123
  844MPD2     H12404   2.508   2.781  16.397 -0.1317  0.0705  0.2831
  844MPD2    H112405   2.447   3.190  16.478 -0.7585 -0.8553 -0.3766
  844MPD2    H212406   2.308   3.029  16.105  1.9071 -2.7691 -1.4010
  844MPD2    H312407   2.318   3.211  16.261  1.3987  0.3018 -0.9892
  844MPD2     N12408   2.570   2.979  16.556 -0.6532 -0.3029  0.3202
  844MPD2    H512409   2.606   2.887  16.579  0.6174 -0.2725 -1.4910
  844MPD2    N112410   2.415   2.789  16.125  0.0101 -0.3087  0.1705
  844MPD2    H712411   2.473   2.711  16.151 -1.8128 -1.3808  1.0236
  845MPD2     C12412   3.232   3.665  16.846  0.1932  0.5286 -0.2812
  845MPD2    C112413   3.099   3.678  16.865  0.2759  0.7565  0.7826
  845MPD2    C212414   3.031   3.560  16.866 -0.9171 -0.1942 -0.5572
  845MPD2    C312415   3.085   3.440  16.842 -0.1985  0.8775 -0.6606
  845MPD2    C412416   3.220   3.431  16.824  0.0473  0.5104 -0.5801
  845MPD2    C512417   3.294   3.543  16.829 -0.5285 -0.7339  0.4902
  845MPD2     H12418   2.923   3.572  16.875 -0.9566 -1.1497  0.2511
  845MPD2    H112419   3.269   3.336  16.807 -2.0375 -0.9928  1.8462
  845MPD2    H212420   3.293   3.754  16.839  0.0731  0.8243  2.2030
  845MPD2    H312421   3.402   3.543  16.817 -0.8114  2.1607 -2.0105
  845MPD2     N12422   2.999   3.322  16.832 -0.6956  0.3241 -0.2027
  845MPD2    H512423   2.898   3.336  16.839 -0.5977  1.1727 -0.4052
  845MPD2    N112424   3.038   3.805  16.902 -0.6782  0.0566 -0.9888
  845MPD2    H712425   3.100   3.885  16.902  0.1811 -0.6141 -1.1664
  846MPD2     C12426   4.264   4.066  13.521 -0.1630 -0.0081  0.0369
  846MPD2    C112427   4.157   4.152  13.530  0.5662  0.3049  0.6691
  846MPD2    C212428   4.083   4.148  13.649 -0.8697 -1.2805  0.3399
  846MPD2    C312429   4.119   4.066  13.753 -0.2674  0.1289  0.2447
  846MPD2    C412430   4.226   3.975  13.733 -0.4336 -0.6087 -0.3016
  846MPD2    C512431   4.304   3.982  13.621 -0.4454 -0.3528  0.8389
  846MPD2     H12432   4.005   4.221  13.668  1.5300  1.3674  0.0149
  846MPD2    H112433   4.267   3.907  13.807  0.6065 -1.8133 -1.9529
  846MPD2    H212434   4.323   4.056  13.431 -1.1136  1.0519 -0.6867
  846MPD2    H312435   4.393   3.922  13.606 -0.5681 -0.5540  0.9063
  846MPD2     N12436   4.051   4.081  13.877 -0.4817 -0.1697  0.0970
  846MPD2    H512437   3.979   4.152  13.887  0.9485  1.1822  0.9031
  846MPD2    N112438   4.109   4.233  13.426 -0.1774  0.2013 -0.1795
  846MPD2    H712439   4.029   4.293  13.444 -1.4247 -2.1501  2.0974
  847MPD2     C12440   4.207   0.073  14.053 -0.2187  0.2664  0.7090
  847MPD2    C112441   4.315   0.149  14.022 -0.6905 -0.2884 -0.4592
  847MPD2    C212442   4.442   0.103  14.056  0.3449 -0.2617 -0.1751
  847MPD2    C312443   4.456   4.711  14.127 -1.1989  0.1603 -0.0031
  847MPD2    C412444   4.348   4.634  14.155  0.1899  0.9437 -0.1669
  847MPD2    C512445   4.219   4.675  14.117  0.2276  0.7109 -0.4140
  847MPD2     H12446   4.519   0.178  14.040  0.8328 -0.6147  0.5009
  847MPD2    H112447   4.364   4.543  14.213 -2.2365  0.1162 -0.8311
  847MPD2    H212448   4.107   0.108  14.029  0.4195  1.1846 -0.6042
  847MPD2    H312449   4.125   4.627  14.140  0.6013 -0.7997 -2.0135
  847MPD2     N12450   4.588   4.683  14.169  0.4860 -0.2399  0.1087
  847MPD2    H512451   4.654   0.035  14.148 -2.0987  1.0477 -3.5173
  847MPD2    N112452   4.305   0.285  13.979 -0.3218  0.1928 -0.1352
  847MPD2    H712453   4.390   0.339  13.990  1.2380 -2.3364  0.4347
  848MPD2     C12454   2.155   3.533  16.235 -0.7664  0.8062  1.6387
  848MPD2    C112455   2.238   3.580  16.337  0.7303 -0.5635  0.0933
  848MPD2    C212456   2.299   3.701  16.324  0.1263 -0.6588 -0.5268
  848MPD2    C312457   2.268   3.785  16.221 -0.3111  0.0245 -0.4969
  848MPD2    C412458   2.181   3.738  16.116  0.2678 -0.3007 -0.3107
  848MPD2    C512459   2.124   3.615  16.131  0.1084 -0.2224 -0.1504
  848MPD2     H12460   2.371   3.730  16.400 -2.7052  2.9455  0.7424
  848MPD2    H112461   2.154   3.796  16.029 -0.8274  1.0276  0.9152
  848MPD2    H212462   2.113   3.433  16.237 -3.0339  1.6797 -1.6604
  848MPD2    H312463   2.048   3.593  16.057  0.7862  2.9296 -1.7705
  848MPD2     N12464   2.324   3.917  16.204 -0.1405  0.9511 -0.3985
  848MPD2    H512465   2.295   3.965  16.120  0.2653 -0.9792 -1.6403
  848MPD2    N112466   2.271   3.505  16.455 -0.4050  0.2854  0.1616
  848MPD2    H712467   2.358   3.535  16.499 -0.3606  1.7908 -0.9613
  849MPD2     C12468   1.092   3.412  14.121  0.6321  1.1341  0.0275
  849MPD2    C112469   1.221   3.375  14.096  0.9085  0.2713  0.6689
  849MPD2    C212470   1.286   3.286  14.181 -0.2740  0.2616 -0.1746
  849MPD2    C312471   1.227   3.238  14.291 -0.1706  0.7243 -0.2907
  849MPD2    C412472   1.107   3.279  14.328  0.5719  0.9176 -0.5594
  849MPD2    C512473   1.038   3.367  14.240  0.4992 -0.2953  0.2441
  849MPD2     H12474   1.389   3.253  14.167  0.1714  1.2033  0.8351
  849MPD2    H112475   1.054   3.233  14.410  0.6822  0.3926 -0.7838
  849MPD2    H212476   1.034   3.469  14.050  2.2892  2.7758 -0.0294
  849MPD2    H312477   0.940   3.402  14.270  0.8001  1.1124 -0.3880
  849MPD2     N12478   1.295   3.139  14.360  0.4697  0.0151 -0.1832
  849MPD2    H512479   1.374   3.091  14.318  1.1493 -1.1706  2.4787
  849MPD2    N112480   1.299   3.410  13.978 -0.4151 -0.1724 -0.1185
  849MPD2    H712481   1.396   3.381  13.980 -0.0492  0.7557 -4.3346
  850MPD2     C12482   3.885   0.473  14.777  0.0421 -0.4045  0.1814
  850MPD2    C112483   3.881   0.566  14.871 -0.9488 -0.1286 -0.4432
  850MPD2    C212484   3.975   0.671  14.875 -0.2519  1.3391 -0.4448
  850MPD2    C312485   4.087   0.666  14.792  0.6256 -0.6433  0.7155
  850MPD2    C412486   4.099   0.556  14.708 -0.1074  0.7017  0.1938
  850MPD2    C512487   4.002   0.460  14.700 -0.2256  1.0641  0.0526
  850MPD2     H12488   3.967   0.748  14.951 -4.2014  0.1508  0.3905
  850MPD2    H112489   4.191   0.543  14.652  0.5138  1.6515  0.9919
  850MPD2    H212490   3.817   0.389  14.777  1.0683 -1.2458  2.5682
  850MPD2    H312491   4.006   0.374  14.634 -1.0283  0.3904  0.8795
  850MPD2     N12492   4.206   0.750  14.805  0.6703  0.6578 -0.4443
  850MPD2    H512493   4.280   0.728  14.739 -0.2907 -1.4352 -0.8395
  850MPD2    N112494   3.761   0.561  14.946 -0.2211 -0.9126 -0.3316
  850MPD2    H712495   3.703   0.481  14.922  0.3073 -1.1397 -0.8461
  851MPD2     C12496   4.391   0.952  15.328  0.0714  0.6208 -0.2964
  851MPD2    C112497   4.328   0.840  15.273 -0.2796 -0.0749 -1.0812
  851MPD2    C212498   4.404   0.750  15.204  0.3917 -0.1801 -1.0601
  851MPD2    C312499   4.538   0.773  15.192  0.1841  0.0574 -0.6524
  851MPD2    C412500   4.597   0.891  15.229  0.5087 -0.4838  0.4235
  851MPD2    C512501   4.522   0.970  15.305 -0.6719 -0.2071  0.2644
  851MPD2     H12502   4.370   0.653  15.170 -1.2197  0.2290 -0.6182
  851MPD2    H112503   4.700   0.925  15.220  0.3626 -0.4392 -1.0219
  851MPD2    H212504   4.342   1.017  15.399  0.3815 -1.0869  1.4802
  851MPD2    H312505   4.568   1.067  15.323 -0.1203 -0.6171  1.0322
  851MPD2     N12506   4.617   0.665  15.138 -0.2621  0.0149  0.5059
  851MPD2    H512507   4.574   0.575  15.118 -1.3710  0.3928  1.2158
  851MPD2    N112508   4.188   0.817  15.299 -0.4359  0.9585 -0.3899
  851MPD2    H712509   4.138   0.902  15.323  0.9009  1.5824  0.1775
  852MPD2     C12510   4.610   4.100   9.286  0.1137 -0.8264 -0.2344
  852MPD2    C112511   4.571   4.102   9.421  0.2137  0.1493 -0.2795
  852MPD2    C212512   4.663   4.153   9.506 -0.2246 -0.1135  0.2609
  852MPD2    C312513   0.071   4.182   9.471 -0.3554 -0.3523  0.0411
  852MPD2    C412514   0.112   4.174   9.341 -0.6749  0.4558 -0.3097
  852MPD2    C512515   0.012   4.137   9.248 -0.2213  0.6347  0.7130
  852MPD2     H12516   4.627   4.169   9.607  3.3459 -3.7205  2.0741
  852MPD2    H112517   0.212   4.206   9.313  0.6485 -2.2027  1.3672
  852MPD2    H212518   4.550   4.060   9.205 -0.4477  1.8876 -1.1444
  852MPD2    H312519   0.033   4.154   9.143 -0.6091  1.6836  0.8011
  852MPD2     N12520   0.151   4.244   9.571 -0.5083  0.6590  0.0071
  852MPD2    H512521   0.109   4.238   9.663 -1.3597  0.7014 -0.3772
  852MPD2    N112522   4.448   4.046   9.474 -0.0145  0.2852 -0.5311
  852MPD2    H712523   4.439   4.038   9.575  0.1637 -1.2929 -0.6382
  853MPD2     C12524   1.391   3.699  12.195  0.2632 -0.0756 -0.5034
  853MPD2    C112525   1.257   3.724  12.186  0.0752  0.2780 -0.0879
  853MPD2    C212526   1.182   3.687  12.069 -0.3179  0.0927  0.0092
  853MPD2    C312527   1.252   3.631  11.963 -0.0881 -0.0221  0.2020
  853MPD2    C412528   1.385   3.609  11.979  1.4054  0.2933  0.4076
  853MPD2    C512529   1.456   3.635  12.093 -0.0850 -0.6405 -0.5870
  853MPD2     H12530   1.076   3.709  12.060 -0.0756  1.7644  1.2256
  853MPD2    H112531   1.443   3.574  11.894  1.3970  1.2084  0.0247
  853MPD2    H212532   1.448   3.711  12.286 -0.7836  3.4164 -0.2905
  853MPD2    H312533   1.563   3.615  12.095  0.0754  0.2447 -0.1122
  853MPD2     N12534   1.192   3.589  11.835  0.0239  0.5462  1.0415
  853MPD2    H512535   1.256   3.546  11.770  1.3335  2.5912  0.9658
  853MPD2    N112536   1.199   3.760  12.307 -0.5977 -0.7607  0.1879
  853MPD2    H712537   1.269   3.782  12.377 -0.0876 -1.0060 -0.2440
  854MPD2     C12538   2.670   3.300  12.555  0.4189  0.2744  0.1143
  854MPD2    C112539   2.740   3.409  12.511  0.1880  0.0803 -0.2526
  854MPD2    C212540   2.848   3.453  12.585  0.7695  0.5849  0.5212
  854MPD2    C312541   2.895   3.375  12.689  0.5846  0.4897  0.8082
  854MPD2    C412542   2.832   3.261  12.718  0.1508 -0.3849  0.2772
  854MPD2    C512543   2.720   3.229  12.655  0.3309  0.1727 -0.2077
  854MPD2     H12544   2.893   3.546  12.551  2.6996 -0.3302  0.6109
  854MPD2    H112545   2.874   3.195  12.793  0.9688 -2.8626 -2.3566
  854MPD2    H212546   2.587   3.263  12.496  0.5787  0.5836 -0.3083
  854MPD2    H312547   2.670   3.139  12.689  0.6002  0.0902 -0.0305
  854MPD2     N12548   3.023   3.397  12.747 -0.1790 -0.3114  0.1081
  854MPD2    H512549   3.053   3.327  12.814  0.9157 -0.6675 -0.7542
  854MPD2    N112550   2.667   3.486  12.414  0.2418 -0.1266 -0.0498
  854MPD2    H712551   2.578   3.447  12.388 -0.0883 -0.4489  1.6074
  855MPD2     C12552   3.610   2.989  13.441 -0.3233 -0.4572 -0.4042
  855MPD2    C112553   3.472   3.020  13.422 -0.0492 -0.4414 -0.5690
  855MPD2    C212554   3.428   3.097  13.319 -0.9493  0.5294  0.5579
  855MPD2    C312555   3.519   3.162  13.235 -0.7191  0.8614 -0.5187
  855MPD2    C412556   3.652   3.139  13.252  0.3953 -0.5939 -0.9067
  855MPD2    C512557   3.690   3.047  13.351 -0.3178 -0.3775  0.0293
  855MPD2     H12558   3.321   3.102  13.306 -0.8308  0.8978 -0.3264
  855MPD2    H112559   3.733   3.189  13.200 -0.2571  0.2328 -1.1335
  855MPD2    H212560   3.644   2.925  13.521  1.7123  2.1966  0.8584
  855MPD2    H312561   3.795   3.021  13.360 -0.4356 -0.8646 -0.0565
  855MPD2     N12562   3.491   3.244  13.125  0.4373 -0.1617  0.3065
  855MPD2    H512563   3.569   3.289  13.078  2.1716 -0.0084  3.3046
  855MPD2    N112564   3.382   2.949  13.508  0.6175  0.4458  0.3366
  855MPD2    H712565   3.421   2.898  13.587  2.9347  1.3817 -0.2049
  856MPD2     C12566   0.320   4.364  13.822 -0.8065  0.3603 -0.2431
  856MPD2    C112567   0.386   4.463  13.887 -0.1503 -0.3099 -0.5747
  856MPD2    C212568   0.331   4.589  13.892 -0.0673  0.0712  0.1878
  856MPD2    C312569   0.214   4.618  13.820 -0.8394 -0.2851 -0.8143
  856MPD2    C412570   0.149   4.519  13.752 -0.3148  0.5273 -0.7634
  856MPD2    C512571   0.198   4.390  13.762  0.1744  0.5329 -0.0585
  856MPD2     H12572   0.383   4.659  13.956  0.1909 -0.7169  0.8569
  856MPD2    H112573   0.057   4.536  13.698 -0.2730 -1.9048 -1.5867
  856MPD2    H212574   0.357   4.262  13.818 -2.4706 -0.3116  1.4400
  856MPD2    H312575   0.146   4.319  13.699 -1.2574  0.5541  1.0923
  856MPD2     N12576   0.157   0.029  13.816  0.4929  0.4707 -0.1776
  856MPD2    H512577   0.075   0.031  13.756 -1.4957 -0.1093  2.5083
  856MPD2    N112578   0.507   4.454  13.957  0.1632 -0.1943 -0.2593
  856MPD2    H712579   0.537   4.542  13.996 -0.9922 -0.2230  0.6876
  857MPD2     C12580   1.885   2.085  12.707  0.6165 -0.5915  0.6550
  857MPD2    C112581   2.015   2.044  12.708  0.8361 -0.0515  0.0950
  857MPD2    C212582   2.116   2.142  12.728  0.3160  0.4158  0.2201
  857MPD2    C312583   2.085   2.274  12.758  0.0847 -0.6771  0.2117
  857MPD2    C412584   1.951   2.308  12.754  0.1236 -0.1061  0.2835
  857MPD2    C512585   1.861   2.214  12.727 -0.2815  1.4741 -0.6310
  857MPD2     H12586   2.221   2.117  12.720  0.5218  1.3746 -0.0374
  857MPD2    H112587   1.916   2.410  12.768  0.8410  0.1113  0.5101
  857MPD2    H212588   1.810   2.013  12.676  2.2565 -1.0464 -2.2943
  857MPD2    H312589   1.760   2.248  12.712 -1.0155 -0.9152 -1.1010
  857MPD2     N12590   2.191   2.361  12.780 -0.0973 -0.2730 -0.1680
  857MPD2    H512591   2.282   2.316  12.779  0.6276  1.1430  1.6321
  857MPD2    N112592   2.042   1.909  12.670 -0.0178  0.1777  0.4350
  857MPD2    H712593   1.964   1.845  12.656 -0.1240 -0.2548  2.9654
  858MPD2     C12594   2.482   0.614  16.537 -0.7445 -0.4635 -0.3399
  858MPD2    C112595   2.599   0.661  16.485  0.0254 -0.1994 -0.2178
  858MPD2    C212596   2.615   0.805  16.481 -0.3348  0.5431  0.3868
  858MPD2    C312597   2.509   0.886  16.538  0.2868  0.1561 -1.1355
  858MPD2    C412598   2.391   0.829  16.585 -0.7164 -0.6364  0.3451
  858MPD2    C512599   2.378   0.697  16.585  0.7165  0.6121  0.4829
  858MPD2     H12600   2.698   0.849  16.428  0.2062 -0.4120  0.4505
  858MPD2    H112601   2.311   0.888  16.630  1.2332  2.5235 -0.3193
  858MPD2    H212602   2.467   0.507  16.527  1.5630 -0.7496 -0.7313
  858MPD2    H312603   2.289   0.651  16.625 -0.9558  1.2332 -2.5387
  858MPD2     N12604   2.514   1.027  16.544 -0.2185 -0.6015 -0.5255
  858MPD2    H512605   2.438   1.079  16.586 -0.8853  0.2767 -2.7957
  858MPD2    N112606   2.701   0.580  16.433 -0.3795 -0.2122  0.0807
  858MPD2    H712607   2.671   0.484  16.426  0.8852 -0.6801  1.2377
  859MPD2     C12608   1.542   2.457  15.445  0.1127  0.2419  0.1400
  859MPD2    C112609   1.475   2.484  15.327  0.8454 -0.0187  0.6495
  859MPD2    C212610   1.467   2.387  15.231 -0.5785  0.1878 -0.3575
  859MPD2    C312611   1.538   2.266  15.241  0.0686  0.4067  0.7259
  859MPD2    C412612   1.620   2.248  15.346 -0.4678  0.3456  0.2952
  859MPD2    C512613   1.608   2.336  15.452  0.7604  0.3006 -0.0948
  859MPD2     H12614   1.407   2.406  15.143  1.0432 -2.4089 -1.9991
  859MPD2    H112615   1.673   2.154  15.356 -0.3447  0.1841 -1.8644
  859MPD2    H212616   1.538   2.520  15.533 -0.8451 -1.6348  1.4373
  859MPD2    H312617   1.662   2.303  15.540 -0.8065 -1.4764  0.2071
  859MPD2     N12618   1.527   2.168  15.138  0.0946 -0.3835 -0.2561
  859MPD2    H512619   1.590   2.088  15.133  0.2671 -0.1656 -1.7509
  859MPD2    N112620   1.412   2.607  15.321  0.3263 -0.0087 -0.3098
  859MPD2    H712621   1.433   2.674  15.394 -1.9832 -1.5478  1.7553
  860MPD2     C12622   4.169   3.434  11.308 -0.2522 -0.1585  0.4630
  860MPD2    C112623   4.139   3.340  11.408  0.4647 -0.8879 -0.4500
  860MPD2    C212624   4.021   3.352  11.481  0.3549 -0.1418 -0.2413
  860MPD2    C312625   3.929   3.446  11.450 -0.1835  0.0713  0.2629
  860MPD2    C412626   3.947   3.517  11.329 -0.0331 -0.4583 -0.1779
  860MPD2    C512627   4.076   3.524  11.271  0.0950  0.3839  0.4005
  860MPD2     H12628   4.012   3.289  11.568 -0.5348 -1.8277 -1.5636
  860MPD2    H112629   3.874   3.592  11.301  0.8597  0.4244 -0.1179
  860MPD2    H212630   4.265   3.427  11.259 -0.9748 -1.4814 -0.7437
  860MPD2    H312631   4.077   3.592  11.186 -0.6143  1.3511  1.1576
  860MPD2     N12632   3.821   3.455  11.534  1.1462 -0.0344 -0.4556
  860MPD2    H512633   3.835   3.418  11.628 -1.9648 -0.1965 -0.0638
  860MPD2    N112634   4.231   3.247  11.457  0.3352 -0.0888 -0.3929
  860MPD2    H712635   4.193   3.188  11.530  0.6817  0.3964  0.1788
  861MPD2     C12636   3.175   1.866  11.042 -0.1374  0.1256  0.1497
  861MPD2    C112637   3.076   1.902  11.132 -0.6442 -0.3077  0.2590
  861MPD2    C212638   2.970   1.967  11.073 -0.2689  0.4478  0.1400
  861MPD2    C312639   2.967   1.999  10.935 -0.2445 -0.5211  0.2135
  861MPD2    C412640   3.061   1.952  10.854 -0.7448 -0.4020 -0.1063
  861MPD2    C512641   3.164   1.883  10.906  0.0010 -0.6573 -0.3358
  861MPD2     H12642   2.895   2.001  11.144  0.6111  2.1029  0.2860
  861MPD2    H112643   3.073   1.977  10.749  0.0224 -1.2439 -0.2204
  861MPD2    H212644   3.272   1.831  11.075  0.1364 -0.6072 -1.4357
  861MPD2    H312645   3.245   1.860  10.837 -0.1423 -0.3465 -0.6089
  861MPD2     N12646   2.863   2.071  10.881  0.8424  0.0925 -0.1591
  861MPD2    H512647   2.868   2.091  10.781  1.8386  0.2336 -0.0795
  861MPD2    N112648   3.092   1.874  11.267 -0.0307  0.4084 -0.2977
  861MPD2    H712649   3.184   1.835  11.290 -1.0608 -0.7852  1.8008
  862MPD2     C12650   2.203   2.263  10.426 -0.0479  0.6416  0.9612
  862MPD2    C112651   2.330   2.222  10.466  0.3470  0.0417 -0.2744
  862MPD2    C212652   2.367   2.092  10.428 -0.0872  0.9537 -0.7314
  862MPD2    C312653   2.284   2.010  10.350 -0.3271  0.1391  0.0508
  862MPD2    C412654   2.162   2.059  10.311 -0.0713 -0.4823  0.6385
  862MPD2    C512655   2.117   2.193  10.347  0.4037  0.3482 -0.3109
  862MPD2     H12656   2.467   2.057  10.450 -0.7871 -0.9012 -0.5252
  862MPD2    H112657   2.094   1.994  10.257 -0.1159  0.4560 -0.4385
  862MPD2    H212658   2.163   2.353  10.471  1.2215  1.0828  1.2125
  862MPD2    H312659   2.022   2.232  10.315  0.9623  0.9261 -1.2791
  862MPD2     N12660   2.310   1.872  10.318 -0.4274 -0.6690 -0.2449
  862MPD2    H512661   2.237   1.818  10.273 -2.3324 -1.3352  3.6726
  862MPD2    N112662   2.405   2.298  10.558 -0.2611  0.6709  0.0884
  862MPD2    H712663   2.355   2.353  10.628  0.0954 -0.4715  1.2319
  863MPD2     C12664   1.010   4.395  16.454  0.9517 -0.1186 -0.0084
  863MPD2    C112665   0.977   4.461  16.567 -0.1097 -0.0465 -0.2480
  863MPD2    C212666   1.077   4.469  16.663  0.2359 -0.0461  1.0907
  863MPD2    C312667   1.201   4.410  16.651 -0.5218 -1.2506 -0.5474
  863MPD2    C412668   1.223   4.336  16.544 -0.7169 -0.1577  0.4320
  863MPD2    C512669   1.134   4.331  16.442  1.1055  0.1215  0.0703
  863MPD2     H12670   1.053   4.520  16.755  0.9274 -1.9527  2.3305
  863MPD2    H112671   1.317   4.285  16.529 -0.7011  0.2835 -0.9473
  863MPD2    H212672   0.932   4.392  16.380  1.8749 -1.4174 -0.9300
  863MPD2    H312673   1.163   4.265  16.362 -1.2473  1.3143 -1.7577
  863MPD2     N12674   1.299   4.410  16.743  0.7215  0.1738  0.4407
  863MPD2    H512675   1.389   4.367  16.722  0.2157 -1.5993  1.9863
  863MPD2    N112676   0.843   4.518  16.575 -0.5624 -0.0708 -0.1637
  863MPD2    H712677   0.771   4.498  16.506 -0.7208 -1.2065  0.3356
  864MPD2     C12678   1.309   1.392  17.192  0.0613 -0.1232  0.3246
  864MPD2    C112679   1.340   1.294  17.098 -0.6120 -0.0741  0.1202
  864MPD2    C212680   1.413   1.324  16.980 -0.5135  0.3971 -0.0987
  864MPD2    C312681   1.442   1.456  16.952 -0.3382  0.5280  0.6964
  864MPD2    C412682   1.397   1.548  17.040 -0.2440 -0.2644  0.1669
  864MPD2    C512683   1.328   1.521  17.153  0.2655  0.6511  0.3157
  864MPD2     H12684   1.447   1.244  16.915 -0.2734  0.5075 -0.1069
  864MPD2    H112685   1.422   1.652  17.018 -0.9565 -0.3965 -1.2857
  864MPD2    H212686   1.250   1.387  17.283 -0.0789  0.5451  0.2696
  864MPD2    H312687   1.317   1.599  17.227 -1.0785  1.1222 -0.3946
  864MPD2     N12688   1.527   1.494  16.847  0.0747  0.2691 -0.2879
  864MPD2    H512689   1.532   1.589  16.813 -2.5361  0.7023  0.6159
  864MPD2    N112690   1.315   1.162  17.125  0.6920  0.1644 -0.0734
  864MPD2    H712691   1.310   1.147  17.225  1.2548 -1.2564 -0.2534
  865MPD2     C12692   1.574   1.348  15.885 -0.8915 -0.0866 -0.0712
  865MPD2    C112693   1.540   1.288  16.000 -0.5477 -0.1365  0.2014
  865MPD2    C212694   1.529   1.365  16.112 -0.0533  0.0070 -0.1986
  865MPD2    C312695   1.575   1.498  16.112  0.4743 -0.2308  0.2835
  865MPD2    C412696   1.626   1.551  15.991 -0.3718 -0.4548 -0.7714
  865MPD2    C512697   1.616   1.479  15.878 -0.2152  0.0322  0.5764
  865MPD2     H12698   1.501   1.320  16.206 -1.6816  0.7385 -0.3247
  865MPD2    H112699   1.655   1.654  15.977 -0.4922 -0.2359  0.6258
  865MPD2    H212700   1.584   1.281  15.800  0.4771  0.3037 -0.2144
  865MPD2    H312701   1.652   1.519  15.784 -1.4567  0.3563  0.2262
  865MPD2     N12702   1.596   1.563  16.235 -0.4871  0.4084 -0.6256
  865MPD2    H512703   1.664   1.637  16.221 -1.7113  1.3918 -1.4069
  865MPD2    N112704   1.525   1.145  16.000  0.5910 -0.2802 -0.1301
  865MPD2    H712705   1.531   1.108  15.906  0.1940  0.2381 -0.3574
  866MPD2     C12706   3.488   1.879  11.504 -0.4359  0.2178 -0.4511
  866MPD2    C112707   3.468   1.914  11.375 -0.4847 -0.1106  0.4463
  866MPD2    C212708   3.380   2.019  11.349  0.6591 -0.3145  0.2964
  866MPD2    C312709   3.311   2.084  11.446 -0.6977 -0.2784  0.1173
  866MPD2    C412710   3.327   2.039  11.577  0.0019 -0.3505  0.4548
  866MPD2    C512711   3.414   1.940  11.601 -0.6134 -0.4434  0.9110
  866MPD2     H12712   3.361   2.049  11.246 -2.1789 -1.0135  0.6137
  866MPD2    H112713   3.267   2.078  11.659 -2.6309 -1.1432 -1.0906
  866MPD2    H212714   3.532   1.784  11.535 -2.0903 -0.3917 -0.0085
  866MPD2    H312715   3.419   1.899  11.702  3.4194 -0.8396  0.5632
  866MPD2     N12716   3.208   2.176  11.415 -0.2325  0.2420 -0.0680
  866MPD2    H512717   3.153   2.205  11.495  0.4134  0.3119  0.3489
  866MPD2    N112718   3.535   1.831  11.278 -0.5447  0.0520 -0.2483
  866MPD2    H712719   3.599   1.757  11.307  0.6500  1.5907  1.0446
  867MPD2     C12720   0.216   1.070  16.403 -0.3850  0.0984 -0.2264
  867MPD2    C112721   0.277   1.094  16.527 -0.8891  0.4736  0.2152
  867MPD2    C212722   0.274   1.223  16.584  0.4386  0.0834  1.2760
  867MPD2    C312723   0.217   1.321  16.511 -0.1321  0.3266 -0.7528
  867MPD2    C412724   0.176   1.299  16.383  0.1575  0.0203 -0.1794
  867MPD2    C512725   0.163   1.174  16.330  0.4184  0.2314  0.2786
  867MPD2     H12726   0.330   1.257  16.671  1.1583  1.4532  0.2824
  867MPD2    H112727   0.123   1.372  16.322 -0.8027  0.2053  0.8745
  867MPD2    H212728   0.199   0.965  16.380  0.4661 -0.1333  0.1978
  867MPD2    H312729   0.106   1.160  16.239  1.2884 -3.6062  0.3146
  867MPD2     N12730   0.203   1.456  16.553  1.0160 -0.3210 -0.5940
  867MPD2    H512731   0.169   1.523  16.484  1.2684  0.9184  0.4905
  867MPD2    N112732   0.351   0.988  16.579 -0.1020 -0.2327  0.1187
  867MPD2    H712733   0.351   0.900  16.529 -0.3219 -1.1786  1.7717
  868MPD2     C12734   2.435   4.137  13.114 -0.2403  0.1446 -0.5923
  868MPD2    C112735   2.410   4.221  13.006  0.0841  0.7301 -0.0285
  868MPD2    C212736   2.282   4.277  13.005  0.1846  0.5451  0.0551
  868MPD2    C312737   2.188   4.255  13.108  0.1135 -0.0884 -0.4452
  868MPD2    C412738   2.227   4.170  13.212  0.4515  0.5228 -0.0502
  868MPD2    C512739   2.355   4.118  13.221  0.6364  0.1414 -0.1495
  868MPD2     H12740   2.249   4.337  12.921  2.0254  0.1078 -0.9594
  868MPD2    H112741   2.157   4.151  13.293 -0.9122 -0.3718 -1.4298
  868MPD2    H212742   2.540   4.112  13.128 -0.1478 -0.3263 -2.1298
  868MPD2    H312743   2.388   4.076  13.315 -0.9697 -0.0430  0.3312
  868MPD2     N12744   2.062   4.319  13.103 -0.8078 -0.2029 -0.0724
  868MPD2    H512745   2.052   4.381  13.023  1.6885 -1.2120 -1.1610
  868MPD2    N112746   2.496   4.222  12.897  0.7249  0.5423 -0.1258
  868MPD2    H712747   2.585   4.174  12.907  0.5887  0.5940  1.2105
  869MPD2     C12748   2.617   3.739   1.838  0.3557 -0.5459 -0.2918
  869MPD2    C112749   2.592   3.635   1.752  0.5054  0.7325 -0.1068
  869MPD2    C212750   2.637   3.650   1.617  0.1448  0.3135 -0.1932
  869MPD2    C312751   2.699   3.773   1.582  0.1125  0.6979  0.0502
  869MPD2    C412752   2.695   3.883   1.669  0.1580 -0.7542 -0.2266
  869MPD2    C512753   2.665   3.862   1.798 -0.2999  0.4311  0.1859
  869MPD2     H12754   2.645   3.560   1.556 -1.8025  0.2842 -0.3965
  869MPD2    H112755   2.735   3.981   1.641  0.8393 -1.2964 -1.1472
  869MPD2    H212756   2.579   3.725   1.939 -0.0063  1.8845 -0.1035
  869MPD2    H312757   2.679   3.943   1.869  0.5567 -0.3980  0.9674
  869MPD2     N12758   2.763   3.795   1.456  0.6227 -0.0298 -0.0213
  869MPD2    H512759   2.809   3.884   1.438 -1.3263  1.2771  1.5093
  869MPD2    N112760   2.542   3.513   1.809 -0.0428  0.2179  0.3041
  869MPD2    H712761   2.543   3.511   1.911 -0.0230 -0.2662  0.2947
  870MPD2     C12762   2.133   2.436   1.355  0.0396 -0.7771  0.0533
  870MPD2    C112763   2.250   2.368   1.348 -0.0843  0.0530 -1.3634
  870MPD2    C212764   2.294   2.332   1.223 -0.0223 -0.0055  0.2455
  870MPD2    C312765   2.237   2.363   1.103  0.5286 -0.5581  0.0478
  870MPD2    C412766   2.107   2.413   1.120  0.5013  0.5883  0.8847
  870MPD2    C512767   2.062   2.454   1.244 -0.1024 -0.5582 -0.3214
  870MPD2     H12768   2.398   2.304   1.218  0.3410  1.1536  1.2866
  870MPD2    H112769   2.064   2.455   1.029  1.5911 -0.1481  0.0274
  870MPD2    H212770   2.097   2.485   1.445 -0.3992 -0.9254 -0.0417
  870MPD2    H312771   1.966   2.505   1.253  1.0276  2.0557 -2.9861
  870MPD2     N12772   2.306   2.346   0.981 -0.4183  0.1997 -0.3758
  870MPD2    H512773   2.392   2.293   0.985 -0.7094 -0.2954 -0.5944
  870MPD2    N112774   2.333   2.366   1.467 -0.3107 -0.1229 -0.7092
  870MPD2    H712775   2.303   2.415   1.551  0.8694 -1.0376  0.2463
  871MPD2     C12776   4.200   1.465  16.413  0.8309  0.1778 -0.6369
  871MPD2    C112777   4.183   1.446  16.546  0.0006  0.4386  0.5956
  871MPD2    C212778   4.152   1.321  16.592 -0.0604  0.8463  0.5935
  871MPD2    C312779   4.124   1.218  16.508  0.1369  0.2967  0.1494
  871MPD2    C412780   4.141   1.244  16.375 -0.0168  0.5007 -0.3153
  871MPD2    C512781   4.183   1.360  16.321  0.3837  0.4719 -0.7352
  871MPD2     H12782   4.138   1.294  16.696  1.2377 -1.2316  0.2129
  871MPD2    H112783   4.126   1.166  16.301  0.2262 -0.9920  1.2269
  871MPD2    H212784   4.231   1.562  16.375  1.4989  0.4262  0.5484
  871MPD2    H312785   4.197   1.390  16.217 -3.2138 -0.8392 -1.6167
  871MPD2     N12786   4.091   1.094  16.562  0.0507 -0.4416 -0.0162
  871MPD2    H512787   4.084   1.080  16.662  1.7458 -2.6828 -0.2161
  871MPD2    N112788   4.200   1.556  16.625 -0.3198 -0.4309 -0.5049
  871MPD2    H712789   4.206   1.640  16.568 -1.7099  1.4104  2.0441
  872MPD2     C12790   0.196   3.472  13.655  0.0331  0.2573 -0.1973
  872MPD2    C112791   0.193   3.612  13.668  0.0370  0.0274 -0.0903
  872MPD2    C212792   0.093   3.666  13.740  0.3343 -0.2730  0.3781
  872MPD2    C312793   0.004   3.582  13.807  0.3446 -0.3557 -0.1922
  872MPD2    C412794   0.020   3.444  13.811  0.3672 -0.1060  0.8631
  872MPD2    C512795   0.116   3.386  13.731  0.7577  0.0054  0.1083
  872MPD2     H12796   0.077   3.773  13.744  0.8046 -0.2002  0.3825
  872MPD2    H112797   4.680   3.381  13.872  0.9593  1.2631  2.8793
  872MPD2    H212798   0.275   3.435  13.590  1.1907 -0.0896  1.4134
  872MPD2    H312799   0.132   3.279  13.735 -0.3926 -0.1160  1.6623
  872MPD2     N12800   4.611   3.625  13.877 -0.5813 -0.4809 -0.4567
  872MPD2    H512801   4.549   3.553  13.914 -0.7191  1.2091  2.6687
  872MPD2    N112802   0.288   3.707  13.622  0.0281  0.6025 -0.7656
  872MPD2    H712803   0.272   3.801  13.658 -1.7654  0.7445 -1.9212
  873MPD2     C12804   2.551   4.115   1.155 -0.4661 -0.3957  0.1232
  873MPD2    C112805   2.407   4.116   1.157 -0.3959  0.9434  0.2132
  873MPD2    C212806   2.331   4.014   1.112 -0.4294 -0.2374  0.6522
  873MPD2    C312807   2.386   3.885   1.098 -0.5667 -0.1154 -0.4140
  873MPD2    C412808   2.528   3.880   1.107  0.9434 -0.2304  0.1181
  873MPD2    C512809   2.609   3.994   1.120  0.0902 -0.6010  0.7972
  873MPD2     H12810   2.223   4.016   1.116 -0.3190  0.8402  2.7443
  873MPD2    H112811   2.583   3.788   1.096  1.2720 -0.2662  2.0777
  873MPD2    H212812   2.599   4.205   1.191 -0.6420 -0.9475  1.7566
  873MPD2    H312813   2.717   3.990   1.133  0.2707  1.3313 -0.0767
  873MPD2     N12814   2.317   3.776   1.060  0.2642  0.4493  0.4417
  873MPD2    H512815   2.371   3.697   1.027 -0.8513  0.2080 -0.7811
  873MPD2    N112816   2.352   4.241   1.200 -0.2080 -0.3766 -0.0151
  873MPD2    H712817   2.417   4.300   1.251 -2.6843  1.9797  0.3813
  874MPD2     C12818   1.644   4.019  16.043  0.3084 -0.6518 -0.3730
  874MPD2    C112819   1.683   3.978  16.166 -0.2384  0.1847  0.2791
  874MPD2    C212820   1.801   4.033  16.214  0.1924  0.5715  0.3265
  874MPD2    C312821   1.867   4.141  16.152 -0.1397  0.1070  0.1968
  874MPD2    C412822   1.825   4.182  16.035  0.4909 -0.9804  0.7549
  874MPD2    C512823   1.711   4.127  15.985  0.2035 -0.0731 -0.5358
  874MPD2     H12824   1.839   4.001  16.310 -1.3805 -1.8050  0.1318
  874MPD2    H112825   1.855   4.277  15.993 -0.9274 -1.2465 -0.8920
  874MPD2    H212826   1.564   3.982  15.980 -0.0760 -0.9096  0.2784
  874MPD2    H312827   1.671   4.165  15.892  0.8871 -0.8043 -1.1342
  874MPD2     N12828   1.978   4.200  16.218  0.2344 -0.0738  0.3265
  874MPD2    H512829   2.009   4.151  16.302  1.3370  1.5657  0.8690
  874MPD2    N112830   1.601   3.878  16.226 -0.1581  0.2751  0.0279
  874MPD2    H712831   1.523   3.839  16.174 -1.2823  0.3794  1.6534
  875MPD2     C12832   2.785   1.894  14.521  0.3592  0.0343  0.2311
  875MPD2    C112833   2.660   1.864  14.564 -0.3193  0.1037  0.2280
  875MPD2    C212834   2.629   1.900  14.692 -0.5880  0.3093  0.2884
  875MPD2    C312835   2.721   1.957  14.780  0.2269 -0.8004 -0.6260
  875MPD2    C412836   2.844   1.987  14.736  0.0413  0.3646  0.2718
  875MPD2    C512837   2.884   1.945  14.605 -0.1426 -0.1119 -0.5537
  875MPD2     H12838   2.524   1.895  14.716  0.3241  1.9884  4.5601
  875MPD2    H112839   2.924   2.019  14.802 -0.6730  0.1093  1.2646
  875MPD2    H212840   2.832   1.853  14.432 -0.1075  1.2400 -0.5808
  875MPD2    H312841   2.974   1.988  14.562 -0.1043  1.6290  1.2861
  875MPD2     N12842   2.680   2.004  14.907  0.3220  0.6563  0.6211
  875MPD2    H512843   2.737   2.076  14.948  0.4832  0.6773  0.3559
  875MPD2    N112844   2.561   1.814  14.479  0.1129  0.1741 -0.2121
  875MPD2    H712845   2.473   1.798  14.525  0.0059  1.0822 -0.1065
  876MPD2     C12846   1.704   3.593  15.954  0.6768  0.2568 -0.1557
  876MPD2    C112847   1.798   3.540  15.868  0.5090  0.1368  0.3147
  876MPD2    C212848   1.874   3.439  15.919 -0.1655  0.0417 -0.2380
  876MPD2    C312849   1.837   3.371  16.040 -0.1597  0.3800  0.5056
  876MPD2    C412850   1.743   3.429  16.124  0.4237 -0.5887  0.2261
  876MPD2    C512851   1.684   3.543  16.081 -0.8036 -0.1315  0.4921
  876MPD2     H12852   1.949   3.390  15.858 -0.6613  3.3902 -3.4966
  876MPD2    H112853   1.723   3.387  16.222 -1.8639  0.7567  0.3238
  876MPD2    H212854   1.644   3.674  15.916  1.8097  1.3648  0.3992
  876MPD2    H312855   1.603   3.581  16.143 -0.5103  0.6836  0.3718
  876MPD2     N12856   1.914   3.256  16.078  0.3490  0.3073 -0.3964
  876MPD2    H512857   1.977   3.217  16.009  1.7050 -1.2043  1.6952
  876MPD2    N112858   1.804   3.590  15.739  0.0170 -0.3416 -1.1226
  876MPD2    H712859   1.718   3.629  15.703  0.1452  0.0636 -0.9825
  877MPD2     C12860   2.282   3.892  15.044  0.7318  0.0220  0.5168
  877MPD2    C112861   2.153   3.876  15.022  0.1674  0.2180  0.3675
  877MPD2    C212862   2.093   3.910  14.906 -0.3542 -0.4592 -0.2705
  877MPD2    C312863   2.168   3.960  14.803  0.7095  0.2082 -0.9912
  877MPD2    C412864   2.302   3.970  14.817  0.2205 -0.3976 -0.0664
  877MPD2    C512865   2.361   3.933  14.933  0.4693 -0.3614 -0.3326
  877MPD2     H12866   1.985   3.896  14.909 -0.4694  0.1775 -1.3494
  877MPD2    H112867   2.355   3.997  14.726 -1.7560  2.0578 -0.5065
  877MPD2    H212868   2.322   3.863  15.141  0.8225 -0.6393  0.2800
  877MPD2    H312869   2.469   3.940  14.940  0.4716  0.2131 -0.9366
  877MPD2     N12870   2.115   4.001  14.676  0.0859 -0.7159 -0.8802
  877MPD2    H512871   2.184   4.020  14.604  0.3167  2.9668  0.3261
  877MPD2    N112872   2.064   3.822  15.127  0.0819 -0.1175  0.3018
  877MPD2    H712873   1.964   3.816  15.117  0.2226 -0.6450 -0.8097
  878MPD2     C12874   1.390   2.935  13.093 -0.6523  0.4841 -0.4272
  878MPD2    C112875   1.514   2.999  13.097 -0.1264 -0.4920 -0.1230
  878MPD2    C212876   1.537   3.081  13.202  0.5061 -0.5063  0.1063
  878MPD2    C312877   1.436   3.111  13.293  0.5409  0.2831  0.6798
  878MPD2    C412878   1.318   3.043  13.283 -0.7810  0.2314  0.0431
  878MPD2    C512879   1.292   2.966  13.179 -0.2847  0.1197 -0.7276
  878MPD2     H12880   1.627   3.141  13.212  0.5575 -0.5251 -0.2579
  878MPD2    H112881   1.242   3.038  13.361 -0.8591 -0.8644 -0.1155
  878MPD2    H212882   1.372   2.880  13.001  0.9010  0.4452 -0.7023
  878MPD2    H312883   1.193   2.923  13.172 -0.0135 -0.6086  0.0740
  878MPD2     N12884   1.452   3.210  13.397  0.5988  0.2283 -0.1801
  878MPD2    H512885   1.545   3.250  13.409  0.5059  0.3955 -0.0114
  878MPD2    N112886   1.601   2.978  12.988  0.1449  0.0466  0.3710
  878MPD2    H712887   1.574   2.903  12.925  2.4554 -1.6509  1.4107
  879MPD2     C12888   2.388   4.240  16.855  0.8935 -0.2682 -0.3478
  879MPD2    C112889   2.333   4.237  16.978 -0.4020 -0.1587 -0.3488
  879MPD2    C212890   2.200   4.189  16.981  0.7911  0.1897  0.1484
  879MPD2    C312891   2.130   4.150  16.873 -0.5328 -0.4972 -0.4815
  879MPD2    C412892   2.187   4.158  16.752 -0.0432  0.3250  0.3005
  879MPD2    C512893   2.314   4.207  16.745 -0.1578 -0.1247 -0.0210
  879MPD2     H12894   2.145   4.187  17.074  0.8795 -2.0752  0.1550
  879MPD2    H112895   2.135   4.139  16.659 -0.5945 -0.0892  0.6983
  879MPD2    H212896   2.493   4.263  16.846  1.5045 -3.2983 -0.8418
  879MPD2    H312897   2.357   4.219  16.646  1.3453  0.7756  0.7505
  879MPD2     N12898   1.992   4.104  16.881 -0.1149 -0.0851 -0.2200
  879MPD2    H512899   1.952   4.076  16.792  1.3994 -1.4131 -0.4697
  879MPD2    N112900   2.403   4.291  17.086 -0.5692 -0.3040 -0.5069
  879MPD2    H712901   2.492   4.336  17.071 -0.4703 -1.4450 -3.2257
  880MPD2     C12902   3.534   1.988   0.169  0.5612  0.2648  0.6184
  880MPD2    C112903   3.554   1.986   0.300 -0.0523  0.5873 -0.0867
  880MPD2    C212904   3.561   1.859   0.356  0.1718  0.2090 -0.1574
  880MPD2    C312905   3.538   1.748   0.279  0.0561  0.0301 -1.0347
  880MPD2    C412906   3.509   1.762   0.149 -0.2634  0.3024 -0.0921
  880MPD2    C512907   3.514   1.878   0.090 -0.6564  0.2203 -1.1207
  880MPD2     H12908   3.593   1.855   0.460  1.5059 -0.3786 -0.6011
  880MPD2    H112909   3.503   1.676   0.082 -1.0162 -0.8336  1.4262
  880MPD2    H212910   3.530   2.077   0.107 -0.7152  0.2771  0.7193
  880MPD2    H312911   3.498   1.886  17.675 -2.4008  2.3251 -0.7103
  880MPD2     N12912   3.559   1.616   0.338 -0.1083 -0.4430  0.5985
  880MPD2    H512913   3.595   1.621   0.433 -1.0076  0.4456  0.8980
  880MPD2    N112914   3.566   2.104   0.379 -0.3568  0.1361  0.0744
  880MPD2    H712915   3.559   2.189   0.324  0.6368  0.5506  0.5959
  881MPD2     C12916   3.281   2.735  17.601  0.1789 -0.1102  0.1940
  881MPD2    C112917   3.321   2.598  17.615  0.6349  0.7407 -0.5285
  881MPD2    C212918   3.378   2.558   0.046  0.1707  0.0935  0.0782
  881MPD2    C312919   3.348   2.627   0.164  0.2505  0.3046 -0.7219
  881MPD2    C412920   3.296   2.757   0.151 -0.3312  0.0641  0.3461
  881MPD2    C512921   3.259   2.804   0.024  0.4087  0.1847  0.0742
  881MPD2     H12922   3.448   2.475   0.042 -0.1967 -0.1411 -1.8526
  881MPD2    H112923   3.274   2.820   0.236  0.1353  1.9333 -0.9279
  881MPD2    H212924   3.234   2.770  17.510  0.8688 -0.6657 -0.3814
  881MPD2    H312925   3.203   2.895   0.010  1.7064  0.9865  0.0659
  881MPD2     N12926   3.375   2.579   0.293 -0.4968 -0.4327  0.3955
  881MPD2    H512927   3.368   2.650   0.366  1.2698 -0.1201  0.2585
  881MPD2    N112928   3.341   2.534  17.491 -0.2541 -0.1689 -0.6758
  881MPD2    H712929   3.325   2.580  17.402  0.4246  0.1932 -0.6164
  882MPD2     C12930   1.597   3.896  13.938 -0.4529 -0.8457 -0.3449
  882MPD2    C112931   1.575   3.919  14.072  0.9266 -0.0148  0.5649
  882MPD2    C212932   1.451   3.889  14.130  0.2626  0.4666 -0.0844
  882MPD2    C312933   1.352   3.838  14.047  0.3526 -0.4311  0.0507
  882MPD2    C412934   1.385   3.800  13.912 -0.7594 -0.1922 -0.3975
  882MPD2    C512935   1.508   3.828  13.862 -0.3196 -0.6629 -0.2897
  882MPD2     H12936   1.434   3.920  14.232 -1.8679  2.7228 -1.1195
  882MPD2    H112937   1.305   3.766  13.848 -1.3463  1.0953 -0.3331
  882MPD2    H212938   1.692   3.916  13.889 -0.0070 -1.5262  0.2355
  882MPD2    H312939   1.534   3.797  13.762  1.1576 -1.3823  0.3202
  882MPD2     N12940   1.219   3.810  14.091  0.1619  1.0177 -0.1169
  882MPD2    H512941   1.159   3.766  14.022 -0.1257  1.4871 -0.1625
  882MPD2    N112942   1.681   3.964  14.144 -0.2043  0.0886  0.3337
  882MPD2    H712943   1.771   3.966  14.097 -0.8154 -0.7246 -0.8738
  883MPD2     C12944   3.542   3.238  15.984  0.0705 -0.3928 -0.1262
  883MPD2    C112945   3.577   3.287  15.863  0.4990 -0.3577 -0.8878
  883MPD2    C212946   3.658   3.401  15.859 -0.1320 -0.3232  0.0748
  883MPD2    C312947   3.724   3.449  15.970 -0.3030  0.2371 -0.0396
  883MPD2    C412948   3.682   3.400  16.094 -0.1221 -1.0406 -0.0406
  883MPD2    C512949   3.592   3.295  16.098 -0.3688  0.3225 -0.6445
  883MPD2     H12950   3.668   3.437  15.757  0.2860  0.9754  0.5781
  883MPD2    H112951   3.701   3.457  16.184  1.1004 -1.9415  0.2783
  883MPD2    H212952   3.475   3.155  16.001  0.6165 -0.5421  1.2661
  883MPD2    H312953   3.565   3.258  16.196 -0.7851  0.4535 -0.7109
  883MPD2     N12954   3.834   3.540  15.951 -0.2421 -0.1905 -0.0771
  883MPD2    H512955   3.853   3.562  15.854 -1.2319  0.9495 -0.0086
  883MPD2    N112956   3.530   3.230  15.742 -0.1707  0.1694  0.2321
  883MPD2    H712957   3.578   3.252  15.656 -1.2209  0.1191 -0.3607
  884MPD2     C12958   0.765   4.143  15.305  0.6459  0.3829 -0.9002
  884MPD2    C112959   0.780   4.255  15.233 -0.2706 -0.9939 -0.7536
  884MPD2    C212960   0.673   4.345  15.222 -0.6181 -0.8889 -0.0652
  884MPD2    C312961   0.558   4.325  15.287  0.3641 -0.1799  0.7147
  884MPD2    C412962   0.540   4.209  15.369  0.2350  0.0021  0.0517
  884MPD2    C512963   0.646   4.120  15.374  0.1776  0.4472  0.9921
  884MPD2     H12964   0.693   4.434  15.162 -2.2430  1.5250  2.9542
  884MPD2    H112965   0.460   4.191  15.439  0.5529  0.7624  0.6117
  884MPD2    H212966   0.841   4.070  15.331 -0.0110 -0.8709 -2.4912
  884MPD2    H312967   0.642   4.045  15.452  1.4375  0.0517  0.6730
  884MPD2     N12968   0.462   4.431  15.284  0.5149  0.2738 -0.0055
  884MPD2    H512969   0.476   4.504  15.214  2.5220 -0.1873 -0.0867
  884MPD2    N112970   0.888   4.280  15.148 -0.2878  0.5010 -0.8531
  884MPD2    H712971   0.887   4.365  15.093  1.1886  1.1348  0.0982
  885MPD2     C12972   3.417   0.029   0.226  0.2947 -0.0266 -0.1665
  885MPD2    C112973   3.547   0.001   0.203 -0.5790 -0.0055  0.1345
  885MPD2    C212974   3.603   0.023   0.078  0.4937 -0.5444  0.3889
  885MPD2    C312975   3.534   0.088  17.670  0.0904  0.0004 -0.3807
  885MPD2    C412976   3.404   0.124   0.005  0.1690 -0.5362  0.3247
  885MPD2    C512977   3.347   0.094   0.125 -0.5517 -0.0224  0.1038
  885MPD2     H12978   3.707   4.720   0.058  1.0171  0.5057  1.7510
  885MPD2    H112979   3.331   0.171  17.631 -0.3012 -1.5722  0.1014
  885MPD2    H212980   3.369   4.719   0.318 -1.5213  0.7798 -0.8257
  885MPD2    H312981   3.243   0.123   0.136  0.1166  1.1501  3.2547
  885MPD2     N12982   3.598   0.134  17.551  0.4175 -0.3414  0.3550
  885MPD2    H512983   3.696   0.109  17.553 -0.0231 -2.1606  0.0317
  885MPD2    N112984   3.621   4.668   0.315  0.5937  1.0224 -0.3553
  885MPD2    H712985   3.568   4.641   0.398  0.2612 -0.6149 -1.0981
  886MPD2     C12986   0.402   3.471  15.624  0.0565  0.7124  0.4507
  886MPD2    C112987   0.506   3.420  15.545 -0.1055 -0.1715 -0.5533
  886MPD2    C212988   0.511   3.458  15.415 -0.8081  0.0836  0.3900
  886MPD2    C312989   0.413   3.525  15.348 -0.6641  0.1294  0.1218
  886MPD2    C412990   0.302   3.562  15.423  0.3241  0.8257  0.1449
  886MPD2    C512991   0.306   3.543  15.563 -0.4527 -0.2361  0.2150
  886MPD2     H12992   0.598   3.429  15.356 -2.1577 -1.3663 -0.8954
  886MPD2    H112993   0.212   3.609  15.386 -1.3986 -1.3150  1.6263
  886MPD2    H212994   0.411   3.470  15.732 -2.8114  2.0281  0.6830
  886MPD2    H312995   0.229   3.587  15.625 -0.9570 -0.8988  0.0635
  886MPD2     N12996   0.433   3.553  15.213  0.1855  0.1943 -0.6511
  886MPD2    H512997   0.524   3.522  15.180  0.1146 -0.6086 -0.0930
  886MPD2    N112998   0.608   3.333  15.593  0.0055 -0.1709 -0.1305
  886MPD2    H712999   0.665   3.293  15.520 -1.7970  0.8970 -2.1063
  887MPD2     C13000   1.096   3.383  15.221  0.0928 -0.2234 -0.3446
  887MPD2    C113001   1.079   3.426  15.353  0.2781 -0.3642  0.1224
  887MPD2    C213002   1.127   3.553  15.388  0.5470  0.3678 -0.7162
  887MPD2    C313003   1.200   3.632  15.298  0.1298  0.1320 -0.1146
  887MPD2    C413004   1.221   3.591  15.166 -0.0144 -0.6963  0.2673
  887MPD2    C513005   1.168   3.466  15.131 -0.1670  0.6893 -0.0645
  887MPD2     H13006   1.104   3.598  15.483 -0.2436 -0.5532 -0.4738
  887MPD2    H113007   1.291   3.645  15.102  1.1110  1.0117  2.9500
  887MPD2    H213008   1.055   3.292  15.181  4.1232 -1.4311 -1.7218
  887MPD2    H313009   1.182   3.428  15.030  0.0800 -2.5130  1.1836
  887MPD2     N13010   1.273   3.740  15.351 -0.1974 -0.0507 -0.0308
  887MPD2    H513011   1.243   3.765  15.444  1.2098 -1.0932  0.7022
  887MPD2    N113012   1.007   3.349  15.449 -0.5634  0.1090 -0.5254
  887MPD2    H713013   0.980   3.402  15.531  0.2322  4.5390 -3.1012
  888MPD2     C13014   2.577   3.180  14.583  0.1726 -0.6321 -0.2013
  888MPD2    C113015   2.571   3.233  14.706 -0.1726 -0.3565 -0.8122
  888MPD2    C213016   2.658   3.328  14.740 -0.3973 -0.2284  0.4321
  888MPD2    C313017   2.743   3.387  14.652 -0.8205  1.0615  0.7142
  888MPD2    C413018   2.765   3.319  14.535  0.4854  0.1736 -0.0879
  888MPD2    C513019   2.675   3.221  14.494  0.2613 -0.3334 -0.0388
  888MPD2     H13020   2.656   3.367  14.841 -0.0096  0.7913  0.0451
  888MPD2    H113021   2.836   3.342  14.456  2.9527  0.4337  2.2098
  888MPD2    H213022   2.527   3.087  14.561  0.9403 -1.3616  1.1061
  888MPD2    H313023   2.705   3.166  14.405  1.7673 -0.2540  0.4229
  888MPD2     N13024   2.817   3.503  14.685 -0.2581 -0.2048 -0.2415
  888MPD2    H513025   2.814   3.533  14.782 -2.5231  2.3356 -1.0985
  888MPD2    N113026   2.485   3.178  14.809  1.0701  0.0870 -0.4810
  888MPD2    H713027   2.514   3.210  14.900  0.4933 -1.9622  0.4163
  889MPD2     C13028   2.338   3.183  12.716  0.3744  0.8796  0.2048
  889MPD2    C113029   2.268   3.091  12.786 -0.4982 -0.0808 -0.4955
  889MPD2    C213030   2.179   3.133  12.877  0.0267 -0.3529  0.3195
  889MPD2    C313031   2.151   3.263  12.902 -0.2109 -0.2907 -0.3786
  889MPD2    C413032   2.223   3.357  12.823 -0.7898 -0.0842 -0.0539
  889MPD2    C513033   2.318   3.314  12.730 -0.8748  0.1561  0.0179
  889MPD2     H13034   2.120   3.051  12.915 -1.1886 -0.9571 -2.9135
  889MPD2    H113035   2.202   3.462  12.835 -0.0533  0.1916 -1.2695
  889MPD2    H213036   2.433   3.160  12.669  0.3018 -0.5608  0.7568
  889MPD2    H313037   2.373   3.387  12.672 -1.3952 -0.2511 -0.9867
  889MPD2     N13038   2.048   3.294  13.000  0.2629  0.2641  0.1769
  889MPD2    H513039   2.022   3.213  13.056 -1.5599  0.6636 -0.1124
  889MPD2    N113040   2.312   2.956  12.787 -0.8700 -0.3761  0.4491
  889MPD2    H713041   2.250   2.890  12.832  0.1515 -1.0365  0.8915
  890MPD2     C13042   1.955   4.425  14.228 -0.4873  0.4454 -0.2479
  890MPD2    C113043   1.915   4.468  14.348  0.3946  0.6353 -0.5020
  890MPD2    C213044   1.983   4.425  14.462 -0.5293 -0.0049  0.2374
  890MPD2    C313045   2.094   4.349  14.452 -0.5066  0.6869 -0.3682
  890MPD2    C413046   2.132   4.298  14.330 -0.0490  0.0204 -0.3274
  890MPD2    C513047   2.062   4.348  14.216 -0.4576  0.2416  0.2214
  890MPD2     H13048   1.953   4.453  14.563 -0.7971 -0.6028  0.3205
  890MPD2    H113049   2.211   4.224  14.325 -0.2210 -0.1567 -0.4174
  890MPD2    H213050   1.904   4.453  14.137  1.1635 -0.0362 -1.3090
  890MPD2    H313051   2.087   4.316  14.116  0.5189  2.0515 -0.1189
  890MPD2     N13052   2.169   4.306  14.565 -0.0710  0.7313  0.0992
  890MPD2    H513053   2.249   4.244  14.555  1.6236  2.8973  0.1552
  890MPD2    N113054   1.808   4.560  14.350 -0.0381 -0.2526  0.1675
  890MPD2    H713055   1.775   4.591  14.260  0.8002 -2.3169 -0.8638
  891MPD2     C13056   4.631   3.007  16.076  0.2942 -0.2894 -0.2146
  891MPD2    C113057   4.552   3.085  16.158  0.0966 -0.0761 -0.0854
  891MPD2    C213058   4.620   3.162  16.251  0.3382  0.1560  1.5464
  891MPD2    C313059   0.036   3.156  16.275  0.3015  0.6999  0.4131
  891MPD2    C413060   0.101   3.056  16.201  0.0306  0.4968 -0.1623
  891MPD2    C513061   0.042   2.990  16.097 -0.3991 -0.3368 -0.0147
  891MPD2     H13062   4.571   3.242  16.303 -0.9911  0.3990 -0.0728
  891MPD2    H113063   0.205   3.027  16.213 -0.1146 -0.6915 -1.6505
  891MPD2    H213064   4.590   2.940  16.000  0.1288  0.0702 -0.4402
  891MPD2    H313065   0.103   2.921  16.039 -0.4919  0.3185 -0.8917
  891MPD2     N13066   0.086   3.249  16.373  0.3618 -0.2858 -0.2810
  891MPD2    H513067   0.022   3.322  16.402 -2.4840 -2.3229 -1.4370
  891MPD2    N113068   4.411   3.095  16.149 -0.7841 -0.0321  0.7110
  891MPD2    H713069   4.366   3.062  16.064 -0.6453  0.1916  0.5496
  892MPD2     C13070   0.859   3.921  15.006 -0.0514  0.1327 -0.3507
  892MPD2    C113071   0.771   3.924  14.899 -0.2033 -0.3946  0.7278
  892MPD2    C213072   0.820   3.876  14.778  0.0134 -0.8827 -0.0017
  892MPD2    C313073   0.949   3.815  14.770  0.0480  0.4918 -0.4943
  892MPD2    C413074   1.032   3.813  14.879  0.4310  0.4255  0.0451
  892MPD2    C513075   0.994   3.873  14.997  0.4313  0.0543  0.2528
  892MPD2     H13076   0.750   3.881  14.696 -0.2519 -3.0331  0.0947
  892MPD2    H113077   1.136   3.785  14.869  0.4021  0.9612 -1.6818
  892MPD2    H213078   0.835   3.965  15.102  1.3920 -1.0623  0.5549
  892MPD2    H313079   1.069   3.893  15.073  0.1125  0.5627  0.4314
  892MPD2     N13080   0.994   3.743  14.653  0.5508 -0.8184  0.7840
  892MPD2    H513081   1.091   3.723  14.632  0.9373  0.3273  1.5045
  892MPD2    N113082   0.647   3.989  14.905 -0.1806  0.2583  0.2537
  892MPD2    H713083   0.598   4.020  14.822  1.4864  2.4549  0.0864
  893MPD2     C13084   2.533   2.895   0.613  0.5770 -0.4681 -0.1571
  893MPD2    C113085   2.581   2.769   0.630  0.1612 -0.4054  0.3695
  893MPD2    C213086   2.602   2.692   0.521 -0.3304  0.2613 -0.7401
  893MPD2    C313087   2.563   2.735   0.392  0.1594  0.2469 -0.3795
  893MPD2    C413088   2.515   2.863   0.374  0.6661 -0.0111 -0.0082
  893MPD2    C513089   2.499   2.945   0.486  0.2026 -0.6425 -0.1909
  893MPD2     H13090   2.650   2.595   0.530  0.5533  0.7797  0.1064
  893MPD2    H113091   2.517   2.915   0.278  1.5603 -0.7635 -0.3971
  893MPD2    H213092   2.517   2.951   0.705  1.0803 -1.1232  0.3247
  893MPD2    H313093   2.466   3.045   0.463 -1.2338 -1.0684  0.0174
  893MPD2     N13094   2.579   2.666   0.265  0.2091 -0.3837 -0.6110
  893MPD2    H513095   2.557   2.719   0.182  1.4810  1.0064 -0.0689
  893MPD2    N113096   2.610   2.725   0.763  0.1358 -0.7504  0.3781
  893MPD2    H713097   2.591   2.789   0.839 -0.4263 -0.6361  0.1362
  894MPD2     C13098   0.685   0.172   0.673  0.9337 -0.9563  0.1143
  894MPD2    C113099   0.613   0.223   0.777  0.1532  0.0036 -0.7704
  894MPD2    C213100   0.622   0.351   0.815  0.3583 -0.5953 -0.5644
  894MPD2    C313101   0.716   0.443   0.761 -0.5928  0.1284  0.0963
  894MPD2    C413102   0.789   0.392   0.652 -0.7366 -0.2631  0.0983
  894MPD2    C513103   0.767   0.263   0.611  0.8159  0.0829 -0.5155
  894MPD2     H13104   0.571   0.383   0.905 -0.5109 -1.2449 -0.8270
  894MPD2    H113105   0.855   0.451   0.589 -0.8521  0.1434  0.3550
  894MPD2    H213106   0.671   0.073   0.632  0.2318 -0.5848 -0.5579
  894MPD2    H313107   0.810   0.228   0.518  0.1368  0.8623 -1.1153
  894MPD2     N13108   0.734   0.568   0.817 -0.0435  0.1322 -0.5984
  894MPD2    H513109   0.686   0.594   0.903 -0.6481 -2.2025 -0.2233
  894MPD2    N113110   0.514   0.152   0.837  0.3620  0.0732  0.0105
  894MPD2    H713111   0.459   0.199   0.908 -1.1787  0.9552 -1.7646
  895MPD2     C13112   0.020   2.990  13.629 -0.0175 -0.4288  0.3659
  895MPD2    C113113   0.046   2.915  13.524 -0.7124 -0.5094  0.2903
  895MPD2    C213114   0.107   2.796  13.540 -0.5445 -0.1825 -0.4250
  895MPD2    C313115   0.177   2.763  13.656 -0.0004 -0.0600 -0.3758
  895MPD2    C413116   0.162   2.848  13.763 -0.1103  0.2843 -0.9421
  895MPD2    C513117   0.082   2.957  13.749 -0.3053  0.8389 -0.1385
  895MPD2     H13118   0.129   2.743  13.448  2.0382 -0.2437  0.2420
  895MPD2    H113119   0.205   2.828  13.861 -0.3115  2.7762 -0.3441
  895MPD2    H213120   4.692   3.083  13.609  2.2553  1.0667  1.5725
  895MPD2    H313121   0.069   3.026  13.832  0.5644  0.7994  0.0314
  895MPD2     N13122   0.273   2.665  13.645 -0.4002 -0.6848  0.2980
  895MPD2    H513123   0.278   2.622  13.553 -2.0575  1.1120 -0.6154
  895MPD2    N113124   0.024   2.952  13.393  0.4039 -0.3748  0.6644
  895MPD2    H713125   0.031   2.879  13.323 -0.6800 -0.5239  0.7015
  896MPD2     C13126   2.210   1.283   2.103  0.6039  0.3353  0.5614
  896MPD2    C113127   2.211   1.212   1.985 -0.1461 -0.1828  0.3772
  896MPD2    C213128   2.093   1.176   1.929  0.3186 -0.6678  1.0910
  896MPD2    C313129   1.977   1.212   1.984  0.9243  0.5987  0.6162
  896MPD2    C413130   1.979   1.276   2.111 -0.1550  0.2979  0.1526
  896MPD2    C513131   2.094   1.309   2.174  0.2632  0.2923  1.2509
  896MPD2     H13132   2.098   1.117   1.838 -3.6853  2.6249 -1.2475
  896MPD2    H113133   1.886   1.292   2.165  0.4342  1.5639  0.7870
  896MPD2    H213134   2.303   1.304   2.154  1.9159 -0.3731 -1.5553
  896MPD2    H313135   2.093   1.359   2.270 -2.2616  0.4365  1.1581
  896MPD2     N13136   1.860   1.191   1.911 -0.0908  0.3058  0.0289
  896MPD2    H513137   1.864   1.153   1.816  0.0546  0.4060 -0.0044
  896MPD2    N113138   2.336   1.199   1.926 -0.0386 -0.4366  0.2696
  896MPD2    H713139   2.414   1.243   1.975 -0.9360  1.7125 -0.2419
  897MPD2     C13140   3.401   2.787  10.098  0.2586  0.5291  0.1026
  897MPD2    C113141   3.373   2.909  10.147  0.0480 -0.0711 -0.6459
  897MPD2    C213142   3.334   2.928  10.280 -0.5245 -0.2099 -0.2627
  897MPD2    C313143   3.324   2.813  10.361 -0.6678  0.0462  0.1697
  897MPD2    C413144   3.361   2.690  10.310 -0.2731 -0.3953  0.5717
  897MPD2    C513145   3.411   2.680  10.182  0.3759 -0.0016  0.0824
  897MPD2     H13146   3.295   3.026  10.307  0.2546  0.3693 -1.2299
  897MPD2    H113147   3.348   2.603  10.373 -1.4500 -0.6180  0.0237
  897MPD2    H213148   3.421   2.767   9.993  2.3527 -0.7554  0.7482
  897MPD2    H313149   3.436   2.582  10.144  1.2367  1.1482 -2.2974
  897MPD2     N13150   3.255   2.825  10.486  0.3782  0.1359 -0.1134
  897MPD2    H513151   3.200   2.909  10.500  0.0811 -0.0206 -0.3350
  897MPD2    N113152   3.392   3.017  10.054  0.1494  0.3421  0.5041
  897MPD2    H713153   3.389   2.989   9.957  2.7907 -1.3708  0.9152
  898MPD2     C13154   0.510   3.370   0.254  0.4535 -0.5746  0.2068
  898MPD2    C113155   0.542   3.505   0.233 -0.4433 -0.0214 -0.6164
  898MPD2    C213156   0.447   3.577   0.172 -0.5658 -0.7573  0.3326
  898MPD2    C313157   0.326   3.519   0.131  0.0298  0.3534 -0.9310
  898MPD2    C413158   0.303   3.387   0.151  0.2279  0.4331  0.3141
  898MPD2    C513159   0.402   3.307   0.193  0.4984 -0.3139 -0.5792
  898MPD2     H13160   0.470   3.681   0.153 -1.1716 -0.5510  0.7225
  898MPD2    H113161   0.216   3.334   0.114  1.5076 -0.8358 -0.9167
  898MPD2    H213162   0.586   3.310   0.303 -0.3296 -0.7920  1.1695
  898MPD2    H313163   0.388   3.200   0.185 -1.7813 -0.0721  0.2197
  898MPD2     N13164   0.234   3.604   0.062  0.1731  0.1759  0.2236
  898MPD2    H513165   0.262   3.701   0.057  1.6909 -0.1278  2.4455
  898MPD2    N113166   0.673   3.562   0.253 -0.2822 -0.4909  0.4479
  898MPD2    H713167   0.685   3.657   0.220 -1.3472 -0.2290  0.8393
  899MPD2     C13168   1.686   4.370  17.584 -0.3032  0.0595 -0.4807
  899MPD2    C113169   1.564   4.366  17.528 -0.7103 -0.7650  0.6654
  899MPD2    C213170   1.454   4.332  17.610  0.1419 -0.2983 -0.1514
  899MPD2    C313171   1.475   4.301   0.053 -0.6573  0.0893 -0.2242
  899MPD2    C413172   1.604   4.306   0.102 -0.1503 -0.1761 -0.1736
  899MPD2    C513173   1.710   4.335   0.024  0.0066 -0.0864 -1.0018
  899MPD2     H13174   1.350   4.325  17.581 -0.2121 -0.8782  1.2537
  899MPD2    H113175   1.630   4.282   0.205 -0.1030  1.7937  0.2716
  899MPD2    H213176   1.770   4.405  17.527 -0.1298 -1.4761 -1.1777
  899MPD2    H313177   1.810   4.336   0.066 -1.1312  0.9649  1.6298
  899MPD2     N13178   1.368   4.269   0.142 -0.5939 -0.2455 -0.2630
  899MPD2    H513179   1.394   4.226   0.230  1.4392  2.1239  0.2871
  899MPD2    N113180   1.560   4.386  17.389  0.2740 -0.6782  0.2968
  899MPD2    H713181   1.646   4.382  17.334  0.5056  1.6237  0.5168
  900MPD2     C13182   1.368   1.183  12.827 -0.2215  0.7993  0.1083
  900MPD2    C113183   1.286   1.076  12.817 -0.5043 -0.4854 -0.2001
  900MPD2    C213184   1.166   1.083  12.746  0.8406  0.5595  0.3922
  900MPD2    C313185   1.114   1.203  12.708  0.1208 -0.3340  0.0942
  900MPD2    C413186   1.190   1.317  12.740 -0.5705 -0.6240 -0.0271
  900MPD2    C513187   1.315   1.305  12.795  0.0135 -0.0749 -0.2888
  900MPD2     H13188   1.109   0.996  12.714  0.0456  1.5525 -0.9041
  900MPD2    H113189   1.181   1.419  12.705  0.2031  0.1472  2.0144
  900MPD2    H213190   1.462   1.177  12.881 -0.7019 -0.6786  0.7751
  900MPD2    H313191   1.380   1.390  12.811  1.3982 -0.7398 -2.3702
  900MPD2     N13192   0.994   1.203  12.624  0.2886  0.3042 -0.7334
  900MPD2    H513193   0.950   1.111  12.625  1.5158 -0.2651  1.5441
  900MPD2    N113194   1.341   0.951  12.853 -0.5360 -0.5222 -1.0621
  900MPD2    H713195   1.441   0.960  12.872 -0.7303  1.3393 -0.8750
  901MPD2     C13196   1.152   4.594  12.764 -0.3013 -0.5556 -0.0805
  901MPD2    C113197   1.290   4.609  12.758  0.0957  0.1576 -0.5118
  901MPD2    C213198   1.349   0.014  12.763  0.0067  0.8508  0.4302
  901MPD2    C313199   1.267   0.125  12.798 -0.0181 -0.6602  0.0763
  901MPD2    C413200   1.136   0.107  12.818  0.0632 -0.4527 -0.0728
  901MPD2    C513201   1.080   4.707  12.792 -0.0390 -0.1013  0.0107
  901MPD2     H13202   1.456   0.027  12.755  0.4072 -1.1869  2.2813
  901MPD2    H113203   1.068   0.187  12.847  1.4964 -0.0006  2.0756
  901MPD2    H213204   1.099   4.499  12.757 -0.4755 -0.8066  4.6855
  901MPD2    H313205   0.973   4.696  12.803  0.0326 -1.9518 -1.2061
  901MPD2     N13206   1.338   0.245  12.819  0.6427  0.0072 -0.0311
  901MPD2    H513207   1.439   0.247  12.826  0.9503  0.5360 -4.5749
  901MPD2    N113208   1.364   4.490  12.729  0.3891  0.0276 -0.1309
  901MPD2    H713209   1.310   4.404  12.716  1.4544 -0.8056  0.9762
  902MPD2     C13210   0.021   3.572  13.216 -0.2023  0.6058  1.1899
  902MPD2    C113211   0.011   3.646  13.098  0.4463 -0.5006  0.1425
  902MPD2    C213212   0.070   3.590  12.984  0.0870 -0.6939 -0.0658
  902MPD2    C313213   0.147   3.475  12.987 -0.5666  0.7470 -0.2075
  902MPD2    C413214   0.156   3.403  13.113 -0.2481  0.0685 -0.1032
  902MPD2    C513215   0.083   3.453  13.225  0.2506  0.5756  0.3266
  902MPD2     H13216   0.067   3.645  12.891 -0.0419 -0.8784 -0.1707
  902MPD2    H113217   0.210   3.310  13.117  2.4168  1.6718  1.1046
  902MPD2    H213218   4.695   3.610  13.305  1.7144  0.3159  2.3569
  902MPD2    H313219   0.078   3.398  13.319 -2.0552  1.4741  0.7214
  902MPD2     N13220   0.198   3.414  12.872 -0.3931 -0.1367 -0.5926
  902MPD2    H513221   0.227   3.317  12.873  1.2720  0.3684 -0.1222
  902MPD2    N113222   4.670   3.774  13.094 -0.3359 -0.3973 -0.1552
  902MPD2    H713223   4.644   3.821  13.180  1.2623  0.1643  0.0284
  903MPD2     C13224   0.317   3.501  12.030  0.4869  0.2667  0.0665
  903MPD2    C113225   0.268   3.382  12.084  0.7827  0.3180 -0.2694
  903MPD2    C213226   0.181   3.310  12.006  0.0763  0.1760 -0.4327
  903MPD2    C313227   0.145   3.349  11.876 -0.3234  0.2297  1.3511
  903MPD2    C413228   0.193   3.471  11.829 -0.0478 -0.1205 -0.5219
  903MPD2    C513229   0.277   3.542  11.908  0.6752 -0.6509 -0.1700
  903MPD2     H13230   0.136   3.219  12.042  2.9503 -2.5311 -3.6597
  903MPD2    H113231   0.167   3.507  11.731  0.9143 -2.2852 -1.5708
  903MPD2    H213232   0.381   3.567  12.088  0.6282 -0.2100  0.4456
  903MPD2    H313233   0.298   3.640  11.867 -0.3486 -0.6505 -0.7007
  903MPD2     N13234   0.067   3.256  11.800  0.5759  0.0937 -0.0500
  903MPD2    H513235   0.034   3.174  11.849  2.7518 -1.7344 -1.6797
  903MPD2    N113236   0.292   3.337  12.213  0.2775 -0.1459  0.1345
  903MPD2    H713237   0.247   3.250  12.241  4.4333 -1.7120  2.0567
  904MPD2     C13238   4.669   2.320  13.812 -0.1053  0.2593  0.1192
  904MPD2    C113239   4.629   2.449  13.787  0.0822  0.3975 -0.1690
  904MPD2    C213240   4.670   2.551  13.870  0.7624  0.8233  0.0067
  904MPD2    C313241   0.010   2.523  13.993  0.1971 -0.0273  0.3472
  904MPD2    C413242   0.034   2.391  14.023 -0.1643 -0.2438  0.8370
  904MPD2    C513243   0.005   2.291  13.934 -0.0243  0.2070  0.0741
  904MPD2     H13244   4.649   2.652  13.837 -0.2016  0.4285 -0.5855
  904MPD2    H113245   0.079   2.362  14.118 -0.6245  2.7453  1.9637
  904MPD2    H213246   4.644   2.239  13.744 -1.1296 -0.2045  1.0451
  904MPD2    H313247   0.013   2.187  13.961 -3.4566  0.1405  0.8208
  904MPD2     N13248   0.054   2.627  14.073 -0.9954 -0.3490 -0.1996
  904MPD2    H513249   0.049   2.715  14.022  1.7963  1.6513  2.9848
  904MPD2    N113250   4.547   2.484  13.674  0.1241 -0.1618 -0.1086
  904MPD2    H713251   4.537   2.416  13.599  0.3766 -2.2573  1.7315
  905MPD2     C13252   4.681   2.327  13.077 -0.3857  0.9024 -0.5341
  905MPD2    C113253   4.703   2.438  13.159 -0.3291  0.7029  0.5187
  905MPD2    C213254   0.108   2.468  13.210 -0.4209 -0.1430 -0.2759
  905MPD2    C313255   0.211   2.380  13.186  0.1479  0.0942  0.8255
  905MPD2    C413256   0.192   2.274  13.108  0.3629  0.1143  0.2201
  905MPD2    C513257   0.070   2.252  13.050  0.3639 -0.5986 -0.4910
  905MPD2     H13258   0.121   2.561  13.266 -1.7989 -0.0551 -0.0857
  905MPD2    H113259   0.274   2.206  13.086 -0.0058 -0.7677  1.5585
  905MPD2    H213260   4.581   2.304  13.040  0.2421 -0.4209 -1.4005
  905MPD2    H313261   0.058   2.164  12.988 -3.1730 -1.0887  0.8885
  905MPD2     N13262   0.327   2.387  13.262 -0.1103 -0.5537  1.2291
  905MPD2    H513263   0.392   2.311  13.244 -0.4576 -0.7219  0.7170
  905MPD2    N113264   4.589   2.501  13.194 -0.3231 -0.2144 -0.9961
  905MPD2    H713265   4.508   2.442  13.174  0.2150 -1.0372 -0.7344
  906MPD2     C13266   1.971   2.997  11.259 -0.4755  0.0339  0.2971
  906MPD2    C113267   1.967   2.885  11.176  0.2381  0.2140  0.0333
  906MPD2    C213268   1.926   2.760  11.224 -0.5542 -0.6167 -0.1694
  906MPD2    C313269   1.876   2.754  11.357  0.1927  0.5050 -0.1086
  906MPD2    C413270   1.890   2.866  11.442  0.7429 -0.4989  0.2186
  906MPD2    C513271   1.926   2.986  11.383 -0.4611  0.3374 -0.8098
  906MPD2     H13272   1.916   2.680  11.152  0.8158 -0.9431  0.0117
  906MPD2    H113273   1.863   2.858  11.547  0.5702 -2.0015  0.0676
  906MPD2    H213274   2.009   3.094  11.232 -0.5558 -0.2418 -0.8167
  906MPD2    H313275   1.923   3.078  11.441  3.1983  0.5083 -0.9230
  906MPD2     N13276   1.813   2.634  11.411 -0.4801 -0.0930 -0.4438
  906MPD2    H513277   1.774   2.653  11.504  0.0315  1.6459 -0.5723
  906MPD2    N113278   2.003   2.889  11.042 -0.1878 -0.4097  0.4290
  906MPD2    H713279   1.985   2.805  10.988  1.6261 -1.0701  0.8655
  907MPD2     C13280   0.479   2.179  15.121  0.6789  0.2351 -0.0667
  907MPD2    C113281   0.558   2.068  15.140  0.6564  0.1662  0.8949
  907MPD2    C213282   0.667   2.073  15.225 -0.1042  0.8627 -0.5506
  907MPD2    C313283   0.691   2.180  15.307  0.0316  0.0609  0.9867
  907MPD2    C413284   0.618   2.294  15.289 -0.3289 -0.2889 -0.2789
  907MPD2    C513285   0.516   2.289  15.192  0.4841  0.1624  0.2044
  907MPD2     H13286   0.730   1.990  15.252  0.3003  1.2692 -0.2318
  907MPD2    H113287   0.646   2.384  15.341 -0.3816  0.5388 -1.7017
  907MPD2    H213288   0.405   2.196  15.043  1.6799 -0.5380 -1.1857
  907MPD2    H313289   0.466   2.379  15.159 -1.5313 -2.5877 -4.1845
  907MPD2     N13290   0.796   2.166  15.406 -0.1501  0.1237  0.2564
  907MPD2    H513291   0.863   2.090  15.397 -1.1632 -0.3095 -3.4072
  907MPD2    N113292   0.538   1.946  15.071 -1.0491 -0.0221  0.3976
  907MPD2    H713293   0.602   1.875  15.105 -2.1858 -0.4934  1.5733
  908MPD2     C13294   2.996   2.807   9.393 -0.4806  0.6687 -0.2141
  908MPD2    C113295   3.073   2.759   9.503 -0.1848 -0.1344 -0.5307
  908MPD2    C213296   3.156   2.850   9.567  0.7638 -0.5953 -0.5133
  908MPD2    C313297   3.141   2.987   9.543 -0.0109  0.8111 -0.5809
  908MPD2    C413298   3.051   3.032   9.445  0.5560 -1.0145 -0.1523
  908MPD2    C513299   2.986   2.939   9.374  0.3174  0.0315 -0.2740
  908MPD2     H13300   3.228   2.802   9.633  0.6393  0.5667  0.4537
  908MPD2    H113301   3.033   3.138   9.431 -0.3753 -1.2556 -0.7528
  908MPD2    H213302   2.935   2.739   9.336 -0.5388  1.3659 -0.9832
  908MPD2    H313303   2.925   2.984   9.296  1.1433  2.8712  0.7228
  908MPD2     N13304   3.222   3.072   9.624  0.1071 -0.5715  0.1309
  908MPD2    H513305   3.288   3.026   9.685 -2.6936 -1.6134  2.3646
  908MPD2    N113306   3.078   2.622   9.538 -0.0444  0.0282 -0.5424
  908MPD2    H713307   3.137   2.603   9.618 -0.5355 -1.1888 -0.4629
  909MPD2     C13308   3.827   0.492  11.832 -0.2945  0.4070 -0.0216
  909MPD2    C113309   3.854   0.624  11.821  0.9594  0.2662 -0.1052
  909MPD2    C213310   3.784   0.716  11.896 -0.1824  0.9338 -0.0601
  909MPD2    C313311   3.702   0.672  11.995 -0.6115  0.1624  0.4722
  909MPD2    C413312   3.669   0.533  12.006 -0.0684  0.1284 -0.9263
  909MPD2    C513313   3.730   0.450  11.918  0.1661  0.1697  0.2326
  909MPD2     H13314   3.809   0.821  11.885 -3.7072  1.7387 -0.3596
  909MPD2    H113315   3.599   0.488  12.076 -2.4499  2.2705 -1.9457
  909MPD2    H213316   3.880   0.418  11.772 -0.3894  1.3893 -1.3037
  909MPD2    H313317   3.692   0.349  11.908 -1.8186  0.7448  2.0288
  909MPD2     N13318   3.640   0.769  12.076 -0.7852 -0.2878 -0.3679
  909MPD2    H513319   3.656   0.864  12.046  0.8251 -0.4143  0.0784
  909MPD2    N113320   3.948   0.677  11.730 -0.4834  0.3155 -0.3992
  909MPD2    H713321   3.946   0.777  11.710 -1.6112 -0.1952 -2.8517
  910MPD2     C13322   0.132   2.699  15.773  0.0576 -0.0020  0.7675
  910MPD2    C113323   0.115   2.566  15.745  0.3832  0.4233 -0.7296
  910MPD2    C213324   0.031   2.526  15.640  0.5305  0.4434 -0.2107
  910MPD2    C313325   4.709   2.621  15.555 -0.5016 -0.5299  0.2404
  910MPD2    C413326   0.010   2.757  15.581 -0.1385  0.5108  0.3836
  910MPD2    C513327   0.086   2.791  15.691 -0.5230 -0.3143  0.2231
  910MPD2     H13328   0.024   2.418  15.632  2.4181  0.1860  1.6244
  910MPD2    H113329   4.689   2.832  15.516 -1.2568  1.0835  1.8020
  910MPD2    H213330   0.182   2.744  15.858  0.9842  0.4290  0.0109
  910MPD2    H313331   0.108   2.896  15.707 -2.0666  0.0580 -0.1191
  910MPD2     N13332   4.647   2.589  15.433  0.0265  0.0492  0.4108
  910MPD2    H513333   4.650   2.659  15.359  0.6868  0.8841  1.2317
  910MPD2    N113334   0.194   2.471  15.822  0.1385  0.3806  0.2199
  910MPD2    H713335   0.205   2.376  15.786 -0.6977 -0.0838  1.1936
  911MPD2     C13336   2.767   2.907  16.127 -0.3336 -0.1944  0.1861
  911MPD2    C113337   2.786   3.020  16.201  0.0866 -0.2636 -0.0602
  911MPD2    C213338   2.729   3.138  16.169  0.2317  0.3231 -1.1236
  911MPD2    C313339   2.650   3.152  16.058 -0.6640  0.0144  0.8933
  911MPD2    C413340   2.630   3.037  15.975  0.3983  0.6234  0.0041
  911MPD2    C513341   2.686   2.918  16.013  0.2969  0.6081  0.2069
  911MPD2     H13342   2.730   3.218  16.241  0.9311 -1.2172  0.5639
  911MPD2    H113343   2.582   3.032  15.878  0.8598  0.2563 -0.2079
  911MPD2    H213344   2.805   2.807  16.147  3.6266  1.1807 -0.3720
  911MPD2    H313345   2.674   2.831  15.949 -0.8988  0.5991  0.4546
  911MPD2     N13346   2.569   3.265  16.030  0.3974 -0.5548 -0.6030
  911MPD2    H513347   2.499   3.258  15.957 -0.0239  0.7244 -0.3151
  911MPD2    N113348   2.878   3.000  16.311  0.9844 -0.0403 -0.1464
  911MPD2    H713349   2.933   2.915  16.319  0.6210 -0.0651  2.2174
  912MPD2     C13350   2.158   3.229  15.507 -0.7619 -0.0037 -0.1931
  912MPD2    C113351   2.183   3.216  15.642 -0.9884  0.0103 -0.2149
  912MPD2    C213352   2.211   3.084  15.687  0.1830 -0.3157  0.3256
  912MPD2    C313353   2.207   2.973  15.606  0.5411 -0.5989  0.5790
  912MPD2    C413354   2.171   2.989  15.476  0.0461  0.5947  0.1404
  912MPD2    C513355   2.152   3.119  15.428 -0.0348 -0.0323 -1.0873
  912MPD2     H13356   2.251   3.077  15.788  3.0808 -0.0693 -0.8156
  912MPD2    H113357   2.159   2.904  15.411  0.0947  0.5465  0.1946
  912MPD2    H213358   2.153   3.325  15.458  0.3535 -1.1760 -2.5877
  912MPD2    H313359   2.129   3.120  15.322 -0.1310 -1.1672 -1.0764
  912MPD2     N13360   2.259   2.855  15.657  0.0734 -0.2432 -0.1504
  912MPD2    H513361   2.285   2.849  15.755 -0.5661 -0.5002  0.0043
  912MPD2    N113362   2.189   3.334  15.719 -0.9259 -0.2911  0.3442
  912MPD2    H713363   2.184   3.422  15.668 -1.3516 -0.8748 -0.6466
  913MPD2     C13364   3.491   4.319  10.243  0.1281 -0.4464 -0.2097
  913MPD2    C113365   3.455   4.439  10.305 -0.1192 -0.1478 -0.0343
  913MPD2    C213366   3.385   4.530  10.230 -0.5528 -0.2964  0.5234
  913MPD2    C313367   3.362   4.507  10.095  0.3555 -0.3835  0.2806
  913MPD2    C413368   3.408   4.391  10.039 -0.1585  0.4012  0.3481
  913MPD2    C513369   3.468   4.294  10.110 -0.1766 -0.7336  0.1385
  913MPD2     H13370   3.350   4.619  10.281 -0.4827 -0.2727  0.5291
  913MPD2    H113371   3.408   4.381   9.931 -1.9444  2.6820  0.1195
  913MPD2    H213372   3.543   4.246  10.303  0.5079  0.3726  0.4582
  913MPD2    H313373   3.507   4.205  10.062  1.2625 -0.7102  1.2891
  913MPD2     N13374   3.291   4.598  10.010 -0.2591 -0.3098 -0.6958
  913MPD2    H513375   3.262   4.572   9.916  2.4987 -0.5703 -1.4687
  913MPD2    N113376   3.498   4.457  10.441  0.5879 -0.6412 -0.0129
  913MPD2    H713377   3.561   4.385  10.478  1.0432  0.0915  0.6351
  914MPD2     C13378   1.108   4.195  11.948 -0.1208 -0.1617  0.0241
  914MPD2    C113379   1.082   4.300  12.039  0.1810  0.1833 -0.4257
  914MPD2    C213380   1.149   4.309  12.166  0.5617 -0.8418  0.3206
  914MPD2    C313381   1.238   4.209  12.200 -0.1930  0.2092  0.2633
  914MPD2    C413382   1.257   4.102  12.111  0.9003  0.5439 -0.2008
  914MPD2    C513383   1.197   4.100  11.986  0.0675 -0.1660 -0.0910
  914MPD2     H13384   1.140   4.393  12.234 -2.2209 -1.0319  0.1668
  914MPD2    H113385   1.328   4.023  12.136 -0.2531 -0.7115 -0.9116
  914MPD2    H213386   1.056   4.192  11.853 -1.0418 -2.9619  0.6151
  914MPD2    H313387   1.221   4.014  11.923  0.5652  0.8937 -1.3476
  914MPD2     N13388   1.319   4.234  12.316 -0.5122  0.1057  0.3106
  914MPD2    H513389   1.307   4.319  12.369  1.3668 -0.3297  1.4205
  914MPD2    N113390   0.989   4.400  12.000 -0.0509  0.5125  0.7162
  914MPD2    H713391   0.961   4.395  11.902  3.1255  1.0898 -0.2191
  915MPD2     C13392   4.092   4.429  15.086  0.1077 -0.4912  0.2963
  915MPD2    C113393   3.988   4.362  15.137  0.1953  0.2312 -0.0204
  915MPD2    C213394   3.952   4.379  15.272 -0.2229  0.7563 -0.2509
  915MPD2    C313395   4.018   4.471  15.348 -0.1498 -0.1056  0.2387
  915MPD2    C413396   4.124   4.543  15.293  0.3666  0.3122 -0.1732
  915MPD2    C513397   4.159   4.522  15.164  0.4566 -0.4582  0.8072
  915MPD2     H13398   3.865   4.335  15.318 -0.3416  2.6502  1.3281
  915MPD2    H113399   4.174   4.626  15.342  0.6866  2.5959 -4.3592
  915MPD2    H213400   4.132   4.410  14.987  1.3452  0.5195  0.6008
  915MPD2    H313401   4.240   4.580  15.121  0.1754 -1.1061 -0.5843
  915MPD2     N13402   3.969   4.492  15.475  0.6394  0.3823 -0.5212
  915MPD2    H513403   3.905   4.422  15.508  1.7554 -0.4157 -0.0654
  915MPD2    N113404   3.925   4.262  15.046 -0.0115 -0.3395 -0.2932
  915MPD2    H713405   3.953   4.273  14.949  0.0293  0.0141 -0.2401
  916MPD2     C13406   1.833   2.830  15.643 -0.8182 -0.0101 -0.6661
  916MPD2    C113407   1.901   2.750  15.735  0.2940 -0.9286  0.6499
  916MPD2    C213408   1.932   2.622  15.697  0.6978  0.2150  0.6832
  916MPD2    C313409   1.891   2.568  15.580  0.3164 -0.4225  0.3035
  916MPD2    C413410   1.824   2.637  15.486  0.3201  0.7853  0.2376
  916MPD2    C513411   1.799   2.769  15.520 -0.3617 -0.1442 -0.1880
  916MPD2     H13412   1.989   2.561  15.767  3.0828  0.3193 -1.1602
  916MPD2    H113413   1.787   2.598  15.392  0.6298 -2.1232  1.3402
  916MPD2    H213414   1.806   2.934  15.662  0.6155  0.0756  0.9091
  916MPD2    H313415   1.739   2.823  15.447  0.5084  1.4790  0.2872
  916MPD2     N13416   1.950   2.446  15.545  0.1870  0.0040  0.2133
  916MPD2    H513417   1.977   2.385  15.621 -2.9028 -2.0914 -0.3789
  916MPD2    N113418   1.942   2.816  15.858 -0.7967 -0.2892 -0.1331
  916MPD2    H713419   1.912   2.913  15.859 -0.8845 -0.3280  0.7015
  917MPD2     C13420   2.562   0.424  11.017  0.3901 -0.1617 -0.0933
  917MPD2    C113421   2.564   0.516  11.126 -0.4911  0.5679  0.6288
  917MPD2    C213422   2.667   0.600  11.151  0.1894 -1.1637 -0.4649
  917MPD2    C313423   2.758   0.621  11.050  0.2011  0.0332  0.3603
  917MPD2    C413424   2.747   0.547  10.934 -0.8241 -0.0451 -0.7203
  917MPD2    C513425   2.648   0.449  10.920 -0.3408 -0.2391  0.4798
  917MPD2     H13426   2.671   0.658  11.243  1.4246  2.5485 -2.8501
  917MPD2    H113427   2.812   0.564  10.849 -0.9743 -1.6429 -1.1593
  917MPD2    H213428   2.478   0.358  10.997  1.5073 -1.5166 -0.2980
  917MPD2    H313429   2.642   0.383  10.834  0.3443 -0.0482  0.2800
  917MPD2     N13430   2.855   0.725  11.048 -1.2683  0.8234  0.0635
  917MPD2    H513431   2.919   0.734  10.970 -0.4590 -1.4078  0.4850
  917MPD2    N113432   2.461   0.502  11.226 -0.3541  0.3219 -0.3383
  917MPD2    H713433   2.398   0.424  11.207 -0.2045  0.2699 -0.6131
  918MPD2     C13434   2.403   0.667  12.198 -0.1375  0.1316 -0.1364
  918MPD2    C113435   2.500   0.639  12.104  0.3193 -0.1495  0.4395
  918MPD2    C213436   2.464   0.611  11.970 -1.0727 -0.3956 -0.5307
  918MPD2    C313437   2.334   0.628  11.933 -0.3223 -0.1497 -0.0589
  918MPD2    C413438   2.238   0.637  12.033  0.0778 -0.2519  0.2065
  918MPD2    C513439   2.277   0.664  12.157  0.3264 -0.4431 -0.8361
  918MPD2     H13440   2.543   0.590  11.898 -0.7236  0.3366 -0.3639
  918MPD2    H113441   2.131   0.634  12.012  0.0232  0.7906  0.3636
  918MPD2    H213442   2.431   0.685  12.301  0.5459 -0.9369 -0.1341
  918MPD2    H313443   2.197   0.657  12.230 -1.3105  1.2898 -2.4289
  918MPD2     N13444   2.310   0.615  11.794 -0.7174 -0.6930  0.6467
  918MPD2    H513445   2.392   0.602  11.735 -0.7708 -1.7183  0.8080
  918MPD2    N113446   2.643   0.630  12.124 -0.1492 -0.6917 -0.0195
  918MPD2    H713447   2.703   0.597  12.049  1.2742 -0.7966  1.1615
  919MPD2     C13448   2.993   4.453  11.314 -0.5192 -0.2437 -0.5645
  919MPD2    C113449   3.082   4.352  11.289  0.1048  0.1719  0.2667
  919MPD2    C213450   3.146   4.345  11.166 -0.5826 -0.1529 -0.4780
  919MPD2    C313451   3.099   4.426  11.057  0.7872  0.1400  0.4953
  919MPD2    C413452   3.018   4.529  11.090 -0.1354  0.4074 -0.3205
  919MPD2    C513453   2.972   4.548  11.219  0.2423 -0.0346 -0.1560
  919MPD2     H13454   3.211   4.261  11.144  1.7089  1.7996 -1.1705
  919MPD2    H113455   2.973   4.594  11.015 -2.3314 -1.0955 -0.3132
  919MPD2    H213456   2.934   4.460  11.405  0.8476  1.4092  0.1984
  919MPD2    H313457   2.901   4.629  11.235 -0.6913 -0.7967 -0.4333
  919MPD2     N13458   3.135   4.406  10.920 -0.0053 -0.4872 -0.4466
  919MPD2    H513459   3.107   4.479  10.856  1.8421  0.3154 -0.3334
  919MPD2    N113460   3.105   4.235  11.367  0.1415 -0.3409  0.3434
  919MPD2    H713461   3.168   4.164  11.331  0.3001  0.0633 -0.1689
  920MPD2     C13462   2.790   0.039  10.121  0.0136 -0.7357 -0.4654
  920MPD2    C113463   2.754   4.626  10.120  0.3668  0.1589  0.1399
  920MPD2    C213464   2.836   4.533  10.192  0.1754  0.2354 -0.0351
  920MPD2    C313465   2.943   4.578  10.268 -0.5133 -0.0270  0.0915
  920MPD2    C413466   2.962   4.716  10.276 -0.2266 -0.1496 -0.2527
  920MPD2    C513467   2.893   0.078  10.194 -0.5833  0.2648  0.0756
  920MPD2     H13468   2.813   4.428  10.187  0.8051 -0.0468  2.7042
  920MPD2    H113469   3.048   0.030  10.331 -1.0847  1.2387  0.1747
  920MPD2    H213470   2.748   0.119  10.060 -0.1483 -1.4312 -1.2589
  920MPD2    H313471   2.922   0.182  10.192  0.6183 -0.0104  2.8284
  920MPD2     N13472   3.022   4.481  10.338  0.7261 -0.2093  0.0202
  920MPD2    H513473   3.007   4.386  10.308  0.5727  0.1909 -1.2026
  920MPD2    N113474   2.634   4.576  10.054 -0.0790  0.8106 -0.6386
  920MPD2    H713475   2.607   4.479  10.061  1.6549  0.5002  1.8451
  921MPD2     C13476   3.690   3.523  16.462 -0.0376 -0.1420 -0.4698
  921MPD2    C113477   3.707   3.390  16.453  0.0923 -0.1785  0.4381
  921MPD2    C213478   3.600   3.305  16.490 -0.1702  0.6641  0.2401
  921MPD2    C313479   3.478   3.359  16.534  0.2148 -0.4723 -0.4270
  921MPD2    C413480   3.468   3.493  16.545 -0.1227 -0.1322 -0.2060
  921MPD2    C513481   3.570   3.573  16.508 -0.1038  0.4135 -0.9739
  921MPD2     H13482   3.628   3.200  16.486 -1.3550  0.4527 -2.5699
  921MPD2    H113483   3.380   3.545  16.580  0.2824 -0.8563  1.8694
  921MPD2    H213484   3.767   3.597  16.444  1.9257 -2.5422 -2.0005
  921MPD2    H313485   3.556   3.679  16.524  2.6502  0.6513 -0.0604
  921MPD2     N13486   3.367   3.272  16.555  0.1729  0.2283 -0.3712
  921MPD2    H513487   3.290   3.318  16.601 -0.9225 -1.8233 -0.1539
  921MPD2    N113488   3.835   3.347  16.398 -0.0055  0.0096 -0.3337
  921MPD2    H713489   3.901   3.422  16.381  2.1619 -1.8181  0.0362
  922MPD2     C13490   4.628   0.475  17.517 -0.3708  0.1340 -0.2297
  922MPD2    C113491   4.625   0.609  17.488  0.2035  0.7078  0.3847
  922MPD2    C213492   4.528   0.696  17.541 -0.0163 -0.8634 -0.1602
  922MPD2    C313493   4.442   0.652  17.640  0.0453  0.0293  0.0821
  922MPD2    C413494   4.447   0.517  17.667  0.2558  0.5331 -0.1047
  922MPD2    C513495   4.541   0.432  17.611  0.3162 -0.7346  1.1955
  922MPD2     H13496   4.529   0.800  17.511  1.7526 -0.5509  0.9569
  922MPD2    H113497   4.385   0.477   0.054 -0.5801 -0.5223 -1.2861
  922MPD2    H213498   4.706   0.407  17.484 -1.3722  0.0904 -2.5221
  922MPD2    H313499   4.556   0.332  17.649  0.3564 -1.5179 -0.8886
  922MPD2     N13500   4.350   0.738   0.014 -0.2869  0.0595 -0.0585
  922MPD2    H513501   4.278   0.686   0.063  0.9521 -1.0953  0.5573
  922MPD2    N113502   0.002   0.663  17.401  0.1977  0.4789 -0.6805
  922MPD2    H713503   4.720   0.764  17.389  0.5506  0.4405 -1.1262
  923MPD2     C13504   1.276   3.326   8.707  0.1500  0.8671 -0.0918
  923MPD2    C113505   1.220   3.400   8.814  0.9359 -0.2433  0.3343
  923MPD2    C213506   1.261   3.380   8.939  0.0824 -0.0811  0.1318
  923MPD2    C313507   1.342   3.268   8.960 -0.1678  0.2778  0.3019
  923MPD2    C413508   1.371   3.182   8.854 -0.0078 -0.0151  0.0537
  923MPD2    C513509   1.332   3.203   8.728 -0.1541 -1.0244  0.3794
  923MPD2     H13510   1.231   3.435   9.027 -0.7981  0.2838 -0.3972
  923MPD2    H113511   1.430   3.093   8.874  0.1829 -0.1114 -0.9283
  923MPD2    H213512   1.242   3.354   8.608 -0.6944 -0.1333 -0.0805
  923MPD2    H313513   1.347   3.137   8.643 -0.8888 -0.1035 -0.4738
  923MPD2     N13514   1.392   3.227   9.085 -0.1707  0.1629 -0.0508
  923MPD2    H513515   1.436   3.135   9.084 -1.3793 -0.4104 -0.4816
  923MPD2    N113516   1.122   3.497   8.773 -0.0403  0.4040  0.6498
  923MPD2    H713517   1.091   3.488   8.677  0.6276  1.5602  0.3256
  924MPD2     C13518   1.310   1.711  15.242 -0.8001 -0.1884  0.5783
  924MPD2    C113519   1.330   1.736  15.374  0.2283 -0.7217 -0.2480
  924MPD2    C213520   1.326   1.871  15.423  0.2595  0.2078  0.4513
  924MPD2    C313521   1.301   1.983  15.340 -0.0292 -0.2081 -0.3168
  924MPD2    C413522   1.268   1.948  15.210 -0.0164  0.3719 -0.1254
  924MPD2    C513523   1.288   1.822  15.158  0.2915 -0.8292 -0.0532
  924MPD2     H13524   1.343   1.891  15.528  0.5752  2.2566  0.0180
  924MPD2    H113525   1.225   2.022  15.143 -1.6212 -1.2497 -0.8970
  924MPD2    H213526   1.317   1.609  15.204  2.0319  1.0374 -2.2101
  924MPD2    H313527   1.268   1.801  15.054 -1.6518  2.2880 -0.3189
  924MPD2     N13528   1.270   2.118  15.384  0.4451 -0.5603  0.4563
  924MPD2    H513529   1.224   2.184  15.322 -0.6796 -0.4067  1.4678
  924MPD2    N113530   1.339   1.629  15.464  0.6313 -0.3205 -0.1690
  924MPD2    H713531   1.309   1.539  15.428  2.5579 -0.4855 -1.3669
  925MPD2     C13532   4.619   3.862  14.597 -0.2729 -0.8587  0.1554
  925MPD2    C113533   4.483   3.854  14.578  0.2295  0.4962  0.0627
  925MPD2    C213534   4.405   3.854  14.693 -0.3039 -0.6738  1.0236
  925MPD2    C313535   4.456   3.862  14.816 -1.0576  0.2216 -0.2559
  925MPD2    C413536   4.589   3.874  14.831  0.0834 -0.2859  0.5547
  925MPD2    C513537   4.672   3.865  14.723 -0.0114 -0.4290 -0.5668
  925MPD2     H13538   4.297   3.853  14.682 -0.0253  0.0516 -1.7160
  925MPD2    H113539   4.639   3.878  14.927 -2.8673  0.7603  2.0616
  925MPD2    H213540   4.690   3.863  14.516 -1.3987  0.7180 -0.7985
  925MPD2    H313541   0.057   3.874  14.731 -0.2795 -0.7718  3.4038
  925MPD2     N13542   4.384   3.833  14.933 -0.3625  0.4990 -0.1833
  925MPD2    H513543   4.438   3.832  15.019 -1.6085 -0.6884  0.5821
  925MPD2    N113544   4.419   3.839  14.445  0.3381  0.1696  0.4746
  925MPD2    H713545   4.318   3.823  14.442  0.4595 -0.4178 -0.3347
  926MPD2     C13546   3.105   2.114  13.719 -0.2977 -0.2922 -0.1553
  926MPD2    C113547   3.006   2.074  13.629 -0.4018  0.6848  0.4159
  926MPD2    C213548   3.021   2.109  13.499 -0.6180  0.5108  0.3993
  926MPD2    C313549   3.140   2.162  13.446 -0.2199  0.9487  0.4800
  926MPD2    C413550   3.236   2.195  13.535 -0.0819 -0.2014  0.1071
  926MPD2    C513551   3.220   2.176  13.672  0.0249 -0.3282  0.1724
  926MPD2     H13552   2.943   2.079  13.430  1.8435 -0.8580 -1.7764
  926MPD2    H113553   3.336   2.228  13.510 -0.1839  1.1173  1.4443
  926MPD2    H213554   3.088   2.117  13.826  1.2865  1.6217  0.0573
  926MPD2    H313555   3.296   2.198  13.747 -0.6010  2.2105  0.0691
  926MPD2     N13556   3.165   2.192  13.310 -0.1219  0.2994  0.6415
  926MPD2    H513557   3.252   2.243  13.296 -0.7908  0.6471 -2.1715
  926MPD2    N113558   2.880   2.035  13.676 -0.1738 -0.2342 -0.1404
  926MPD2    H713559   2.803   2.047  13.611  0.7733 -0.3821 -1.2883
  927MPD2     C13560   2.823   0.075   0.128 -0.5782  0.2454 -0.7571
  927MPD2    C113561   2.896   0.185   0.085 -0.7422 -0.1201 -0.0023
  927MPD2    C213562   2.992   0.172  17.678 -0.3662  0.3623 -0.0823
  927MPD2    C313563   3.008   0.055  17.611  0.4072  0.1126  0.6583
  927MPD2    C413564   2.928   4.668  17.648 -0.5036  0.4831 -0.6581
  927MPD2    C513565   2.834   4.682   0.054 -0.3924  0.4335 -0.1651
  927MPD2     H13566   3.055   0.253  17.645  0.2091  0.1828  0.5604
  927MPD2    H113567   2.934   4.574  17.595  0.0620 -0.0769  0.4038
  927MPD2    H213568   2.753   0.075   0.211  1.7069  1.1865  1.1657
  927MPD2    H313569   2.778   4.593   0.079  0.2910  0.1466  0.3389
  927MPD2     N13570   3.117   0.044  17.516 -0.3541  0.0797  0.0203
  927MPD2    H513571   3.180   0.120  17.489 -1.0366  0.1645 -1.3043
  927MPD2    N113572   2.877   0.296   0.169 -0.0629 -0.4638  0.6872
  927MPD2    H713573   2.798   0.295   0.232 -0.6920  3.0155 -0.0805
  928MPD2     C13574   1.017   3.356   1.249  0.0194 -0.1095 -0.9422
  928MPD2    C113575   1.115   3.449   1.261  0.3227 -0.4380  0.1388
  928MPD2    C213576   1.209   3.461   1.166  0.0153 -0.4716 -0.1939
  928MPD2    C313577   1.208   3.352   1.079 -0.3190  0.2655  0.8976
  928MPD2    C413578   1.107   3.259   1.067 -0.2002 -0.1660 -0.0936
  928MPD2    C513579   1.012   3.259   1.161  0.0171  0.5042  0.1290
  928MPD2     H13580   1.283   3.540   1.167  0.9197 -1.3399  0.5037
  928MPD2    H113581   1.115   3.180   0.993  3.6259  0.7973 -0.6844
  928MPD2    H213582   0.933   3.357   1.317 -0.3571 -1.1338 -1.3908
  928MPD2    H313583   0.934   3.183   1.163 -0.3110  0.8714  1.1908
  928MPD2     N13584   1.307   3.337   0.978  0.6425  0.6069  0.2840
  928MPD2    H513585   1.295   3.259   0.914  0.0623  2.6573 -2.1107
  928MPD2    N113586   1.109   3.538   1.367 -0.1661 -0.4187 -0.2152
  928MPD2    H713587   1.023   3.546   1.422  1.6954 -1.1888  2.8094
  929MPD2     C13588   0.830   3.064  10.401 -0.4971 -0.3391  0.4569
  929MPD2    C113589   0.849   2.961  10.308  0.2922  0.0233 -0.0071
  929MPD2    C213590   0.908   2.997  10.194  0.1102 -0.1174 -0.1597
  929MPD2    C313591   0.939   3.128  10.159 -0.1190 -0.0748 -0.2564
  929MPD2    C413592   0.920   3.227  10.250  0.5257  0.2850 -0.5707
  929MPD2    C513593   0.877   3.192  10.377  1.2662 -0.0343 -0.1990
  929MPD2     H13594   0.905   2.928  10.110  2.2216  1.4572 -1.5013
  929MPD2    H113595   0.943   3.329  10.223 -0.6438  0.3141 -1.4470
  929MPD2    H213596   0.767   3.047  10.488  1.6824 -4.3864  1.2840
  929MPD2    H313597   0.863   3.265  10.456  1.5992  2.6471 -2.6162
  929MPD2     N13598   0.971   3.167  10.024  0.7312  0.5622  0.0209
  929MPD2    H513599   1.003   3.263  10.014 -2.9719  2.0347  2.2221
  929MPD2    N113600   0.764   2.841  10.314  0.1646  0.3394 -0.5917
  929MPD2    H713601   0.689   2.832  10.381 -1.7570  0.5463 -2.7249
  930MPD2     C13602   2.908   0.030  13.763 -0.5270  0.0731  0.0010
  930MPD2    C113603   2.852   0.093  13.655 -0.1844 -0.2625 -0.1988
  930MPD2    C213604   2.768   0.023  13.572 -0.0788  0.5482  0.5172
  930MPD2    C313605   2.750   4.606  13.584  0.5002  0.4088 -0.1582
  930MPD2    C413606   2.808   4.543  13.693 -0.7953 -0.3074 -0.1873
  930MPD2    C513607   2.877   4.618  13.785 -0.1150  0.1861 -0.4373
  930MPD2     H13608   2.717   0.077  13.494 -1.6612 -0.0536  1.1455
  930MPD2    H113609   2.799   4.437  13.711 -0.7104  0.1087  2.2721
  930MPD2    H213610   2.981   0.075  13.829  1.9224 -1.9856 -1.3215
  930MPD2    H313611   2.925   4.570  13.869  1.3395  0.1085 -1.3178
  930MPD2     N13612   2.679   4.519  13.500 -0.3728  0.4177 -0.0629
  930MPD2    H513613   2.665   4.421  13.521  0.2495  0.1926 -0.7299
  930MPD2    N113614   2.882   0.231  13.645 -0.2094 -0.2590 -0.6883
  930MPD2    H713615   2.908   0.267  13.736  2.3661  0.2715 -1.6145
  931MPD2     C13616   2.969   0.738   0.908  0.7125 -0.2359  0.1826
  931MPD2    C113617   2.997   0.628   0.834 -0.4178  0.3643 -0.2657
  931MPD2    C213618   3.056   0.515   0.902 -0.1211  0.2826 -0.1210
  931MPD2    C313619   3.077   0.515   1.042  0.3969  0.3364 -0.3577
  931MPD2    C413620   3.037   0.632   1.114  0.3401 -0.0880  0.2995
  931MPD2    C513621   2.976   0.733   1.040 -0.0276 -0.5167 -0.1895
  931MPD2     H13622   3.075   0.425   0.845 -3.4062  1.7179 -3.5050
  931MPD2    H113623   3.030   0.650   1.220 -1.3131  1.0045 -0.0034
  931MPD2    H213624   2.933   0.828   0.861 -0.3783 -0.1063  1.2664
  931MPD2    H313625   2.942   0.812   1.107  0.3120 -1.6756  1.3589
  931MPD2     N13626   3.135   0.408   1.111 -0.0416  0.4271  0.1670
  931MPD2    H513627   3.151   0.421   1.211 -1.3840 -1.3945  0.6151
  931MPD2    N113628   2.959   0.642   0.699  0.4237  0.3120  0.2544
  931MPD2    H713629   2.913   0.730   0.679 -0.7191  0.1611  2.3020
  932MPD2     C13630   0.171   2.961  11.564 -0.4025  0.6676  0.8747
  932MPD2    C113631   0.302   3.018  11.574 -1.0576 -0.1502  0.1389
  932MPD2    C213632   0.399   2.946  11.650  0.4262 -0.8031  1.0599
  932MPD2    C313633   0.372   2.820  11.710 -0.0468 -0.5528  0.0913
  932MPD2    C413634   0.243   2.773  11.699 -0.0402 -0.4068 -0.1306
  932MPD2    C513635   0.143   2.836  11.622  0.0636 -0.6273 -0.5430
  932MPD2     H13636   0.503   2.977  11.646  0.2989 -0.5587 -0.5262
  932MPD2    H113637   0.218   2.684  11.756  1.0961 -0.6867 -0.0701
  932MPD2    H213638   0.094   3.021  11.517 -1.4850 -1.9352 -0.6733
  932MPD2    H313639   0.045   2.790  11.625 -0.3596  0.4175  2.1263
  932MPD2     N13640   0.463   2.746  11.790  0.1249  0.4589  0.9685
  932MPD2    H513641   0.436   2.655  11.828  1.8514 -0.3885  0.1560
  932MPD2    N113642   0.337   3.137  11.513  0.4158 -0.1480 -0.0791
  932MPD2    H713643   0.430   3.172  11.534  0.3405 -1.2180  2.0353
  933MPD2     C13644   0.824   3.950   2.084 -0.1002  0.1028  0.4507
  933MPD2    C113645   0.826   3.941   1.947  0.0151 -0.7314  0.0239
  933MPD2    C213646   0.736   4.027   1.885  0.4800  0.1527  1.1861
  933MPD2    C313647   0.650   4.106   1.953 -0.4974 -0.2614 -0.2867
  933MPD2    C413648   0.648   4.107   2.090  0.1528  0.2089 -0.0857
  933MPD2    C513649   0.735   4.028   2.152 -0.2576 -0.5808 -0.3912
  933MPD2     H13650   0.719   4.019   1.778  0.1747 -0.3276  1.2671
  933MPD2    H113651   0.578   4.167   2.148 -1.9727 -2.1089 -0.2956
  933MPD2    H213652   0.883   3.882   2.143  2.6300  2.7948  0.8200
  933MPD2    H313653   0.725   4.014   2.259  3.2685  0.6418  0.0962
  933MPD2     N13654   0.570   4.180   1.864 -0.0021 -0.7846 -0.3021
  933MPD2    H513655   0.590   4.167   1.765  1.0808  1.2171 -0.3538
  933MPD2    N113656   0.923   3.857   1.882  0.3537  0.2020 -0.5802
  933MPD2    H713657   0.982   3.799   1.941  1.0303  0.1653 -1.2858
  934MPD2     C13658   1.741   0.883   2.145 -0.6374  1.1511  0.4601
  934MPD2    C113659   1.845   0.814   2.084  0.4026  0.0612 -0.0931
  934MPD2    C213660   1.820   0.741   1.966  0.2043  0.4827 -0.1170
  934MPD2    C313661   1.693   0.723   1.916  0.1884 -0.1153 -0.1197
  934MPD2    C413662   1.593   0.793   1.985 -0.1560  0.8458  0.3197
  934MPD2    C513663   1.618   0.876   2.087  0.1643  0.3207  0.1468
  934MPD2     H13664   1.908   0.694   1.922 -0.8995 -1.1229 -0.6257
  934MPD2    H113665   1.492   0.781   1.949 -0.3631 -1.6472  1.7096
  934MPD2    H213666   1.750   0.951   2.229 -1.8512  0.9690  0.7472
  934MPD2    H313667   1.535   0.924   2.138 -0.2802 -0.4553  0.1564
  934MPD2     N13668   1.662   0.629   1.808  0.4927  0.9953 -0.2087
  934MPD2    H513669   1.566   0.620   1.775 -0.5594  1.3034  2.8203
  934MPD2    N113670   1.974   0.832   2.125 -0.0348  0.2311 -0.0931
  934MPD2    H713671   2.041   0.787   2.064  0.1252  1.3539 -0.7577
  935MPD2     C13672   2.215   0.126   1.127  0.3736 -0.1643 -0.2432
  935MPD2    C113673   2.082   0.086   1.103  0.8670  0.3810 -0.2332
  935MPD2    C213674   1.981   0.152   1.164 -0.0389  0.1852 -0.8977
  935MPD2    C313675   2.005   0.245   1.264  0.6843  0.1969 -1.1067
  935MPD2    C413676   2.136   0.275   1.290  0.1328  1.1203 -0.4476
  935MPD2    C513677   2.242   0.218   1.226  0.0430  0.6233  0.9683
  935MPD2     H13678   1.880   0.119   1.145  0.7675 -1.8049 -1.7055
  935MPD2    H113679   2.151   0.349   1.368 -0.3259  1.2759 -0.5045
  935MPD2    H213680   2.299   0.086   1.070 -0.6546 -0.6275 -1.4365
  935MPD2    H313681   2.347   0.236   1.248 -0.0292  1.0788  0.9414
  935MPD2     N13682   1.908   0.306   1.338  0.8410 -1.2338 -0.1100
  935MPD2    H513683   1.950   0.376   1.398  0.3073 -2.7605  2.0497
  935MPD2    N113684   2.049   4.716   1.004  0.4852  0.2688  0.2959
  935MPD2    H713685   1.955   0.006   0.970  0.5952 -0.7730 -0.3866
  936MPD2     C13686   0.345   1.922  12.439 -0.9360  0.1675  0.6819
  936MPD2    C113687   0.374   1.926  12.576  0.6858  0.6235  0.1781
  936MPD2    C213688   0.453   2.032  12.616  0.1017  0.3742 -0.9966
  936MPD2    C313689   0.503   2.130  12.527 -0.6000  0.3441  0.3830
  936MPD2    C413690   0.466   2.128  12.391 -0.6313  0.5672  0.0624
  936MPD2    C513691   0.374   2.027  12.355 -0.0260 -0.7060 -0.0451
  936MPD2     H13692   0.483   2.049  12.718 -1.3968 -0.5128 -0.4104
  936MPD2    H113693   0.502   2.201  12.319 -1.6893  1.1018  0.0879
  936MPD2    H213694   0.281   1.845  12.399 -0.2438 -0.3367  0.5467
  936MPD2    H313695   0.326   2.037  12.258  2.3063  0.0250 -1.1075
  936MPD2     N13696   0.583   2.232  12.579  0.0443 -0.0669  0.2237
  936MPD2    H513697   0.599   2.223  12.679 -2.0684  0.1333  0.5781
  936MPD2    N113698   0.338   1.822  12.667  0.6265 -0.3371 -0.2440
  936MPD2    H713699   0.364   1.842  12.763  2.8182  2.4954 -1.4233
  937MPD2     C13700   3.256   3.531  11.236  0.2957 -0.3061 -0.0058
  937MPD2    C113701   3.248   3.665  11.215 -0.8868  0.1383  0.1278
  937MPD2    C213702   3.326   3.721  11.114 -0.5607 -0.2312  0.3804
  937MPD2    C313703   3.401   3.642  11.032  0.1320  0.1923  0.2943
  937MPD2    C413704   3.392   3.506  11.046 -0.2828 -0.4200 -0.1253
  937MPD2    C513705   3.317   3.449  11.146  0.1284  0.4274 -0.1170
  937MPD2     H13706   3.311   3.824  11.085  1.2281 -0.0137  0.2157
  937MPD2    H113707   3.452   3.436  10.988 -0.8362  0.0260 -1.2303
  937MPD2    H213708   3.197   3.482  11.314  1.2530 -2.7170 -0.7912
  937MPD2    H313709   3.306   3.341  11.148  0.0855  0.4939  3.4970
  937MPD2     N13710   3.482   3.705  10.928 -0.2056 -0.5332 -0.2015
  937MPD2    H513711   3.492   3.806  10.931  0.9943 -0.6829  0.9682
  937MPD2    N113712   3.191   3.755  11.308  0.4584  0.0773 -0.1856
  937MPD2    H713713   3.185   3.847  11.266 -2.3062  0.3081  0.7583
  938MPD2     C13714   1.151   0.311   0.578 -0.0151  0.1747  0.3328
  938MPD2    C113715   1.146   0.371   0.706 -0.0445  0.3116 -0.3573
  938MPD2    C213716   1.105   0.291   0.810  0.0488 -0.4923 -0.4560
  938MPD2    C313717   1.056   0.161   0.789  0.5348 -0.8746  0.1780
  938MPD2    C413718   1.059   0.110   0.661 -0.2420  0.4720 -0.4992
  938MPD2    C513719   1.116   0.180   0.556 -0.0814  0.2717 -0.6717
  938MPD2     H13720   1.096   0.336   0.908  1.6249  2.2332 -1.5415
  938MPD2    H113721   1.031   0.007   0.639 -0.1354  0.4728 -0.6391
  938MPD2    H213722   1.197   0.364   0.495 -0.9690 -0.6212 -0.7179
  938MPD2    H313723   1.126   0.130   0.460  0.8259 -4.3612  1.8100
  938MPD2     N13724   1.005   0.077   0.886 -0.3211  0.1256 -0.0639
  938MPD2    H513725   0.961   4.712   0.857  0.5522 -0.4656  0.3850
  938MPD2    N113726   1.185   0.508   0.726  0.7209  0.0539 -0.3534
  938MPD2    H713727   1.166   0.548   0.817 -4.2366 -0.7654 -1.0236
  939MPD2     C13728   1.523   1.506   0.381  0.0071 -0.3691  0.8978
  939MPD2    C113729   1.612   1.593   0.437  0.1707 -0.3384  0.5141
  939MPD2    C213730   1.741   1.609   0.389  0.8160  0.2714 -0.2030
  939MPD2    C313731   1.780   1.544   0.274 -0.5220  0.0315  0.3170
  939MPD2    C413732   1.690   1.457   0.220  1.3584 -0.1591 -0.5830
  939MPD2    C513733   1.560   1.434   0.269  0.9108 -0.0191 -0.5766
  939MPD2     H13734   1.800   1.681   0.444  2.3290 -0.4328 -0.8858
  939MPD2    H113735   1.720   1.402   0.132  2.1671 -1.3196  0.4108
  939MPD2    H213736   1.426   1.488   0.424 -0.3891  0.2879  0.2762
  939MPD2    H313737   1.493   1.354   0.240  0.2508 -0.4697  2.2328
  939MPD2     N13738   1.914   1.548   0.239 -0.3105 -0.5303 -0.5348
  939MPD2    H513739   1.969   1.623   0.281 -1.9199  0.5706 -0.3958
  939MPD2    N113740   1.563   1.644   0.560  0.0134 -0.0530 -0.1342
  939MPD2    H713741   1.466   1.621   0.578  0.4549  0.7708  3.3374
  940MPD2     C13742   1.621   2.074  13.128 -0.4641  0.1007  0.8861
  940MPD2    C113743   1.486   2.078  13.147 -0.0926 -0.2044 -0.1438
  940MPD2    C213744   1.399   2.069  13.042 -0.8723 -0.0718  0.8048
  940MPD2    C313745   1.447   2.038  12.918  0.2378  0.2703 -0.4467
  940MPD2    C413746   1.580   2.019  12.895  0.5437 -1.2569 -0.1522
  940MPD2    C513747   1.666   2.041  13.003  0.1967 -0.8552 -0.1826
  940MPD2     H13748   1.295   2.083  13.069 -0.1904  0.7800  3.0277
  940MPD2    H113749   1.625   1.994  12.800 -0.3310 -1.1557 -0.5848
  940MPD2    H213750   1.695   2.109  13.199 -0.6280 -2.4563  2.3316
  940MPD2    H313751   1.774   2.041  12.991  0.5895 -3.8197  3.4782
  940MPD2     N13752   1.364   2.010  12.806 -0.4873  0.1469  0.7520
  940MPD2    H513753   1.408   1.979  12.720  1.2795  1.7749  1.0647
  940MPD2    N113754   1.440   2.104  13.282  0.3313 -0.3635  0.2141
  940MPD2    H713755   1.340   2.114  13.296  0.4401 -1.2257  1.5379
  941MPD2     C13756   0.225   1.580   9.357 -0.0265  0.5031  0.1798
  941MPD2    C113757   0.310   1.525   9.453 -0.1127 -0.0866 -0.5278
  941MPD2    C213758   0.268   1.404   9.505 -0.4352  0.2630  0.0884
  941MPD2    C313759   0.145   1.347   9.471 -1.3948 -0.7104 -0.5933
  941MPD2    C413760   0.055   1.405   9.390 -0.0488 -0.1708 -0.0658
  941MPD2    C513761   0.104   1.519   9.326  0.2791 -0.7619  0.2019
  941MPD2     H13762   0.332   1.353   9.576 -0.2831 -0.0259 -0.2582
  941MPD2    H113763   4.685   1.359   9.358 -1.2728  2.1464  0.1281
  941MPD2    H213764   0.232   1.684   9.325  3.4781  0.2754  0.2405
  941MPD2    H313765   0.043   1.567   9.250  2.8978 -1.2343 -2.1908
  941MPD2     N13766   0.101   1.221   9.524  0.6163 -0.3563 -0.4539
  941MPD2    H513767   0.011   1.190   9.489 -0.0822  0.1344  0.8854
  941MPD2    N113768   0.428   1.584   9.495  0.2556 -0.2189  0.2650
  941MPD2    H713769   0.472   1.543   9.577  2.4193  0.7660 -0.3791
  942MPD2     C13770   0.199   3.506   9.550 -0.3289 -0.1471 -0.3718
  942MPD2    C113771   0.175   3.467   9.420  0.0689  0.0276  0.5671
  942MPD2    C213772   0.280   3.469   9.328  0.1247  0.5155 -0.4768
  942MPD2    C313773   0.406   3.515   9.358 -0.1480  0.1573  0.0694
  942MPD2    C413774   0.424   3.565   9.490  0.2509  0.3344 -0.6431
  942MPD2    C513775   0.322   3.561   9.579  0.4110 -0.2052  0.2858
  942MPD2     H13776   0.259   3.425   9.231  0.8576 -0.2453 -0.2806
  942MPD2    H113777   0.518   3.615   9.513  1.1139 -2.4002  1.8010
  942MPD2    H213778   0.119   3.511   9.623  1.5349  0.6282  1.6144
  942MPD2    H313779   0.338   3.598   9.680 -0.8572 -0.7084  0.6685
  942MPD2     N13780   0.521   3.500   9.277  0.8392 -0.0222  0.4868
  942MPD2    H513781   0.607   3.515   9.329 -0.5276  0.3061  2.6569
  942MPD2    N113782   0.048   3.425   9.372  0.4491 -0.4525 -0.1527
  942MPD2    H713783   0.050   3.378   9.281 -2.0753 -1.1234  0.1472
  943MPD2     C13784   2.704   1.492   9.067  0.4626  0.1817 -0.0230
  943MPD2    C113785   2.820   1.426   9.109 -0.0157 -0.2376  0.2383
  943MPD2    C213786   2.945   1.486   9.097  0.6013 -0.5616 -0.1713
  943MPD2    C313787   2.953   1.614   9.034 -0.1941  0.2730  0.8700
  943MPD2    C413788   2.835   1.672   8.991  0.8507 -0.3160 -0.2020
  943MPD2    C513789   2.711   1.616   9.001  0.2150  0.0089 -0.3395
  943MPD2     H13790   3.032   1.447   9.148  1.0171 -1.9155 -1.9289
  943MPD2    H113791   2.847   1.773   8.953 -2.0938  0.3275  0.6174
  943MPD2    H213792   2.608   1.444   9.080  0.1829  1.3987  2.4864
  943MPD2    H313793   2.622   1.668   8.966  1.2800  1.3834 -1.0438
  943MPD2     N13794   3.073   1.689   9.014  0.2947  0.5477 -0.0039
  943MPD2    H513795   3.062   1.787   8.990 -2.4676  0.1397 -0.4452
  943MPD2    N113796   2.797   1.308   9.178  0.1610 -0.0207  0.0864
  943MPD2    H713797   2.700   1.291   9.200  0.5619 -1.4723  0.7613
  944MPD2     C13798   3.334   0.093  10.792  0.1220 -0.4254  0.1861
  944MPD2    C113799   3.396   0.211  10.756  0.2146 -0.2498  0.2071
  944MPD2    C213800   3.430   0.302  10.849 -0.5046  0.4875 -0.3035
  944MPD2    C313801   3.393   0.286  10.981 -0.2578 -0.4418 -0.5688
  944MPD2    C413802   3.331   0.168  11.017 -0.0429  0.0569  0.3394
  944MPD2    C513803   3.306   0.072  10.924 -0.5331  0.8411 -0.5748
  944MPD2     H13804   3.484   0.395  10.831 -2.2047  1.7137  0.8963
  944MPD2    H113805   3.319   0.141  11.122 -3.1506 -0.1685 -0.0826
  944MPD2    H213806   3.302   0.019  10.719  1.9435 -0.8943 -0.1363
  944MPD2    H313807   3.259   4.705  10.962  1.1107 -0.9419 -2.7242
  944MPD2     N13808   3.437   0.384  11.072 -0.0831 -0.4187 -0.0783
  944MPD2    H513809   3.499   0.455  11.035  0.5216 -0.3493  1.0722
  944MPD2    N113810   3.422   0.231  10.619 -0.3649 -0.6995 -0.1744
  944MPD2    H713811   3.429   0.149  10.560  2.8027 -0.1544 -0.5925
    1TCq1    O113812   1.505   0.690  14.137  0.3583 -0.0144  1.1349
    1TCq1    C113813   1.545   0.812  14.099 -0.3201  0.2524  0.1621
    1TCq1    O213814   1.488   0.882  14.020  0.0235  0.4524  0.5182
    1TCq1    C213815   1.598   0.867  14.221  0.2384  0.3339 -0.6445
    1TCq1    C313816   1.710   0.796  14.247  0.4055 -0.7946 -0.3231
    1TCq1    C413817   1.765   0.843  14.366 -0.0637  0.0966 -0.3517
    1TCq1    C513818   1.701   0.939  14.449 -0.8595 -0.3270  0.2087
    1TCq1    C613819   1.596   1.012  14.392 -0.5118 -0.4858  0.1289
    1TCq1    C713820   1.545   0.978  14.274 -0.2954 -0.5415 -0.3418
    1TCq1    C813821   1.539   1.125  14.464 -0.2318  0.0845 -0.3961
    1TCq1    O413822   1.545   1.124  14.586  0.3914  0.0794 -0.5227
    1TCq1    C913823   1.860   0.753  14.417  0.5475  0.0445  0.8360
    1TCq1    O513824   1.874   0.740  14.542 -0.2022  0.4778  0.0732
    1TCq1    O613825   1.920   0.686  14.330  0.1896 -0.3820 -0.1138
    1TCq1    H113826   1.551   0.667  14.220 -1.5469 -1.1112  1.9026
    1TCq1    H213827   1.736   0.698  14.209  1.0501 -0.4518 -0.7622
    1TCq1    H313828   1.742   0.960  14.548  0.9389  1.6741 -0.9600
    1TCq1    H413829   1.455   1.015  14.227 -0.6601 -1.9570 -0.7729
    2MPD2     C13830   1.391   1.585  14.539  0.5583 -0.9920  0.9084
    2MPD2    C113831   1.467   1.575  14.428 -0.7005 -0.1338 -0.5749
    2MPD2    C213832   1.485   1.451  14.369  0.7790  0.4426  0.6736
    2MPD2    C313833   1.455   1.339  14.434 -0.4375 -0.1537  0.0385
    2MPD2    C413834   1.381   1.341  14.553 -0.7892  0.4865 -0.2746
    2MPD2    C513835   1.340   1.465  14.591 -0.1160  0.3358  0.7400
    2MPD2     H13836   1.538   1.442  14.275 -1.0121  0.0047 -0.2913
    2MPD2    H113837   1.352   1.254  14.611  3.5797 -2.0674 -1.9140
    2MPD2    H213838   1.379   1.677  14.596  0.4705 -1.6688  1.9951
    2MPD2    H313839   1.284   1.476  14.682  2.4557  1.9614  2.1435
    2MPD2     N13840   1.495   1.221  14.374  0.1198 -0.8336  0.4125
    2MPD2    H513841   1.524   1.221  14.277  1.9850 -1.5426  0.9741
    2MPD2    N113842   1.514   1.698  14.366  0.1925  0.1952  0.1146
    2MPD2    H713843   1.493   1.789  14.407 -0.8482  0.3473 -0.7607
    3TMC2    C113844   1.632   1.848  14.223 -0.7425 -0.1330 -0.3699
    3TMC2    C213845   1.529   1.932  14.217  0.0316  0.3768 -0.0990
    3TMC2    C313846   1.544   2.050  14.147  0.2962  0.4841  0.0539
    3TMC2    C413847   1.743   1.872  14.145 -0.3572  0.4827 -0.5429
    3TMC2    C513848   1.757   1.991  14.074 -0.3701  0.2675 -0.2867
    3TMC2    C613849   1.656   2.083  14.062  0.4575  0.0640  0.0803
    3TMC2     C13850   1.603   1.713  14.265 -0.8668 -0.1723  0.4679
    3TMC2     O13851   1.671   1.629  14.212 -0.5478 -0.4851 -0.3789
    3TMC2     H13852   1.434   1.918  14.269  0.5922 -1.5028  0.4057
    3TMC2    H113853   1.813   1.790  14.139  0.4287  0.8770  3.3333
    3TMC2    H213854   1.668   2.183  14.020 -1.5575  0.2016 -0.1577
    3TMC2    C713855   1.880   2.004  13.994  0.0992 -0.1439 -0.1003
    3TMC2    C813856   1.462   2.161  14.198 -0.0274  0.7197  0.5912
    3TMC2    O113857   1.963   1.915  14.002 -0.6490  0.4167 -0.6638
    3TMC2    O213858   1.423   2.245  14.119 -0.2695 -0.1379 -0.1956
    3TMC2    O513859   1.534   2.189  14.309 -0.2621 -0.0209  0.1870
    3TMC2    H513860   1.590   2.121  14.352  0.2519  1.8281  2.4130
    4MPD2     C13861   0.992   2.815  13.445  0.2765  0.2526  0.7858
    4MPD2    C113862   1.000   2.734  13.336  0.4633  0.7282  0.2501
    4MPD2    C213863   1.127   2.688  13.297 -0.4162 -0.4304 -0.4408
    4MPD2    C313864   1.238   2.710  13.376 -0.1850  0.4251 -0.1468
    4MPD2    C413865   1.225   2.791  13.486 -0.2534  0.2693  0.2769
    4MPD2    C513866   1.103   2.833  13.526  0.4485 -0.1709  0.2764
    4MPD2     H13867   1.143   2.628  13.208 -0.8960 -0.3057 -0.6130
    4MPD2    H113868   1.303   2.808  13.560  0.3029  0.7035 -0.4006
    4MPD2    H213869   0.898   2.849  13.488 -0.3146 -0.3879 -0.0092
    4MPD2    H313870   1.096   2.896  13.614 -1.9952 -1.2505  0.8539
    4MPD2     N13871   1.364   2.660  13.337  0.1509  0.3285 -0.5340
    4MPD2    H513872   1.377   2.596  13.259  3.8829  1.5461 -0.9348
    4MPD2    N113873   0.888   2.710  13.252  0.5032 -0.4628  0.4339
    4MPD2    H713874   0.799   2.728  13.297  0.1576 -0.4149 -0.2761
    5TCq2    C113875   1.486   2.712  13.382 -0.1974  0.4642  0.3277
    5TCq2    O213876   1.503   2.806  13.460  0.2363 -0.3337  0.0697
    5TCq2    C213877   1.607   2.651  13.326 -0.3384  0.7631 -0.0771
    5TCq2    C313878   1.714   2.743  13.322 -0.6321 -0.4906  0.2348
    5TCq2    C413879   1.833   2.701  13.365  0.8346  0.7503 -0.0525
    5TCq2    C513880   1.852   2.572  13.405  0.1459 -0.2160  0.1322
    5TCq2    C613881   1.757   2.481  13.390  0.3196  0.5511  0.0256
    5TCq2    C713882   1.632   2.520  13.370  0.2372 -0.7793  0.1023
    5TCq2    C813883   1.770   2.357  13.467 -0.3944  0.4072 -0.3789
    5TCq2    O413884   1.676   2.328  13.536 -0.0960 -0.5913 -0.3513
    5TCq2    C913885   1.940   2.795  13.378  0.1168 -0.1440 -0.0256
    5TCq2    O513886   2.049   2.740  13.410  1.1919  0.8983 -0.2842
    5TCq2    O613887   1.912   2.917  13.367 -0.3981 -0.1928 -0.3248
    5TCq2    H213888   1.702   2.843  13.282  0.8568  0.0182  1.0661
    5TCq2    H313889   1.950   2.541  13.440  0.1084  1.1866  1.5062
    5TCq2    H413890   1.551   2.448  13.374  0.1299 -0.5701  1.7149
    6MPD1     C13891   0.141   4.091  13.421 -0.7573 -0.2798  0.1246
    6MPD1    C113892   0.220   4.120  13.318  0.4134 -0.1329 -0.6328
    6MPD1    C213893   0.263   4.014  13.242 -0.3045 -0.5558  0.3103
    6MPD1    C313894   0.214   3.882  13.268 -0.5263 -0.0677 -0.4027
    6MPD1    C413895   0.125   3.856  13.374  0.8277  0.1354  0.0172
    6MPD1    C513896   0.089   3.962  13.446  0.4186  0.4029 -0.4156
    6MPD1     H13897   0.337   4.026  13.164 -1.2337 -1.7541 -0.7513
    6MPD1    H113898   0.075   3.764  13.402  1.4173  0.0105  0.6534
    6MPD1    H213899   0.114   4.166  13.495 -0.1954  1.7768 -1.7420
    6MPD1    H313900   0.023   3.952  13.531 -1.8544  0.7375 -2.1383
    6MPD1     N13901   0.275   3.771  13.208 -0.4056  0.2331  0.7891
    6MPD1    H513902   0.274   3.684  13.259 -0.5460 -0.2765 -0.0977
    6MPD1    N113903   0.276   4.247  13.291 -0.5182 -0.2294  0.1094
    6MPD1    H613904   0.290   4.265  13.192 -2.5560  0.8337  0.0091
    6MPD1    H713905   0.216   4.325  13.319  0.8244  0.9010 -0.1350
    7MPD2     C13906   0.398   3.184  13.463  0.6937  0.2370 -0.7923
    7MPD2    C113907   0.437   3.198  13.334 -0.4286  0.2489  0.2706
    7MPD2    C213908   0.442   3.082  13.249 -0.6102 -0.6614  0.5768
    7MPD2    C313909   0.419   2.960  13.297 -0.1758 -0.6984 -0.4462
    7MPD2    C413910   0.377   2.944  13.426 -0.2080  0.4670 -0.5672
    7MPD2    C513911   0.374   3.055  13.511 -0.0668 -0.0455  0.2344
    7MPD2     H13912   0.469   3.099  13.146  0.6176 -0.6980  0.8962
    7MPD2    H113913   0.348   2.846  13.463 -1.3789  0.3519 -1.8004
    7MPD2    H213914   0.382   3.269  13.528  0.5868 -0.4964  0.1347
    7MPD2    H313915   0.352   3.041  13.616 -2.5378  0.6177 -0.2001
    7MPD2     N13916   0.455   2.845  13.222  0.3644  0.9150  0.0893
    7MPD2    H513917   0.472   2.757  13.270  0.0274  1.4999  1.2668
    7MPD2    N113918   0.472   3.330  13.296 -0.1529  0.1822 -0.2404
    7MPD2    H713919   0.462   3.408  13.360  1.0075  0.4460 -0.3755
    8TMC3    C113920   0.544   2.730  13.035  0.4020 -0.3558 -0.0079
    8TMC3    C213921   0.650   2.684  13.111  0.3430 -0.4525 -0.2807
    8TMC3    C313922   0.768   2.653  13.051 -0.9239  0.2175 -0.1541
    8TMC3    C413923   0.550   2.724  12.899 -0.0242  0.1777 -0.2480
    8TMC3    C513924   0.669   2.699  12.843  0.4401  0.1681  0.6219
    8TMC3    C613925   0.779   2.665  12.915  0.6674 -0.0633 -0.3793
    8TMC3     C13926   0.465   2.839  13.089  0.1714 -0.2402  0.3441
    8TMC3     O13927   0.413   2.908  12.999 -0.1559  0.4548  0.0871
    8TMC3     H13928   0.642   2.664  13.217  0.7617  0.3888 -0.0864
    8TMC3    H113929   0.465   2.758  12.842 -1.9374 -1.2683  1.7367
    8TMC3    H213930   0.875   2.639  12.871  1.3205 -0.9969  1.6177
    8TMC3    C713931   0.701   2.789  12.737  0.6199 -0.0877 -0.6344
    8TMC3    C813932   0.891   2.660  13.126  0.1364 -0.2856 -0.2716
    8TMC3    O113933   0.790   2.773  12.659 -0.4622 -0.5410  0.7790
    8TMC3    O213934   0.987   2.643  13.056  0.2805 -0.1316 -0.4334
    9TMC3    C113935   0.422   3.663  13.053  0.0951 -0.5073 -0.1482
    9TMC3    C213936   0.483   3.657  12.927  0.6259 -1.1068  0.1411
    9TMC3    C313937   0.585   3.569  12.913 -0.2086 -0.7139 -0.1285
    9TMC3    C413938   0.462   3.585  13.154 -0.2223 -0.1616 -0.0972
    9TMC3    C513939   0.567   3.505  13.141  0.2108 -0.3422 -0.3602
    9TMC3    C613940   0.635   3.500  13.022 -0.7321  0.4581  0.2276
    9TMC3     C13941   0.328   3.773  13.081 -0.2258 -0.3131 -0.0299
    9TMC3     O13942   0.332   3.867  12.992  0.1367  0.0404  0.5604
    9TMC3     H13943   0.447   3.716  12.844  0.3401  1.1796  1.8735
    9TMC3    H113944   0.393   3.574  13.237  1.3298 -0.2202  1.1842
    9TMC3    H213945   0.722   3.437  13.014 -0.6763  0.5514  0.1104
    9TMC3    C713946   0.527   3.364  13.172  0.0021 -0.1670  0.7242
    9TMC3    C813947   0.598   3.506  12.787  0.0956  0.1995 -0.3080
    9TMC3    O113948   0.541   3.297  13.069  0.6595 -0.5075 -0.7556
    9TMC3    O213949   0.619   3.575  12.690 -0.5017 -0.3544 -0.0699
   10MPD2     C13950   0.708   3.044  12.572  0.1459 -0.0592  0.3994
   10MPD2    C113951   0.651   3.030  12.698 -0.0393  0.6400  0.0088
   10MPD2    C213952   0.585   3.139  12.755 -0.0369  0.7337  0.0531
   10MPD2    C313953   0.605   3.266  12.714  0.0542  0.1144  0.2314
   10MPD2    C413954   0.672   3.280  12.592 -0.8234  0.6757  0.1900
   10MPD2    C513955   0.723   3.173  12.525 -0.6136 -0.1382 -0.9191
   10MPD2     H13956   0.539   3.114  12.850 -1.7216  4.2177  0.1460
   10MPD2    H113957   0.691   3.379  12.552  1.3858 -0.2227 -0.9526
   10MPD2    H213958   0.737   2.955  12.517 -1.1286 -1.2869  1.7107
   10MPD2    H313959   0.774   3.189  12.430  3.0967 -2.1079  0.7304
   10MPD2     N13960   0.580   3.374  12.805  0.5633  0.1379 -0.3089
   10MPD2    H513961   0.554   3.351  12.900 -3.1867 -0.0704 -1.3589
   10MPD2    N113962   0.638   2.904  12.766 -0.2845  0.1144 -0.2134
   10MPD2    H713963   0.584   2.908  12.852 -0.1875 -1.7201 -0.0674
   11MPD2     C13964   2.072   2.067  13.761  0.3029 -0.3169  0.1235
   11MPD2    C113965   1.948   2.114  13.780 -0.0699 -0.5091 -0.4924
   11MPD2    C213966   1.894   2.194  13.679  0.1103 -0.5425  0.8112
   11MPD2    C313967   1.956   2.233  13.567 -0.4698  0.1235  0.6341
   11MPD2    C413968   2.085   2.187  13.551 -0.7565  0.6401 -0.1580
   11MPD2    C513969   2.141   2.108  13.647 -0.4628  0.0613 -0.6119
   11MPD2     H13970   1.794   2.229  13.702  0.0153 -1.1620  1.3196
   11MPD2    H113971   2.135   2.222  13.461  0.7080 -2.5888 -0.5957
   11MPD2    H213972   2.117   2.014  13.844  0.0480  0.3953  0.7150
   11MPD2    H313973   2.247   2.089  13.631  0.1665  2.0029  1.3386
   11MPD2     N13974   1.897   2.314  13.473  0.0776 -0.5387 -0.7215
   11MPD2    H513975   1.956   2.335  13.393  0.6628  1.7683  0.3295
   11MPD2    N113976   1.863   2.097  13.894  0.2046 -0.2169 -0.0441
   11MPD2    H713977   1.778   2.153  13.888  0.5762  0.2103 -1.3520
    1MPD1     C13978   3.498   3.317  17.079  0.2175 -0.5262  0.1065
    1MPD1    C113979   3.543   3.439  17.124  0.7915 -0.0144 -0.2293
    1MPD1    C213980   3.624   3.513  17.037 -0.3443 -0.6692  0.2064
    1MPD1    C313981   3.663   3.462  16.915  0.7416  0.0807  0.6522
    1MPD1    C413982   3.626   3.333  16.882  0.0510  0.1073  0.6681
    1MPD1    C513983   3.545   3.254  16.966 -0.2546  0.6320 -0.8634
    1MPD1     H13984   3.657   3.612  17.065  0.3308 -0.5768 -0.9228
    1MPD1    H113985   3.658   3.291  16.788  2.7741  0.1639  1.5546
    1MPD1    H213986   3.433   3.256  17.141 -1.0554  0.1530 -0.5630
    1MPD1    H313987   3.525   3.151  16.939 -0.8061  0.2399  1.0209
    1MPD1     N13988   3.750   3.530  16.823 -0.3253  0.4649  0.1375
    1MPD1    H513989   3.747   3.495  16.728  0.4228  1.3794 -0.2192
    1MPD1    N113990   3.479   3.503  17.230 -0.2146  0.4073 -0.2345
    1MPD1    H613991   3.528   3.589  17.250 -2.2962  1.5055  0.1566
    1MPD1    H713992   3.479   3.459  17.322 -0.2823  1.5400  0.3081
    2MPD1     C13993   4.435   4.361  16.639  0.4336  0.3361 -0.0716
    2MPD1    C113994   4.345   4.351  16.538 -0.0298  0.4434  0.5199
    2MPD1    C213995   4.256   4.247  16.532 -0.5160  0.5910 -0.3974
    2MPD1    C313996   4.252   4.159  16.640  0.9273 -0.7326  0.6712
    2MPD1    C413997   4.339   4.175  16.746  0.7570  0.1707 -0.1852
    2MPD1    C513998   4.434   4.270  16.740  1.0779  0.5821 -0.3673
    2MPD1     H13999   4.186   4.231  16.451 -1.0602 -0.0917  0.2119
    2MPD1    H114000   4.334   4.113  16.835  0.7984  1.8311  0.9512
    2MPD1    H214001   4.511   4.439  16.634  0.4505  0.5316  3.3650
    2MPD1    H314002   4.513   4.277  16.814  0.0962  2.5861  0.4902
    2MPD1     N14003   4.162   4.053  16.628  0.0957 -0.0159  0.7612
    2MPD1    H514004   4.118   4.043  16.537 -1.8233  1.4222  1.5172
    2MPD1    N114005   4.320   4.460  16.453 -0.1856  0.2447  0.3097
    2MPD1    H614006   4.268   4.435  16.370  2.0648 -0.9846 -0.7271
    2MPD1    H714007   4.401   4.515  16.422 -1.0811  1.7962  0.7068
    3TMC3    C114008   4.033   3.863  16.680 -0.1356  0.5172 -0.1162
    3TMC3    C214009   4.079   3.797  16.570 -0.1853  0.1661  0.5290
    3TMC3    C314010   4.045   3.666  16.570 -0.1298  0.6616  0.2411
    3TMC3    C414011   3.948   3.805  16.778  0.5867  0.2774 -0.0322
    3TMC3    C514012   3.911   3.680  16.760  0.2448 -0.3214 -0.0898
    3TMC3    C614013   3.958   3.605  16.654 -0.0432  0.0289  0.0026
    3TMC3     C14014   4.114   3.975  16.729 -0.1567 -0.5342 -0.7568
    3TMC3     O14015   4.125   3.988  16.851  0.0666 -0.5566 -0.4873
    3TMC3     H14016   4.156   3.828  16.502 -0.1849 -1.8239 -0.3938
    3TMC3    H114017   3.917   3.863  16.864  0.4727  0.0569  0.0761
    3TMC3    H214018   3.954   3.497  16.644  2.5213 -0.1446  0.9510
    3TMC3    C714019   3.828   3.635  16.868  0.2525 -0.0377 -0.0639
    3TMC3    C814020   4.115   3.585  16.487 -0.4540 -0.4217  0.7654
    3TMC3    O114021   3.866   3.670  16.982 -0.3778 -0.1326  0.2259
    3TMC3    O214022   4.046   3.514  16.417  0.3529  0.1695  0.5174
    4MPD1     C14023   4.521   3.489  16.189 -0.0432 -0.4821  0.3178
    4MPD1    C114024   4.565   3.555  16.306  0.1007 -0.6893  0.0359
    4MPD1    C214025   4.479   3.577  16.404 -0.3141 -0.4577  0.3214
    4MPD1    C314026   4.343   3.558  16.379  0.1364  0.1365  0.1748
    4MPD1    C414027   4.296   3.517  16.259 -0.3753 -0.4486 -0.3849
    4MPD1    C514028   4.383   3.482  16.163 -0.2283  0.0298  0.1917
    4MPD1     H14029   4.509   3.611  16.503 -1.7107  1.2873  0.1345
    4MPD1    H114030   4.191   3.499  16.242 -0.2622 -1.9313  0.4460
    4MPD1    H214031   4.594   3.448  16.119 -0.1027 -0.7158  0.3962
    4MPD1    H314032   4.347   3.446  16.068  0.7612  1.8890 -0.8969
    4MPD1     N14033   4.252   3.606  16.481  0.4872 -0.5453  0.4537
    4MPD1    H514034   4.286   3.658  16.561 -0.2051  0.2345  0.2496
    4MPD1    N114035   4.701   3.547  16.344  0.3803  0.0941 -0.0454
    4MPD1    H614036   4.717   3.628  16.404 -0.4812  0.8838 -0.8749
    4MPD1    H714037   0.028   3.567  16.257  0.7052  1.1534  0.3871
    1TCq1    O114038   1.035   2.671  12.628  0.6025 -0.0587 -0.3887
    1TCq1    C114039   1.131   2.710  12.539 -0.7029 -0.1150 -0.0911
    1TCq1    O214040   1.251   2.682  12.547  0.0611 -0.0888  0.3837
    1TCq1    C214041   1.072   2.834  12.473  0.3860  0.0955 -0.1805
    1TCq1    C314042   1.153   2.938  12.455  0.0057  0.5096 -0.3416
    1TCq1    C414043   1.125   3.033  12.357  0.3053  0.2570  0.6105
    1TCq1    C514044   1.001   3.037  12.307 -0.7946  0.1770  0.0986
    1TCq1    C614045   0.915   2.927  12.323 -0.8727  1.1082  0.8692
    1TCq1    C714046   0.955   2.824  12.407 -0.2049 -0.0675  0.6400
    1TCq1    C814047   0.780   2.916  12.269  0.3096  0.4034 -0.3373
    1TCq1    O414048   0.723   2.808  12.306 -0.4718 -0.1129 -0.1509
    1TCq1    C914049   1.201   3.149  12.370  0.5189  0.4207  0.1949
    1TCq1    O514050   1.320   3.140  12.408 -0.2237  0.6144  0.1855
    1TCq1    O614051   1.136   3.259  12.355  0.1154 -0.1604 -0.4349
    1TCq1    H114052   0.957   2.729  12.618  1.3901  1.1366  0.4251
    1TCq1    H214053   1.253   2.933  12.497 -0.7568 -1.2672  1.2802
    1TCq1    H314054   0.971   3.131  12.262  0.5519  0.0594 -1.0327
    1TCq1    H414055   0.902   2.730  12.408 -0.2234 -0.0482  1.1067
    2MPD1     C14056   0.405   3.068  11.958  0.2100  1.0227  0.1552
    2MPD1    C114057   0.488   3.175  11.961 -0.0099  0.0154 -0.6009
    2MPD1    C214058   0.606   3.152  12.042  0.7300  0.8374 -0.3440
    2MPD1    C314059   0.632   3.036  12.115  1.1211 -0.1990 -0.0401
    2MPD1    C414060   0.532   2.941  12.112 -0.1357  0.2247  0.0459
    2MPD1    C514061   0.422   2.965  12.038  0.1337  0.3767  0.5787
    2MPD1     H14062   0.682   3.228  12.027  0.2734  1.6229  1.3258
    2MPD1    H114063   0.538   2.839  12.148 -1.7199  0.0101 -0.3124
    2MPD1    H214064   0.321   3.065  11.890 -1.7680 -1.5730  2.7193
    2MPD1    H314065   0.356   2.880  12.024 -0.8393  1.4112 -1.0831
    2MPD1     N14066   0.755   3.017  12.180  0.1933  0.9081 -0.3545
    2MPD1    H514067   0.833   3.079  12.163 -0.1613  1.3309 -0.4501
    2MPD1    N114068   0.487   3.276  11.864 -0.7879  0.2725 -0.1643
    2MPD1    H614069   0.393   3.313  11.849 -1.1374 -0.3851  0.4052
    2MPD1    H714070   0.534   3.361  11.895 -0.8489  0.0963  0.4177
    1TCq1    O114071   0.835   0.436   1.133 -0.7318  0.2166 -0.4802
    1TCq1    C114072   0.935   0.408   1.220 -0.6725 -0.1459  0.1236
    1TCq1    O214073   1.054   0.405   1.193  0.4543  0.6017  0.0911
    1TCq1    C214074   0.883   0.343   1.341 -0.8778  0.0657 -0.2679
    1TCq1    C314075   0.768   0.382   1.404 -0.0268  0.4658 -0.4364
    1TCq1    C414076   0.764   0.378   1.541 -0.0864  0.4035 -0.5148
    1TCq1    C514077   0.853   0.323   1.627 -0.5791  0.1694 -0.6548
    1TCq1    C614078   0.965   0.280   1.560  0.1149  0.2785  0.7330
    1TCq1    C714079   0.988   0.311   1.424 -0.3765  1.0195 -0.3920
    1TCq1    C814080   1.064   0.214   1.642 -0.1762  0.7051  0.0015
    1TCq1    O414081   1.173   0.204   1.586  0.0250 -0.4465  0.0302
    1TCq1    C914082   0.657   0.455   1.603 -0.0284 -0.2076  0.0299
    1TCq1    O514083   0.655   0.475   1.732 -0.3352 -1.0392 -0.0477
    1TCq1    O614084   0.583   0.525   1.528  0.4591 -1.2265  0.4605
    1TCq1    H114085   0.745   0.417   1.167 -0.7133  0.0327 -0.5355
    1TCq1    H214086   0.704   0.444   1.344 -2.0523 -0.4616  0.7277
    1TCq1    H314087   0.840   0.319   1.735  2.4264 -0.6731 -0.3040
    1TCq1    H414088   1.089   0.296   1.387  0.0549  2.2275  0.3092
    2MPD1     C14089   1.198   4.629   2.039 -0.4694  0.1280 -0.0773
    2MPD1    C114090   1.073   4.688   2.061 -0.8719  0.7591 -0.0267
    2MPD1    C214091   1.021   0.047   1.965  0.3361 -0.1052  0.2593
    2MPD1    C314092   1.089   0.080   1.848 -0.0615  0.7753  0.2090
    2MPD1    C414093   1.208   0.022   1.825  0.9909  0.7771 -0.5498
    2MPD1    C514094   1.260   4.658   1.918 -0.0625  0.5039 -0.2843
    2MPD1     H14095   0.930   0.102   1.987  0.2831  0.0880 -0.4573
    2MPD1    H114096   1.258   0.039   1.730  1.7807  0.7030 -0.1525
    2MPD1    H214097   1.246   4.563   2.110  0.7717  0.1587 -0.8837
    2MPD1    H314098   1.348   4.602   1.889 -0.0732 -0.3539  1.3182
    2MPD1     N14099   1.014   0.162   1.759  0.1356  0.1873  0.2236
    2MPD1    H514100   0.918   0.182   1.788 -0.2796 -0.8235 -0.4685
    2MPD1    N114101   0.998   4.651   2.172  0.3434  0.5041 -0.5929
    2MPD1    H614102   0.936   0.007   2.193  1.2916  0.8172  1.0498
    2MPD1    H714103   1.046   4.624   2.257 -1.7758  2.9577  1.3809
    1MPD1     C14104   1.948   4.089  10.798  0.5244 -0.6067  0.3920
    1MPD1    C114105   1.951   4.216  10.849 -0.8545  0.2322  0.0581
    1MPD1    C214106   2.063   4.243  10.928  0.2997 -0.2607  0.7547
    1MPD1    C314107   2.150   4.154  10.970 -0.3641 -0.0679 -0.1329
    1MPD1    C414108   2.141   4.025  10.917  0.5660  0.5958 -0.3299
    1MPD1    C514109   2.049   4.007  10.820  0.0583  0.3018  0.7630
    1MPD1     H14110   2.065   4.347  10.959 -0.7364  0.0428 -0.2033
    1MPD1    H114111   2.213   3.946  10.933 -2.6128 -1.9328  1.2776
    1MPD1    H214112   1.878   4.060  10.720 -0.0167 -0.5680  0.8634
    1MPD1    H314113   2.063   3.915  10.764 -1.5298  0.0609  0.7798
    1MPD1     N14114   2.252   4.199  11.056  0.0760  0.3752 -0.0434
    1MPD1    H514115   2.244   4.298  11.078  0.8105  0.7084 -1.2962
    1MPD1    N114116   1.871   4.311  10.796  0.1199  0.6625  0.1752
    1MPD1    H614117   1.784   4.286  10.748  0.4087 -0.1895  0.0978
    1MPD1    H714118   1.843   4.388  10.857 -2.0964  0.6144 -0.7834
    2MPD1     C14119   1.459   4.099  10.432  0.3417 -0.0213 -0.2661
    2MPD1    C114120   1.592   4.122  10.429  0.0255  0.1038  0.4887
    2MPD1    C214121   1.671   4.018  10.476  0.1218  0.1646  0.0915
    2MPD1    C314122   1.619   3.891  10.514  0.2516 -0.2657 -0.0382
    2MPD1    C414123   1.489   3.871  10.493  0.6410  0.0391 -1.3817
    2MPD1    C514124   1.411   3.972  10.454 -0.2767  0.0718 -0.1908
    2MPD1     H14125   1.777   4.041  10.478 -0.5727  3.4574 -1.0646
    2MPD1    H114126   1.443   3.773  10.499  0.4271  0.2051 -0.3987
    2MPD1    H214127   1.395   4.184  10.410 -0.2580  0.0405  1.6269
    2MPD1    H314128   1.305   3.955  10.439  0.1516 -0.8217 -2.0934
    2MPD1     N14129   1.698   3.778  10.549 -0.0668 -0.3006 -0.7114
    2MPD1    H514130   1.642   3.694  10.559  0.7092 -0.6049  0.9791
    2MPD1    N114131   1.641   4.251  10.389 -0.5705 -0.6278  0.4525
    2MPD1    H614132   1.726   4.240  10.334 -1.7793 -0.4384 -1.4175
    2MPD1    H714133   1.580   4.314  10.338  0.7101  0.3864  0.1551
    3MPD1     C14134   1.584   2.858  10.811  0.4886 -0.3931  0.6727
    3MPD1    C114135   1.650   2.904  10.926 -0.6026 -0.2265 -1.0513
    3MPD1    C214136   1.684   3.035  10.931 -0.0949  0.3834 -0.5560
    3MPD1    C314137   1.693   3.107  10.816 -0.3374  0.1208 -0.5046
    3MPD1    C414138   1.636   3.057  10.697 -0.5776  0.0122 -0.4185
    3MPD1    C514139   1.572   2.937  10.701  0.6726 -0.4198  0.4382
    3MPD1     H14140   1.717   3.073  11.027 -1.2482 -1.4118  0.5371
    3MPD1    H114141   1.634   3.117  10.606  0.4556  0.8469  0.1050
    3MPD1    H214142   1.548   2.757  10.795  0.2720 -0.7709  3.5025
    3MPD1    H314143   1.522   2.898  10.613 -1.4571  0.1192  1.4196
    3MPD1     N14144   1.755   3.230  10.825  0.0887  0.3721 -0.0242
    3MPD1    H514145   1.806   3.252  10.910  0.1466  0.4225 -0.0717
    3MPD1    N114146   1.651   2.817  11.040 -0.1130 -0.1286  0.1244
    3MPD1    H614147   1.722   2.844  11.109 -1.0263  0.5430  0.8053
    3MPD1    H714148   1.670   2.720  11.016  0.5644  1.1788 -4.6128
    4MPD2     C14149   2.785   4.375  10.800 -0.2008  0.0085 -0.3172
    4MPD2    C114150   2.813   4.298  10.906 -0.5537 -0.5213  0.1157
    4MPD2    C214151   2.867   4.176  10.883 -0.1975  0.5515 -0.8563
    4MPD2    C314152   2.897   4.125  10.756  0.5199 -0.4323 -0.1389
    4MPD2    C414153   2.874   4.212  10.656 -0.5033 -0.1739 -0.1485
    4MPD2    C514154   2.828   4.336  10.675 -0.0312  0.9231  0.0548
    4MPD2     H14155   2.895   4.109  10.964 -0.4587  1.7247  0.2026
    4MPD2    H114156   2.899   4.177  10.556  0.4278 -4.0662  1.4110
    4MPD2    H214157   2.748   4.476  10.817 -0.2327  0.1334 -1.0997
    4MPD2    H314158   2.825   4.398  10.586 -2.5927  1.9626  0.8637
    4MPD2     N14159   2.938   3.995  10.723 -0.4762 -0.5976 -0.0359
    4MPD2    H514160   2.944   3.969  10.625 -0.3173  2.9824 -0.9661
    4MPD2    N114161   2.765   4.324  11.035  0.8919  0.0876 -0.0682
    4MPD2    H714162   2.799   4.262  11.108  2.1388  0.7214 -0.1185
    5TMC3    C114163   2.599   4.363  11.194 -0.2051 -0.0664 -0.7360
    5TMC3    C214164   2.476   4.317  11.160  0.0674 -0.4076 -0.7892
    5TMC3    C314165   2.442   4.193  11.203 -0.0362 -0.2146  0.0128
    5TMC3    C414166   2.675   4.285  11.273 -0.5198  0.5917 -0.1363
    5TMC3    C514167   2.643   4.162  11.315 -0.3451 -1.0257 -0.1730
    5TMC3    C614168   2.519   4.114  11.286  0.1062  0.3467  0.3277
    5TMC3     C14169   2.653   4.404  11.064 -0.7507 -0.7573 -0.6363
    5TMC3     O14170   2.589   4.476  10.992  0.7153  0.2518 -0.2807
    5TMC3     H14171   2.420   4.376  11.088  1.6908 -0.5846 -2.2240
    5TMC3    H114172   2.773   4.326  11.296  0.6440 -2.0688 -0.3619
    5TMC3    H214173   2.480   4.025  11.333  2.0384 -1.3442 -1.2798
    5TMC3    C714174   2.744   4.074  11.284  1.0549  0.2957  0.4962
    5TMC3    C814175   2.339   4.120  11.131  0.2524  0.0663  0.6976
    5TMC3    O114176   2.830   4.112  11.206 -0.0088 -1.0149 -0.2714
    5TMC3    O214177   2.324   4.004  11.170  0.6124  0.4974  0.3950
    6TMC3    C114178   1.864   3.651  10.653 -0.1456  0.2049 -0.1145
    6TMC3    C214179   1.773   3.551  10.668  0.6091  0.3663  0.1451
    6TMC3    C314180   1.813   3.438  10.734  0.3597 -0.1376 -0.5709
    6TMC3    C414181   1.994   3.644  10.694  0.0622 -0.9306  0.3985
    6TMC3    C514182   2.035   3.519  10.749  0.5422 -0.3238 -1.0109
    6TMC3    C614183   1.948   3.415  10.770 -0.5067 -0.7719  0.4932
    6TMC3     C14184   1.836   3.772  10.585 -0.6366 -0.1894 -0.2041
    6TMC3     O14185   1.925   3.854  10.564  0.0067  0.4570  0.8525
    6TMC3     H14186   1.666   3.564  10.659  0.4693 -2.0067 -1.6945
    6TMC3    H114187   2.066   3.721  10.669  0.2253 -2.5040 -3.9315
    6TMC3    H214188   1.978   3.317  10.806  0.5686 -0.9503 -0.9000
    6TMC3    C714189   2.172   3.508  10.769 -0.2117 -0.2672 -0.4916
    6TMC3    C814190   1.714   3.337  10.745  0.0368  0.5539 -0.2190
    6TMC3    O114191   2.241   3.606  10.738 -0.6638 -0.0102  0.4360
    6TMC3    O214192   1.602   3.356  10.700 -0.1156  0.4513  0.5141
    7MPD2     C14193   2.864   3.569  11.263  0.3610  0.0326  0.4215
    7MPD2    C114194   2.889   3.671  11.174 -0.3500 -0.5208 -0.1081
    7MPD2    C214195   2.844   3.796  11.201 -0.1428  0.1207 -0.9284
    7MPD2    C314196   2.786   3.827  11.324 -0.4217  0.1941 -1.9249
    7MPD2    C414197   2.761   3.725  11.414  0.1070  0.3094  0.0796
    7MPD2    C514198   2.806   3.603  11.382  0.3409 -0.4268 -0.6920
    7MPD2     H14199   2.838   3.873  11.125 -0.1881 -0.8562 -1.9082
    7MPD2    H114200   2.703   3.746  11.503 -1.5306  2.6360 -1.5227
    7MPD2    H214201   2.898   3.467  11.246 -0.0707  0.1878 -1.3983
    7MPD2    H314202   2.796   3.524  11.456  3.3455 -0.5427 -0.4066
    7MPD2     N14203   2.727   3.950  11.351  0.0507  0.6214  0.0696
    7MPD2    H514204   2.649   3.953  11.415 -0.4198 -1.6181 -0.4009
    7MPD2    N114205   2.958   3.652  11.057  0.1433 -0.4502 -0.0480
    7MPD2    H714206   2.983   3.736  11.006 -2.5516  0.6298  0.3657
    8TMC3    C114207   3.035   3.564  10.870 -0.3353 -0.0983  0.6884
    8TMC3    C214208   2.948   3.500  10.789 -0.4915  0.5137  0.1881
    8TMC3    C314209   2.856   3.576  10.715  0.3098 -0.3882 -0.4283
    8TMC3    C414210   3.059   3.695  10.844  0.7567 -0.2180 -0.6850
    8TMC3    C514211   2.988   3.765  10.755 -0.7641 -0.0208 -0.1717
    8TMC3    C614212   2.875   3.714  10.701  0.0284  0.1386  0.8931
    8TMC3     C14213   2.986   3.535  10.996  0.4144 -0.2207 -0.2945
    8TMC3     O14214   2.948   3.421  11.020  0.3488  0.2799  0.7408
    8TMC3     H14215   2.939   3.393  10.800  0.5192  0.1827 -2.3223
    8TMC3    H114216   3.139   3.757  10.882  1.6556 -0.6886 -1.7957
    8TMC3    H214217   2.809   3.768  10.634  0.5337 -0.1809  0.1326
    8TMC3    C714218   2.961   3.893  10.814  0.0623 -1.4255 -0.0244
    8TMC3    C814219   2.714   3.558  10.744 -0.0815 -1.0340 -0.6706
    8TMC3    O114220   2.976   3.901  10.935 -0.7561  0.5300 -0.4997
    8TMC3    O214221   2.629   3.644  10.711  0.4563 -0.4823 -0.4337
    9MPD2     C14222   2.584   3.323  10.992 -0.3661 -0.1842 -0.0078
    9MPD2    C114223   2.575   3.414  10.888  0.0241  0.2981 -0.2037
    9MPD2    C214224   2.453   3.450  10.842 -0.3203 -0.0786  0.0106
    9MPD2    C314225   2.339   3.383  10.906  0.1247  0.3865  0.5327
    9MPD2    C414226   2.350   3.285  11.002  0.4002  0.1928 -0.0871
    9MPD2    C514227   2.476   3.268  11.053 -0.2329  0.2432 -0.1866
    9MPD2     H14228   2.434   3.511  10.755 -1.1181  0.2068  0.3914
    9MPD2    H114229   2.265   3.255  11.062  0.6354 -0.5680 -0.1320
    9MPD2    H214230   2.683   3.293  11.023 -0.1648  1.6042  1.0758
    9MPD2    H314231   2.493   3.186  11.123 -2.5446 -1.5243 -1.6796
    9MPD2     N14232   2.205   3.421  10.867  0.0903 -0.1347 -0.6827
    9MPD2    H514233   2.138   3.372  10.925  0.5791 -0.4367 -0.3772
    9MPD2    N114234   2.696   3.459  10.839  0.2835 -0.0389  0.4125
    9MPD2    H714235   2.777   3.417  10.884  0.3458  1.0833  1.3430
    1MPD1     C14236   0.944   4.142   0.775 -0.5723  0.0684  0.4297
    1MPD1    C114237   0.941   4.027   0.851 -0.5458  0.0387  0.2991
    1MPD1    C214238   0.827   3.992   0.917 -0.9205  0.5816 -0.2566
    1MPD1    C314239   0.722   4.084   0.919  0.2611 -0.3113  0.2004
    1MPD1    C414240   0.728   4.195   0.840 -0.5394 -0.5208 -0.3348
    1MPD1    C514241   0.843   4.230   0.775  1.1566 -0.5828 -0.6056
    1MPD1     H14242   0.821   3.909   0.985 -0.9410  0.6503 -0.1751
    1MPD1    H114243   0.642   4.262   0.837  2.0425  2.7118 -1.5529
    1MPD1    H214244   1.036   4.165   0.723 -0.8938 -0.5820 -0.4314
    1MPD1    H314245   0.856   4.324   0.722 -1.5638  0.6326  0.8998
    1MPD1     N14246   0.602   4.058   0.982  0.1336  0.4685  1.1087
    1MPD1    H514247   0.534   4.132   0.967  0.9073  0.3139 -2.9827
    1MPD1    N114248   1.040   3.930   0.830 -0.0954  0.2920  0.1351
    1MPD1    H614249   1.047   3.858   0.901 -2.5532 -0.5179 -0.4390
    1MPD1    H714250   1.135   3.961   0.812 -0.0064  0.4199  0.8355
    2MPD1     C14251   0.065   4.264   1.830 -0.2617  0.1084 -0.3276
    2MPD1    C114252   0.072   4.359   1.728  0.4751  1.2693 -0.5269
    2MPD1    C214253   0.129   4.313   1.607  0.2167  0.2607  0.3056
    2MPD1    C314254   0.162   4.185   1.582 -0.6169  0.4193  0.4222
    2MPD1    C414255   0.160   4.091   1.685  0.3141 -0.1035 -0.0633
    2MPD1    C514256   0.107   4.134   1.805  0.3862  0.4467  0.3769
    2MPD1     H14257   0.143   4.391   1.534  2.5610 -0.4614  0.0032
    2MPD1    H114258   0.176   3.985   1.667  2.2339  0.1100  0.3747
    2MPD1    H214259   0.004   4.285   1.918  1.9551  1.4290  0.8886
    2MPD1    H314260   0.087   4.065   1.886 -0.4253 -1.3926 -1.3653
    2MPD1     N14261   0.221   4.152   1.460  0.1588  0.0105 -0.4361
    2MPD1    H514262   0.208   4.223   1.389  2.6594  0.6047 -0.2856
    2MPD1    N114263   0.057   4.499   1.751  0.8223  0.1813  0.4752
    2MPD1    H614264   0.038   4.558   1.670 -0.7295 -0.1791  0.5933
    2MPD1    H714265   4.704   4.513   1.817  0.2674  0.2738 -0.1894
    3TCq2    C114266   0.278   4.037   1.424 -0.1182  0.1278  0.3751
    3TCq2    O214267   0.300   3.935   1.485  0.1543 -0.1534 -0.8103
    3TCq2    C214268   0.294   4.028   1.282 -0.9360 -0.1649 -0.7311
    3TCq2    C314269   0.204   4.094   1.199  0.3110 -0.1126  0.3241
    3TCq2    C414270   0.223   4.071   1.068 -0.6772 -0.3712 -0.2068
    3TCq2    C514271   0.338   4.003   1.019  0.4614 -0.2231  0.1146
    3TCq2    C614272   0.431   3.954   1.102  0.3190 -0.1746  0.2328
    3TCq2    C714273   0.398   3.949   1.236  0.0665  0.2342 -0.7072
    3TCq2    C814274   0.567   3.955   1.070  0.0256 -0.6811  0.7107
    3TCq2    O414275   0.634   3.859   1.106 -0.2125  0.0368  0.6135
    3TCq2    C914276   0.144   4.141   0.974 -0.6571 -0.3686  0.3023
    3TCq2    O514277   0.129   4.087   0.859 -0.1971 -0.2667 -0.0038
    3TCq2    O614278   0.154   4.264   0.999  0.1277 -0.4796  0.3837
    3TCq2    H214279   0.130   4.164   1.237  1.3576  0.2116  1.7814
    3TCq2    H314280   0.361   4.017   0.915 -1.3851 -0.9706 -0.4007
    3TCq2    H414281   0.456   3.885   1.302 -3.6035 -1.6121  0.7130
    1TCq1    O114282   3.958   1.174  12.763  0.3203  0.1216  0.7671
    1TCq1    C114283   4.085   1.139  12.728 -0.3690 -0.6241 -0.2017
    1TCq1    O214284   4.125   1.114  12.615  0.3658  0.0399 -0.2835
    1TCq1    C214285   4.171   1.130  12.846  0.0952  1.1382 -0.0700
    1TCq1    C314286   4.110   1.109  12.970 -0.1263  0.3103 -0.1481
    1TCq1    C414287   4.193   1.066  13.067  0.1420  0.4619 -0.1410
    1TCq1    C514288   4.330   1.062  13.049  0.0628 -0.3235 -0.6604
    1TCq1    C614289   4.381   1.083  12.926 -0.1910 -0.2501  0.4437
    1TCq1    C714290   4.305   1.124  12.819 -0.2992 -0.0360  0.2145
    1TCq1    C814291   4.521   1.111  12.906 -0.3484  0.3278 -0.7300
    1TCq1    O414292   4.558   1.121  12.792  0.0569 -0.0569  0.1942
    1TCq1    C914293   4.142   1.041  13.204  0.8707 -0.7246 -0.5043
    1TCq1    O514294   4.230   1.031  13.293  0.6122 -0.3062  0.2660
    1TCq1    O614295   4.015   1.024  13.220 -0.0621 -0.0875 -0.2644
    1TCq1    H114296   3.941   1.221  12.847 -0.3057 -0.5393  1.0045
    1TCq1    H214297   4.003   1.108  12.985 -0.0783  1.2823  0.2510
    1TCq1    H314298   4.390   1.020  13.129  0.9226  1.2497 -0.4861
    1TCq1    H414299   4.340   1.123  12.716  3.5182 -1.8127  1.5300
    2MPD2     C14300   0.095   1.151  12.926 -0.0231 -0.8735 -0.0154
    2MPD2    C114301   0.010   1.154  13.036  0.8014  0.3525 -0.3693
    2MPD2    C214302   0.067   1.188  13.160  0.2086 -0.1812  0.1031
    2MPD2    C314303   0.203   1.209  13.178  0.4035 -0.6463 -0.3186
    2MPD2    C414304   0.276   1.225  13.066  0.1559  0.3234 -0.3935
    2MPD2    C514305   0.224   1.186  12.949 -0.2152 -0.0125 -0.6117
    2MPD2     H14306   0.008   1.183  13.250  1.4405 -0.0054  0.9185
    2MPD2    H114307   0.381   1.249  13.077  0.2119  0.2497 -0.7695
    2MPD2    H214308   0.066   1.135  12.822 -1.1831 -0.1541  0.1931
    2MPD2    H314309   0.278   1.194  12.856  0.1566 -1.2223 -0.5113
    2MPD2     N14310   0.257   1.237  13.300 -0.1523 -0.1541  0.1985
    2MPD2    H514311   0.203   1.223  13.384 -0.7234  2.6771  0.3102
    2MPD2    N114312   4.590   1.133  13.028 -0.2706  0.3412  0.6859
    2MPD2    H714313   4.534   1.115  13.110  0.6708 -0.4890  1.1488
    3TCq1    O114314   0.265   1.540  13.818 -0.5549 -0.1164  0.2004
    3TCq1    C114315   0.209   1.488  13.711  0.7877 -0.1222 -0.5361
    3TCq1    O214316   0.114   1.536  13.654  0.2625  0.2254 -0.7603
    3TCq1    C214317   0.309   1.398  13.656 -0.2639  0.0244  0.0817
    3TCq1    C314318   0.386   1.317  13.739 -0.3055 -0.2665  0.2309
    3TCq1    C414319   0.478   1.236  13.678 -0.9431 -0.3407 -0.3992
    3TCq1    C514320   0.484   1.228  13.546 -0.4637 -0.6659  0.2907
    3TCq1    C614321   0.395   1.299  13.470  0.4418 -0.4521 -0.3179
    3TCq1    C714322   0.308   1.384  13.518 -0.2214 -0.6441 -0.5983
    3TCq1    C814323   0.389   1.267  13.326  0.3281  0.2223 -0.2394
    3TCq1    O414324   0.499   1.228  13.276 -0.1160  0.5262 -0.0724
    3TCq1    C914325   0.574   1.163  13.762  0.0818  0.7834  0.0641
    3TCq1    O514326   0.610   1.205  13.879 -0.2707  0.0005  0.1579
    3TCq1    O614327   0.638   1.066  13.711 -0.0112 -0.0196  1.0523
    3TCq1    H114328   0.343   1.489  13.850  0.0357  0.1649 -0.7848
    3TCq1    H214329   0.366   1.314  13.845  1.6039 -0.2682  0.5892
    3TCq1    H314330   0.559   1.162  13.504  0.2618 -1.2821  2.5809
    3TCq1    H414331   0.239   1.439  13.455  1.7497  1.1207 -1.2142
    1MPD2     C14332   4.060   1.863  15.177  0.2457  0.4125 -0.1007
    1MPD2    C114333   4.032   1.729  15.147 -0.0138 -0.4730 -0.0972
    1MPD2    C214334   4.123   1.663  15.072 -0.1607  0.0753 -0.2380
    1MPD2    C314335   4.247   1.714  15.032  0.5469 -0.0286  1.0123
    1MPD2    C414336   4.279   1.832  15.081 -0.9164 -0.8057 -0.3685
    1MPD2    C514337   4.190   1.903  15.155 -0.1625  1.0342  0.0024
    1MPD2     H14338   4.090   1.568  15.033  0.4819 -1.0452  1.9586
    1MPD2    H114339   4.360   1.892  15.041  0.6151 -3.8425 -1.8386
    1MPD2    H214340   3.993   1.924  15.237  0.3208 -0.8472  1.2541
    1MPD2    H314341   4.229   1.999  15.187  1.3736  1.0855 -2.0520
    1MPD2     N14342   4.342   1.647  14.952 -0.2524 -0.8395 -0.2023
    1MPD2    H514343   4.428   1.691  14.919 -0.3894  0.1053  0.7008
    1MPD2    N114344   3.900   1.684  15.174 -0.1170 -0.2715  0.5897
    1MPD2    H714345   3.831   1.754  15.199  1.8241  1.8750 -0.0441
    2TMC3    C114346   3.724   1.539  15.215 -0.0726 -0.2400 -0.2631
    2TMC3    C214347   3.700   1.405  15.220  0.6089  0.0715 -0.1852
    2TMC3    C314348   3.602   1.353  15.138  0.1319  0.8055 -0.2901
    2TMC3    C414349   3.641   1.621  15.140 -0.2614 -0.2578 -0.1505
    2TMC3    C514350   3.547   1.567  15.067  0.1195 -0.0853  0.4586
    2TMC3    C614351   3.512   1.432  15.072  0.2289 -0.7791  0.1774
    2TMC3     C14352   3.862   1.558  15.175 -0.1956 -0.3174  0.0891
    2TMC3     O14353   3.923   1.458  15.132 -0.1125  0.9596 -0.2873
    2TMC3     H14354   3.766   1.338  15.273  0.1540  1.1642  1.7612
    2TMC3    H114355   3.654   1.728  15.130  1.6309 -0.5560 -0.9434
    2TMC3    H214356   3.452   1.382  14.997 -0.9126  0.4416  0.2873
    2TMC3    C714357   3.453   1.646  14.998 -0.1913 -0.7267 -0.3571
    2TMC3    C814358   3.652   1.241  15.059 -0.2211  0.0594  0.1160
    2TMC3    O114359   3.344   1.594  14.989  0.1496  0.2103  0.1263
    2TMC3    O214360   3.564   1.165  15.023 -0.3209  0.4985 -0.2435
    3TCq1    O114361   3.663   2.624  14.173  0.7001  0.0897 -0.4339
    3TCq1    C114362   3.586   2.524  14.210 -0.1147 -0.0734 -0.3758
    3TCq1    O214363   3.492   2.487  14.139  0.0520 -0.5033 -0.8943
    3TCq1    C214364   3.612   2.479  14.349  0.0682 -0.0228 -0.2139
    3TCq1    C314365   3.704   2.532  14.425 -0.5601  0.0276  0.0806
    3TCq1    C414366   3.709   2.496  14.559  0.7018 -0.7848  0.1402
    3TCq1    C514367   3.633   2.387  14.595  0.1475  0.2919 -0.1271
    3TCq1    C614368   3.555   2.323  14.507  0.3632  0.0907 -0.3897
    3TCq1    C714369   3.536   2.373  14.382  0.3431 -0.1153 -0.1510
    3TCq1    C814370   3.476   2.209  14.546 -0.6355  0.2883  0.9252
    3TCq1    O414371   3.400   2.167  14.457  0.3372 -0.4617 -0.3610
    3TCq1    C914372   3.784   2.574  14.654  0.3427  0.0631 -0.3725
    3TCq1    O514373   3.856   2.666  14.598  0.5850  0.2675  0.9513
    3TCq1    O614374   3.766   2.544  14.773 -0.0318 -0.3256 -0.1878
    3TCq1    H114375   3.754   2.626  14.211  0.9049  1.5772 -0.9899
    3TCq1    H214376   3.759   2.619  14.392  0.3259 -0.5697 -0.0152
    3TCq1    H314377   3.646   2.359  14.699  0.0751  0.3886 -0.0924
    3TCq1    H414378   3.465   2.337  14.308  2.5150 -1.1847 -1.7140
    4MPD2     C14379   3.304   2.017  14.679  0.0337  0.0270 -0.1673
    4MPD2    C114380   3.436   2.047  14.720 -0.0742 -0.4567 -0.1237
    4MPD2    C214381   3.491   1.959  14.811 -0.5482 -0.3636  0.2676
    4MPD2    C314382   3.426   1.856  14.869  0.1971  0.3337 -0.7721
    4MPD2    C414383   3.298   1.833  14.829  0.5924  0.9283 -0.7143
    4MPD2    C514384   3.243   1.912  14.730  0.1521  0.6561  0.4199
    4MPD2     H14385   3.596   1.980  14.830 -0.3447 -2.3908  1.3937
    4MPD2    H114386   3.225   1.764  14.868  0.7718  0.5370 -1.0858
    4MPD2    H214387   3.254   2.078  14.605 -0.8343  0.8412  1.0817
    4MPD2    H314388   3.137   1.894  14.716  0.5269 -2.8823  2.0664
    4MPD2     N14389   3.498   1.766  14.947  0.3157 -0.0339 -0.0749
    4MPD2    H514390   3.592   1.791  14.978  0.3608 -2.3273  1.6603
    4MPD2    N114391   3.507   2.160  14.668 -0.8401 -0.0763  0.7557
    4MPD2    H714392   3.585   2.197  14.721 -1.5995  0.3155  1.6089
    5TMC2    C114393   4.356   1.300  14.649  0.2936 -0.4154  0.0273
    5TMC2    C214394   4.486   1.266  14.658 -0.0805  0.1730  0.2584
    5TMC2    C314395   4.563   1.355  14.724  0.5742  0.0173  0.5081
    5TMC2    C414396   4.310   1.423  14.682  0.3032  0.2824 -0.3293
    5TMC2    C514397   4.384   1.500  14.764  0.4836  0.7485  0.9411
    5TMC2    C614398   4.513   1.464  14.793 -0.4562 -0.4113 -0.4210
    5TMC2     C14399   4.259   1.191  14.670 -0.0680 -0.3805  0.2564
    5TMC2     O14400   4.269   1.092  14.605 -0.3456  0.4948  0.0565
    5TMC2     H14401   4.523   1.173  14.615  1.8054  0.5683  1.0391
    5TMC2    H114402   4.205   1.450  14.679 -0.0388 -0.8973  0.9950
    5TMC2    H214403   4.582   1.519  14.856 -1.6245  0.6243 -0.0596
    5TMC2    C714404   4.316   1.527  14.890  0.2386 -0.6335  0.2245
    5TMC2    C814405   4.709   1.329  14.738 -0.7774 -0.5499  0.4860
    5TMC2    O114406   4.222   1.451  14.901  0.5071 -0.0424 -0.4214
    5TMC2    O214407   0.049   1.348  14.842 -0.0675 -0.2245 -0.0838
    5TMC2    O514408   0.034   1.262  14.625 -0.1405 -0.0555  0.1812
    5TMC2    H514409   4.689   1.266  14.553  0.8061  1.3375 -0.6313
    6MPD2     C14410   3.791   1.081  14.850 -0.3358  0.6713 -1.1291
    6MPD2    C114411   3.838   1.195  14.911 -0.7065  0.4026 -0.1043
    6MPD2    C214412   3.966   1.236  14.886 -0.5136 -0.1017  0.2532
    6MPD2    C314413   4.046   1.174  14.795  0.6743 -0.3612 -0.2555
    6MPD2    C414414   4.001   1.059  14.738  0.0220  0.0529 -0.1600
    6MPD2    C514415   3.871   1.011  14.766  0.0908 -0.3777  0.4641
    6MPD2     H14416   3.996   1.332  14.925 -1.0151  0.8730 -1.7322
    6MPD2    H114417   4.063   0.999  14.673  0.3045  1.4305 -1.1640
    6MPD2    H214418   3.691   1.049  14.876 -0.0063  1.1676  0.8061
    6MPD2    H314419   3.835   0.916  14.729  0.3363  0.6526 -2.4896
    6MPD2     N14420   4.167   1.224  14.769 -0.1801 -0.2570  0.1982
    6MPD2    H514421   4.185   1.316  14.809 -1.6531 -0.5204  1.4558
    6MPD2    N114422   3.778   1.261  15.016  0.0001 -0.3104 -0.4069
    6MPD2    H714423   3.844   1.327  15.057 -1.6352 -0.0429  1.7856
  945NH3     N114424   0.473   3.224   1.096 -0.0603  0.5446 -0.1391
  945NH3     H214425   0.487   3.255   1.192 -1.9445  0.0569  0.2824
  945NH3     H314426   0.473   3.310   1.042 -2.1212  0.5474 -0.1074
  945NH3     H414427   0.566   3.190   1.072 -0.3973 -1.0350  0.8017
  946SOD     NA14428   3.539   3.218  14.931 -0.2385 -0.3237 -0.3560
  947SOD     NA14429   1.754   1.724  15.148  0.0964  0.2244  0.0725
  948SOD     NA14430   1.941   1.091   1.001 -0.1500  0.5807 -0.0477
  949SOD     NA14431   3.374   3.397   1.865  0.5554 -0.0085  0.4465
  950SOD     NA14432   1.380   0.898   2.966  0.3345  0.2176 -0.2846
  951SOD     NA14433   3.049   4.308  17.514 -0.3701  0.2052 -0.0630
  952SOD     NA14434   2.935   3.607   2.351 -0.5466  0.0660  0.1383
  953SOD     NA14435   0.638   0.973  10.864  0.3011 -0.4452 -0.5986
  954SOD     NA14436   2.441   0.824   9.699  0.1929 -0.3539  0.3440
  955SOD     NA14437   0.887   1.114  14.661  0.0808 -0.4341 -0.2495
  956SOD     NA14438   1.309   2.581   0.517 -0.0031  0.1867 -0.1495
  957SOD     NA14439   4.478   3.657  11.683  0.5195 -0.2042  0.2345
  958SOD     NA14440   2.811   0.424   8.122  0.0727  0.2508 -0.6712
  959SOD     NA14441   3.661   3.292   7.724 -0.3334  0.2823 -0.2037
  960SOD     NA14442   4.599   1.080  10.303  0.5913 -0.2489  0.3271
  961SOD     NA14443   3.893   0.014   2.407  0.4592 -0.0203 -0.0231
  962SOD     NA14444   4.629   1.391  10.244  0.4728 -0.0574 -0.4902
  963SOD     NA14445   0.501   4.246   2.578  0.0362  0.2344 -0.2857
  964SOD     NA14446   3.927   3.058  10.972 -0.0387 -0.4390 -0.0738
  965SOD     NA14447   1.976   1.867  14.951 -0.3485 -0.3390 -0.0621
  966SOD     NA14448   3.139   4.548  14.571  0.0516 -0.3535  0.4138
  967SOD     NA14449   2.544   4.691  10.883  0.1590  0.3010 -0.2453
  968SOD     NA14450   2.294   4.200   0.403 -0.3145 -0.1062 -0.1050
  969SOD     NA14451   4.230   2.363  10.489 -0.0288 -0.0645  0.0419
  970SOD     NA14452   2.268   1.115   9.429 -0.1020 -0.5084  0.1894
  971SOD     NA14453   1.304   2.604  13.968  0.2554  0.0659  0.1432
  972SOD     NA14454   0.549   3.687  12.309  0.9221  0.0108  0.0900
  973SOD     NA14455   4.137   2.399  14.847 -0.1552  0.2031 -0.1660
  974SOD     NA14456   3.910   1.177  13.299 -0.7339  0.0119  0.0216
  975SOD     NA14457   4.693   4.445  17.014  0.0332  0.2750  0.1185
  976SOD     NA14458   1.417   2.692  12.709 -0.3715 -0.0059  0.1494
  977SOD     NA14459   1.580   1.910  10.995 -0.0144  0.6383 -0.2923
  978SOD     NA14460   1.637   0.393  17.090  0.2681 -0.2574  0.2117
  979SOD     NA14461   0.933   0.875  12.964 -0.1297 -0.0350  0.2225
  980SOD     NA14462   2.825   4.684  15.128  0.4052  0.1389  0.4875
  981SOD     NA14463   1.936   2.185  11.016  0.4697 -0.3624  0.5477
  982SOD     NA14464   0.403   0.352  11.384 -0.2488 -0.1603  0.2735
  983SOD     NA14465   1.291   0.366   7.538 -0.2057 -0.3040  0.2322
  984SOD     NA14466   0.393   2.855   4.734 -0.2191  0.3295  0.3037
  985SOD     NA14467   0.783   1.339  13.864  0.0323  0.1792 -0.1198
  986SOD     NA14468   1.972   2.191   4.712  0.2747  0.4866 -0.1483
  987SOD     NA14469   4.664   2.982   7.685  0.3003 -0.1094 -0.1807
  988SOD     NA14470   0.933   2.623   1.565  0.0090  0.6979  0.0751
  989SOD     NA14471   2.384   2.014   0.067 -0.2624  0.5283 -0.4711
  990SOD     NA14472   4.475   1.287  10.481 -0.1218 -0.0932 -0.2375
  991SOD     NA14473   0.706   4.051  17.308 -1.1288  0.0762 -0.4173
  992SOD     NA14474   3.979   2.308  15.117  0.4500 -0.4179  0.5841
  993SOD     NA14475   0.820   1.543  10.064  0.0393 -0.6509  0.1943
  994SOD     NA14476   0.984   1.670  12.082  0.2367  0.5277  0.5755
  995SOD     NA14477   1.097   1.126  14.324  0.3761  0.8094  0.2778
  996SOD     NA14478   0.016   2.378   5.307  0.1240  0.0595 -0.1531
  997SOD     NA14479   1.338   1.720  11.064  0.1755 -0.0598 -0.1464
  998SOD     NA14480   4.564   1.661   0.009 -0.8779  0.8258 -0.0629
  999SOD     NA14481   3.365   1.045  14.920  0.0946 -0.2858  0.5985
 1000SOD     NA14482   4.474   3.638   9.830  0.3367 -0.3985  0.5686
 1001SOD     NA14483   0.468   1.156  11.806  0.2431  0.2700  0.4912
 1002SOD     NA14484   2.782   2.027  13.162  0.3338 -0.1431  0.2476
 1003SOD     NA14485   2.938   2.631   6.755  0.3506 -0.1254 -0.0639
 1004SOD     NA14486   3.421   0.291  13.114 -0.1183  0.3367 -0.0702
 1005SOD     NA14487   1.489   4.276  14.359  0.1598  0.1526 -0.0905
 1006SOD     NA14488   2.686   1.331   2.748 -0.5344  0.5791  0.2345
 1007SOD     NA14489   4.663   4.596  12.983 -0.3805 -0.3897  0.3130
 1008SOD     NA14490   1.051   1.093   0.326  0.2385  0.2059  0.1143
 1009SOD     NA14491   3.746   1.962  10.607  0.2310  0.2014 -0.1784
 1010SOD     NA14492   4.679   3.314   1.225  0.6491  0.2630 -0.0009
 1011SOD     NA14493   0.246   1.610   7.626  0.6584 -0.3951 -0.3896
 1012SOL     OW14494   0.577   4.657   6.719  0.1412 -0.0213  0.0533
 1012SOL    HW114495   0.592   4.636   6.812  1.0006  0.7384  0.0822
 1012SOL    HW214496   0.559   0.027   6.737  0.7276 -0.0281  0.6821
 1013SOL     OW14497   2.268   2.760   1.987  0.0023  0.3812 -0.2005
 1013SOL    HW114498   2.252   2.678   1.940  0.3463 -0.3853  1.0166
 1013SOL    HW214499   2.252   2.821   1.915  0.1487  0.9434  0.2373
 1014SOL     OW14500   0.596   3.576   6.047 -0.8752  0.7067  0.1909
 1014SOL    HW114501   0.573   3.653   6.099  0.5910  0.4302  1.2430
 1014SOL    HW214502   0.603   3.617   5.961 -0.3288 -0.0264 -0.1188
 1015SOL     OW14503   2.854   1.359   7.100  0.4195 -0.2332 -0.4648
 1015SOL    HW114504   2.764   1.350   7.069  0.6210 -3.8152 -0.0520
 1015SOL    HW214505   2.867   1.282   7.155  1.1382 -2.1419 -3.2784
 1016SOL     OW14506   1.924   0.239  13.816 -0.6799 -0.1133  0.2462
 1016SOL    HW114507   1.839   0.204  13.843 -1.3513  0.8389 -0.6398
 1016SOL    HW214508   1.976   0.216  13.893  2.1908  0.0925 -1.6227
 1017SOL     OW14509   4.531   4.163   3.861  0.7497  0.1842 -0.0907
 1017SOL    HW114510   4.564   4.090   3.809  0.4969  0.6587 -0.9054
 1017SOL    HW214511   4.502   4.223   3.793 -1.7931 -2.5788 -1.4699
 1018SOL     OW14512   2.275   1.589   1.151 -0.1016  0.2957  0.7955
 1018SOL    HW114513   2.224   1.511   1.172  1.4625 -0.8769  0.2098
 1018SOL    HW214514   2.202   1.639   1.115  0.7823  1.0287  0.0499
 1019SOL     OW14515   4.382   4.411   9.257  0.3350  0.0390  0.1041
 1019SOL    HW114516   4.473   4.405   9.229  1.1287  0.2075  2.6604
 1019SOL    HW214517   4.381   4.415   9.352 -3.5792  3.9037 -0.0697
 1020SOL     OW14518   3.884   3.949   1.444 -0.3267 -0.2271  0.2332
 1020SOL    HW114519   3.918   3.917   1.528  0.5102 -0.2950 -0.1304
 1020SOL    HW214520   3.896   4.044   1.453  0.0117 -0.1376 -1.1525
 1021SOL     OW14521   3.706   2.355  12.282  0.2585  0.3708  0.3959
 1021SOL    HW114522   3.795   2.386  12.298  0.4136  0.2751 -0.2578
 1021SOL    HW214523   3.672   2.438  12.247 -1.6761 -0.3440  0.5933
 1022SOL     OW14524   1.788   0.267  17.207 -0.3448  0.5274  0.0434
 1022SOL    HW114525   1.873   0.265  17.162 -1.4031 -0.9613 -1.9125
 1022SOL    HW214526   1.799   0.328  17.279  1.9664  0.7265 -0.4767
 1023SOL     OW14527   0.258   4.450   3.868 -0.1224 -0.4903 -0.0654
 1023SOL    HW114528   0.350   4.460   3.841  0.9172 -1.0920  3.1378
 1023SOL    HW214529   0.213   4.443   3.784  2.4555  3.4849 -1.8017
 1024SOL     OW14530   0.170   2.372   1.042  0.2250  0.0445  0.2419
 1024SOL    HW114531   0.127   2.375   0.956 -0.7854 -0.9625  0.7068
 1024SOL    HW214532   0.099   2.364   1.105 -0.3227 -0.0664 -0.3840
 1025SOL     OW14533   1.993   2.305   4.915  0.3133  0.2025  0.1212
 1025SOL    HW114534   2.081   2.312   4.953  0.0780  1.9119  0.3270
 1025SOL    HW214535   1.955   2.278   4.999  1.4502  0.4020  0.7123
 1026SOL     OW14536   3.000   0.962   2.484  0.1840 -0.0795  0.3209
 1026SOL    HW114537   2.910   0.982   2.456 -0.4237 -1.1708  1.4851
 1026SOL    HW214538   3.034   0.943   2.397  0.6379  1.6627  0.1178
 1027SOL     OW14539   2.290   2.707   5.610 -0.3260  0.2974 -0.0867
 1027SOL    HW114540   2.300   2.791   5.655  2.9537  0.9280 -2.0068
 1027SOL    HW214541   2.378   2.672   5.596 -0.5532  0.5400 -2.1966
 1028SOL     OW14542   3.511   0.026   6.756 -0.0829 -0.3907 -0.2819
 1028SOL    HW114543   3.427   4.718   6.792 -1.9362  4.4925 -0.4416
 1028SOL    HW214544   3.502   4.707   6.670 -2.2971 -1.4592  0.4507
 1029SOL     OW14545   2.003   3.616   6.214 -0.1145 -0.1420 -0.2679
 1029SOL    HW114546   2.037   3.555   6.279  0.3768  0.8883  0.4448
 1029SOL    HW214547   1.916   3.638   6.248 -1.0403 -0.5751 -2.3651
 1030SOL     OW14548   0.408   0.271  12.656  0.4545  0.1790 -0.3684
 1030SOL    HW114549   0.492   0.277  12.612  0.6538 -1.1316 -0.1643
 1030SOL    HW214550   0.352   0.331  12.606  0.2437  1.0290  0.8729
 1031SOL     OW14551   4.000   3.844  11.056  0.2228  0.1719  0.5347
 1031SOL    HW114552   3.913   3.884  11.059 -0.8293 -1.8130 -2.9024
 1031SOL    HW214553   4.053   3.921  11.039  0.1685  0.7989  3.2911
 1032SOL     OW14554   0.816   1.310   5.129 -0.1198  0.0373  0.5180
 1032SOL    HW114555   0.875   1.235   5.132 -0.8249 -0.5911 -1.1409
 1032SOL    HW214556   0.845   1.365   5.202  0.0150  1.4257 -0.6079
 1033SOL     OW14557   0.804   4.459   6.250  0.9119  0.3951  0.2378
 1033SOL    HW114558   0.815   4.467   6.344  0.3810  0.8424  0.2654
 1033SOL    HW214559   0.829   4.548   6.223 -1.4721  0.8870 -0.3923
 1034SOL     OW14560   0.882   2.517  11.374  0.3296 -0.0976 -0.1726
 1034SOL    HW114561   0.834   2.560  11.445  1.0620 -0.0665  0.3036
 1034SOL    HW214562   0.916   2.595  11.331  1.1379 -0.0411  0.5629
 1035SOL     OW14563   2.048   2.026   6.051 -0.3917  0.3249  0.1982
 1035SOL    HW114564   2.045   2.074   6.134 -1.8013  0.4817  0.0603
 1035SOL    HW214565   2.101   2.091   6.004  0.2751  0.6338  1.3846
 1036SOL     OW14566   3.834   1.193   8.431 -0.1236  0.0277 -0.0098
 1036SOL    HW114567   3.878   1.137   8.367  1.8814  1.7936 -0.2028
 1036SOL    HW214568   3.903   1.234   8.484 -1.3351  2.6897 -0.4850
 1037SOL     OW14569   0.721   2.929   0.543  0.3687  0.2236 -0.1880
 1037SOL    HW114570   0.689   2.844   0.511  0.7448 -0.2860  0.7875
 1037SOL    HW214571   0.717   2.994   0.473 -3.5564  0.5582  0.3626
 1038SOL     OW14572   4.303   4.392   1.951  0.1825 -0.4467  0.0433
 1038SOL    HW114573   4.350   4.312   1.975  2.0789  0.5189 -0.5316
 1038SOL    HW214574   4.375   4.454   1.938  1.7359 -1.9979  1.2317
 1039SOL     OW14575   4.455   3.905  12.476 -0.0811 -0.3302  0.3986
 1039SOL    HW114576   4.494   3.985  12.510  1.5315 -0.4795 -1.0873
 1039SOL    HW214577   4.489   3.835  12.532 -4.8618 -0.8402  2.6435
 1040SOL     OW14578   3.733   4.572   9.049  0.2543  0.2527  0.4447
 1040SOL    HW114579   3.794   4.513   9.003  0.3136  0.8516 -0.2434
 1040SOL    HW214580   3.660   4.519   9.015  0.5272  0.9888 -1.2947
 1041SOL     OW14581   2.885   2.092   4.887  0.0876  0.0788  0.1392
 1041SOL    HW114582   2.809   2.150   4.886  0.1178  0.1116 -2.5814
 1041SOL    HW214583   2.899   2.072   4.979 -2.4264 -2.1563  0.0578
 1042SOL     OW14584   0.307   4.139   7.625 -0.8436  0.1083  0.3211
 1042SOL    HW114585   0.370   4.140   7.553 -0.4977 -1.8081  0.5819
 1042SOL    HW214586   0.330   4.221   7.668 -0.5207  0.9277 -1.4018
 1043SOL     OW14587   1.664   2.226   5.971  0.5518 -0.4773  0.4591
 1043SOL    HW114588   1.640   2.140   6.005  0.2993  0.0886  1.7153
 1043SOL    HW214589   1.715   2.266   6.042 -0.9852  0.9348  0.7620
 1044SOL     OW14590   4.632   3.460   9.857  0.3063 -0.3149 -0.4666
 1044SOL    HW114591   4.663   3.402   9.788  2.3537 -1.8881  1.7799
 1044SOL    HW214592   4.639   3.401   9.932  1.3647  0.0874 -0.2360
 1045SOL     OW14593   4.173   2.154   1.731  0.0900  0.4100  0.1460
 1045SOL    HW114594   4.185   2.242   1.694  2.0783 -0.1890 -0.6606
 1045SOL    HW214595   4.083   2.127   1.713  0.4581 -2.1279  2.1034
 1046SOL     OW14596   1.742   3.512   8.161  0.4036  0.3156 -0.4321
 1046SOL    HW114597   1.679   3.570   8.119  0.4384 -0.5928 -1.7515
 1046SOL    HW214598   1.823   3.560   8.143  0.7073 -0.2097 -0.4972
 1047SOL     OW14599   0.333   1.722   0.254 -0.3738  0.1590  0.2723
 1047SOL    HW114600   0.379   1.639   0.242 -1.0776 -0.1671 -0.1681
 1047SOL    HW214601   0.377   1.784   0.197 -0.1917 -0.5956 -0.4175
 1048SOL     OW14602   2.608   0.052   9.089 -0.8695  0.7241 -0.2329
 1048SOL    HW114603   2.627   0.117   9.157  0.2316  1.3841 -1.1772
 1048SOL    HW214604   2.635   0.087   9.004 -0.1574  1.5032  0.3181
 1049SOL     OW14605   3.293   0.311   8.251  0.2560  0.6236  0.2652
 1049SOL    HW114606   3.330   0.373   8.188  0.7924  0.7366  0.6948
 1049SOL    HW214607   3.330   0.347   8.331  1.1238  0.6659 -0.1503
 1050SOL     OW14608   0.801   1.127   3.585 -0.2866 -0.1590  0.3122
 1050SOL    HW114609   0.831   1.216   3.602  1.3165 -0.5714 -0.3144
 1050SOL    HW214610   0.763   1.145   3.499 -2.3228  1.8244  1.6249
 1051SOL     OW14611   4.199   2.006   4.095  0.5073 -0.5225  0.6593
 1051SOL    HW114612   4.198   2.058   4.015 -0.5482  0.3066  1.2180
 1051SOL    HW214613   4.201   1.916   4.062 -0.0652 -0.1830 -0.2652
 1052SOL     OW14614   1.641   0.830   5.995 -0.2857  0.1276 -0.2324
 1052SOL    HW114615   1.594   0.867   6.069 -0.3984 -0.8384  0.1790
 1052SOL    HW214616   1.604   0.888   5.929  1.4372  1.1093 -0.3452
 1053SOL     OW14617   4.162   0.729   1.853 -0.1732 -0.0116  0.2933
 1053SOL    HW114618   4.146   0.640   1.822  0.6138  0.3055 -1.0319
 1053SOL    HW214619   4.255   0.724   1.875  0.4697  1.6646 -1.9654
 1054SOL     OW14620   1.586   3.230   3.589  0.0001  0.1454 -0.2628
 1054SOL    HW114621   1.524   3.302   3.582  0.5532  0.4395 -2.1855
 1054SOL    HW214622   1.656   3.288   3.559  0.4889 -0.6161 -0.6016
 1055SOL     OW14623   3.984   2.095   7.172  0.3858 -0.2533  0.3206
 1055SOL    HW114624   4.017   2.063   7.256  0.1098 -0.0147  0.5176
 1055SOL    HW214625   4.045   2.165   7.150  0.4312 -0.0874  0.9749
 1056SOL     OW14626   3.046   4.635   4.807 -0.4167 -0.0912  0.4351
 1056SOL    HW114627   3.037   4.636   4.711 -2.2841 -0.6166  0.5976
 1056SOL    HW214628   3.000   4.713   4.837  1.1594  1.1352 -0.3502
 1057SOL     OW14629   2.844   1.811  13.227  0.0175 -0.7449 -0.3496
 1057SOL    HW114630   2.829   1.761  13.147  0.2667 -1.5580  0.1133
 1057SOL    HW214631   2.823   1.751  13.298  2.0420  2.8591  3.3156
 1058SOL     OW14632   2.151   3.219   6.397  0.4315  0.2281  0.6263
 1058SOL    HW114633   2.138   3.193   6.305 -2.0454  0.1099  1.0128
 1058SOL    HW214634   2.119   3.142   6.443  1.0105  0.1697  0.9261
 1059SOL     OW14635   4.507   3.417  14.125  0.3948  0.1565 -0.2434
 1059SOL    HW114636   4.434   3.396  14.184 -1.8571  0.0920 -3.0298
 1059SOL    HW214637   4.569   3.460  14.184 -0.0607  2.4916 -1.4391
 1060SOL     OW14638   0.966   4.512   4.845  0.0771  0.1853 -0.2200
 1060SOL    HW114639   0.910   4.588   4.831  0.2195  0.0746 -1.3751
 1060SOL    HW214640   1.052   4.554   4.857  1.1002 -2.0793  0.4889
 1061SOL     OW14641   4.020   1.642   4.248 -0.2587 -0.6370  0.3574
 1061SOL    HW114642   3.978   1.715   4.203 -1.2398 -2.8348 -2.3086
 1061SOL    HW214643   4.103   1.636   4.201  0.2849 -0.2657  1.2590
 1062SOL     OW14644   0.837   2.881   2.356  0.2228  0.8465  0.1923
 1062SOL    HW114645   0.877   2.903   2.440  0.6419  0.3930  0.1069
 1062SOL    HW214646   0.910   2.887   2.294 -0.2877  0.8406 -0.4214
 1063SOL     OW14647   2.550   4.345  12.336  0.1440  0.3908 -0.7336
 1063SOL    HW114648   2.517   4.282  12.273  1.7206 -2.9443  1.7688
 1063SOL    HW214649   2.475   4.357  12.395  1.2130  1.1542  0.4752
 1064SOL     OW14650   0.851   0.502   7.976 -0.5178 -0.0262  0.0931
 1064SOL    HW114651   0.756   0.517   7.967 -0.4185  0.1376 -0.6327
 1064SOL    HW214652   0.854   0.417   8.018  0.8728 -1.8213 -3.6866
 1065SOL     OW14653   4.643   3.949   7.056  0.0974  0.1471  0.8071
 1065SOL    HW114654   4.607   3.990   7.135 -1.2401 -0.3908  0.4629
 1065SOL    HW214655   0.012   3.944   7.085  0.2015  0.9645  0.6065
 1066SOL     OW14656   1.115   2.278   7.227  0.3253  0.1496 -0.3965
 1066SOL    HW114657   1.033   2.328   7.232  0.3469  0.0811  0.7205
 1066SOL    HW214658   1.173   2.317   7.293  1.8305  0.4519 -1.9220
 1067SOL     OW14659   0.034   4.673   5.429  0.1980 -0.7181 -0.2477
 1067SOL    HW114660   0.130   4.672   5.424  0.0227  0.2505 -3.6501
 1067SOL    HW214661   0.014   4.653   5.337  1.1392 -0.8229 -0.4359
 1068SOL     OW14662   0.955   2.738   4.150  0.1841 -0.3258  0.0419
 1068SOL    HW114663   0.908   2.790   4.084  1.4540  0.1356 -0.4972
 1068SOL    HW214664   1.011   2.799   4.198  0.2276 -1.4623  1.4173
 1069SOL     OW14665   0.312   3.175  17.302 -0.4659 -0.0049  0.1485
 1069SOL    HW114666   0.286   3.135  17.385 -0.9894 -0.1446 -0.0840
 1069SOL    HW214667   0.317   3.270  17.319 -1.7286 -0.0170  0.5934
 1070SOL     OW14668   1.718   0.109   4.076 -0.3948  0.6175 -0.2157
 1070SOL    HW114669   1.755   0.064   3.999  1.6257  0.0348  1.0969
 1070SOL    HW214670   1.646   0.154   4.031  0.7315  1.1367 -1.5024
 1071SOL     OW14671   1.465   2.390   5.874  0.2368  0.7328 -0.6515
 1071SOL    HW114672   1.437   2.310   5.917  0.4379  0.6680 -0.6424
 1071SOL    HW214673   1.556   2.390   5.903  0.4909  0.9034 -1.4557
 1072SOL     OW14674   2.290   3.406   8.262  0.2290 -0.2251  0.8303
 1072SOL    HW114675   2.367   3.463   8.270  0.2144  0.0192 -0.6884
 1072SOL    HW214676   2.251   3.423   8.348 -0.1610  0.4488  0.5167
 1073SOL     OW14677   3.544   1.630   3.549 -0.0149  0.4817 -0.7764
 1073SOL    HW114678   3.599   1.553   3.563 -1.0148 -0.0146  0.4516
 1073SOL    HW214679   3.568   1.698   3.613 -1.3804 -1.6539  1.9836
 1074SOL     OW14680   0.628   2.920   1.815 -0.4038 -0.5301  0.0391
 1074SOL    HW114681   0.603   2.974   1.740  0.5267 -0.6676 -0.3746
 1074SOL    HW214682   0.548   2.921   1.868  0.7972  0.9242  1.8275
 1075SOL     OW14683   4.367   3.610  11.491 -0.1448  0.1062 -0.4788
 1075SOL    HW114684   4.275   3.621  11.514 -0.3078  0.7695 -1.4517
 1075SOL    HW214685   4.350   3.633  11.400  1.7984 -0.0723 -0.8841
 1076SOL     OW14686   0.808   1.041  13.503  0.0092  0.2354  0.7275
 1076SOL    HW114687   0.745   1.052  13.574  1.4715  3.4374  1.5368
 1076SOL    HW214688   0.876   0.988  13.546  0.0609  0.4414  0.9006
 1077SOL     OW14689   3.673   4.205   4.424 -0.0467  0.2890 -0.5222
 1077SOL    HW114690   3.678   4.282   4.368  1.3144 -0.4865 -1.4588
 1077SOL    HW214691   3.730   4.231   4.496 -0.7376 -0.1393  0.1836
 1078SOL     OW14692   3.570   1.490   3.934  0.0920  0.0070  0.0663
 1078SOL    HW114693   3.604   1.416   3.883 -0.7586  0.4156 -1.1080
 1078SOL    HW214694   3.619   1.566   3.904 -0.0373  0.4732  1.0421
 1079SOL     OW14695   1.205   1.238   3.517 -0.2404  0.1243  0.5917
 1079SOL    HW114696   1.143   1.281   3.459 -1.4143  0.4338  2.0712
 1079SOL    HW214697   1.154   1.224   3.597 -1.4136  0.7767 -0.0372
 1080SOL     OW14698   4.290   1.783   9.222 -0.4563 -0.3175 -0.3836
 1080SOL    HW114699   4.379   1.774   9.187 -0.6085 -0.4818 -0.7243
 1080SOL    HW214700   4.302   1.737   9.305 -0.3534 -0.6394 -0.5774
 1081SOL     OW14701   0.280   2.495  10.714  0.1822 -0.2601 -0.3893
 1081SOL    HW114702   0.332   2.488  10.634  0.9625  1.0924  0.0022
 1081SOL    HW214703   0.353   2.499  10.776 -0.4045 -0.4653  0.3138
 1082SOL     OW14704   3.660   2.067   4.823 -0.1021  0.4233 -0.5867
 1082SOL    HW114705   3.743   2.029   4.793  0.3828  0.8017  0.2494
 1082SOL    HW214706   3.605   1.992   4.845 -0.1898  0.1928 -1.6101
 1083SOL     OW14707   2.618   2.796   3.043  0.1835 -0.1163  0.1218
 1083SOL    HW114708   2.522   2.803   3.043  0.0099 -2.4252  3.1455
 1083SOL    HW214709   2.638   2.885   3.015 -0.4985  0.0663  0.1979
 1084SOL     OW14710   3.321   3.062  12.040 -0.0100 -1.0166 -0.1548
 1084SOL    HW114711   3.361   3.034  12.122  0.3296 -1.0155 -0.3248
 1084SOL    HW214712   3.401   3.068  11.989 -0.3294 -1.4850 -0.7126
 1085SOL     OW14713   2.146   0.708  12.610  0.2083 -0.0158 -0.3996
 1085SOL    HW114714   2.094   0.629  12.621  0.6222 -0.3698 -1.0185
 1085SOL    HW214715   2.197   0.720  12.691 -0.7245  0.4026  0.1357
 1086SOL     OW14716   0.438   1.192   1.840 -0.0062 -0.6414 -0.6124
 1086SOL    HW114717   0.473   1.231   1.921  1.4304 -0.0611 -1.5100
 1086SOL    HW214718   0.507   1.130   1.815 -0.6779 -1.3392 -0.7222
 1087SOL     OW14719   2.999   0.249   6.503 -0.0837 -0.1806  0.1458
 1087SOL    HW114720   3.025   0.333   6.465 -0.8937 -0.4098 -0.8921
 1087SOL    HW214721   2.927   0.274   6.561 -1.4692  1.0617 -2.1193
 1088SOL     OW14722   0.973   3.971   3.452 -0.0702 -0.5127  0.3430
 1088SOL    HW114723   0.974   3.877   3.435 -2.5484 -0.9219  2.3419
 1088SOL    HW214724   0.910   3.990   3.522 -0.7617  1.8448 -0.8940
 1089SOL     OW14725   3.732   0.296   4.837 -0.2670 -0.1708 -0.0225
 1089SOL    HW114726   3.719   0.222   4.777  2.7879 -0.0242 -0.8557
 1089SOL    HW214727   3.704   0.249   4.916  0.5183 -1.7722 -0.6899
 1090SOL     OW14728   1.548   2.043  17.574 -0.2301  0.2345  0.1478
 1090SOL    HW114729   1.538   1.975  17.642  0.8974 -1.0626 -0.9851
 1090SOL    HW214730   1.474   2.101  17.590  1.3871  2.6351 -1.1084
 1091SOL     OW14731   3.042   1.729   1.256 -0.1134  0.2167 -0.2635
 1091SOL    HW114732   2.996   1.741   1.174 -0.3955 -1.4185 -0.3425
 1091SOL    HW214733   2.976   1.674   1.297 -2.0239  1.5725 -1.5194
 1092SOL     OW14734   0.538   1.267   2.089 -0.3962 -0.3608  0.2526
 1092SOL    HW114735   0.627   1.276   2.123 -0.3031  0.6874 -0.2588
 1092SOL    HW214736   0.502   1.344   2.134  0.4969  0.1228  0.1505
 1093SOL     OW14737   3.489   4.308   8.108  0.1379 -0.1805  0.4725
 1093SOL    HW114738   3.576   4.296   8.069 -0.2838  0.8856 -0.8398
 1093SOL    HW214739   3.450   4.238   8.056 -1.0834  1.5364 -0.9473
 1094SOL     OW14740   1.688   2.027  14.461  0.8608  0.1788  0.0281
 1094SOL    HW114741   1.734   1.949  14.491  1.2052  1.1047  1.8554
 1094SOL    HW214742   1.714   2.091  14.527  0.3764  0.5167 -0.1074
 1095SOL     OW14743   0.377   2.716   2.470 -0.6962 -0.2196 -0.1435
 1095SOL    HW114744   0.373   2.677   2.383  0.5131 -1.4906  0.3722
 1095SOL    HW214745   0.437   2.664   2.524 -0.1705  1.2987  0.7286
 1096SOL     OW14746   3.609   0.749  13.147 -0.1842  0.0634 -0.3129
 1096SOL    HW114747   3.614   0.696  13.067 -1.7615 -0.6861  0.0916
 1096SOL    HW214748   3.704   0.742  13.161  0.1765  2.8099 -1.5162
 1097SOL     OW14749   2.365   3.980   8.433 -0.3749 -0.1392 -0.2033
 1097SOL    HW114750   2.455   4.003   8.459  0.3029  0.1570 -2.8042
 1097SOL    HW214751   2.340   3.910   8.494 -1.1168 -1.5088 -2.1162
 1098SOL     OW14752   1.104   3.153  13.921 -0.3798  0.5408 -0.1926
 1098SOL    HW114753   1.184   3.102  13.910 -2.0227 -1.9730 -0.7979
 1098SOL    HW214754   1.137   3.227  13.972 -0.3291  0.2009  0.2715
 1099SOL     OW14755   2.679   4.722   4.184 -0.1189  1.2882 -0.2000
 1099SOL    HW114756   2.584   4.715   4.178 -0.0719 -0.5617  1.3020
 1099SOL    HW214757   2.707   4.668   4.110 -0.0243  1.0130  0.0355
 1100SOL     OW14758   4.461   1.955  17.337  0.2847 -0.2227  0.2072
 1100SOL    HW114759   4.410   2.028  17.372 -0.1477  0.0532 -0.9880
 1100SOL    HW214760   4.432   1.955  17.246  0.0131  3.5488  0.2836
 1101SOL     OW14761   1.611   1.025  13.697  0.1298 -0.2132 -0.6847
 1101SOL    HW114762   1.556   0.947  13.707  1.7570 -1.1126  1.4533
 1101SOL    HW214763   1.693   0.988  13.665  0.1865 -0.4501 -0.2754
 1102SOL     OW14764   4.525   2.698   3.809  0.4774  0.3959  0.1656
 1102SOL    HW114765   4.469   2.762   3.764  0.7660  0.3885 -0.2041
 1102SOL    HW214766   4.598   2.760   3.813  2.4868 -2.1746  3.0759
 1103SOL     OW14767   1.823   1.254  10.104 -0.0028  0.4403 -0.1626
 1103SOL    HW114768   1.770   1.332  10.124 -0.3787  0.1647 -0.1027
 1103SOL    HW214769   1.781   1.199  10.170  1.1598  0.9277  1.0082
 1104SOL     OW14770   4.602   2.732  11.086  0.4815 -0.1233  0.1719
 1104SOL    HW114771   4.630   2.657  11.033  1.7429  0.8883 -0.5714
 1104SOL    HW214772   4.673   2.741  11.149  0.9994 -1.7022 -0.1805
 1105SOL     OW14773   3.925   4.597   3.860  0.4174 -0.4817 -0.2410
 1105SOL    HW114774   3.922   4.691   3.880  2.8525 -0.4045 -0.2150
 1105SOL    HW214775   3.848   4.586   3.804 -1.1575  1.7815  1.4926
 1106SOL     OW14776   4.182   1.664  11.829  0.1017 -0.1967  0.1143
 1106SOL    HW114777   4.165   1.727  11.759  2.0501 -0.0556 -0.2492
 1106SOL    HW214778   4.203   1.598  11.763  0.0630 -1.3134  1.2170
 1107SOL     OW14779   1.250   3.329   5.519  0.4935  0.6446 -0.9282
 1107SOL    HW114780   1.337   3.300   5.546  0.0967 -0.0672 -0.4251
 1107SOL    HW214781   1.267   3.335   5.425 -1.8028 -2.0587 -1.5028
 1108SOL     OW14782   1.115   2.339   2.121 -0.3140 -0.2673  0.0211
 1108SOL    HW114783   1.039   2.294   2.084  0.3549  1.6723 -3.6646
 1108SOL    HW214784   1.182   2.272   2.108  0.1146  0.0450  0.6038
 1109SOL     OW14785   4.634   2.071  15.183 -0.3769  0.2534 -0.1081
 1109SOL    HW114786   4.594   2.085  15.098 -2.1286 -1.5621  0.4275
 1109SOL    HW214787   4.720   2.031  15.170 -1.1419 -1.9520  1.7251
 1110SOL     OW14788   0.887   1.137  13.261  0.4667  0.1116  0.0221
 1110SOL    HW114789   0.929   1.217  13.290  1.3005 -0.5694  0.6781
 1110SOL    HW214790   0.840   1.113  13.341  1.3051 -0.3937  0.3597
 1111SOL     OW14791   2.309   0.772   9.880  0.0881  0.8046  0.4396
 1111SOL    HW114792   2.266   0.856   9.893 -3.8168 -1.0306 -0.5102
 1111SOL    HW214793   2.335   0.756   9.970  0.2256 -1.1643  0.0615
 1112SOL     OW14794   2.443   1.818   7.626 -0.2759 -0.4888 -0.5498
 1112SOL    HW114795   2.536   1.832   7.644 -0.8093 -0.5801  2.3670
 1112SOL    HW214796   2.452   1.724   7.610  1.9014 -0.3158 -0.3079
 1113SOL     OW14797   3.047   1.271   2.968  0.1021  0.2268 -0.3917
 1113SOL    HW114798   2.993   1.192   2.960  0.3040  0.2048 -1.6593
 1113SOL    HW214799   3.035   1.297   2.877 -0.3782  2.3109  0.2666
 1114SOL     OW14800   0.740   1.422   8.130  0.2104 -0.6440  0.3738
 1114SOL    HW114801   0.789   1.340   8.125  0.8446 -0.2192 -0.3082
 1114SOL    HW214802   0.768   1.455   8.215 -0.9626 -1.3936  1.0634
 1115SOL     OW14803   2.270   0.382  13.869  0.3244 -0.6104 -0.2646
 1115SOL    HW114804   2.231   0.432  13.798  0.0392 -1.4182 -0.6847
 1115SOL    HW214805   2.268   0.290  13.840 -0.2955 -0.5605 -0.3880
 1116SOL     OW14806   1.092   0.586   8.614  0.0037  0.6223 -0.6201
 1116SOL    HW114807   1.109   0.640   8.537  3.2502 -1.9724 -1.7404
 1116SOL    HW214808   1.130   0.634   8.687 -0.8210  1.1254 -0.5305
 1117SOL     OW14809   4.283   1.108   8.020  0.3573  0.5176  0.4543
 1117SOL    HW114810   4.282   1.201   8.000 -1.2713 -0.1282 -2.4811
 1117SOL    HW214811   4.242   1.065   7.945 -0.5288  0.2854  1.0646
 1118SOL     OW14812   0.456   1.464   2.238 -1.0491  0.5115  0.2716
 1118SOL    HW114813   0.494   1.550   2.221 -0.6207  0.0992 -0.8268
 1118SOL    HW214814   0.453   1.461   2.334 -1.6033 -2.4729  0.1825
 1119SOL     OW14815   3.753   0.178   7.655 -0.1248  0.1686 -0.2096
 1119SOL    HW114816   3.695   0.168   7.731 -0.5657 -0.4567 -0.6334
 1119SOL    HW214817   3.827   0.129   7.692 -0.1536  0.6157  0.4409
 1120SOL     OW14818   2.351   1.295   0.471 -0.3303 -0.3566 -0.0590
 1120SOL    HW114819   2.408   1.371   0.455  1.6799 -1.6576  0.9569
 1120SOL    HW214820   2.352   1.248   0.388 -1.4581  1.9241 -1.3685
 1121SOL     OW14821   4.581   3.429   2.161  0.1028  0.9158  0.3473
 1121SOL    HW114822   4.533   3.355   2.122  1.3972  0.7271 -0.9026
 1121SOL    HW214823   4.624   3.471   2.086  0.7313  0.4417  0.4376
 1122SOL     OW14824   1.992   0.226  15.917 -0.0118  0.2639 -0.0745
 1122SOL    HW114825   2.075   0.218  15.965  0.3353 -1.5529 -0.9671
 1122SOL    HW214826   2.000   0.143  15.869  0.1477  1.7724 -2.6098
 1123SOL     OW14827   2.928   2.359   8.046 -0.3284  0.1969 -0.1489
 1123SOL    HW114828   3.015   2.378   8.080 -0.7741  1.5381  0.2275
 1123SOL    HW214829   2.873   2.402   8.112 -1.0202 -0.3026 -0.3905
 1124SOL     OW14830   3.990   2.471   2.328 -0.9409  0.6392 -0.3561
 1124SOL    HW114831   3.959   2.501   2.242 -1.2747  0.0588 -0.4416
 1124SOL    HW214832   3.906   2.460   2.373 -0.2252 -1.8295  0.3840
 1125SOL     OW14833   4.251   1.638   7.651 -0.3803 -0.2565  0.2410
 1125SOL    HW114834   4.322   1.623   7.713 -1.7664 -2.1774  1.3689
 1125SOL    HW214835   4.182   1.585   7.692 -0.4586 -0.1813  0.2069
 1126SOL     OW14836   3.511   1.415   8.127  0.1469 -0.0206  0.4257
 1126SOL    HW114837   3.597   1.449   8.152 -0.0324  0.9106 -0.2250
 1126SOL    HW214838   3.462   1.426   8.208 -0.3515 -0.9408  0.2477
 1127SOL     OW14839   2.271   2.271   4.398 -0.2330 -0.3339  0.4527
 1127SOL    HW114840   2.244   2.273   4.306  0.4652  1.1482  0.2779
 1127SOL    HW214841   2.288   2.177   4.409  1.6784 -0.4300 -3.3181
 1128SOL     OW14842   0.711   1.343   8.828 -0.2729 -0.0996 -0.2870
 1128SOL    HW114843   0.645   1.295   8.778 -1.6251  0.9437  0.4737
 1128SOL    HW214844   0.688   1.436   8.818  0.4818 -0.0523 -1.5581
 1129SOL     OW14845   3.660   3.293  11.289 -0.1953  0.5178 -0.1560
 1129SOL    HW114846   3.728   3.321  11.350  0.7095 -2.3861  0.1778
 1129SOL    HW214847   3.695   3.314  11.202 -1.5823  0.8350 -0.6431
 1130SOL     OW14848   0.852   0.906  15.866 -0.1249  0.3008  0.4122
 1130SOL    HW114849   0.866   0.847  15.940  1.4200 -1.3971 -1.2139
 1130SOL    HW214850   0.756   0.907  15.858 -0.1338 -0.2126  0.4671
 1131SOL     OW14851   4.394   2.560   1.142 -0.4021 -0.0820 -0.3316
 1131SOL    HW114852   4.314   2.612   1.144  0.4325  1.1405  1.6319
 1131SOL    HW214853   4.370   2.469   1.129 -0.0268 -0.2078 -0.1449
 1132SOL     OW14854   0.417   3.251   5.679 -0.2309 -0.3614 -0.4227
 1132SOL    HW114855   0.506   3.216   5.676 -0.5182 -1.0375 -1.0537
 1132SOL    HW214856   0.414   3.312   5.753 -0.4995 -0.9295  0.0373
 1133SOL     OW14857   2.636   4.097   8.434  0.0716 -0.8085  0.4377
 1133SOL    HW114858   2.685   4.098   8.352 -3.0526  2.2571 -1.3869
 1133SOL    HW214859   2.584   4.177   8.429  0.5598 -0.5344 -0.2724
 1134SOL     OW14860   2.158   4.583  15.150  0.0645 -0.5716 -0.1951
 1134SOL    HW114861   2.067   4.586  15.119  0.5338 -2.8606 -1.7852
 1134SOL    HW214862   2.211   4.606  15.074 -0.2597  0.5175 -0.0812
 1135SOL     OW14863   1.656   2.473   0.472  1.0247  0.5838  0.5330
 1135SOL    HW114864   1.678   2.474   0.379  3.2815  3.1030  1.0958
 1135SOL    HW214865   1.580   2.415   0.473  0.9727  0.6267 -0.7661
 1136SOL     OW14866   1.115   1.347   5.708 -0.0817 -0.1201  0.4123
 1136SOL    HW114867   1.186   1.283   5.714  0.1971  0.1166 -0.4017
 1136SOL    HW214868   1.036   1.310   5.748  0.0664  1.1908  1.9117
 1137SOL     OW14869   2.827   1.798   5.930 -0.6770 -0.5665 -0.6745
 1137SOL    HW114870   2.836   1.869   5.866 -1.3571 -1.7596 -2.0836
 1137SOL    HW214871   2.778   1.740   5.873 -2.5463  0.7619 -0.3991
 1138SOL     OW14872   2.143   1.531   2.942 -0.2374 -0.0260  0.2274
 1138SOL    HW114873   2.058   1.561   2.975 -1.0267  1.1221 -2.8745
 1138SOL    HW214874   2.162   1.458   3.001  1.0983  0.5893  0.5651
 1139SOL     OW14875   1.094   4.240   8.612 -0.2693 -0.1538  0.3790
 1139SOL    HW114876   1.119   4.263   8.523  2.0453 -0.9344  0.8274
 1139SOL    HW214877   1.169   4.273   8.662 -0.6274 -0.7364  1.2995
 1140SOL     OW14878   3.544   2.545  14.908  0.0704  0.0581 -0.3077
 1140SOL    HW114879   3.499   2.568  14.827 -0.8613  1.5849  0.6585
 1140SOL    HW214880   3.630   2.563  14.871 -0.0607 -0.3930 -0.8415
 1141SOL     OW14881   3.869   0.317  15.393 -0.3048  0.1895 -1.1842
 1141SOL    HW114882   3.804   0.266  15.344 -1.9233 -0.6906  1.8404
 1141SOL    HW214883   3.932   0.249  15.415  0.7175  1.5030 -0.0579
 1142SOL     OW14884   0.009   1.492   8.411  0.2119 -0.3649 -0.1861
 1142SOL    HW114885   0.001   1.499   8.316  2.5828 -0.1048 -0.3572
 1142SOL    HW214886   4.640   1.479   8.438  0.4183 -0.2958  0.5626
 1143SOL     OW14887   0.485   2.004   3.011 -0.2429  0.0819 -0.1455
 1143SOL    HW114888   0.554   1.959   2.963 -0.1500  2.7872 -2.5547
 1143SOL    HW214889   0.528   2.082   3.047 -0.8167  0.2083  0.2706
 1144SOL     OW14890   4.215   1.400   6.242  0.0762 -0.0391  0.4145
 1144SOL    HW114891   4.152   1.473   6.238  0.8088  0.6450  1.5459
 1144SOL    HW214892   4.270   1.423   6.167 -0.4672 -2.0877 -0.6362
 1145SOL     OW14893   1.684   2.837   7.506  0.5562  0.2750  0.4446
 1145SOL    HW114894   1.651   2.889   7.579 -2.1184 -2.0941  0.9313
 1145SOL    HW214895   1.601   2.841   7.458  1.5279  1.6605 -1.1174
 1146SOL     OW14896   1.204   2.693  10.168  0.4593  0.0884  0.0822
 1146SOL    HW114897   1.203   2.737  10.253 -0.7289 -3.9669  2.1601
 1146SOL    HW214898   1.114   2.718  10.145  0.3193 -1.5368 -1.1666
 1147SOL     OW14899   2.092   0.353   0.827  0.3883 -0.1185 -0.1569
 1147SOL    HW114900   2.153   0.287   0.860 -0.0468 -0.7770 -0.6794
 1147SOL    HW214901   2.152   0.422   0.798  0.1873  0.6472  1.2420
 1148SOL     OW14902   3.485   3.386  10.360  0.0166 -0.0570  0.2052
 1148SOL    HW114903   3.559   3.436  10.326  0.0414 -0.7103 -0.6975
 1148SOL    HW214904   3.452   3.349  10.278  0.2116 -2.0088  1.0221
 1149SOL     OW14905   3.152   3.470   1.067  0.4795  0.3172 -0.0221
 1149SOL    HW114906   3.241   3.434   1.058  0.2722 -0.3438  0.5664
 1149SOL    HW214907   3.137   3.471   1.161  1.5225  0.7617  0.1480
 1150SOL     OW14908   4.512   2.757   1.713 -0.0312  0.1441 -0.7024
 1150SOL    HW114909   4.605   2.741   1.727 -0.0961  0.7810  0.4879
 1150SOL    HW214910   4.483   2.801   1.793  0.8700  1.2361 -0.9766
 1151SOL     OW14911   1.460   1.033  15.417  0.2762 -0.2047  0.0805
 1151SOL    HW114912   1.388   1.036  15.480 -0.3355  3.1367 -0.8055
 1151SOL    HW214913   1.415   1.035  15.332 -0.2462  1.6718  0.4138
 1152SOL     OW14914   3.133   3.462   3.930 -0.6345 -0.1217  0.2027
 1152SOL    HW114915   3.114   3.553   3.954 -4.4629 -0.9527  0.3037
 1152SOL    HW214916   3.074   3.416   3.990 -1.8769  1.4859  0.2417
 1153SOL     OW14917   3.206   1.195   0.637 -0.4284 -0.5453 -0.5171
 1153SOL    HW114918   3.224   1.136   0.563  1.0998  1.8093 -2.0454
 1153SOL    HW214919   3.203   1.284   0.601 -0.2504  0.3531  1.7086
 1154SOL     OW14920   0.626   2.406   0.735  0.2087  0.2386  0.2886
 1154SOL    HW114921   0.676   2.484   0.760 -0.3585  0.2968  1.2629
 1154SOL    HW214922   0.657   2.339   0.795 -0.7004  2.3852  3.1618
 1155SOL     OW14923   3.387   2.734  17.267  0.2413 -0.1455 -0.2785
 1155SOL    HW114924   3.353   2.823  17.283  1.8762  0.2762  0.8688
 1155SOL    HW214925   3.474   2.740  17.306  0.3113 -1.8826 -0.1981
 1156SOL     OW14926   0.738   0.784   8.719 -0.0349 -0.3375 -0.5716
 1156SOL    HW114927   0.644   0.768   8.711  0.2722 -2.2942 -0.4612
 1156SOL    HW214928   0.768   0.694   8.705  1.3575  0.1825 -0.9917
 1157SOL     OW14929   2.780   1.423   2.046  0.2869  0.1699  0.0718
 1157SOL    HW114930   2.816   1.350   1.996 -1.0674 -0.8762  0.5973
 1157SOL    HW214931   2.688   1.394   2.044  0.5675 -0.7170 -0.0981
 1158SOL     OW14932   4.376   4.096  11.497  0.4745  0.2384 -0.2567
 1158SOL    HW114933   4.409   4.118  11.410  0.3799 -0.1557 -0.3906
 1158SOL    HW214934   4.281   4.111  11.496  0.3121 -0.9160 -1.9490
 1159SOL     OW14935   1.625   1.866  15.279 -0.4034 -0.1140  0.0318
 1159SOL    HW114936   1.662   1.881  15.366  0.5318 -2.1438 -0.0095
 1159SOL    HW214937   1.533   1.858  15.303 -1.0045  0.4960 -2.0503
 1160SOL     OW14938   3.461   2.938   8.988  0.2251  0.3740  0.1420
 1160SOL    HW114939   3.393   2.970   8.929 -0.3258 -0.6348  0.2254
 1160SOL    HW214940   3.435   2.846   8.978  0.7557  0.3005 -0.5376
 1161SOL     OW14941   1.339   4.008   7.413 -0.3069  0.0586 -0.3349
 1161SOL    HW114942   1.270   4.026   7.477 -0.3445 -1.4929  0.0667
 1161SOL    HW214943   1.375   4.091   7.382 -0.2721  0.4792  0.8402
 1162SOL     OW14944   3.625   1.355   5.087 -0.5446 -0.3742 -0.2447
 1162SOL    HW114945   3.551   1.401   5.049 -0.8362 -1.4236 -0.9544
 1162SOL    HW214946   3.588   1.266   5.091  0.0486 -0.5640  0.9656
 1163SOL     OW14947   2.245   0.849  11.022  0.0879 -0.1905  0.0392
 1163SOL    HW114948   2.318   0.912  11.026  0.8725 -1.0909 -0.1600
 1163SOL    HW214949   2.240   0.832  11.116 -1.7186 -0.4039 -0.0907
 1164SOL     OW14950   2.910   1.940   4.060  0.3835 -0.0595  0.1334
 1164SOL    HW114951   3.003   1.957   4.048  0.6777 -1.5091  0.3230
 1164SOL    HW214952   2.903   1.849   4.088  0.9949 -0.4784 -1.0612
 1165SOL     OW14953   2.115   1.862   2.017  0.3048 -0.1008 -0.5700
 1165SOL    HW114954   2.152   1.866   1.928  1.1604  1.2152 -0.1527
 1165SOL    HW214955   2.024   1.842   1.993  0.9891 -1.6554 -1.8501
 1166SOL     OW14956   1.753   0.891  11.769  0.2280  0.4623  0.1047
 1166SOL    HW114957   1.703   0.910  11.690  1.3026  3.5551  0.1659
 1166SOL    HW214958   1.684   0.898  11.835 -0.4325  1.8334 -0.7368
 1167SOL     OW14959   0.127   3.469   3.094 -0.0138 -0.0135 -0.3517
 1167SOL    HW114960   0.179   3.406   3.045  0.9262  0.2786  0.2675
 1167SOL    HW214961   0.185   3.545   3.090  1.0532 -0.7819  0.5057
 1168SOL     OW14962   3.087   4.668   2.158 -0.2779 -0.3835 -0.3186
 1168SOL    HW114963   3.058   4.611   2.088 -0.6297 -0.3734 -0.1778
 1168SOL    HW214964   3.006   4.717   2.169 -1.3196 -1.8938 -1.3827
 1169SOL     OW14965   1.694   3.459   0.387  0.4459 -0.3184  0.2704
 1169SOL    HW114966   1.735   3.512   0.455  1.1811 -0.7005  0.1210
 1169SOL    HW214967   1.766   3.409   0.350  1.0427 -1.6764  3.3018
 1170SOL     OW14968   3.632   3.683  12.978  0.0916 -0.0060 -0.1665
 1170SOL    HW114969   3.562   3.732  13.021  2.2505  2.4363  0.5945
 1170SOL    HW214970   3.676   3.759  12.939  0.3037  0.0144  0.1139
 1171SOL     OW14971   1.032   3.326  10.680  1.1249 -0.1943  0.3067
 1171SOL    HW114972   1.028   3.376  10.762 -0.4522 -2.1310  1.4113
 1171SOL    HW214973   0.989   3.243  10.702 -0.7996  0.8623  0.5832
 1172SOL     OW14974   1.640   1.405   9.638 -0.2704 -0.3223 -0.3802
 1172SOL    HW114975   1.619   1.446   9.553 -0.7235  0.5159  0.1314
 1172SOL    HW214976   1.570   1.449   9.687  1.2802  0.9349  0.6835
 1173SOL     OW14977   1.209   3.884   8.707 -0.0752  0.6361  0.0961
 1173SOL    HW114978   1.247   3.796   8.716  0.3573  0.6556 -1.7130
 1173SOL    HW214979   1.217   3.898   8.613 -0.6203  1.7320  0.2107
 1174SOL     OW14980   0.166   3.837   5.531 -0.2783  0.1430  0.1284
 1174SOL    HW114981   0.229   3.892   5.576  0.7462 -0.5837 -0.4219
 1174SOL    HW214982   0.134   3.906   5.473 -2.3697 -0.6066  0.3987
 1175SOL     OW14983   0.442   1.145   8.933 -0.3526  0.1690  0.0221
 1175SOL    HW114984   0.526   1.100   8.923 -0.2298  0.7373 -1.4210
 1175SOL    HW214985   0.436   1.199   8.854 -2.0427  1.4684  1.0387
 1176SOL     OW14986   4.518   1.639   0.231 -0.2161 -0.1864 -0.6372
 1176SOL    HW114987   4.590   1.674   0.284 -1.4098  0.4011  0.6073
 1176SOL    HW214988   4.461   1.714   0.243  1.3431  0.8461  0.3750
 1177SOL     OW14989   2.330   3.057   3.696 -0.8879  0.1764 -0.0058
 1177SOL    HW114990   2.247   3.100   3.714 -2.1288 -1.8342 -1.0041
 1177SOL    HW214991   2.384   3.081   3.771 -1.5338  1.4172  0.0634
 1178SOL     OW14992   3.620   1.040   0.966  0.0259 -0.5147  0.7146
 1178SOL    HW114993   3.581   1.069   1.048 -0.7943  0.9470 -0.1939
 1178SOL    HW214994   3.587   1.110   0.910  4.9154  1.7593  0.6483
 1179SOL     OW14995   1.155   2.980   1.619 -0.0533  0.0981 -0.4601
 1179SOL    HW114996   1.236   2.977   1.569  0.4322 -0.2926  0.3603
 1179SOL    HW214997   1.181   2.994   1.709 -0.8251 -2.3242  0.1641
 1180SOL     OW14998   2.050   1.425   4.425  0.1610  0.5340  0.1446
 1180SOL    HW114999   2.144   1.444   4.418  0.3242 -1.5556 -3.7063
 1180SOL    HW215000   2.010   1.463   4.347  0.3388  0.1557 -0.1306
 1181SOL     OW15001   0.354   3.102   4.660 -0.4529 -0.5293 -0.0861
 1181SOL    HW115002   0.445   3.124   4.679  0.3539 -2.7666 -1.2808
 1181SOL    HW215003   0.326   3.178   4.609 -0.2039  0.2878  1.0078
 1182SOL     OW15004   1.194   0.566   4.030 -0.1900  0.1768  0.4632
 1182SOL    HW115005   1.195   0.483   4.078 -0.2555  0.1977  0.5003
 1182SOL    HW215006   1.107   0.587   4.064 -0.1468  0.7680  0.2045
 1183SOL     OW15007   2.902   2.008  17.135  0.1133  0.1510 -0.2115
 1183SOL    HW115008   2.860   2.006  17.221  0.9804 -1.1872  0.1937
 1183SOL    HW215009   2.984   1.962  17.152 -0.0438 -0.1636 -0.3061
 1184SOL     OW15010   4.220   2.407   2.622 -0.3458  0.5294  0.1763
 1184SOL    HW115011   4.170   2.488   2.621  0.3289  0.9272 -0.4034
 1184SOL    HW215012   4.278   2.423   2.696 -0.3742  0.9371  0.1061
 1185SOL     OW15013   0.899   1.380   3.680  0.0598  0.5784  0.1295
 1185SOL    HW115014   0.864   1.448   3.737 -2.7838 -0.9350  0.2521
 1185SOL    HW215015   0.844   1.401   3.604  1.8941  1.5746 -0.9072
 1186SOL     OW15016   2.433   0.482   9.893  0.0146 -0.3432  0.2138
 1186SOL    HW115017   2.436   0.530   9.976 -1.5159  1.1078 -0.5763
 1186SOL    HW215018   2.412   0.396   9.928 -2.4507  0.1946  0.1173
 1187SOL     OW15019   3.683   0.300  13.070  0.3285 -0.3108  0.3851
 1187SOL    HW115020   3.690   0.395  13.075  1.5172 -0.3554 -0.3894
 1187SOL    HW215021   3.751   0.281  13.005 -0.7295 -1.1807 -0.4811
 1188SOL     OW15022   0.091   3.856   7.477  0.4551  0.2813  0.0501
 1188SOL    HW115023   0.035   3.904   7.539 -0.7202 -0.8519 -0.1184
 1188SOL    HW215024   0.172   3.891   7.512  1.0107 -0.1408 -0.8230
 1189SOL     OW15025   3.606   3.792  17.358 -0.3428  0.3216  0.2515
 1189SOL    HW115026   3.693   3.755  17.373 -1.4020 -1.7338  1.4361
 1189SOL    HW215027   3.616   3.849  17.282  0.1537 -0.1920 -0.0693
 1190SOL     OW15028   4.384   0.563   3.165  0.6702 -0.3161  0.6446
 1190SOL    HW115029   4.340   0.499   3.109  3.2738 -0.0489 -1.7558
 1190SOL    HW215030   4.359   0.514   3.243 -0.0111 -0.5260  0.2912
 1191SOL     OW15031   0.080   3.310   4.416  0.1840  0.1172  0.0213
 1191SOL    HW115032   0.003   3.254   4.421 -1.0763  1.8082 -0.1977
 1191SOL    HW215033   0.047   3.389   4.374  0.5701 -0.2505 -0.9694
 1192SOL     OW15034   1.115   1.194   1.516 -0.0961 -0.4792 -0.4390
 1192SOL    HW115035   1.114   1.179   1.422 -1.7417 -0.4391 -0.4343
 1192SOL    HW215036   1.052   1.265   1.522  1.4351  0.6867  1.7177
 1193SOL     OW15037   0.980   3.548   4.296  0.6684  0.9855 -0.4172
 1193SOL    HW115038   0.967   3.460   4.330  1.2875  1.2630  0.5329
 1193SOL    HW215039   0.905   3.601   4.324 -1.0584 -2.0988  0.7248
 1194SOL     OW15040   3.384   4.504   7.746  0.3986  0.8422 -0.1929
 1194SOL    HW115041   3.449   4.509   7.815  0.0781  1.5210  0.0619
 1194SOL    HW215042   3.392   4.587   7.698  0.2356 -0.6846 -2.8428
 1195SOL     OW15043   0.725   2.205   0.951 -0.3211  0.1244 -0.0801
 1195SOL    HW115044   0.658   2.173   1.012 -1.4061  2.7419  0.1268
 1195SOL    HW215045   0.776   2.247   1.020  0.3707 -0.5227 -0.2025
 1196SOL     OW15046   4.251   2.765  11.375  0.4140  0.3792  0.1914
 1196SOL    HW115047   4.178   2.826  11.382 -0.5691 -0.9782  1.8676
 1196SOL    HW215048   4.288   2.791  11.290  1.6424  0.3317  0.7058
 1197SOL     OW15049   2.771   3.201   7.892 -0.5477 -0.4676  0.2011
 1197SOL    HW115050   2.721   3.240   7.820  0.7193  2.0105  0.6542
 1197SOL    HW215051   2.696   3.175   7.945  0.8425  0.2234  2.5259
 1198SOL     OW15052   2.160   3.815   5.301 -0.1018  0.0471 -0.5789
 1198SOL    HW115053   2.245   3.837   5.262 -0.4109  0.2166 -1.1615
 1198SOL    HW215054   2.169   3.720   5.298 -0.0723 -0.1049  3.9143
 1199SOL     OW15055   3.724   0.389   4.193  0.1707 -0.1269 -0.2419
 1199SOL    HW115056   3.633   0.373   4.171  0.3078 -2.1981  0.6248
 1199SOL    HW215057   3.720   0.470   4.244 -0.6408 -0.9521  1.0205
 1200SOL     OW15058   1.966   0.828   8.552  1.0437 -0.3646  0.2826
 1200SOL    HW115059   1.988   0.898   8.613  0.1934 -0.0441  0.2167
 1200SOL    HW215060   2.041   0.773   8.573  1.8353  0.2188 -0.9915
 1201SOL     OW15061   2.375   3.066   5.545 -0.2765 -0.4825  0.1887
 1201SOL    HW115062   2.407   3.008   5.615  0.7547 -2.8294 -2.2152
 1201SOL    HW215063   2.286   3.082   5.576 -0.9137 -0.0382 -1.8790
 1202SOL     OW15064   2.937   0.358   4.693  0.1485  0.3469  0.3715
 1202SOL    HW115065   2.866   0.343   4.755  0.0459  0.7042  0.3387
 1202SOL    HW215066   3.009   0.371   4.754  0.4715 -0.6012  0.1999
 1203SOL     OW15067   1.384   1.843   8.955 -0.5056 -0.4453 -0.2670
 1203SOL    HW115068   1.443   1.794   8.898  0.9097  0.9397 -0.0069
 1203SOL    HW215069   1.448   1.912   8.976  0.4088 -1.2297 -0.4596
 1204SOL     OW15070   3.205   1.953  13.987  0.2228 -0.8338 -0.4799
 1204SOL    HW115071   3.119   1.951  13.945 -1.7714 -0.7145  3.6531
 1204SOL    HW215072   3.260   1.938  13.910  1.5916  0.6517  0.1992
 1205SOL     OW15073   3.084   2.224   8.307  0.2270  0.3837 -0.1572
 1205SOL    HW115074   3.099   2.146   8.253  0.2727 -0.0528  0.4826
 1205SOL    HW215075   3.171   2.256   8.331 -0.3880 -0.6693  3.4007
 1206SOL     OW15076   2.713   2.092   4.222  0.4783 -0.2653 -0.3363
 1206SOL    HW115077   2.775   2.047   4.164 -0.6443 -1.9239 -0.2717
 1206SOL    HW215078   2.760   2.108   4.303  2.5401  0.4737 -1.6802
 1207SOL     OW15079   1.519   0.437   8.578 -0.2560 -0.1923 -0.3620
 1207SOL    HW115080   1.439   0.478   8.610 -0.8745 -0.5056 -1.5001
 1207SOL    HW215081   1.569   0.518   8.575  1.2609 -1.0818  0.8637
 1208SOL     OW15082   1.639   2.484   3.695  0.4176 -0.1455 -0.0251
 1208SOL    HW115083   1.547   2.458   3.688 -0.2828  2.3689 -0.0244
 1208SOL    HW215084   1.684   2.402   3.676  2.1011  1.3451 -2.5249
 1209SOL     OW15085   2.608   2.856   6.150  0.2565  0.4811  0.0295
 1209SOL    HW115086   2.544   2.904   6.203  0.2277  0.4275  0.0433
 1209SOL    HW215087   2.686   2.907   6.173  0.9589 -1.0111  0.9332
 1210SOL     OW15088   3.360   4.195   6.220  0.2230 -0.2300  0.6457
 1210SOL    HW115089   3.325   4.207   6.309 -0.9023  0.2413  0.1370
 1210SOL    HW215090   3.311   4.262   6.172  0.5680 -0.3811  0.0840
 1211SOL     OW15091   2.132   4.219   1.864 -0.2829 -0.0814 -0.5098
 1211SOL    HW115092   2.112   4.202   1.772 -1.8080 -0.9667 -0.0196
 1211SOL    HW215093   2.187   4.296   1.848  3.4587 -2.6075  0.3555
 1212SOL     OW15094   0.653   1.050   7.911  0.0434 -0.3692 -0.2570
 1212SOL    HW115095   0.685   1.018   7.995 -0.9310 -0.2132  0.1731
 1212SOL    HW215096   0.722   1.004   7.863 -0.1168 -1.2762  0.3774
 1213SOL     OW15097   1.433   0.020   7.302 -0.1427 -0.4149  0.7855
 1213SOL    HW115098   1.424   0.109   7.335 -1.1252 -0.6971  1.2908
 1213SOL    HW215099   1.528   0.015   7.312  0.0546  1.1719 -0.3907
 1214SOL     OW15100   4.480   2.802   6.653 -0.0320  0.1164  0.1196
 1214SOL    HW115101   4.557   2.801   6.596  0.7322  2.5264  1.0666
 1214SOL    HW215102   4.520   2.833   6.734  1.8137  0.1434 -0.8013
 1215SOL     OW15103   2.871   0.424   7.043  0.1796 -0.3952  0.2852
 1215SOL    HW115104   2.888   0.408   7.136  3.0495 -0.5072 -0.2715
 1215SOL    HW215105   2.850   0.341   7.000 -1.1833 -0.1566  0.4667
 1216SOL     OW15106   3.960   2.231   1.952 -0.2384 -0.1385 -0.2380
 1216SOL    HW115107   3.965   2.160   1.887  1.7315 -0.2884  0.0828
 1216SOL    HW215108   3.945   2.193   2.038  3.3099 -0.3565  0.2949
 1217SOL     OW15109   0.346   1.039   4.365 -0.2790 -0.0632 -0.6231
 1217SOL    HW115110   0.306   0.982   4.299  0.3092 -1.5927  0.3290
 1217SOL    HW215111   0.283   1.052   4.435 -0.2293 -2.0308 -0.2246
 1218SOL     OW15112   0.247   1.747   2.383  0.2074 -0.0863  0.9077
 1218SOL    HW115113   0.203   1.662   2.375  2.2346 -1.2219  2.0959
 1218SOL    HW215114   0.263   1.754   2.477  0.8515 -1.4989  0.9067
 1219SOL     OW15115   0.193   2.402   2.321  0.3001  0.5561  0.3962
 1219SOL    HW115116   0.155   2.343   2.255  0.5711  1.1299 -0.2685
 1219SOL    HW215117   0.272   2.431   2.275  0.2395 -0.7532 -0.5610
 1220SOL     OW15118   0.211   3.278  14.777 -0.7748 -0.0830  0.0913
 1220SOL    HW115119   0.201   3.329  14.858  1.2834 -0.1792  0.4217
 1220SOL    HW215120   0.123   3.247  14.757  0.4508 -0.6629 -4.2670
 1221SOL     OW15121   4.351   3.541   3.806 -0.0972 -0.2825  0.0231
 1221SOL    HW115122   4.261   3.575   3.807 -0.3490 -0.9533 -0.1628
 1221SOL    HW215123   4.340   3.495   3.889  1.1330 -0.7117 -0.0686
 1222SOL     OW15124   1.479   2.934   2.043 -0.0404 -0.2228  1.0496
 1222SOL    HW115125   1.401   2.882   2.063  0.2240 -1.1553 -0.3243
 1222SOL    HW215126   1.500   2.906   1.954 -1.0491  2.1645  0.0665
 1223SOL     OW15127   1.195   0.909  14.933 -0.0262 -0.4371 -0.3088
 1223SOL    HW115128   1.238   0.888  14.850 -1.1287 -1.2068 -0.6955
 1223SOL    HW215129   1.153   0.990  14.905 -2.0721 -1.2146  0.4991
 1224SOL     OW15130   1.017   1.338  13.373 -0.3813 -0.4687  0.4645
 1224SOL    HW115131   1.081   1.341  13.444 -0.6506 -1.9079  0.7836
 1224SOL    HW215132   1.064   1.386  13.304  0.9364 -0.5600  1.2906
 1225SOL     OW15133   2.899   3.638   1.855 -0.0434 -0.0180 -0.4156
 1225SOL    HW115134   2.828   3.685   1.811 -0.7073 -0.6852 -0.0499
 1225SOL    HW215135   2.975   3.654   1.799 -0.2507  1.6318 -0.2131
 1226SOL     OW15136   4.525   1.329   4.127 -0.5707  0.0525  0.0307
 1226SOL    HW115137   4.599   1.390   4.122 -0.3582 -0.1461  0.7685
 1226SOL    HW215138   4.550   1.254   4.180  0.6323  0.6501  0.3163
 1227SOL     OW15139   3.589   3.326   0.886  0.2846 -0.3710  0.4972
 1227SOL    HW115140   3.680   3.340   0.857 -0.3679  2.3870 -0.2612
 1227SOL    HW215141   3.564   3.249   0.836  2.9152  0.0261 -1.4198
 1228SOL     OW15142   1.634   1.633   4.642 -0.0037 -0.2292  0.7392
 1228SOL    HW115143   1.612   1.704   4.701  0.2524  0.6871 -0.2690
 1228SOL    HW215144   1.729   1.633   4.654  0.1757  0.7075 -0.6394
 1229SOL     OW15145   3.115   3.258  10.684 -0.2516  0.2632 -0.8171
 1229SOL    HW115146   3.135   3.208  10.763 -1.5747  1.6269  0.3761
 1229SOL    HW215147   3.163   3.339  10.699  2.7484 -1.7601  0.4139
 1230SOL     OW15148   3.212   4.515   4.306 -0.5319  0.0008  0.2446
 1230SOL    HW115149   3.293   4.465   4.317 -0.3965  0.0640 -0.4483
 1230SOL    HW215150   3.226   4.569   4.228  0.6656 -0.2219  0.3113
 1231SOL     OW15151   4.366   1.482   0.619  0.2655  0.1944 -0.9794
 1231SOL    HW115152   4.370   1.445   0.531 -1.8130  1.7908 -1.7408
 1231SOL    HW215153   4.284   1.443   0.649  1.6614 -1.0589  1.2311
 1232SOL     OW15154   1.369   2.880   6.954  0.1319 -0.0526 -0.5104
 1232SOL    HW115155   1.444   2.827   6.981  0.1761  0.2898  0.0334
 1232SOL    HW215156   1.331   2.915   7.034 -3.9143 -1.4341 -1.8256
 1233SOL     OW15157   2.322   3.261   4.517  0.7360 -0.4623 -0.6573
 1233SOL    HW115158   2.333   3.244   4.423  1.1536 -1.3689 -0.4436
 1233SOL    HW215159   2.228   3.280   4.518  1.1153  1.2628  2.1066
 1234SOL     OW15160   4.273   1.990   8.618 -0.2787  0.0256 -0.3811
 1234SOL    HW115161   4.231   1.921   8.669 -2.7171  1.7603 -0.0322
 1234SOL    HW215162   4.366   1.968   8.627  0.0061  0.5796 -1.8523
 1235SOL     OW15163   1.521   3.689  15.681  0.2500  0.3602  0.0626
 1235SOL    HW115164   1.450   3.749  15.703  1.9969  1.4539  2.8038
 1235SOL    HW215165   1.476   3.617  15.638 -0.7378 -0.4479  2.4295
 1236SOL     OW15166   2.101   1.715   9.439  0.1278 -0.0780 -0.1068
 1236SOL    HW115167   2.140   1.768   9.369  1.1004  0.9000  1.1727
 1236SOL    HW215168   2.128   1.767   9.515 -1.6870  0.4228  0.2098
 1237SOL     OW15169   1.036   4.496  15.240  0.2540 -0.6759  0.0547
 1237SOL    HW115170   1.105   4.518  15.303 -0.5938 -0.2061  0.8016
 1237SOL    HW215171   0.968   4.470  15.302 -2.6110  1.5708 -2.1553
 1238SOL     OW15172   3.112   3.464  13.253  0.3656 -0.1690 -0.1212
 1238SOL    HW115173   3.096   3.377  13.290 -0.3067  0.5022  1.1577
 1238SOL    HW215174   3.160   3.506  13.325  0.2475 -1.1121  0.5128
 1239SOL     OW15175   0.611   4.604   5.441  0.0621 -0.4300  0.0202
 1239SOL    HW115176   0.704   4.623   5.427 -0.6448  4.1599  1.7749
 1239SOL    HW215177   0.599   4.622   5.534 -2.8203  1.2555 -0.7136
 1240SOL     OW15178   2.121   4.386   5.436  0.1610 -0.0830 -0.4345
 1240SOL    HW115179   2.085   4.382   5.347 -1.2038  2.7628 -0.0118
 1240SOL    HW215180   2.084   4.466   5.474  1.6331  0.5695 -0.3911
 1241SOL     OW15181   1.479   1.106   2.957 -0.1529 -0.5642  0.4836
 1241SOL    HW115182   1.493   1.129   3.049 -1.1447 -0.6356  0.6608
 1241SOL    HW215183   1.430   1.182   2.926 -0.6164 -1.2143 -0.3958
 1242SOL     OW15184   3.689   3.381   7.933  0.3183 -0.4073  0.4456
 1242SOL    HW115185   3.757   3.373   8.000  1.5939 -2.1732 -1.0601
 1242SOL    HW215186   3.624   3.427   7.986 -1.3510  0.3619 -2.2690
 1243SOL     OW15187   1.342   3.024  11.672 -0.6482  0.4886  0.2240
 1243SOL    HW115188   1.305   3.000  11.587 -1.8211  0.8617  0.6233
 1243SOL    HW215189   1.332   2.945  11.724 -0.8025  0.6540  0.4451
 1244SOL     OW15190   2.879   0.023   2.601 -0.3474  0.1606 -0.0131
 1244SOL    HW115191   2.899   4.692   2.677  0.1391 -1.3406 -1.1983
 1244SOL    HW215192   2.907   0.105   2.642  0.5653 -0.2714  0.2052
 1245SOL     OW15193   1.148   0.764   4.972 -0.7735 -0.2779  0.1159
 1245SOL    HW115194   1.086   0.714   4.919 -0.4876  1.7607 -2.1489
 1245SOL    HW215195   1.099   0.846   4.967 -0.1487  0.0961  0.2016
 1246SOL     OW15196   1.596   4.444   2.032  0.1494 -0.6979  0.1604
 1246SOL    HW115197   1.684   4.466   2.063  0.2521 -1.6978  0.5683
 1246SOL    HW215198   1.602   4.487   1.947  0.9057 -1.6665 -0.2712
 1247SOL     OW15199   2.581   4.472   8.582  0.5573  0.6532  0.1400
 1247SOL    HW115200   2.529   4.446   8.658 -0.4888 -0.0932 -0.8408
 1247SOL    HW215201   2.539   4.557   8.568 -0.3051 -0.1453 -1.9983
 1248SOL     OW15202   0.224   1.257   7.195 -0.1597  0.4278  0.1198
 1248SOL    HW115203   0.187   1.277   7.109 -1.1029 -0.7828  0.2353
 1248SOL    HW215204   0.174   1.178   7.217 -0.6052  0.7136  0.1259
 1249SOL     OW15205   3.905   0.294   0.868 -0.1401 -0.1303  0.1684
 1249SOL    HW115206   3.886   0.261   0.955  1.1124 -2.1145 -0.3233
 1249SOL    HW215207   3.876   0.385   0.863  2.5276  0.8057  1.5104
 1250SOL     OW15208   3.462   0.980   6.931  0.0196 -0.0919 -0.1326
 1250SOL    HW115209   3.521   0.968   6.857 -0.3285  0.2576 -0.4608
 1250SOL    HW215210   3.379   0.961   6.889 -0.1701  1.7250 -0.5874
 1251SOL     OW15211   0.769   2.991   4.761 -0.3089 -0.1931 -0.0064
 1251SOL    HW115212   0.700   2.968   4.823  0.4943  3.0086  2.0888
 1251SOL    HW215213   0.783   2.911   4.711  0.2042 -1.5690  2.3617
 1252SOL     OW15214   1.037   3.349   4.040 -0.1561  0.3049 -0.0585
 1252SOL    HW115215   0.993   3.336   4.124 -0.1774 -3.4694 -0.6896
 1252SOL    HW215216   1.062   3.442   4.042  1.4106 -0.1127 -0.7788
 1253SOL     OW15217   4.339   2.322   9.509 -0.2618  0.2432  0.0659
 1253SOL    HW115218   4.261   2.268   9.515  1.1963 -1.8993 -0.3780
 1253SOL    HW215219   4.314   2.406   9.470 -0.5442  0.9732  1.8071
 1254SOL     OW15220   1.982   4.385   8.522 -0.3034 -0.0077 -0.2530
 1254SOL    HW115221   1.974   4.308   8.465  1.4228 -0.6476  0.3521
 1254SOL    HW215222   2.025   4.356   8.603  3.1905  0.5835 -1.8941
 1255SOL     OW15223   1.439   2.927   7.425 -0.9165  0.0303 -0.5617
 1255SOL    HW115224   1.439   3.023   7.419  2.6443 -0.0937 -2.4033
 1255SOL    HW215225   1.428   2.892   7.336 -2.3950  2.2139 -1.2518
 1256SOL     OW15226   1.220   3.629   4.989 -0.1028 -0.1037 -0.2523
 1256SOL    HW115227   1.311   3.608   5.011 -0.1362 -0.2521 -0.2507
 1256SOL    HW215228   1.179   3.624   5.076 -0.7079 -2.6136 -0.6794
 1257SOL     OW15229   1.689   1.800   9.371 -0.1387  0.0851 -0.4945
 1257SOL    HW115230   1.660   1.879   9.417 -0.1608  1.3568 -2.6814
 1257SOL    HW215231   1.751   1.766   9.435 -0.6742  2.0164  1.0765
 1258SOL     OW15232   3.790   2.235   6.344 -0.0793 -0.3853  0.0623
 1258SOL    HW115233   3.855   2.303   6.360 -0.6287  0.4485 -1.3606
 1258SOL    HW215234   3.718   2.270   6.397 -0.6473  1.1258 -1.7376
 1259SOL     OW15235   3.121   4.658   3.954 -0.4421  0.5689 -0.2732
 1259SOL    HW115236   3.042   4.663   3.900  0.7225  2.4366 -1.8224
 1259SOL    HW215237   3.133   0.031   3.956 -2.6937  0.8605 -0.4615
 1260SOL     OW15238   2.050   4.351   7.929 -0.0908  0.3306  0.6481
 1260SOL    HW115239   2.098   4.351   8.012 -1.9016 -2.5188  1.6812
 1260SOL    HW215240   2.109   4.328   7.858  2.2384  2.0140  2.0097
 1261SOL     OW15241   1.966   4.077   9.192  0.0062 -0.2123  0.3197
 1261SOL    HW115242   1.910   4.037   9.259 -1.8780  1.5071 -0.2377
 1261SOL    HW215243   2.050   4.053   9.232  0.5377  0.9173 -0.1245
 1262SOL     OW15244   2.388   0.537   3.718 -0.3754  0.2766  0.1168
 1262SOL    HW115245   2.417   0.623   3.687  0.2523  0.1997  0.4911
 1262SOL    HW215246   2.299   0.537   3.683  0.0514  0.7252 -0.9642
 1263SOL     OW15247   2.559   1.550   6.598  0.2649 -0.5353  0.1315
 1263SOL    HW115248   2.623   1.480   6.614  1.4762  1.3449  3.5164
 1263SOL    HW215249   2.499   1.498   6.546  0.7454  0.4951 -1.4771
 1264SOL     OW15250   0.585   2.575   5.745  0.0018 -0.1691 -0.4177
 1264SOL    HW115251   0.623   2.658   5.716  0.3772  0.2639  1.3067
 1264SOL    HW215252   0.533   2.545   5.670  0.1951  0.1011 -0.6581
 1265SOL     OW15253   2.578   3.564   2.166 -0.2099 -0.1872 -0.4296
 1265SOL    HW115254   2.593   3.473   2.141 -0.7168 -1.0364  2.3432
 1265SOL    HW215255   2.638   3.575   2.240 -0.5944 -3.4413  0.3511
 1266SOL     OW15256   0.819   2.564   3.658 -0.1979 -0.2422  0.2717
 1266SOL    HW115257   0.871   2.524   3.588 -1.2447  0.9872 -1.2036
 1266SOL    HW215258   0.766   2.623   3.604 -0.6721 -1.9896 -1.1583
 1267SOL     OW15259   3.619   2.701   6.700  0.0244  0.0302  0.2123
 1267SOL    HW115260   3.682   2.629   6.697  0.7052  0.6114  0.4622
 1267SOL    HW215261   3.571   2.689   6.782 -0.1839 -1.2630 -0.1050
 1268SOL     OW15262   0.846   3.076   7.921  0.3990  0.0509 -0.4379
 1268SOL    HW115263   0.840   3.003   7.982  0.2495 -0.8029 -1.4628
 1268SOL    HW215264   0.806   3.141   7.979 -0.6537 -0.0454 -1.0550
 1269SOL     OW15265   2.110   1.118   6.984 -0.2989 -0.0044  0.2410
 1269SOL    HW115266   2.022   1.157   6.985 -0.9394 -1.4500  0.5599
 1269SOL    HW215267   2.101   1.057   7.057 -1.0477  1.0830  1.0600
 1270SOL     OW15268   3.755   1.699   6.797  0.3558  0.5267  0.3071
 1270SOL    HW115269   3.696   1.675   6.868 -0.9993 -1.8122 -1.5788
 1270SOL    HW215270   3.766   1.617   6.749  4.7103  1.5307 -0.4168
 1271SOL     OW15271   4.646   3.165   7.132  0.5901  0.1116 -0.4799
 1271SOL    HW115272   4.644   3.251   7.175  2.0700 -0.0055 -0.1828
 1271SOL    HW215273   4.696   3.194   7.056  0.4533  0.6760 -0.3525
 1272SOL     OW15274   2.553   1.779   5.452 -0.4267 -0.2390 -0.2502
 1272SOL    HW115275   2.625   1.777   5.389 -0.4754 -2.9625 -0.2171
 1272SOL    HW215276   2.490   1.715   5.418  1.2313 -1.4780 -0.9516
 1273SOL     OW15277   4.073   1.682   2.212  0.1686  0.5332  0.0355
 1273SOL    HW115278   4.120   1.671   2.295 -0.8236  0.5365  0.5993
 1273SOL    HW215279   4.006   1.746   2.235  0.6610  0.8112  0.7003
 1274SOL     OW15280   3.157   0.630  11.398 -0.2152 -0.4182 -0.0841
 1274SOL    HW115281   3.241   0.675  11.389 -0.2663 -0.0841  1.1789
 1274SOL    HW215282   3.120   0.684  11.468  1.1898 -0.5166  0.7309
 1275SOL     OW15283   1.956   1.893   1.266 -0.1535 -0.2524 -0.0867
 1275SOL    HW115284   1.901   1.908   1.189  0.0834  0.5813 -0.0994
 1275SOL    HW215285   1.961   1.800   1.284  0.5590 -0.5501 -1.8418
 1276SOL     OW15286   3.925   2.717   8.234 -0.3650 -0.2725 -0.0518
 1276SOL    HW115287   3.937   2.780   8.305 -2.2652  0.0143  0.0210
 1276SOL    HW215288   4.018   2.709   8.214 -0.3999 -0.0041 -0.3317
 1277SOL     OW15289   1.959   3.704   9.063 -0.4150  0.4257 -0.2771
 1277SOL    HW115290   2.008   3.785   9.077 -0.0649  0.3340 -0.9838
 1277SOL    HW215291   1.872   3.737   9.083  0.0562  0.9833  0.9095
 1278SOL     OW15292   4.197   3.683   1.628  0.6211  0.0235 -0.2899
 1278SOL    HW115293   4.111   3.725   1.632 -0.0787 -1.2919 -1.6830
 1278SOL    HW215294   4.188   3.628   1.706  1.3760 -1.0651 -0.9808
 1279SOL     OW15295   3.191   0.301  17.427 -0.5621  0.4326 -0.1713
 1279SOL    HW115296   3.166   0.376  17.481 -1.2531 -0.5629  0.8824
 1279SOL    HW215297   3.285   0.314  17.439 -1.3524  3.4158  2.6953
 1280SOL     OW15298   0.173   0.259   6.868 -0.1556 -0.0826 -0.2104
 1280SOL    HW115299   0.220   0.319   6.809 -0.6333 -0.3529 -0.8633
 1280SOL    HW215300   0.143   0.311   6.943  0.5038 -2.3223  1.6191
 1281SOL     OW15301   1.740   3.530   6.267 -0.5658  0.4719 -0.2763
 1281SOL    HW115302   1.725   3.554   6.176 -2.0269 -2.0119 -0.7161
 1281SOL    HW215303   1.707   3.440   6.277  0.4354  0.0642 -0.7203
 1282SOL     OW15304   3.196   3.565   0.763 -0.3560 -0.0188 -0.5515
 1282SOL    HW115305   3.254   3.631   0.801  2.3648 -3.3412  1.0866
 1282SOL    HW215306   3.135   3.564   0.838  0.5553  0.8350  0.1999
 1283SOL     OW15307   4.423   4.562   3.075  0.4703 -0.7695 -0.2569
 1283SOL    HW115308   4.450   4.494   3.137  0.0382 -1.8905 -1.2812
 1283SOL    HW215309   4.492   4.552   3.010  1.2699 -0.6075  0.5648
 1284SOL     OW15310   3.336   0.719  13.259  0.0114  0.8871  0.5310
 1284SOL    HW115311   3.354   0.790  13.321  0.0736  1.5911 -0.3069
 1284SOL    HW215312   3.416   0.714  13.208  0.1658 -0.0661  0.8634
 1285SOL     OW15313   4.176   0.057  11.409 -0.1971 -0.4234  0.3465
 1285SOL    HW115314   4.214   0.129  11.359  2.2028 -0.5235  2.0155
 1285SOL    HW215315   4.116   0.016  11.346 -1.0695  0.6820  0.4649
 1286SOL     OW15316   0.721   3.089   3.124 -0.4325  0.0786  0.2865
 1286SOL    HW115317   0.665   3.053   3.055  0.9944  0.2127 -0.9570
 1286SOL    HW215318   0.774   3.151   3.074 -0.6436 -0.7469 -0.9770
 1287SOL     OW15319   1.221   0.754   8.832  0.1244 -0.6329  0.5308
 1287SOL    HW115320   1.171   0.813   8.776 -0.8185 -2.2247 -0.2945
 1287SOL    HW215321   1.165   0.752   8.910  1.2865  1.3180  1.4273
 1288SOL     OW15322   1.154   2.465   0.007  0.0131  0.3850 -0.2292
 1288SOL    HW115323   1.119   2.386  17.657  1.1964 -0.9742  1.3122
 1288SOL    HW215324   1.107   2.537  17.657  0.3066  0.0102 -1.2088
 1289SOL     OW15325   1.671   1.537   8.913 -0.2865 -0.8881  0.7896
 1289SOL    HW115326   1.704   1.476   8.979 -1.1670 -2.4097 -0.1755
 1289SOL    HW215327   1.615   1.475   8.865 -1.8756  0.3775  1.0260
 1290SOL     OW15328   0.935   0.768   8.300 -0.6020  0.1916  0.4646
 1290SOL    HW115329   1.028   0.749   8.294 -0.9972 -1.2774 -1.1108
 1290SOL    HW215330   0.934   0.853   8.345  0.5175  0.4824 -0.0663
 1291SOL     OW15331   4.575   4.497  13.501  0.1852  0.0893 -0.2976
 1291SOL    HW115332   4.506   4.544  13.454 -0.5047  1.1609  1.7941
 1291SOL    HW215333   4.534   4.426  13.551 -2.0388  0.6270 -1.3297
 1292SOL     OW15334   0.915   4.361   3.392 -0.1881  0.0744 -0.2661
 1292SOL    HW115335   0.938   4.301   3.321  1.8537 -0.6304  1.0096
 1292SOL    HW215336   0.949   4.441   3.352 -1.0808  0.0290 -1.1096
 1293SOL     OW15337   2.644   2.945  13.081  0.1691 -0.0287  0.1898
 1293SOL    HW115338   2.676   2.967  13.168 -2.1555  0.5517  0.8753
 1293SOL    HW215339   2.556   2.913  13.101  0.0060 -0.1460 -0.6918
 1294SOL     OW15340   4.694   4.637   3.381  0.6647 -0.2965  0.3409
 1294SOL    HW115341   0.016   4.603   3.303 -0.0038  0.1216 -0.2340
 1294SOL    HW215342   0.045   4.633   3.441  0.7964 -0.4351  0.1714
 1295SOL     OW15343   3.404   3.628   7.939 -0.2320 -0.1791  0.2411
 1295SOL    HW115344   3.436   3.570   8.008  0.2698 -2.1677 -1.6510
 1295SOL    HW215345   3.482   3.682   7.934  0.0126 -0.0917  4.6018
 1296SOL     OW15346   4.029   2.564  17.658 -0.2845 -0.2422 -0.2034
 1296SOL    HW115347   4.045   2.520  17.575 -0.5724  0.5998 -0.6996
 1296SOL    HW215348   4.092   2.510   0.014 -0.2558  0.1183  0.1676
 1297SOL     OW15349   3.441   2.731   6.935 -0.3786  0.4822 -0.1172
 1297SOL    HW115350   3.355   2.770   6.920  0.1933  1.5935 -0.5208
 1297SOL    HW215351   3.403   2.659   6.985  1.2892 -0.2042  0.1762
 1298SOL     OW15352   0.894   2.217  17.315 -0.5570  0.3822  0.7481
 1298SOL    HW115353   0.856   2.151  17.257  0.8410  0.2623 -0.0239
 1298SOL    HW215354   0.813   2.260  17.343 -2.2181 -2.0072 -0.3899
 1299SOL     OW15355   1.683   3.040   6.842 -0.4966 -0.5204 -0.2588
 1299SOL    HW115356   1.667   3.072   6.930  1.4013 -1.6280  0.4892
 1299SOL    HW215357   1.773   3.062   6.817  0.2724 -2.2935  0.9787
 1300SOL     OW15358   3.730   1.756  12.717  0.1092 -0.2525  0.3109
 1300SOL    HW115359   3.691   1.831  12.672  1.0788 -0.5245 -0.9551
 1300SOL    HW215360   3.646   1.724  12.752  0.2177  0.2452  1.0390
 1301SOL     OW15361   2.674   0.889   7.423  0.6392 -0.6706 -0.7099
 1301SOL    HW115362   2.587   0.923   7.441  0.9808 -0.1981  0.0484
 1301SOL    HW215363   2.730   0.919   7.495 -1.2087  1.8814 -0.3615
 1302SOL     OW15364   4.112   0.037   5.936  0.0159 -0.4506  0.8553
 1302SOL    HW115365   4.119   0.131   5.947  0.9799 -0.4645  0.3985
 1302SOL    HW215366   4.045   0.002   5.995 -0.0118 -0.7276  0.6633
 1303SOL     OW15367   2.959   1.568  12.416  0.2178  0.1299  0.2977
 1303SOL    HW115368   2.916   1.608  12.340  1.9967  0.9675 -0.2598
 1303SOL    HW215369   3.052   1.571  12.397  0.0374 -0.8529 -0.7848
 1304SOL     OW15370   0.090   4.001   4.927  0.2953 -0.0869  0.2844
 1304SOL    HW115371   0.182   3.986   4.906  0.2605 -1.4167  1.1338
 1304SOL    HW215372   0.048   3.921   4.898  2.2796 -0.8669 -0.4105
 1305SOL     OW15373   4.406   1.411   2.309  0.0494 -0.6714  0.2756
 1305SOL    HW115374   4.490   1.412   2.263  0.2378 -3.1451  0.5652
 1305SOL    HW215375   4.350   1.430   2.234  1.2412  2.4860  0.2131
 1306SOL     OW15376   0.110   1.414   4.061 -0.2673  1.1377 -0.4057
 1306SOL    HW115377   0.101   1.463   4.143 -0.7353  1.1903 -0.4872
 1306SOL    HW215378   0.151   1.478   4.003  0.4205 -0.0702 -1.2654
 1307SOL     OW15379   2.012   0.383   8.869 -0.4013 -0.3917 -0.1021
 1307SOL    HW115380   2.103   0.360   8.889 -0.5455 -1.9728 -1.2568
 1307SOL    HW215381   1.961   0.311   8.908 -3.6537  1.6137 -0.6756
 1308SOL     OW15382   1.700   1.280   6.660  0.0182 -0.0137  0.3241
 1308SOL    HW115383   1.737   1.358   6.618  0.0229 -0.7256 -0.9935
 1308SOL    HW215384   1.607   1.302   6.653  0.3268  1.3886  0.5850
 1309SOL     OW15385   4.062   2.490  14.443  0.1558  0.0258 -0.1147
 1309SOL    HW115386   4.140   2.538  14.471  1.2657 -0.9692 -1.5179
 1309SOL    HW215387   3.997   2.551  14.478  0.3879 -0.4892  1.2109
 1310SOL     OW15388   3.528   2.520   2.765  0.5344 -0.6742  0.0841
 1310SOL    HW115389   3.554   2.611   2.779 -0.1592 -0.3981 -0.4260
 1310SOL    HW215390   3.432   2.525   2.765  0.4813 -1.8139 -0.3138
 1311SOL     OW15391   3.751   4.273  13.005  0.0118 -0.0528 -0.1840
 1311SOL    HW115392   3.802   4.196  13.031 -0.1120 -1.3044 -3.6475
 1311SOL    HW215393   3.735   4.262  12.911 -1.1978  1.4480 -0.1406
 1312SOL     OW15394   0.866   4.611  17.067  0.1468 -0.4357 -0.1785
 1312SOL    HW115395   0.870   4.535  17.009  0.3018 -0.4709 -0.1220
 1312SOL    HW215396   0.891   4.573  17.152 -0.3556 -0.8290 -0.2037
 1313SOL     OW15397   2.910   4.153   5.199  0.2718 -0.2306 -0.2118
 1313SOL    HW115398   2.925   4.223   5.135 -1.5923  0.5192  0.1871
 1313SOL    HW215399   2.816   4.144   5.209  0.3083  0.8037  1.1025
 1314SOL     OW15400   4.315   3.353  14.331  0.1949 -0.1046 -0.3419
 1314SOL    HW115401   4.245   3.417  14.338 -2.2582 -2.7996 -0.4695
 1314SOL    HW215402   4.281   3.277  14.379  1.9928 -0.6754  0.0566
 1315SOL     OW15403   4.263   4.517   2.316 -0.3072 -0.5158  0.3514
 1315SOL    HW115404   4.245   4.424   2.332  1.6028 -0.8052  0.8335
 1315SOL    HW215405   4.351   4.504   2.280 -1.0197  2.0406 -2.3258
 1316SOL     OW15406   1.423   0.811   8.193  0.4429 -0.1609  0.4039
 1316SOL    HW115407   1.380   0.794   8.109 -3.3427  1.7506  1.9726
 1316SOL    HW215408   1.425   0.906   8.194 -0.4989 -0.1321 -0.0766
 1317SOL     OW15409   0.235   3.955  13.720  0.1505  0.3219 -0.3726
 1317SOL    HW115410   0.295   3.986  13.788  0.3346 -0.0373 -0.3706
 1317SOL    HW215411   0.157   4.008  13.734 -0.3968 -0.4867 -0.3319
 1318SOL     OW15412   2.257   0.057  14.631 -0.2668  0.1800 -0.6995
 1318SOL    HW115413   2.165   0.046  14.608 -0.3233 -0.2533 -0.2638
 1318SOL    HW215414   2.276   0.150  14.629 -0.7415  0.2708 -1.2164
 1319SOL     OW15415   2.178   2.905  12.437  0.4026 -0.3797 -0.1664
 1319SOL    HW115416   2.158   2.812  12.441 -0.7799 -0.1525 -0.7893
 1319SOL    HW215417   2.090   2.939  12.419  0.3009 -1.7292 -2.1296
 1320SOL     OW15418   3.976   0.313  12.989  0.3145  0.5746 -0.5486
 1320SOL    HW115419   4.060   0.319  12.944  0.1765 -3.0570 -1.2534
 1320SOL    HW215420   3.948   0.403  13.006 -2.4625 -0.2893 -0.4003
 1321SOL     OW15421   3.952   3.921   2.132 -0.1255  0.1940 -0.2447
 1321SOL    HW115422   4.023   3.917   2.069  0.0537 -1.0891  0.0345
 1321SOL    HW215423   3.991   3.876   2.208 -1.0629 -0.3450 -0.0825
 1322SOL     OW15424   3.635   3.365   1.224  0.5457  0.2935 -0.7396
 1322SOL    HW115425   3.724   3.353   1.191  0.6935 -2.1972  0.6116
 1322SOL    HW215426   3.654   3.438   1.283 -1.2682 -0.6307  0.9548
 1323SOL     OW15427   2.028   0.291   5.543  0.7133 -0.4143  0.2769
 1323SOL    HW115428   2.059   0.212   5.500  0.2678  0.0278 -0.8476
 1323SOL    HW215429   1.961   0.261   5.604 -0.0987 -0.0650 -0.4453
 1324SOL     OW15430   1.117   3.815   3.767 -0.1588 -0.2071 -0.6900
 1324SOL    HW115431   1.125   3.757   3.843 -1.2703 -0.9228 -1.1186
 1324SOL    HW215432   1.071   3.888   3.808 -0.3592 -2.2914  2.7499
 1325SOL     OW15433   2.654   1.314   6.013 -0.1591 -0.2548 -0.3682
 1325SOL    HW115434   2.667   1.351   6.100  0.8996 -0.0429 -0.6151
 1325SOL    HW215435   2.745   1.295   5.991 -0.0769 -0.0838 -0.1711
 1326SOL     OW15436   2.376   0.074   7.408 -0.3274  0.3203 -0.2836
 1326SOL    HW115437   2.345   0.136   7.342 -0.0643  2.0427  1.2100
 1326SOL    HW215438   2.416   0.127   7.477 -0.1057 -0.8385  0.4654
 1327SOL     OW15439   3.420   4.024  17.583 -0.4256  0.5615  0.5056
 1327SOL    HW115440   3.480   3.981  17.644 -0.7009  1.5351  1.4765
 1327SOL    HW215441   3.335   3.986  17.603 -1.1681  2.5807  1.1795
 1328SOL     OW15442   4.633   3.257   8.271 -0.0452 -0.1958  0.3077
 1328SOL    HW115443   4.722   3.224   8.278 -0.0375  0.0255  1.3148
 1328SOL    HW215444   4.635   3.349   8.245 -1.8829 -0.2495 -0.0021
 1329SOL     OW15445   2.014   1.671   8.952 -0.0945 -0.5232  0.3607
 1329SOL    HW115446   2.007   1.591   9.003  1.8682 -1.0384 -0.1797
 1329SOL    HW215447   1.963   1.645   8.876  0.1801  1.4124 -0.4851
 1330SOL     OW15448   4.496   3.160   2.380 -0.1205 -0.7998 -0.7998
 1330SOL    HW115449   4.442   3.090   2.417  0.2061  0.3583  1.8408
 1330SOL    HW215450   4.560   3.109   2.331  0.9042 -2.0379  1.8442
 1331SOL     OW15451   3.283   2.718   3.084 -0.4721  0.0710 -0.1684
 1331SOL    HW115452   3.237   2.788   3.038  1.3618 -0.4318 -2.8242
 1331SOL    HW215453   3.232   2.644   3.052 -1.7299  0.9745 -0.2567
 1332SOL     OW15454   1.295   3.640   2.475  0.2414  0.0665 -0.2129
 1332SOL    HW115455   1.386   3.618   2.494  0.5138  0.1508 -1.4087
 1332SOL    HW215456   1.257   3.611   2.558  1.3026 -0.6227  0.0368
 1333SOL     OW15457   0.858   1.324  14.238  0.1037  0.4522  0.4762
 1333SOL    HW115458   0.914   1.291  14.167  0.4385  2.4247 -0.1772
 1333SOL    HW215459   0.896   1.281  14.315  1.1336  1.3045  0.4422
 1334SOL     OW15460   3.827   4.004   4.221 -0.3360 -0.1319  0.4409
 1334SOL    HW115461   3.858   4.076   4.275 -0.0498 -0.4483  0.6995
 1334SOL    HW215462   3.767   3.950   4.273 -2.4101  0.5562 -1.2368
 1335SOL     OW15463   3.831   1.098   7.325 -0.1746  0.1641  0.6439
 1335SOL    HW115464   3.817   1.039   7.398 -0.6156 -0.4825  0.0399
 1335SOL    HW215465   3.831   1.036   7.252  0.8067 -1.6431  2.2086
 1336SOL     OW15466   0.715   3.960   5.687 -0.6568 -0.3018 -0.3574
 1336SOL    HW115467   0.772   4.001   5.752 -0.0988 -1.8008  0.0927
 1336SOL    HW215468   0.765   3.967   5.605 -0.3484 -1.9491 -0.3018
 1337SOL     OW15469   1.723   3.094   3.354 -0.1344 -0.1693 -0.3657
 1337SOL    HW115470   1.671   3.137   3.422 -1.2301 -1.6409 -0.2698
 1337SOL    HW215471   1.691   3.004   3.366  2.1496 -1.1719 -1.7224
 1338SOL     OW15472   1.532   1.163   4.013  0.2509  0.1786 -0.8129
 1338SOL    HW115473   1.528   1.150   3.919  0.1890 -2.9601 -0.3618
 1338SOL    HW215474   1.448   1.206   4.028 -0.5318 -1.2363 -1.2319
 1339SOL     OW15475   2.156   3.067  10.227 -0.0911 -0.0222  0.7328
 1339SOL    HW115476   2.130   3.065  10.135 -0.3953  0.3961  0.8111
 1339SOL    HW215477   2.077   3.096  10.274 -1.2027 -0.4128 -0.9011
 1340SOL     OW15478   2.562   3.457   3.106  0.7779 -0.5314 -0.6802
 1340SOL    HW115479   2.493   3.524   3.104  1.1932 -0.0926 -0.1246
 1340SOL    HW215480   2.576   3.445   3.199  0.9147 -1.9275 -0.8827
 1341SOL     OW15481   1.086   3.391   3.574 -0.0982  0.3085 -0.5015
 1341SOL    HW115482   1.019   3.426   3.633  1.1363  0.7496  0.6554
 1341SOL    HW215483   1.123   3.321   3.628 -0.0553  1.2509  0.7013
 1342SOL     OW15484   3.302   1.190   3.903 -0.1119 -0.5152 -0.1141
 1342SOL    HW115485   3.308   1.230   3.817 -0.3481 -1.6527 -0.6624
 1342SOL    HW215486   3.296   1.098   3.878 -1.4383 -0.2020 -0.9476
 1343SOL     OW15487   1.575   1.338  10.899  0.2796 -0.5631  0.3565
 1343SOL    HW115488   1.655   1.361  10.946  0.5444 -0.5462 -0.1088
 1343SOL    HW215489   1.519   1.323  10.975  1.6393 -0.5508  1.3577
 1344SOL     OW15490   3.856   1.485   5.880 -0.1839 -0.4615 -0.3445
 1344SOL    HW115491   3.884   1.416   5.819 -0.3928 -2.1081  1.4368
 1344SOL    HW215492   3.884   1.564   5.833  2.7440 -0.4254  1.4526
 1345SOL     OW15493   3.457   3.928   6.384  0.1676  0.5318 -0.8458
 1345SOL    HW115494   3.383   3.984   6.406  0.4512 -0.3195  2.3236
 1345SOL    HW215495   3.420   3.866   6.320  0.1741 -0.9449  0.5774
 1346SOL     OW15496   0.243   0.436   7.094  0.2908  0.0322  0.1331
 1346SOL    HW115497   0.260   0.343   7.108  0.2187 -0.1898 -1.2896
 1346SOL    HW215498   0.281   0.463   7.178  0.4115  4.9484 -1.5197
 1347SOL     OW15499   3.154   1.618   3.311 -0.2344  0.1099  0.0455
 1347SOL    HW115500   3.166   1.708   3.279  2.1698 -0.4115 -0.5781
 1347SOL    HW215501   3.111   1.585   3.232  1.6304 -4.1433  0.8327
 1348SOL     OW15502   4.564   2.415   2.424  0.2453  0.1669  0.3620
 1348SOL    HW115503   4.583   2.326   2.394 -0.0438  0.2600 -0.1102
 1348SOL    HW215504   4.598   2.406   2.513  1.0401  0.1229  0.0487
 1349SOL     OW15505   3.545   3.596   1.038 -0.1756 -0.1169 -0.1473
 1349SOL    HW115506   3.635   3.595   1.005 -0.7289  0.0825 -1.6515
 1349SOL    HW215507   3.530   3.502   1.052  1.2909 -0.8492 -3.5977
 1350SOL     OW15508   4.297   1.972   8.007 -0.1265  0.2362 -0.3870
 1350SOL    HW115509   4.277   1.894   7.955  1.0995  0.3285 -0.9936
 1350SOL    HW215510   4.389   1.975   7.981  0.3197  0.0649  1.1510
 1351SOL     OW15511   1.595   3.023  11.646  0.7987  0.0405 -0.3223
 1351SOL    HW115512   1.601   3.113  11.613  2.6893  0.0074 -0.0563
 1351SOL    HW215513   1.500   3.011  11.649  0.5348  2.4963  1.1240
 1352SOL     OW15514   4.639   2.321   6.589 -0.3786  0.6305  0.1507
 1352SOL    HW115515   4.544   2.323   6.598 -0.3305  0.2056  0.7708
 1352SOL    HW215516   4.638   2.225   6.596 -1.2285  0.5935 -0.5012
 1353SOL     OW15517   3.671   4.644   3.530  0.0969  0.3061 -0.0813
 1353SOL    HW115518   3.638   4.678   3.447 -1.1415 -0.7869 -0.0357
 1353SOL    HW215519   3.661   4.716   3.593  1.1967  1.5568 -1.3304
 1354SOL     OW15520   4.555   3.163   3.210  0.1352  0.2857 -0.1302
 1354SOL    HW115521   4.493   3.232   3.187  0.1071  0.1806 -0.3716
 1354SOL    HW215522   4.500   3.090   3.182 -0.9781  1.5781 -1.3328
 1355SOL     OW15523   2.219   3.500   3.412  0.1640  0.8386 -0.3158
 1355SOL    HW115524   2.283   3.491   3.482  0.1902 -2.1548 -0.7012
 1355SOL    HW215525   2.175   3.580   3.439  0.1722  0.3478  1.1503
 1356SOL     OW15526   3.091   3.997   7.242 -0.5812 -0.0743 -0.1043
 1356SOL    HW115527   3.126   3.973   7.156  0.2683 -0.4670  0.3531
 1356SOL    HW215528   3.108   3.912   7.283 -0.9506 -0.2683 -0.3544
 1357SOL     OW15529   2.791   2.895   5.845 -0.2703  0.3785 -0.5431
 1357SOL    HW115530   2.757   2.925   5.929  1.7519 -1.7860  1.0441
 1357SOL    HW215531   2.763   2.804   5.832 -0.5154  0.3169  0.4172
 1358SOL     OW15532   3.844   4.368   1.089 -0.1982 -0.5780 -0.3795
 1358SOL    HW115533   3.862   4.275   1.073 -0.7842 -0.9019  0.8501
 1358SOL    HW215534   3.802   4.392   1.006 -1.0550 -1.0968 -0.1041
 1359SOL     OW15535   3.745   0.598   4.363 -0.0150 -0.2768 -0.1112
 1359SOL    HW115536   3.731   0.633   4.451  2.3600 -1.5150  0.7648
 1359SOL    HW215537   3.779   0.672   4.313  1.5982  0.8061  2.5465
 1360SOL     OW15538   2.014   4.491  12.877  0.0606 -0.0921 -0.4343
 1360SOL    HW115539   2.073   4.564  12.891  0.2354  0.2388 -2.9214
 1360SOL    HW215540   1.946   4.531  12.821 -0.1040  0.2057 -0.0191
 1361SOL     OW15541   3.539   1.241  13.536  0.8740  0.2499 -0.0948
 1361SOL    HW115542   3.487   1.316  13.564 -1.1876 -1.2729  0.1760
 1361SOL    HW215543   3.467   1.187  13.502  1.1339 -1.8212  2.6692
 1362SOL     OW15544   2.220   0.707  13.466  0.5585 -0.0888  0.4371
 1362SOL    HW115545   2.280   0.644  13.425  0.6835  0.8062 -0.7507
 1362SOL    HW215546   2.200   0.767  13.394 -1.3922  0.3956  1.4006
 1363SOL     OW15547   1.524   3.145   4.083 -0.4606  0.7387 -0.3807
 1363SOL    HW115548   1.438   3.149   4.039 -0.0485 -0.9470 -1.3676
 1363SOL    HW215549   1.589   3.163   4.016  0.7574 -1.1158  0.3179
 1364SOL     OW15550   3.819   1.300   5.427  0.2099  1.1132  0.3037
 1364SOL    HW115551   3.787   1.327   5.341  0.5617  0.9489  0.1197
 1364SOL    HW215552   3.904   1.344   5.435  1.2451 -0.8068 -0.0788
 1365SOL     OW15553   1.700   3.192   2.084 -0.3489 -0.4099  0.2184
 1365SOL    HW115554   1.644   3.173   2.008  2.1323 -0.2839 -1.6219
 1365SOL    HW215555   1.725   3.103   2.106 -1.6513 -1.0440 -0.8671
 1366SOL     OW15556   0.066   1.530   2.336  0.1057  0.6371  0.0322
 1366SOL    HW115557   0.019   1.449   2.317 -0.5709  1.7340 -2.9075
 1366SOL    HW215558   0.030   1.586   2.268 -2.5647  0.5206  1.3308
 1367SOL     OW15559   0.901   1.757   1.971 -0.3212 -0.1294 -0.3055
 1367SOL    HW115560   0.963   1.684   1.975  0.3301  0.3806 -1.1755
 1367SOL    HW215561   0.842   1.723   1.904 -4.1853 -1.0417  3.5422
 1368SOL     OW15562   1.271   2.903   7.638 -0.2849 -0.3266 -0.1138
 1368SOL    HW115563   1.337   2.873   7.700  0.5597 -0.4048 -1.0508
 1368SOL    HW215564   1.325   2.920   7.561 -1.2855  0.1945 -0.6974
 1369SOL     OW15565   0.432   1.134   3.855  0.0546  0.8993 -0.5980
 1369SOL    HW115566   0.403   1.066   3.916  0.4106  1.4738  0.2121
 1369SOL    HW215567   0.512   1.153   3.905  0.3866 -0.3303 -0.6617
 1370SOL     OW15568   3.892   1.289   5.708  0.3093  0.4596 -0.1059
 1370SOL    HW115569   3.818   1.261   5.654  1.5713  1.3779 -2.2836
 1370SOL    HW215570   3.946   1.324   5.637 -0.6909  2.9073  0.3422
 1371SOL     OW15571   0.298   3.818   5.088  0.1479  0.3422  0.0094
 1371SOL    HW115572   0.350   3.758   5.036 -0.4384 -0.8330  0.7849
 1371SOL    HW215573   0.280   3.758   5.161  1.4480 -1.0117 -0.7835
 1372SOL     OW15574   0.965   1.521  15.286 -0.5567  0.0622 -0.4523
 1372SOL    HW115575   0.943   1.497  15.376  0.9500  2.3732  0.5380
 1372SOL    HW215576   1.049   1.476  15.286  0.1597  1.4210 -0.5822
 1373SOL     OW15577   2.626   1.706   2.577 -0.5456  0.0969  0.6856
 1373SOL    HW115578   2.674   1.769   2.524 -0.8654 -0.6628 -0.5079
 1373SOL    HW215579   2.693   1.661   2.629  1.3473  1.7226 -0.3320
 1374SOL     OW15580   1.536   3.359   2.743 -0.1064  0.4126  0.4670
 1374SOL    HW115581   1.448   3.358   2.779 -0.7734  0.0071 -1.2094
 1374SOL    HW215582   1.536   3.289   2.678  1.6506  1.9381 -1.1800
 1375SOL     OW15583   1.820   4.078   2.967  0.2687  0.4098  0.0187
 1375SOL    HW115584   1.888   4.046   2.908  0.2914  2.1481 -0.8788
 1375SOL    HW215585   1.810   4.166   2.931  0.5757  1.4042  2.3487
 1376SOL     OW15586   3.598   4.710   1.668  0.4541  0.0380  0.4061
 1376SOL    HW115587   3.523   4.665   1.629 -1.3139  1.9206  1.6515
 1376SOL    HW215588   3.671   4.654   1.641 -0.6309  0.0672 -2.6298
 1377SOL     OW15589   1.374   4.548   3.252  0.3266 -0.3759 -0.8970
 1377SOL    HW115590   1.402   4.597   3.174 -0.0132 -1.9407 -2.0076
 1377SOL    HW215591   1.327   4.478   3.207 -1.5104  0.6812 -0.6509
 1378SOL     OW15592   3.139   3.760   4.373 -0.0034 -0.5429 -0.7030
 1378SOL    HW115593   3.184   3.816   4.309  1.0565  0.5234  0.9704
 1378SOL    HW215594   3.174   3.791   4.457 -0.3473 -2.8213  0.2781
 1379SOL     OW15595   1.650   0.065   7.056  0.4008 -0.1461 -0.2232
 1379SOL    HW115596   1.629   0.128   6.986  0.6736  1.6901  1.3577
 1379SOL    HW215597   1.699   0.125   7.112  1.7628 -1.5941  0.1232
 1380SOL     OW15598   1.623   0.005   4.821 -0.3109  0.0202 -0.5046
 1380SOL    HW115599   1.572   4.701   4.745  1.8320  0.1326 -1.9977
 1380SOL    HW215600   1.598   4.653   4.876  0.7055  0.9544  1.2570
 1381SOL     OW15601   1.757   3.548   7.094  0.3063 -0.2284  0.1341
 1381SOL    HW115602   1.764   3.482   7.024 -0.6378 -0.7855  0.5606
 1381SOL    HW215603   1.726   3.618   7.037 -1.1488 -1.1925 -0.2887
 1382SOL     OW15604   4.396   1.861  11.112  0.3067  0.1118  0.1434
 1382SOL    HW115605   4.395   1.768  11.090  0.4516  0.1257  0.0782
 1382SOL    HW215606   4.462   1.898  11.054  0.8105 -1.8685 -0.5654
 1383SOL     OW15607   4.000   0.643   0.966  0.7747 -0.5172  0.2074
 1383SOL    HW115608   4.043   0.722   0.997  0.3244  0.3040 -1.2756
 1383SOL    HW215609   4.062   0.570   0.961 -1.1756 -2.2678  1.3191
 1384SOL     OW15610   2.092   0.230  15.510  0.0244 -0.3014  0.0872
 1384SOL    HW115611   2.076   0.136  15.496  1.4207 -0.4398 -0.5411
 1384SOL    HW215612   2.161   0.228  15.576 -0.0247  0.3519  0.1540
 1385SOL     OW15613   0.407   2.421   0.236 -0.0599 -0.2708 -0.4354
 1385SOL    HW115614   0.364   2.506   0.228 -2.4153 -1.6709 -2.4563
 1385SOL    HW215615   0.462   2.418   0.158  1.0324  0.4731  0.3028
 1386SOL     OW15616   4.200   4.483   9.087 -0.7602  0.1417  0.0387
 1386SOL    HW115617   4.277   4.502   9.141 -0.2274  0.1888 -0.7343
 1386SOL    HW215618   4.136   4.486   9.157 -1.0682  0.8328 -0.2767
 1387SOL     OW15619   1.175   3.227   8.374  0.5270  0.1766  0.4588
 1387SOL    HW115620   1.145   3.193   8.289  1.4087 -0.4158  0.3801
 1387SOL    HW215621   1.229   3.155   8.406 -1.1474 -0.5629  1.6419
 1388SOL     OW15622   2.872   0.158   7.141 -0.3152  0.2677 -0.1782
 1388SOL    HW115623   2.786   0.141   7.103 -0.7602  0.4991  0.7141
 1388SOL    HW215624   2.862   0.144   7.235  1.1420 -0.7939 -0.1798
 1389SOL     OW15625   2.146   0.180   4.694 -0.1568  0.9721 -0.6761
 1389SOL    HW115626   2.106   0.266   4.685  0.7595  1.3375 -1.1257
 1389SOL    HW215627   2.072   0.127   4.726  0.7113 -0.6122 -1.2928
 1390SOL     OW15628   4.073   2.189  17.311 -0.0451  0.1930 -0.3084
 1390SOL    HW115629   4.066   2.108  17.261 -1.1686 -0.0022  0.1645
 1390SOL    HW215630   4.164   2.180  17.337  0.0334  0.6175 -0.4313
 1391SOL     OW15631   1.768   3.971  15.132  0.4351  0.0719 -0.0680
 1391SOL    HW115632   1.766   4.066  15.122  3.3165  0.3015  1.5971
 1391SOL    HW215633   1.726   3.944  15.050  0.8942  1.8790 -0.8916
 1392SOL     OW15634   0.384   1.766   5.617 -0.0109  0.3841 -0.5243
 1392SOL    HW115635   0.362   1.829   5.686 -0.4714 -0.0462 -0.2785
 1392SOL    HW215636   0.458   1.722   5.660 -0.1812  2.5234  1.9514
 1393SOL     OW15637   1.147   0.337  12.532  0.1543 -0.1235 -0.0525
 1393SOL    HW115638   1.144   0.428  12.505  0.1980 -0.4731 -1.2488
 1393SOL    HW215639   1.171   0.336  12.625 -0.0253 -2.4526 -0.0191
 1394SOL     OW15640   2.805   0.216   8.188 -0.4024 -0.2867 -0.1016
 1394SOL    HW115641   2.714   0.184   8.184  0.5324 -2.7717 -1.6848
 1394SOL    HW215642   2.849   0.143   8.230  0.0241  0.3615  0.5652
 1395SOL     OW15643   2.516   3.433   8.851 -0.3280 -0.1942 -0.4945
 1395SOL    HW115644   2.533   3.501   8.917  1.5210 -2.8855  1.8185
 1395SOL    HW215645   2.425   3.411   8.872 -0.2079 -1.3323 -1.1691
 1396SOL     OW15646   0.008   3.891   0.255  0.8052 -0.0279  0.1464
 1396SOL    HW115647   4.646   3.853   0.276  1.1257 -1.0893 -0.4586
 1396SOL    HW215648   0.057   3.878   0.336  1.2698  3.6414  0.4619
 1397SOL     OW15649   3.336   3.352   2.395  0.6407  0.4791 -0.1022
 1397SOL    HW115650   3.306   3.423   2.451 -2.4418 -1.3368  0.5609
 1397SOL    HW215651   3.281   3.286   2.437  3.0088 -1.4284  0.0470
 1398SOL     OW15652   1.064   0.506  10.347 -0.0726  0.4420  0.3411
 1398SOL    HW115653   1.030   0.516  10.258  0.4570 -0.7290  0.0035
 1398SOL    HW215654   1.005   0.558  10.402  0.4621 -0.4377  1.7474
 1399SOL     OW15655   2.306   1.005   8.350 -0.3056 -0.1564 -0.3523
 1399SOL    HW115656   2.353   1.044   8.424 -0.2575 -0.2330 -0.3431
 1399SOL    HW215657   2.375   0.955   8.306  0.5782  0.4035  0.3937
 1400SOL     OW15658   2.513   3.961  16.973 -0.0599 -0.3807  0.4788
 1400SOL    HW115659   2.438   3.994  16.923  1.3837 -2.2499 -2.9303
 1400SOL    HW215660   2.489   3.869  16.987  0.1111 -0.5075 -0.0608
 1401SOL     OW15661   3.896   2.899  12.356 -0.4868 -0.3475  0.3712
 1401SOL    HW115662   3.949   2.977  12.339 -0.3554 -0.9059 -1.8286
 1401SOL    HW215663   3.967   2.843  12.388  1.5082  1.9954  0.0887
 1402SOL     OW15664   3.831   4.094  11.263  0.9007  0.0832 -0.1988
 1402SOL    HW115665   3.787   4.067  11.183 -2.4467 -0.5382  1.8738
 1402SOL    HW215666   3.773   4.065  11.333  1.2654  0.1854  0.1501
 1403SOL     OW15667   2.613   4.457   8.293  0.4332 -0.4257  0.7005
 1403SOL    HW115668   2.613   4.447   8.389 -1.0714  1.0741  0.8545
 1403SOL    HW215669   2.523   4.474   8.267  1.7123  3.8476 -0.8473
 1404SOL     OW15670   3.386   1.631  16.619 -0.7617 -0.0440  0.3153
 1404SOL    HW115671   3.449   1.671  16.559 -0.0779  1.4672  2.0290
 1404SOL    HW215672   3.299   1.665  16.598  0.3815  2.4665 -0.3598
 1405SOL     OW15673   3.230   1.367  16.247  0.2119  0.0770 -1.1736
 1405SOL    HW115674   3.206   1.275  16.262  2.4079  0.2300  3.3214
 1405SOL    HW215675   3.151   1.415  16.270  0.1479  1.3484 -4.0212
 1406SOL     OW15676   3.435   1.623  14.034 -0.1935  0.0844 -0.4247
 1406SOL    HW115677   3.391   1.700  13.998 -0.6390 -0.8588 -1.8905
 1406SOL    HW215678   3.519   1.659  14.064  1.4558 -1.9289 -2.6409
 1407SOL     OW15679   1.015   1.576   3.055  0.3205 -0.0873  0.2111
 1407SOL    HW115680   1.059   1.661   3.049  1.8178 -0.7057  2.1778
 1407SOL    HW215681   1.019   1.557   3.149  1.0682 -1.0762 -0.0147
 1408SOL     OW15682   3.495   2.985   3.452  0.2723  0.2639 -0.1803
 1408SOL    HW115683   3.497   2.911   3.391  2.2760 -0.9701  1.3713
 1408SOL    HW215684   3.454   2.943   3.527 -1.5203  3.3263  0.5527
 1409SOL     OW15685   0.973   3.346   5.580 -0.3411 -0.3124  0.2518
 1409SOL    HW115686   0.979   3.258   5.618 -3.0599 -0.3054  0.7135
 1409SOL    HW215687   1.063   3.373   5.598 -0.6203  0.9221 -0.1999
 1410SOL     OW15688   1.137   4.055  12.694  0.4343  0.1334  0.3026
 1410SOL    HW115689   1.173   4.110  12.764 -1.9172  2.0622 -0.0141
 1410SOL    HW215690   1.106   4.126  12.637 -1.5121  1.1669  2.6859
 1411SOL     OW15691   3.517   0.880  14.839 -0.2685  0.0740 -0.1654
 1411SOL    HW115692   3.573   0.822  14.890  0.9813  0.5489 -1.0059
 1411SOL    HW215693   3.539   0.858  14.748  0.0220 -1.1953  0.2245
 1412SOL     OW15694   0.734   3.519   4.734 -0.0493  0.2654 -0.4631
 1412SOL    HW115695   0.788   3.539   4.810  3.3709  1.5760 -3.2784
 1412SOL    HW215696   0.655   3.474   4.764  1.2495 -1.6144  0.1130
 1413SOL     OW15697   0.592   1.708   2.164  0.5045  0.2956 -0.2160
 1413SOL    HW115698   0.675   1.747   2.135  0.3947  0.4691 -0.2940
 1413SOL    HW215699   0.539   1.778   2.202  0.4413 -0.6250  1.3891
 1414SOL     OW15700   4.247   2.161   0.395  0.1110 -0.2985  0.1873
 1414SOL    HW115701   4.224   2.134   0.484  1.8223 -0.7523  0.5045
 1414SOL    HW215702   4.167   2.209   0.375 -0.2699 -0.7073  0.7283
 1415SOL     OW15703   1.677   3.371   8.926  0.2922  0.0437 -0.1629
 1415SOL    HW115704   1.588   3.404   8.924  0.5610  0.6088 -2.7750
 1415SOL    HW215705   1.697   3.390   8.834  1.5141  0.6726  0.2251
 1416SOL     OW15706   3.082   3.170  11.403  0.2690  0.1727  0.0195
 1416SOL    HW115707   3.081   3.175  11.308 -2.3314 -1.1183 -0.0046
 1416SOL    HW215708   3.145   3.098  11.404 -0.8585 -0.7932  1.3939
 1417SOL     OW15709   2.618   3.128   5.202 -0.5997  0.0462  0.4223
 1417SOL    HW115710   2.649   3.216   5.181 -0.6835  0.3528  1.5691
 1417SOL    HW215711   2.534   3.161   5.234  0.7450  2.8361  1.0822
 1418SOL     OW15712   2.947   3.398   2.438  0.1575 -0.1891  0.3404
 1418SOL    HW115713   3.012   3.328   2.429 -0.2678 -0.5045 -0.2933
 1418SOL    HW215714   2.880   3.350   2.486  1.2884 -1.9540  0.1484
 1419SOL     OW15715   0.961   3.370   6.076  0.2849 -0.4204 -0.0505
 1419SOL    HW115716   0.875   3.359   6.116 -1.1664 -0.0145 -3.0831
 1419SOL    HW215717   0.978   3.463   6.095  0.1893 -0.1582 -1.2828
 1420SOL     OW15718   3.258   0.955   5.899 -0.2730  0.2136  0.1226
 1420SOL    HW115719   3.281   0.981   5.809 -1.2242  0.8714  0.0642
 1420SOL    HW215720   3.340   0.915   5.929  0.2712  1.6269  0.5279
 1421SOL     OW15721   2.935   1.037   4.997 -0.3150 -0.2636 -0.2778
 1421SOL    HW115722   2.943   0.970   4.929  0.6885 -0.7169  0.2774
 1421SOL    HW215723   2.910   0.976   5.066  1.6765  0.3085  0.9531
 1422SOL     OW15724   0.686   4.441  10.388 -0.1477 -0.1830  0.2634
 1422SOL    HW115725   0.623   4.375  10.360 -0.4565  0.1729  0.1136
 1422SOL    HW215726   0.705   4.469  10.299 -1.3500  3.0658  1.0112
 1423SOL     OW15727   2.988   3.325   4.139 -0.1462  0.1921  0.3862
 1423SOL    HW115728   2.893   3.332   4.126  0.2454  2.6905 -1.1417
 1423SOL    HW215729   3.001   3.368   4.223  1.9028  1.5423 -0.6263
 1424SOL     OW15730   3.760   1.615   6.088  1.1482  0.0789 -0.1159
 1424SOL    HW115731   3.759   1.568   6.004  0.0339 -0.8289  0.4142
 1424SOL    HW215732   3.745   1.705   6.057 -0.8974 -1.2546 -3.0730
 1425SOL     OW15733   0.413   4.333   5.073 -0.3470 -0.0672 -0.1016
 1425SOL    HW115734   0.482   4.332   5.139  1.5369  0.7622 -2.0468
 1425SOL    HW215735   0.364   4.254   5.096  0.0030 -0.0128  0.8259
 1426SOL     OW15736   1.331   1.359   6.749  0.4978 -0.2685  0.3831
 1426SOL    HW115737   1.364   1.439   6.790  1.4694 -0.8453  0.7204
 1426SOL    HW215738   1.238   1.384   6.743  0.2472 -1.3274 -0.0665
 1427SOL     OW15739   2.950   2.902  15.331  0.9515  0.2210 -0.1450
 1427SOL    HW115740   3.033   2.854  15.331  0.3004 -0.9134  3.6532
 1427SOL    HW215741   2.935   2.904  15.425 -0.4251 -0.7789 -0.3298
 1428SOL     OW15742   0.508   2.451   5.469  0.5681  0.5777  0.1901
 1428SOL    HW115743   0.435   2.492   5.516 -0.9908 -1.1807 -0.6881
 1428SOL    HW215744   0.497   2.360   5.495 -0.5775  0.1365 -1.8933
 1429SOL     OW15745   0.746   2.408   4.481 -0.2186 -0.6356 -0.1245
 1429SOL    HW115746   0.771   2.408   4.573  1.6989 -3.2853 -0.6137
 1429SOL    HW215747   0.707   2.320   4.485 -2.1342  0.1383 -1.6300
 1430SOL     OW15748   3.496   2.918   4.792  0.0807  0.0905  0.3872
 1430SOL    HW115749   3.520   2.894   4.881 -0.5166  0.1425  0.5594
 1430SOL    HW215750   3.494   3.013   4.805  1.6772  0.3980 -1.6505
 1431SOL     OW15751   3.051   0.731  10.845 -0.0210 -0.3355 -0.0164
 1431SOL    HW115752   3.127   0.680  10.816 -0.2224 -1.0350  0.6962
 1431SOL    HW215753   3.042   0.805  10.785 -1.3921 -0.1380  0.4300
 1432SOL     OW15754   1.580   2.396   5.551 -0.3810  0.3763  0.2831
 1432SOL    HW115755   1.503   2.452   5.553 -0.1426  0.6394  2.2766
 1432SOL    HW215756   1.620   2.420   5.467 -1.7040 -1.1336 -0.7531
 1433SOL     OW15757   0.722   2.381  11.635 -0.4669 -0.2204 -0.2749
 1433SOL    HW115758   0.747   2.473  11.628  0.1833 -0.2847  1.1533
 1433SOL    HW215759   0.648   2.375  11.695 -0.7416  0.7317 -0.5249
 1434SOL     OW15760   2.776   0.366   7.622 -0.2541  0.2195  0.2623
 1434SOL    HW115761   2.871   0.359   7.637 -0.2752  0.9653  0.7406
 1434SOL    HW215762   2.751   0.449   7.662  0.4470  1.1116 -1.1713
 1435SOL     OW15763   3.019   3.616   6.080  1.0340 -0.3237  0.5600
 1435SOL    HW115764   3.028   3.711   6.085  4.9414 -0.6238 -0.5025
 1435SOL    HW215765   3.103   3.593   6.119  0.1707 -1.7771  1.5914
 1436SOL     OW15766   2.662   4.284   6.968  0.1436 -0.9838 -0.0246
 1436SOL    HW115767   2.584   4.263   7.020  0.3660  0.8204  1.0198
 1436SOL    HW215768   2.696   4.196   6.953 -0.2924 -1.5166  2.1947
 1437SOL     OW15769   1.006   1.934  15.415  0.5583 -0.3209  0.0660
 1437SOL    HW115770   0.978   1.883  15.492 -0.3917  1.0146  0.6028
 1437SOL    HW215771   1.062   1.866  15.377 -1.8048 -2.8921  1.2005
 1438SOL     OW15772   2.911   2.090   2.603  0.4308 -0.5612  0.2821
 1438SOL    HW115773   2.932   2.142   2.526  0.9896  0.3029  1.0233
 1438SOL    HW215774   2.923   2.160   2.667  0.7207 -2.1063  1.9222
 1439SOL     OW15775   1.054   0.939   5.967  0.5358 -0.2350 -0.0170
 1439SOL    HW115776   0.994   0.977   5.903 -1.4641 -1.1412  1.3127
 1439SOL    HW215777   1.107   1.017   5.981 -0.2706  0.7303 -2.3545
 1440SOL     OW15778   0.378   0.690  16.146 -0.6897 -0.0681  0.0330
 1440SOL    HW115779   0.335   0.646  16.072  1.2514  1.9296 -2.2977
 1440SOL    HW215780   0.361   0.634  16.222 -2.6228  0.7054  0.1878
 1441SOL     OW15781   2.955   1.114   6.915 -0.0733 -0.5784 -0.2593
 1441SOL    HW115782   2.910   1.031   6.897 -0.9592 -0.5389  1.7214
 1441SOL    HW215783   2.882   1.176   6.918  0.1180 -0.4238  1.1573
 1442SOL     OW15784   0.728   1.892  10.720 -0.3853  0.3220  0.0203
 1442SOL    HW115785   0.665   1.829  10.685 -0.1857  0.3513 -0.3850
 1442SOL    HW215786   0.675   1.963  10.757  0.1255 -0.2642  1.8821
 1443SOL     OW15787   3.245   4.166   1.788  0.4178 -0.2640  0.0769
 1443SOL    HW115788   3.292   4.240   1.748 -0.4710  0.9275  1.2459
 1443SOL    HW215789   3.163   4.165   1.739 -0.0138  0.1870  0.8065
 1444SOL     OW15790   3.291   0.351   5.903  0.1697  0.1093 -0.4686
 1444SOL    HW115791   3.367   0.367   5.847  1.2059 -3.4594 -0.0493
 1444SOL    HW215792   3.251   0.436   5.886  1.8288  0.7098 -1.3835
 1445SOL     OW15793   0.749   3.766  13.353  0.8789 -0.1162 -0.2388
 1445SOL    HW115794   0.818   3.820  13.392 -1.6814  1.3874  2.1934
 1445SOL    HW215795   0.787   3.759  13.265  1.2778 -2.5867  0.1226
 1446SOL     OW15796   1.282   2.651  12.883  0.0054  0.0439 -0.2642
 1446SOL    HW115797   1.205   2.616  12.927 -0.0504  0.2248 -0.2207
 1446SOL    HW215798   1.350   2.603  12.931  0.0184  0.4439  0.1144
 1447SOL     OW15799   2.237   2.208   0.058  0.6699  0.4041 -0.4902
 1447SOL    HW115800   2.226   2.293   0.015 -1.4428 -0.4896 -1.6748
 1447SOL    HW215801   2.146   2.188   0.076  0.2443 -0.3226 -3.4401
 1448SOL     OW15802   1.633   2.853   0.839  0.0920 -0.4377  0.7104
 1448SOL    HW115803   1.690   2.788   0.798  0.3521 -0.5131  1.1824
 1448SOL    HW215804   1.610   2.904   0.762 -3.0754 -1.7974  0.7665
 1449SOL     OW15805   3.869   3.406   7.410 -0.8343  0.6413 -0.7348
 1449SOL    HW115806   3.851   3.493   7.375  0.2617  0.4876 -1.7000
 1449SOL    HW215807   3.891   3.357   7.331 -0.4416  1.5195 -1.1675
 1450SOL     OW15808   3.060   4.289   6.845  0.0805 -0.2524 -0.4462
 1450SOL    HW115809   3.006   4.246   6.779  0.1799 -0.9120 -0.0874
 1450SOL    HW215810   2.993   4.345   6.884  0.4665 -0.3820  0.4050
 1451SOL     OW15811   0.858   2.245   2.026 -0.5072  0.6424  0.6508
 1451SOL    HW115812   0.853   2.192   2.105 -0.4277  0.3978  0.4905
 1451SOL    HW215813   0.772   2.239   1.983 -0.8693  0.0111  1.4706
 1452SOL     OW15814   3.296   4.444   2.752 -0.0881  0.2507  0.4454
 1452SOL    HW115815   3.314   4.470   2.662  0.2779  1.6909  0.9457
 1452SOL    HW215816   3.333   4.525   2.787 -1.6161  1.2669 -0.3177
 1453SOL     OW15817   1.424   1.820   5.876  0.5864  0.1008 -0.3617
 1453SOL    HW115818   1.404   1.861   5.792  0.4288  0.3255 -0.2139
 1453SOL    HW215819   1.511   1.781   5.865  0.5690  0.1904 -0.8329
 1454SOL     OW15820   2.399   3.184   5.323 -0.5130  0.2011 -0.3679
 1454SOL    HW115821   2.403   3.144   5.409  0.2348 -0.3566 -0.6606
 1454SOL    HW215822   2.338   3.124   5.282 -1.1292 -0.2939  1.2844
 1455SOL     OW15823   1.828   2.025   6.553  0.9400  0.4476  0.2303
 1455SOL    HW115824   1.823   1.968   6.629  0.7383  3.8195  2.7361
 1455SOL    HW215825   1.897   1.977   6.507  0.1764  0.6876 -1.1751
 1456SOL     OW15826   1.298   2.758  10.620 -0.3630  0.1778 -0.2375
 1456SOL    HW115827   1.309   2.852  10.636  0.8606  0.1129 -0.7567
 1456SOL    HW215828   1.226   2.765  10.556  0.2208  0.9445 -0.8160
 1457SOL     OW15829   0.556   4.060   6.380 -0.0392 -0.2022  0.0768
 1457SOL    HW115830   0.484   4.076   6.319  0.1880  2.1660  0.4260
 1457SOL    HW215831   0.627   4.102   6.330  0.3429  1.0199  1.6378
 1458SOL     OW15832   4.029   2.170   8.793 -0.0618  0.2673 -0.0800
 1458SOL    HW115833   3.984   2.085   8.797 -0.6375  0.5836  0.1575
 1458SOL    HW215834   4.059   2.183   8.703 -0.5404 -0.8172 -0.3958
 1459SOL     OW15835   1.155   4.493   5.467  0.0786  0.4170 -0.0862
 1459SOL    HW115836   1.142   4.587   5.482 -2.8473  0.3115 -2.1041
 1459SOL    HW215837   1.244   4.473   5.498 -0.5152 -1.4576  0.3605
 1460SOL     OW15838   3.207   3.156   6.941  1.0558  0.6792 -0.1542
 1460SOL    HW115839   3.214   3.129   7.033  0.4432 -0.1610 -0.3568
 1460SOL    HW215840   3.113   3.164   6.925  1.0561  1.0754  0.0381
 1461SOL     OW15841   1.731   3.997   5.633 -0.2121 -0.2967 -0.4275
 1461SOL    HW115842   1.749   3.909   5.597 -0.5857 -0.2986 -0.6078
 1461SOL    HW215843   1.812   4.030   5.671 -2.1865 -0.5334  3.9570
 1462SOL     OW15844   1.122   0.966   4.119 -0.0692  0.5244 -0.2744
 1462SOL    HW115845   1.033   0.974   4.153  0.2960  1.7021  0.4085
 1462SOL    HW215846   1.151   0.892   4.172  0.0063  1.0757  0.4610
 1463SOL     OW15847   4.136   1.652   5.768  0.4143 -0.1018  0.2117
 1463SOL    HW115848   4.218   1.603   5.773  0.1027 -0.3252  3.2697
 1463SOL    HW215849   4.158   1.717   5.834 -1.7344  0.9383 -0.0946
 1464SOL     OW15850   2.447   1.630  17.046 -0.0622 -0.2370  0.6889
 1464SOL    HW115851   2.476   1.621  17.136 -0.9532  1.6917  1.1689
 1464SOL    HW215852   2.390   1.708  17.050  0.9171  0.4654  0.9549
 1465SOL     OW15853   0.889   3.494  13.771 -1.3313 -0.1166 -0.7368
 1465SOL    HW115854   0.968   3.537  13.804 -1.1819 -0.7243 -0.2977
 1465SOL    HW215855   0.923   3.413  13.733  0.2943 -0.2570  1.0352
 1466SOL     OW15856   2.396   4.578   5.892  0.1453  0.1952 -0.0388
 1466SOL    HW115857   2.338   4.644   5.854  0.2480  0.2425 -0.1114
 1466SOL    HW215858   2.369   4.576   5.984  1.7121  0.8333  0.4319
 1467SOL     OW15859   3.508   4.568   9.307 -0.0192 -0.4433  0.3453
 1467SOL    HW115860   3.583   4.520   9.341 -0.2701 -1.0196  0.0772
 1467SOL    HW215861   3.453   4.493   9.288  0.2371 -0.4992 -0.1572
 1468SOL     OW15862   4.553   2.151   2.361 -0.5675  0.0863  0.1644
 1468SOL    HW115863   4.512   2.111   2.284  0.9561 -1.5260  0.2043
 1468SOL    HW215864   4.620   2.083   2.366  1.6168  2.2565  0.4745
 1469SOL     OW15865   0.709   4.505   6.527  0.9712  0.0613 -0.7331
 1469SOL    HW115866   0.704   4.417   6.565  3.3403  0.1157 -0.2497
 1469SOL    HW215867   0.671   4.556   6.599 -0.8072 -0.8327 -1.0396
 1470SOL     OW15868   4.613   2.671   5.583  0.3275  0.4087 -0.0812
 1470SOL    HW115869   4.694   2.620   5.584  0.5960  0.8266 -0.4952
 1470SOL    HW215870   4.648   2.761   5.578 -0.3530  0.5970 -1.3783
 1471SOL     OW15871   1.912   1.894   8.459  0.1803  0.3876  0.4799
 1471SOL    HW115872   1.853   1.967   8.443  2.0638  1.4176 -1.7434
 1471SOL    HW215873   1.954   1.917   8.542  2.5002 -1.8977 -0.0539
 1472SOL     OW15874   3.096   4.563   8.828 -0.1750  0.1352  0.1696
 1472SOL    HW115875   3.062   4.638   8.877 -2.8231 -0.7306 -0.3612
 1472SOL    HW215876   3.047   4.574   8.747  0.3067  0.2641 -0.1078
 1473SOL     OW15877   1.162   2.690  15.707  0.3077  0.2832  0.8443
 1473SOL    HW115878   1.176   2.611  15.759  0.2329 -0.8330 -0.8359
 1473SOL    HW215879   1.066   2.691  15.699  0.2836 -0.0531  1.0777
 1474SOL     OW15880   1.593   1.531   2.107  0.3142 -0.5075  0.5554
 1474SOL    HW115881   1.638   1.525   2.191  2.2085 -3.3948 -0.6629
 1474SOL    HW215882   1.611   1.444   2.073 -0.9779 -0.8517  0.7221
 1475SOL     OW15883   4.066   4.309   4.691  0.5288  0.0932  0.6790
 1475SOL    HW115884   4.034   4.399   4.688 -0.3484 -0.2847 -1.3111
 1475SOL    HW215885   4.127   4.309   4.617 -0.8684  3.2908 -0.4579
 1476SOL     OW15886   4.472   1.092   2.119 -0.3783  0.2703  0.6623
 1476SOL    HW115887   4.394   1.140   2.149 -0.3052  1.2067 -0.6448
 1476SOL    HW215888   4.430   1.010   2.145 -3.1293  0.9980 -1.3905
 1477SOL     OW15889   3.895   1.632   4.817  0.2452  0.4985  0.4207
 1477SOL    HW115890   3.862   1.574   4.886 -0.0152 -0.0250 -0.1414
 1477SOL    HW215891   3.983   1.648   4.852 -0.7410 -0.7959  3.5083
 1478SOL     OW15892   0.881   1.303  11.555 -0.5530 -0.5136 -0.2044
 1478SOL    HW115893   0.811   1.369  11.558 -0.1366 -0.0344 -0.9993
 1478SOL    HW215894   0.896   1.302  11.649 -0.3386  0.2453 -0.2301
 1479SOL     OW15895   4.461   1.224   6.657 -0.4372 -0.0924 -0.0804
 1479SOL    HW115896   4.414   1.297   6.617  2.1275  0.1896 -2.5523
 1479SOL    HW215897   4.491   1.263   6.739 -1.7339 -1.4635  1.0410
 1480SOL     OW15898   3.048   0.856   7.699 -0.0578 -0.1811  0.4551
 1480SOL    HW115899   2.992   0.915   7.749  0.4235 -0.1772  0.9774
 1480SOL    HW215900   3.019   0.866   7.608 -1.6056  0.0746  0.9754
 1481SOL     OW15901   3.319   2.228   8.558  0.0691 -0.4194  0.7159
 1481SOL    HW115902   3.305   2.142   8.517 -1.4988 -0.4706  1.3529
 1481SOL    HW215903   3.295   2.209   8.649  2.0747 -1.8787  0.9685
 1482SOL     OW15904   0.127   3.562   8.291  0.1489  0.2446 -0.2024
 1482SOL    HW115905   0.039   3.554   8.256  0.3936 -1.1507 -0.5015
 1482SOL    HW215906   0.115   3.595   8.380  1.7238  0.0845  0.0682
 1483SOL     OW15907   0.700   4.577   7.383 -0.1667  0.3776  0.1294
 1483SOL    HW115908   0.691   4.560   7.477 -1.4474 -1.2323 -0.2807
 1483SOL    HW215909   0.769   4.642   7.391  2.4547 -2.1512 -1.8041
 1484SOL     OW15910   0.961   2.181   6.785 -0.3973 -0.2043 -0.2105
 1484SOL    HW115911   0.934   2.113   6.724  0.4044  2.3453 -3.4072
 1484SOL    HW215912   1.045   2.145   6.814  0.0894 -0.6724 -2.1570
 1485SOL     OW15913   1.956   2.703   5.407  0.4081  0.4104  0.0192
 1485SOL    HW115914   1.921   2.665   5.488  1.2305 -1.3553 -0.4549
 1485SOL    HW215915   1.921   2.791   5.423  0.0694  0.0763  1.0953
 1486SOL     OW15916   4.273   3.527  10.987 -0.3718  0.1280  0.2967
 1486SOL    HW115917   4.319   3.604  10.955 -0.4490  0.7308  1.6099
 1486SOL    HW215918   4.279   3.548  11.081  2.3717  0.3866  0.0617
 1487SOL     OW15919   2.062   0.927  16.619 -0.6874 -0.1732  0.4968
 1487SOL    HW115920   2.034   0.880  16.540 -4.0157  0.7246  1.1652
 1487SOL    HW215921   2.073   0.857  16.684  0.6339 -0.3552  0.0738
 1488SOL     OW15922   3.364   3.775   7.336  0.7016  0.0350 -0.4938
 1488SOL    HW115923   3.385   3.683   7.353  1.5222  0.3117 -0.0010
 1488SOL    HW215924   3.279   3.786   7.380  1.7202  0.8687  1.2628
 1489SOL     OW15925   2.512   3.486   2.683  0.0042  0.2572  0.4327
 1489SOL    HW115926   2.478   3.467   2.595 -0.6873 -0.7017  0.9099
 1489SOL    HW215927   2.496   3.580   2.684  0.4211  0.3140  1.7082
 1490SOL     OW15928   3.127   0.432   3.534 -0.1305  0.3254  0.3893
 1490SOL    HW115929   3.112   0.348   3.578 -0.9853 -0.0079 -0.5306
 1490SOL    HW215930   3.091   0.498   3.594 -1.5181 -0.3929  0.3505
 1491SOL     OW15931   0.756   4.141   5.371 -0.4074 -0.4134  0.9012
 1491SOL    HW115932   0.801   4.222   5.395 -2.0348  0.3902  1.2265
 1491SOL    HW215933   0.837   4.098   5.344  0.6120  1.7143  0.5225
 1492SOL     OW15934   4.016   0.463   7.333  0.3111 -0.0418  0.0569
 1492SOL    HW115935   3.962   0.536   7.365 -1.6803 -3.2106  3.9295
 1492SOL    HW215936   3.957   0.388   7.326  0.2058  0.1367 -1.0327
 1493SOL     OW15937   0.425   0.538   7.572  0.4205  0.2398 -0.0471
 1493SOL    HW115938   0.411   0.480   7.647 -2.2377 -0.8609 -1.3830
 1493SOL    HW215939   0.334   0.551   7.545 -0.1290 -2.7302  0.3257
 1494SOL     OW15940   2.893   1.563   0.004 -0.1292 -0.1695  0.0447
 1494SOL    HW115941   2.906   1.469  17.681 -0.6812 -0.1652 -0.4905
 1494SOL    HW215942   2.809   1.588  17.658 -0.4608 -0.3713  0.6589
 1495SOL     OW15943   3.305   3.864   5.645  0.7539 -0.2145 -0.0615
 1495SOL    HW115944   3.315   3.813   5.726  0.1805  3.0564  2.0425
 1495SOL    HW215945   3.298   3.953   5.678  1.9866 -1.0954  2.5600
 1496SOL     OW15946   1.257   2.556   4.698  0.2998  0.2130  0.6434
 1496SOL    HW115947   1.162   2.562   4.694  0.4088  1.6898  0.3764
 1496SOL    HW215948   1.282   2.633   4.748  1.8553  0.0116  0.1727
 1497SOL     OW15949   3.133   2.760   3.731  0.0376 -0.2140 -0.9941
 1497SOL    HW115950   3.127   2.671   3.698 -1.4392 -1.1648  1.8319
 1497SOL    HW215951   3.052   2.798   3.696  1.0418 -0.4976 -3.5577
 1498SOL     OW15952   2.082   2.339   9.075 -0.5860  0.0438  0.4178
 1498SOL    HW115953   2.092   2.430   9.102 -1.0626  0.3601 -0.4404
 1498SOL    HW215954   1.997   2.335   9.029  0.3576 -1.5456 -1.1940
 1499SOL     OW15955   0.593   2.480   1.099  0.6085 -0.2763 -0.3012
 1499SOL    HW115956   0.570   2.388   1.086 -0.3573 -0.2425  1.1008
 1499SOL    HW215957   0.678   2.478   1.142  0.7446 -3.2756 -0.7252
 1500SOL     OW15958   0.138   3.602  12.349 -0.0455 -0.2421  0.5425
 1500SOL    HW115959   0.142   3.667  12.418 -1.0691  1.8743 -1.4076
 1500SOL    HW215960   0.227   3.612  12.313 -0.6028  0.1212 -0.7503
 1501SOL     OW15961   2.455   1.224   5.792 -0.0874 -0.2580  0.1843
 1501SOL    HW115962   2.434   1.154   5.854  2.1470 -3.5218 -2.7223
 1501SOL    HW215963   2.532   1.262   5.834  0.4502 -2.9678  1.6996
 1502SOL     OW15964   1.823   1.769  12.885 -0.1275  0.0147 -0.3632
 1502SOL    HW115965   1.865   1.688  12.915  0.5622  0.4646 -0.1210
 1502SOL    HW215966   1.882   1.835  12.922 -1.1563  1.1529 -0.7663
 1503SOL     OW15967   2.519   2.084   2.450 -0.3791 -0.6820  0.0009
 1503SOL    HW115968   2.590   2.020   2.458 -1.9137 -2.3009  0.6931
 1503SOL    HW215969   2.489   2.081   2.359 -1.4429  0.3131  0.3207
 1504SOL     OW15970   1.048   0.813   7.946 -0.4221 -0.4035 -0.6732
 1504SOL    HW115971   1.059   0.904   7.971  0.7333 -0.5955 -0.5053
 1504SOL    HW215972   0.961   0.814   7.906 -0.6231 -0.2399 -0.2186
 1505SOL     OW15973   3.420   1.429  14.193 -0.0607 -0.2851  0.6616
 1505SOL    HW115974   3.409   1.501  14.132 -0.0631 -1.1547 -0.3659
 1505SOL    HW215975   3.510   1.401  14.179 -0.9918 -2.5320 -0.8564
 1506SOL     OW15976   3.103   0.389  10.714 -0.4149  0.1504 -0.2516
 1506SOL    HW115977   3.143   0.342  10.641 -0.4596  0.0577 -0.2163
 1506SOL    HW215978   3.178   0.421  10.765 -2.4558  4.1651  0.2275
 1507SOL     OW15979   4.467   2.387   7.724 -0.9216  0.2690  0.5525
 1507SOL    HW115980   4.435   2.467   7.683  0.8813 -0.1371 -1.6201
 1507SOL    HW215981   4.427   2.398   7.811 -1.8984  2.2993 -0.1567
 1508SOL     OW15982   4.646   1.748  14.999 -0.3420 -0.3633  0.1601
 1508SOL    HW115983   4.644   1.676  15.062  3.0538 -2.3245 -1.9678
 1508SOL    HW215984   4.692   1.812  15.054 -0.8661  0.3843 -0.2703
 1509SOL     OW15985   1.244   2.782   2.081  0.1624  0.1172  0.0817
 1509SOL    HW115986   1.267   2.750   2.168  2.0454  1.3048  0.0040
 1509SOL    HW215987   1.200   2.703   2.049 -1.7338  0.6193  1.3849
 1510SOL     OW15988   1.411   4.370   6.237 -0.1019 -0.0206 -0.3291
 1510SOL    HW115989   1.347   4.299   6.243  1.4715 -1.3914  0.0521
 1510SOL    HW215990   1.455   4.335   6.160 -0.6761 -2.9566  0.6830
 1511SOL     OW15991   3.136   1.642   7.274 -0.8651  0.1552 -0.6762
 1511SOL    HW115992   3.184   1.575   7.324  0.4571  0.0819 -2.0368
 1511SOL    HW215993   3.204   1.686   7.223  0.7883  0.7712  2.0658
 1512SOL     OW15994   0.816   2.139   8.703 -0.4278  0.6121  0.2438
 1512SOL    HW115995   0.871   2.065   8.729 -1.7216  0.1982  1.7358
 1512SOL    HW215996   0.809   2.187   8.785 -0.6926 -0.7478  1.0214
 1513SOL     OW15997   2.605   4.263   9.079 -0.5138  0.7128  0.0543
 1513SOL    HW115998   2.626   4.176   9.045 -1.1151  0.6514 -0.1504
 1513SOL    HW215999   2.558   4.233   9.157 -2.5047  1.8205 -0.7320
 1514SOL     OW16000   2.761   2.903   1.211 -0.8847 -0.0049  0.4630
 1514SOL    HW116001   2.819   2.950   1.272 -1.1348 -0.1161  0.7881
 1514SOL    HW216002   2.680   2.904   1.262 -0.6076 -1.8981  0.9396
 1515SOL     OW16003   3.259   3.581  12.395  0.0046  0.4817 -0.0213
 1515SOL    HW116004   3.301   3.667  12.393  0.8759  0.0123 -1.6046
 1515SOL    HW216005   3.181   3.596  12.449  0.6004 -0.3856  1.0594
 1516SOL     OW16006   3.246   4.530  12.418  0.0509  0.3319 -0.3449
 1516SOL    HW116007   3.185   4.457  12.411 -1.1551  1.3976 -0.9081
 1516SOL    HW216008   3.230   4.541  12.512 -0.0841 -1.8664 -0.1123
 1517SOL     OW16009   2.706   3.001   3.467  0.2428 -0.6037 -0.0003
 1517SOL    HW116010   2.628   3.026   3.418  0.5298 -0.0055 -0.1467
 1517SOL    HW216011   2.765   2.976   3.395 -0.7081 -0.6133 -0.7759
 1518SOL     OW16012   3.951   1.552   1.440  0.0726  0.4188  0.4600
 1518SOL    HW116013   3.890   1.479   1.424 -0.3371  0.8153  0.2246
 1518SOL    HW216014   3.997   1.525   1.519 -2.1334 -3.1492  0.5701
 1519SOL     OW16015   4.229   0.089   1.156  0.4327 -0.1831 -0.3538
 1519SOL    HW116016   4.147   0.055   1.122 -0.0994  1.9702 -1.2192
 1519SOL    HW216017   4.279   0.008   1.158 -1.0336 -1.1441 -2.6888
 1520SOL     OW16018   0.302   3.277   4.983  0.6299 -0.3750 -0.8013
 1520SOL    HW116019   0.236   3.306   5.046  1.6926  0.4475 -0.0510
 1520SOL    HW216020   0.261   3.273   4.897  0.0300  0.1808 -0.5349
 1521SOL     OW16021   3.363   1.507  16.871  0.0634 -0.3073  0.0216
 1521SOL    HW116022   3.403   1.559  16.801  2.2416 -0.8950  0.8154
 1521SOL    HW216023   3.321   1.438  16.819 -0.0568  1.7455 -2.5673
 1522SOL     OW16024   2.961   3.505   3.678 -0.0617  0.2269 -0.4851
 1522SOL    HW116025   2.992   3.579   3.627  0.4028 -0.3631 -1.0519
 1522SOL    HW216026   3.037   3.486   3.734  0.9152  0.6001 -1.6894
 1523SOL     OW16027   0.967   1.432   8.521  0.3435  0.0729 -0.1314
 1523SOL    HW116028   1.046   1.430   8.467  0.9696  1.4913  0.7399
 1523SOL    HW216029   1.000   1.487   8.592  0.8687  2.5036 -2.2450
 1524SOL     OW16030   3.387   3.122   8.701 -0.6008 -0.5925 -0.1428
 1524SOL    HW116031   3.309   3.104   8.648 -0.0439 -1.8987 -0.5159
 1524SOL    HW216032   3.341   3.121   8.785  0.7332  0.1590  0.5789
 1525SOL     OW16033   1.710   4.588  14.089 -0.5858  0.2764 -0.2960
 1525SOL    HW116034   1.650   4.533  14.039 -0.1187  1.3278 -2.0423
 1525SOL    HW216035   1.712   4.672  14.042 -0.4267  2.6274  3.9469
 1526SOL     OW16036   3.633   0.255   7.403  0.0135  0.5304  0.4199
 1526SOL    HW116037   3.654   0.331   7.458  1.2704  1.6425 -1.5611
 1526SOL    HW216038   3.655   0.193   7.472 -3.0950 -0.1489  0.7626
 1527SOL     OW16039   1.041   2.059   9.921  0.1425  0.2013 -0.7204
 1527SOL    HW116040   1.024   2.094  10.008 -1.2215 -1.9710 -0.1220
 1527SOL    HW216041   0.959   2.070   9.873  0.4867  1.6431 -0.9715
 1528SOL     OW16042   3.314   0.878   6.260  0.6741 -0.5856  0.0285
 1528SOL    HW116043   3.314   0.834   6.175 -1.9092  1.4032 -1.0162
 1528SOL    HW216044   3.382   0.833   6.309  2.4277 -0.0868 -1.9957
 1529SOL     OW16045   0.200   4.116   2.149 -0.1075 -0.4921 -0.1235
 1529SOL    HW116046   0.180   4.033   2.106  1.4570 -1.0182  0.1505
 1529SOL    HW216047   0.276   4.152   2.102 -1.3585 -0.4426 -2.0909
 1530SOL     OW16048   4.690   4.087  12.408 -0.3650  0.3777  0.4302
 1530SOL    HW116049   4.627   4.066  12.339 -2.5210  1.5562  2.0481
 1530SOL    HW216050   4.685   4.182  12.401 -0.0738  0.3543 -0.1477
 1531SOL     OW16051   3.754   4.389   2.225  0.5431 -0.4174  0.0526
 1531SOL    HW116052   3.709   4.320   2.176 -0.2295  1.3634 -1.7499
 1531SOL    HW216053   3.783   4.444   2.152 -0.8448 -1.6786 -1.4437
 1532SOL     OW16054   1.139   2.380  17.207 -1.2433 -0.3746 -0.2421
 1532SOL    HW116055   1.208   2.313  17.209 -1.7167 -0.8930 -1.4476
 1532SOL    HW216056   1.071   2.330  17.161  1.2583 -0.1130 -4.2520
 1533SOL     OW16057   1.050   1.357   7.020  0.7431  0.2585  0.5104
 1533SOL    HW116058   0.972   1.333   7.069 -0.5286  0.0702 -1.6209
 1533SOL    HW216059   1.014   1.375   6.933  0.4100 -0.8272  0.4302
 1534SOL     OW16060   4.200   2.617  10.803  0.6952 -0.0242 -0.7596
 1534SOL    HW116061   4.148   2.565  10.742  0.4940 -0.5851 -0.1094
 1534SOL    HW216062   4.141   2.621  10.878  1.2175  2.5624 -0.4763
 1535SOL     OW16063   0.138   1.755   1.207 -0.1166  0.4529 -0.6020
 1535SOL    HW116064   0.058   1.706   1.229  0.9996 -0.9424  0.3915
 1535SOL    HW216065   0.098   1.824   1.155  1.1347  1.6588  0.0610
 1536SOL     OW16066   1.628   2.724   4.551  0.0527 -0.3112  0.7925
 1536SOL    HW116067   1.632   2.696   4.460  0.8720  0.1501  0.6874
 1536SOL    HW216068   1.569   2.797   4.532 -1.2273 -1.4290  0.4946
 1537SOL     OW16069   4.169   3.765   5.452 -0.1022  0.1239 -0.0386
 1537SOL    HW116070   4.264   3.768   5.466  0.0826  1.4757 -1.6226
 1537SOL    HW216071   4.136   3.689   5.501 -1.0865  0.5341 -0.0750
 1538SOL     OW16072   4.288   2.181   9.022 -0.4511 -0.0995  0.0326
 1538SOL    HW116073   4.217   2.143   8.970 -0.3119  2.8076 -2.3622
 1538SOL    HW216074   4.260   2.159   9.110  0.3715  1.1271  0.6073
 1539SOL     OW16075   2.558   2.899   7.752  0.1237  0.4904  0.3688
 1539SOL    HW116076   2.529   2.960   7.821 -2.3993  1.5078 -1.6136
 1539SOL    HW216077   2.526   2.819   7.793 -3.9462  1.7877 -0.3269
 1540SOL     OW16078   1.196   4.151   6.975  0.7369 -0.0235 -0.2168
 1540SOL    HW116079   1.174   4.075   7.029 -1.0672 -0.3608 -1.4552
 1540SOL    HW216080   1.291   4.140   6.969  1.1658  3.6468 -0.2867
 1541SOL     OW16081   1.940   3.008  17.165 -0.2444  0.9514 -0.3479
 1541SOL    HW116082   1.853   2.972  17.178  0.6454 -0.6463  1.2094
 1541SOL    HW216083   1.956   3.012  17.071  1.0102 -1.0337 -0.2096
 1542SOL     OW16084   1.134   0.433   9.005 -0.2862  0.8855  0.5997
 1542SOL    HW116085   1.077   0.502   9.039  1.6964  3.5769 -1.5994
 1542SOL    HW216086   1.071   0.375   8.961  1.5873 -0.8935  0.2665
 1543SOL     OW16087   0.645   3.312   9.877 -0.8752  0.2763 -0.2129
 1543SOL    HW116088   0.556   3.304   9.843 -0.7585 -1.4097 -0.1454
 1543SOL    HW216089   0.628   3.258   9.955  0.5444 -0.9638 -0.7680
 1544SOL     OW16090   1.075   0.085  14.317  0.0598 -0.5635  0.3490
 1544SOL    HW116091   1.128   0.020  14.270 -0.6286 -0.2230 -0.8928
 1544SOL    HW216092   1.100   0.163  14.267  0.9033 -1.2767 -0.3319
 1545SOL     OW16093   0.184   2.269   0.179 -0.5102 -0.1543  0.1105
 1545SOL    HW116094   0.253   2.297   0.238 -0.9462  0.7409  0.2083
 1545SOL    HW216095   0.224   2.208   0.117  0.3303 -0.6132  1.1205
 1546SOL     OW16096   4.464   0.791   8.028  0.4146 -0.7031 -0.0057
 1546SOL    HW116097   4.555   0.762   8.034  0.3156 -0.9442  0.3331
 1546SOL    HW216098   4.464   0.857   8.097 -0.3883 -1.0561  0.3307
 1547SOL     OW16099   3.652   0.838  16.510  0.1587 -0.1325  0.2216
 1547SOL    HW116100   3.585   0.880  16.457  0.1905  2.1069  1.9712
 1547SOL    HW216101   3.688   0.912  16.558  1.6937 -0.9568  0.3514
 1548SOL     OW16102   2.686   3.379   9.439 -0.2808  0.0962  0.2808
 1548SOL    HW116103   2.687   3.349   9.348 -1.5502  2.6734 -0.5766
 1548SOL    HW216104   2.779   3.388   9.459 -0.2498  3.6888 -1.3284
 1549SOL     OW16105   2.406   2.840  13.155  0.3104  0.3315 -0.0744
 1549SOL    HW116106   2.319   2.836  13.115  0.7913  0.6168 -1.1590
 1549SOL    HW216107   2.380   2.853  13.246 -0.6353 -0.6563 -0.2048
 1550SOL     OW16108   0.126   2.240   9.700 -0.0529  0.4812  0.8473
 1550SOL    HW116109   0.135   2.280   9.787 -1.8013  1.2189  0.7108
 1550SOL    HW216110   0.106   2.147   9.710  2.6934 -0.1263  0.6312
 1551SOL     OW16111   0.096   2.130   3.563 -0.0888  0.1149  0.0752
 1551SOL    HW116112   0.044   2.124   3.483 -1.0690  2.0522  0.5673
 1551SOL    HW216113   0.175   2.179   3.538 -0.6332  1.1577  0.3970
 1552SOL     OW16114   4.630   3.510  14.895 -0.4093  0.5008  0.1732
 1552SOL    HW116115   4.698   3.444  14.911 -2.0298 -1.4919 -1.0944
 1552SOL    HW216116   4.576   3.499  14.973 -2.1429 -0.8237 -1.2123
 1553SOL     OW16117   1.808   3.460   3.212  0.2760 -0.2975 -0.2640
 1553SOL    HW116118   1.871   3.532   3.210 -1.7498  1.4924  1.3786
 1553SOL    HW216119   1.744   3.478   3.143  0.4248  0.9572 -0.0740
 1554SOL     OW16120   0.356   2.879   5.872  0.5932  0.3076 -0.1486
 1554SOL    HW116121   0.360   2.972   5.893 -1.8085  0.7707 -1.7112
 1554SOL    HW216122   0.444   2.869   5.837 -0.1262 -1.3318 -1.4840
 1555SOL     OW16123   2.887   1.500  13.242  0.0110  0.1064 -0.0586
 1555SOL    HW116124   2.965   1.465  13.199 -0.3393 -1.7972  0.8354
 1555SOL    HW216125   2.911   1.529  13.330 -1.7270  1.2407  0.0480
 1556SOL     OW16126   0.917   2.240   1.238  0.1392  0.2452  0.1661
 1556SOL    HW116127   0.844   2.259   1.297 -0.5026  1.8170 -1.1306
 1556SOL    HW216128   0.932   2.320   1.188 -0.5698  0.5510  0.4497
 1557SOL     OW16129   2.684   2.274   2.868 -0.4980 -0.8412 -0.7259
 1557SOL    HW116130   2.659   2.322   2.947  1.8006  1.9510 -1.6683
 1557SOL    HW216131   2.599   2.264   2.825 -1.1742  1.4902  0.0593
 1558SOL     OW16132   3.165   3.111   5.252  0.5855  0.4024 -0.0933
 1558SOL    HW116133   3.116   3.175   5.199  1.5892  2.1990  1.1459
 1558SOL    HW216134   3.104   3.044   5.281 -1.2276  2.3655  0.6045
 1559SOL     OW16135   1.472   3.039  16.076  0.4491  0.2094 -0.0748
 1559SOL    HW116136   1.435   2.977  16.013 -0.4988  2.4039 -1.6739
 1559SOL    HW216137   1.389   3.078  16.105  1.0661  0.5164  1.2461
 1560SOL     OW16138   4.335   3.186   6.983 -0.0570 -0.6948 -0.2305
 1560SOL    HW116139   4.345   3.251   7.053 -0.7169  1.7690 -2.4057
 1560SOL    HW216140   4.256   3.213   6.937  0.8394  2.6029  0.1241
 1561SOL     OW16141   2.356   1.637   8.062 -0.3407 -0.3865 -0.1427
 1561SOL    HW116142   2.326   1.663   7.975  2.7927 -0.2916 -1.2004
 1561SOL    HW216143   2.372   1.727   8.089 -0.0055  0.3445 -2.7834
 1562SOL     OW16144   1.160   3.272   5.001  0.2005 -0.0898  0.3170
 1562SOL    HW116145   1.201   3.237   4.922  2.3115 -1.8183  2.1982
 1562SOL    HW216146   1.183   3.212   5.072  1.3409 -2.0604 -1.7451
 1563SOL     OW16147   0.841   4.421   8.664 -0.4979 -0.0667 -0.4108
 1563SOL    HW116148   0.891   4.437   8.744 -0.8942 -0.5475 -0.0703
 1563SOL    HW216149   0.908   4.378   8.611 -0.7642  0.1954 -0.9680
 1564SOL     OW16150   4.465   0.502  16.345 -0.0669 -0.0681  0.3874
 1564SOL    HW116151   4.399   0.544  16.290 -0.8045 -1.7326  0.0015
 1564SOL    HW216152   4.421   0.518  16.428  0.2501 -1.4534  0.8300
 1565SOL     OW16153   1.049   0.605   7.247 -0.2069 -0.0227  0.7143
 1565SOL    HW116154   1.136   0.601   7.289  0.5356 -0.1655 -0.8344
 1565SOL    HW216155   1.023   0.514   7.233  1.5077 -0.0920 -2.0365
 1566SOL     OW16156   2.440   3.189   8.981 -0.3184 -0.3078 -0.3958
 1566SOL    HW116157   2.510   3.233   8.933  0.4948 -0.6661  0.4415
 1566SOL    HW216158   2.469   3.104   9.015  0.8402  0.2159 -0.0606
 1567SOL     OW16159   1.428   3.745  16.011  0.0314  0.2498  0.2812
 1567SOL    HW116160   1.418   3.657  15.975  2.0947  1.1258 -2.4614
 1567SOL    HW216161   1.431   3.799  15.932  3.6602 -1.4165 -0.6877
 1568SOL     OW16162   4.228   1.733   4.038 -0.2929 -0.2228 -0.7058
 1568SOL    HW116163   4.289   1.667   4.070  1.0960  1.6399  0.4737
 1568SOL    HW216164   4.257   1.755   3.949 -0.2032  0.4273 -0.5122
 1569SOL     OW16165   4.332   2.098   2.515 -0.5633  0.2643  0.3877
 1569SOL    HW116166   4.408   2.139   2.474 -0.4110 -1.1073 -0.7011
 1569SOL    HW216167   4.331   2.128   2.606  1.3354 -1.5859  1.0226
 1570SOL     OW16168   4.163   1.824   1.968 -0.0848  0.2225  0.5055
 1570SOL    HW116169   4.117   1.904   1.994  0.8577  1.1890 -0.8227
 1570SOL    HW216170   4.114   1.763   2.023  2.4733  0.4546  3.0646
 1571SOL     OW16171   3.858   2.815   1.207  0.5774  0.4237 -0.0542
 1571SOL    HW116172   3.867   2.829   1.113  2.0190  0.9089  0.1559
 1571SOL    HW216173   3.841   2.903   1.239  0.9871  0.6120 -0.3667
 1572SOL     OW16174   2.348   0.573   5.847  0.6713 -0.2764 -0.0964
 1572SOL    HW116175   2.309   0.505   5.902 -0.4101  0.4369  0.0239
 1572SOL    HW216176   2.439   0.555   5.871  0.1541  0.7345  2.6370
 1573SOL     OW16177   1.205   2.818  13.976 -1.1863 -0.3046 -0.1340
 1573SOL    HW116178   1.190   2.850  14.065 -0.4661  0.1846 -0.1840
 1573SOL    HW216179   1.271   2.880  13.943  0.8633 -1.2550  2.2182
 1574SOL     OW16180   3.008   4.253   7.187  0.6548  0.2743 -0.1956
 1574SOL    HW116181   2.955   4.245   7.108  1.7133 -2.6697 -0.5859
 1574SOL    HW216182   3.005   4.162   7.216 -3.4948  0.8638  1.2725
 1575SOL     OW16183   0.268   1.513   4.887  0.4284 -0.1378  0.2054
 1575SOL    HW116184   0.173   1.503   4.890  0.7886 -4.3044 -1.7555
 1575SOL    HW216185   0.272   1.602   4.853  1.4159 -0.0856  0.4668
 1576SOL     OW16186   1.226   2.991   9.214 -0.6239 -0.2323  0.3003
 1576SOL    HW116187   1.168   2.933   9.164 -4.3717  0.7170  3.6216
 1576SOL    HW216188   1.163   3.062   9.225  0.9717  1.7126 -3.0239
 1577SOL     OW16189   2.829   0.585   8.655 -0.3290  0.1366 -0.2264
 1577SOL    HW116190   2.852   0.498   8.622  1.8719  0.3591  0.7824
 1577SOL    HW216191   2.862   0.578   8.745 -1.4606 -3.1622 -0.0460
 1578SOL     OW16192   2.977   0.219   5.196 -0.3891  0.3052  0.4656
 1578SOL    HW116193   3.034   0.146   5.219 -1.8928 -1.0795 -0.1739
 1578SOL    HW216194   2.992   0.275   5.272  0.5965 -0.9189  1.1699
 1579SOL     OW16195   2.515   0.396   2.135 -0.5931 -0.0071  0.3520
 1579SOL    HW116196   2.587   0.339   2.163  0.9842  0.9121 -1.9019
 1579SOL    HW216197   2.552   0.478   2.167  0.7609 -0.0009 -1.2596
 1580SOL     OW16198   2.052   1.969   8.940  0.3531 -0.5950 -0.1090
 1580SOL    HW116199   2.068   1.954   8.847  1.0814  0.5521 -0.1572
 1580SOL    HW216200   2.037   1.878   8.967  0.6222 -0.9864 -1.3183
 1581SOL     OW16201   4.524   2.401   4.914 -0.0421 -0.5068  0.7422
 1581SOL    HW116202   4.541   2.431   4.825 -1.1907 -1.4730  0.2026
 1581SOL    HW216203   4.428   2.403   4.912 -0.1049  0.4477  4.5922
 1582SOL     OW16204   1.050   3.649   6.105 -0.3028  0.1865 -0.2797
 1582SOL    HW116205   1.003   3.706   6.044 -2.2903 -1.8045 -0.6194
 1582SOL    HW216206   1.139   3.682   6.090 -0.3645  0.3234 -0.3476
 1583SOL     OW16207   2.952   3.733   9.078  0.1655 -0.3335 -0.3287
 1583SOL    HW116208   2.986   3.821   9.093  1.9988 -0.9768 -0.7477
 1583SOL    HW216209   2.926   3.709   9.167  1.7374 -0.5663  0.0659
 1584SOL     OW16210   3.340   1.537   1.519 -0.3002  0.2536  0.3121
 1584SOL    HW116211   3.259   1.554   1.469 -0.2933 -0.3017  0.1049
 1584SOL    HW216212   3.379   1.624   1.526 -1.5102  0.9830 -1.9092
 1585SOL     OW16213   0.881   4.400   5.387 -0.5084 -0.6385 -0.1929
 1585SOL    HW116214   0.953   4.439   5.436 -0.9405 -0.3191  0.1804
 1585SOL    HW216215   0.882   4.451   5.306  2.1106  0.3852  0.5128
 1586SOL     OW16216   4.503   4.484   2.214 -0.2763  0.0647 -0.4288
 1586SOL    HW116217   4.578   4.427   2.230 -0.8287 -0.8016 -0.9281
 1586SOL    HW216218   4.540   4.568   2.186 -2.3587  1.1423  0.0111
 1587SOL     OW16219   1.199   4.707  11.909  0.1821 -0.4618 -0.1207
 1587SOL    HW116220   1.250   0.065  11.907  1.3166 -1.1792  0.2873
 1587SOL    HW216221   1.228   4.682  11.997  1.5086 -0.9387 -0.6905
 1588SOL     OW16222   3.292   4.262   6.483 -0.3776 -0.4008  0.6815
 1588SOL    HW116223   3.236   4.338   6.496 -0.9221 -0.6195 -0.3387
 1588SOL    HW216224   3.237   4.192   6.517 -0.5824 -0.5136  0.1129
 1589SOL     OW16225   0.008   0.489   9.491  0.0655  0.1360 -0.4706
 1589SOL    HW116226   0.093   0.455   9.520 -0.3739  0.0205  0.6805
 1589SOL    HW216227   4.689   0.524   9.569 -1.1946 -1.3998 -0.4435
 1590SOL     OW16228   2.701   4.046   6.263  0.4359 -0.2413  0.3913
 1590SOL    HW116229   2.725   3.965   6.219 -1.7220 -0.3582 -0.5547
 1590SOL    HW216230   2.691   4.106   6.189  3.4503 -0.9786 -0.6322
 1591SOL     OW16231   1.579   3.330   6.547  0.4332 -0.1631 -0.1050
 1591SOL    HW116232   1.541   3.348   6.633 -0.2150  0.9226 -0.6123
 1591SOL    HW216233   1.530   3.260   6.504  1.1558 -0.5021 -0.3826
 1592SOL     OW16234   3.681   0.902  11.583 -0.1046  0.1740 -0.7744
 1592SOL    HW116235   3.770   0.932  11.602 -0.5948 -0.6727  2.8836
 1592SOL    HW216236   3.648   0.979  11.536  1.5776 -0.4567 -3.0257
 1593SOL     OW16237   2.135   0.325   8.453  0.6721 -0.1217  0.3443
 1593SOL    HW116238   2.077   0.397   8.478 -1.8424 -1.7916 -0.7532
 1593SOL    HW216239   2.143   0.286   8.540  0.4857 -2.6283 -0.7834
 1594SOL     OW16240   1.726   1.064   1.060 -0.0628 -0.0534  0.5428
 1594SOL    HW116241   1.666   1.137   1.079  1.4179  0.9200  1.5560
 1594SOL    HW216242   1.684   0.993   1.108  1.6906 -1.6284 -0.2494
 1595SOL     OW16243   3.200   0.870  11.552 -0.0969  0.4730  0.2371
 1595SOL    HW116244   3.200   0.937  11.484 -2.5906  0.0271 -0.1973
 1595SOL    HW216245   3.281   0.894  11.597 -0.2999  0.8702  0.3947
 1596SOL     OW16246   4.586   0.095   4.703  0.0410  0.3801  0.2158
 1596SOL    HW116247   4.511   0.132   4.656 -1.2182 -2.0418  0.3501
 1596SOL    HW216248   4.551   0.040   4.773 -1.1976 -0.7785 -1.3175
 1597SOL     OW16249   0.878   1.934   3.690  0.3336 -0.2569 -0.3220
 1597SOL    HW116250   0.868   1.935   3.785  0.1349  1.5279 -0.3529
 1597SOL    HW216251   0.972   1.945   3.676  0.6649 -0.4786  1.7532
 1598SOL     OW16252   1.009   0.125  16.816 -0.0144 -0.1332  0.0006
 1598SOL    HW116253   0.960   0.044  16.802  2.5323 -1.5712 -0.6584
 1598SOL    HW216254   1.028   0.156  16.728 -0.7971  1.6716  0.4686
 1599SOL     OW16255   0.374   2.982   1.186  0.1022  0.3026  0.2377
 1599SOL    HW116256   0.429   2.907   1.164 -3.0072 -1.9043  0.0698
 1599SOL    HW216257   0.405   3.052   1.127  0.5702 -0.5555 -0.5388
 1600SOL     OW16258   2.057   0.464  14.313 -0.2507 -0.2611 -0.5827
 1600SOL    HW116259   2.131   0.478  14.254  1.1522  4.2730  2.2054
 1600SOL    HW216260   2.019   0.552  14.313 -0.8977 -0.5461  0.0916
 1601SOL     OW16261   0.507   1.801   7.911  0.3650 -0.4026  0.1072
 1601SOL    HW116262   0.542   1.727   7.961 -0.8970  0.4385  2.2445
 1601SOL    HW216263   0.504   1.867   7.981  1.2123  0.2360 -0.4579
 1602SOL     OW16264   4.681   1.318   2.184 -0.0212  0.3371 -0.4638
 1602SOL    HW116265   0.051   1.337   2.167 -0.7047  3.3990 -0.6523
 1602SOL    HW216266   4.638   1.326   2.099 -0.1468  2.1776 -0.2273
 1603SOL     OW16267   0.868   2.831  16.841 -0.0582  0.3665 -0.4456
 1603SOL    HW116268   0.789   2.862  16.796  0.0422 -1.2447 -1.7117
 1603SOL    HW216269   0.860   2.737  16.860 -2.6552  0.4113 -1.3680
 1604SOL     OW16270   1.870   4.601  15.865  0.1808  0.0288 -0.3113
 1604SOL    HW116271   1.961   4.573  15.866  0.5944  1.3572 -0.4525
 1604SOL    HW216272   1.859   4.613  15.771 -0.0879 -0.3343 -0.3237
 1605SOL     OW16273   0.624   3.608  17.212  0.5778  0.0538 -0.6333
 1605SOL    HW116274   0.681   3.587  17.138  1.2466  1.2404 -0.4626
 1605SOL    HW216275   0.627   3.703  17.203 -0.8177  0.1379 -0.2866
 1606SOL     OW16276   4.485   2.230   3.212  0.3067 -0.9986 -0.1534
 1606SOL    HW116277   4.447   2.224   3.300 -0.1966 -0.9842 -0.3705
 1606SOL    HW216278   4.571   2.269   3.228 -1.2502  2.9127 -1.2207
 1607SOL     OW16279   0.815   2.636  13.626 -0.3805  0.2685 -1.0730
 1607SOL    HW116280   0.834   2.543  13.613 -3.1434 -0.6762  1.5044
 1607SOL    HW216281   0.866   2.665  13.701 -1.1165 -0.1971 -0.3961
 1608SOL     OW16282   3.157   1.559   6.041  0.3748 -0.1033 -0.1147
 1608SOL    HW116283   3.250   1.578   6.029  0.4077  0.2937  0.8157
 1608SOL    HW216284   3.148   1.624   6.110  0.2398 -1.9527  1.6109
 1609SOL     OW16285   1.179   3.320  15.708  0.1998 -0.1213 -0.1838
 1609SOL    HW116286   1.147   3.295  15.795 -1.2329  1.3228 -0.2895
 1609SOL    HW216287   1.208   3.235  15.676  3.5304  0.4460  1.3946
 1610SOL     OW16288   3.241   1.082   2.694  0.5540  0.4529 -0.0174
 1610SOL    HW116289   3.159   1.079   2.646  0.0661 -0.9956  0.9058
 1610SOL    HW216290   3.261   1.175   2.699  1.0256  0.2860  1.1474
 1611SOL     OW16291   2.620   3.274   6.687  0.0156 -0.0793 -0.2042
 1611SOL    HW116292   2.563   3.339   6.728 -0.9179 -0.3437 -1.0852
 1611SOL    HW216293   2.578   3.274   6.601 -1.1520  1.4341  0.3680
 1612SOL     OW16294   1.614   3.992   3.105 -0.2130 -1.0760  0.6878
 1612SOL    HW116295   1.597   3.930   3.033 -1.8543 -0.3565  0.4703
 1612SOL    HW216296   1.693   4.028   3.065 -1.7083  0.8052 -0.5594
 1613SOL     OW16297   4.337   0.569   7.634  0.2634  0.1559  0.2651
 1613SOL    HW116298   4.391   0.502   7.675 -0.2513 -2.1826 -2.9511
 1613SOL    HW216299   4.294   0.523   7.563  0.8660 -0.9910  0.6550
 1614SOL     OW16300   4.201   3.815   7.609  0.0032  0.6409 -0.1355
 1614SOL    HW116301   4.159   3.855   7.685 -0.9436  0.3747 -0.5176
 1614SOL    HW216302   4.179   3.722   7.616 -3.1946  1.5159  1.7305
 1615SOL     OW16303   3.101   0.864  14.110  0.0632 -0.7169 -0.3237
 1615SOL    HW116304   3.093   0.899  14.021 -1.7939  2.3694  1.0472
 1615SOL    HW216305   3.013   0.872  14.148 -0.6129 -1.4484 -1.7364
 1616SOL     OW16306   3.432   3.143   7.719 -0.5577 -0.2075 -0.6518
 1616SOL    HW116307   3.442   3.052   7.745 -0.4924 -0.0837 -0.2361
 1616SOL    HW216308   3.351   3.175   7.759 -0.3272  0.1712 -0.4881
 1617SOL     OW16309   0.694   0.946   2.301 -0.1788  0.1452  0.6198
 1617SOL    HW116310   0.781   0.916   2.330  1.3648  2.2407 -1.7909
 1617SOL    HW216311   0.697   0.907   2.213 -0.5218 -0.2053  0.7656
 1618SOL     OW16312   0.931   3.626  10.845  0.1126 -0.0770  0.0528
 1618SOL    HW116313   0.982   3.692  10.798  1.3400 -0.6892  0.5210
 1618SOL    HW216314   0.989   3.597  10.916  1.0957  1.6371 -0.0489
 1619SOL     OW16315   3.155   1.219  12.107  0.8133  0.1655 -0.1336
 1619SOL    HW116316   3.063   1.243  12.123 -0.2156 -2.0332 -2.7557
 1619SOL    HW216317   3.137   1.171  12.027  1.3855 -0.5060  0.1409
 1620SOL     OW16318   0.155   1.014   1.722  0.1182  0.4330 -0.3578
 1620SOL    HW116319   0.216   1.080   1.756 -2.4903  2.3593  0.5989
 1620SOL    HW216320   0.209   0.940   1.699  0.6110  0.5211  0.5192
 1621SOL     OW16321   3.147   1.967   6.734 -0.3704  0.3245  0.0889
 1621SOL    HW116322   3.148   1.944   6.641  1.1371 -2.2666  0.7478
 1621SOL    HW216323   3.093   2.046   6.728 -0.1277  0.3390 -2.1293
 1622SOL     OW16324   4.602   2.059   8.505 -0.0354 -0.7982 -0.2070
 1622SOL    HW116325   4.643   1.977   8.530  0.7359 -0.4694 -0.3872
 1622SOL    HW216326   4.657   2.128   8.544  0.4610 -0.3577 -1.6915
 1623SOL     OW16327   4.042   2.916   3.379 -0.0708  0.2447  0.7275
 1623SOL    HW116328   4.084   2.998   3.353  1.5484 -0.8857 -0.1964
 1623SOL    HW216329   4.059   2.905   3.472 -0.3586 -1.6756  0.5480
 1624SOL     OW16330   1.058   0.438   6.105  0.3700 -0.8719 -0.0039
 1624SOL    HW116331   0.966   0.441   6.081 -0.0245 -0.5230  1.6066
 1624SOL    HW216332   1.084   0.530   6.098 -0.5277 -0.7246 -1.3603
 1625SOL     OW16333   1.870   2.639  11.756  0.3158 -0.1570 -0.0320
 1625SOL    HW116334   1.960   2.646  11.789 -0.5825  0.3500  2.3023
 1625SOL    HW216335   1.847   2.730  11.741 -1.1308 -0.5503 -0.2356
 1626SOL     OW16336   1.024   4.288  12.596 -0.0741  0.3729 -0.1060
 1626SOL    HW116337   0.979   4.312  12.677  0.9785  0.6936  0.3907
 1626SOL    HW216338   1.001   4.373  12.557 -1.7992 -0.3213 -0.6035
 1627SOL     OW16339   2.792   2.412   5.027  0.0629  0.0790  0.3783
 1627SOL    HW116340   2.813   2.331   5.073 -0.4684 -0.1458  0.2240
 1627SOL    HW216341   2.877   2.452   5.012  0.2419 -0.0972  0.9205
 1628SOL     OW16342   4.470   1.413   8.434 -0.0024  0.3267  0.9104
 1628SOL    HW116343   4.455   1.351   8.505  3.9176 -2.9984 -1.1371
 1628SOL    HW216344   4.419   1.493   8.450 -2.2914 -1.1855  1.1959
 1629SOL     OW16345   2.893   0.463   8.904 -0.4935  0.1949  0.2348
 1629SOL    HW116346   2.883   0.531   8.970  0.5874  2.5627 -2.0186
 1629SOL    HW216347   2.963   0.408   8.937 -0.4843 -0.0243 -0.1402
 1630SOL     OW16348   2.302   3.197   8.726  0.4476 -0.7949 -0.6795
 1630SOL    HW116349   2.207   3.196   8.725  0.4190  0.4140 -0.1916
 1630SOL    HW216350   2.323   3.203   8.820 -0.5250 -1.4177 -0.4305
 1631SOL     OW16351   0.526   4.328   5.326 -0.0407  0.3680 -0.2133
 1631SOL    HW116352   0.586   4.255   5.344 -0.8591  0.2957  2.2368
 1631SOL    HW216353   0.577   4.406   5.348 -2.4909  1.8225  0.3351
 1632SOL     OW16354   0.432   0.639   2.985  0.0208 -0.1447 -0.5045
 1632SOL    HW116355   0.436   0.683   2.900  3.3150 -0.4975 -0.5089
 1632SOL    HW216356   0.336   0.640   2.992  0.0134 -1.6103 -0.3795
 1633SOL     OW16357   3.642   3.276   7.483 -0.4491  0.5043 -0.0455
 1633SOL    HW116358   3.723   3.325   7.466  1.1366 -1.7537  0.9032
 1633SOL    HW216359   3.604   3.283   7.396 -1.1457 -2.0081  0.0673
 1634SOL     OW16360   1.132   0.246   8.302  0.0289 -0.1761  0.0976
 1634SOL    HW116361   1.180   0.201   8.372  0.2836  0.2444  0.1891
 1634SOL    HW216362   1.170   0.332   8.318 -2.4724  1.1679 -1.2627
 1635SOL     OW16363   0.397   1.048   1.340  0.3226 -0.2544  0.6559
 1635SOL    HW116364   0.352   0.973   1.300  1.5677 -1.6834  1.9104
 1635SOL    HW216365   0.325   1.109   1.355 -0.8374 -1.5029  0.1295
 1636SOL     OW16366   3.005   2.364   3.051  0.3510 -0.2059  0.2246
 1636SOL    HW116367   3.041   2.352   3.139  1.1655 -0.4190 -0.1429
 1636SOL    HW216368   3.063   2.298   3.014 -0.9022 -1.0538 -0.2527
 1637SOL     OW16369   2.561   3.523  11.597  0.2027 -0.1556 -0.2699
 1637SOL    HW116370   2.588   3.434  11.619 -2.1236 -0.9102 -0.4334
 1637SOL    HW216371   2.604   3.576  11.664  1.8871  1.1049 -2.3497
 1638SOL     OW16372   2.986   2.478  11.648  0.1723 -0.4963 -0.4641
 1638SOL    HW116373   2.990   2.565  11.608 -1.0026 -0.1171  0.2634
 1638SOL    HW216374   2.892   2.464  11.643  0.3207 -1.8777  0.6604
 1639SOL     OW16375   2.027   1.511  14.128  0.1615  0.3304  0.5956
 1639SOL    HW116376   2.058   1.586  14.180 -1.2063  1.7982 -0.7031
 1639SOL    HW216377   1.955   1.475  14.179  0.2628 -0.5585  0.1004
 1640SOL     OW16378   3.094   1.393   1.064 -0.0855 -0.0344 -0.2867
 1640SOL    HW116379   3.176   1.366   1.022  1.2745  0.1196  2.3439
 1640SOL    HW216380   3.045   1.425   0.988 -0.1844  0.4031 -0.0391
 1641SOL     OW16381   0.421   1.576   4.224  0.0273  0.1518 -0.1676
 1641SOL    HW116382   0.367   1.497   4.217  0.1518  0.0316  0.2268
 1641SOL    HW216383   0.507   1.540   4.202 -0.0814 -0.4818  0.4678
 1642SOL     OW16384   0.062   3.767   4.667 -0.2625 -0.6922  0.3265
 1642SOL    HW116385   0.137   3.809   4.710 -1.0081 -0.2600  1.1861
 1642SOL    HW216386   4.719   3.755   4.735 -2.2077 -1.2599 -1.6273
 1643SOL     OW16387   2.353   4.564   6.212 -0.0681 -0.1653  0.0914
 1643SOL    HW116388   2.448   4.578   6.212  0.0805 -1.1664 -0.5063
 1643SOL    HW216389   2.328   4.547   6.302  0.6982 -0.1820  0.3030
 1644SOL     OW16390   3.827   3.242   8.329 -0.3460 -0.1752  0.1427
 1644SOL    HW116391   3.843   3.154   8.295 -1.4025 -0.2760 -0.0794
 1644SOL    HW216392   3.842   3.222   8.421  0.8539 -1.1353 -0.2630
 1645SOL     OW16393   1.699   3.140   8.375 -0.0356  0.2645  0.1073
 1645SOL    HW116394   1.655   3.147   8.459 -1.0039  1.4862 -0.5045
 1645SOL    HW216395   1.648   3.198   8.318 -1.4152  1.0816  2.1987
 1646SOL     OW16396   2.329   1.293  10.832 -0.1977  0.1526 -0.1028
 1646SOL    HW116397   2.421   1.315  10.819  0.6160 -1.7063  2.4654
 1646SOL    HW216398   2.280   1.346  10.769  0.9158 -0.1000 -1.1649
 1647SOL     OW16399   0.136   2.136   5.015 -0.5546 -0.1877 -0.1942
 1647SOL    HW116400   0.092   2.163   4.934 -0.1696  4.1885  1.0636
 1647SOL    HW216401   0.083   2.186   5.077  0.2795  1.0150 -0.4474
 1648SOL     OW16402   3.590   4.639   5.465 -0.5147  0.1611  0.0064
 1648SOL    HW116403   3.653   4.708   5.485  1.7249 -1.8360 -0.1152
 1648SOL    HW216404   3.609   4.616   5.374  0.2216 -4.2499  1.2959
 1649SOL     OW16405   0.355   0.149   5.640  0.6121 -0.5500 -0.8051
 1649SOL    HW116406   0.369   0.232   5.595  1.2169  0.6099  1.5893
 1649SOL    HW216407   0.351   0.096   5.560 -1.4089  0.5519 -1.4368
 1650SOL     OW16408   0.562   1.227   7.718 -0.3378 -0.3676 -0.0206
 1650SOL    HW116409   0.605   1.176   7.787 -0.1968 -0.5897 -0.2731
 1650SOL    HW216410   0.628   1.263   7.658  0.9121 -1.7209  0.5506
 1651SOL     OW16411   4.041   2.657  11.056 -0.3811  0.5617  0.3278
 1651SOL    HW116412   4.082   2.743  11.049  1.2257 -0.0702  1.9826
 1651SOL    HW216413   3.959   2.680  11.013  0.2933 -1.0466 -1.8699
 1652SOL     OW16414   3.445   1.456   8.404 -0.0749 -0.3118 -0.2813
 1652SOL    HW116415   3.401   1.471   8.488  1.3983 -1.6528  0.7236
 1652SOL    HW216416   3.496   1.377   8.420  1.5353  0.6487 -0.6586
 1653SOL     OW16417   4.132   1.523   3.835 -0.7044 -0.4830 -0.2531
 1653SOL    HW116418   4.219   1.513   3.873 -0.5411  1.0523 -0.2352
 1653SOL    HW216419   4.125   1.618   3.837  0.4552 -0.4335  1.6380
 1654SOL     OW16420   3.484   0.882   8.591  0.2740 -0.0890 -0.3412
 1654SOL    HW116421   3.578   0.887   8.604  0.4520 -2.3849 -0.8128
 1654SOL    HW216422   3.478   0.894   8.496 -1.3087 -2.6702 -0.5721
 1655SOL     OW16423   3.881   1.069   0.684 -1.1114 -0.4648  0.5565
 1655SOL    HW116424   3.896   1.161   0.706 -0.8895 -0.4266  0.2487
 1655SOL    HW216425   3.950   1.052   0.619 -1.6080  3.4729 -0.9872
 1656SOL     OW16426   2.893   3.104  11.861 -0.4491 -0.0446  0.2577
 1656SOL    HW116427   2.950   3.161  11.913  0.8330  0.8060 -2.0572
 1656SOL    HW216428   2.954   3.038  11.827 -1.5348 -0.8675 -0.0605
 1657SOL     OW16429   4.554   3.349   8.715  0.1850  0.1175  0.3167
 1657SOL    HW116430   4.578   3.418   8.776 -0.9932  0.8160 -0.0007
 1657SOL    HW216431   4.639   3.325   8.679 -0.8657 -1.5494 -1.0637
 1658SOL     OW16432   1.629   3.482   0.022  0.3895 -0.2859 -0.1399
 1658SOL    HW116433   1.651   3.548  17.649  3.0712  0.3677  1.4394
 1658SOL    HW216434   1.714   3.485   0.065 -0.3224 -1.4828  1.3579
 1659SOL     OW16435   0.997   3.898   5.701  0.0551  0.0970 -0.1044
 1659SOL    HW116436   1.088   3.876   5.681 -0.0098  0.1965 -0.5205
 1659SOL    HW216437   0.993   3.989   5.671 -1.1768  0.4402  1.0818
 1660SOL     OW16438   3.544   1.125   7.141  0.4056  0.3892  0.5536
 1660SOL    HW116439   3.491   1.093   7.215  0.0835 -2.4268 -0.8837
 1660SOL    HW216440   3.529   1.056   7.076 -1.2047  1.9135 -0.6703
 1661SOL     OW16441   4.519   1.029   7.746  0.1676 -0.0792  0.0510
 1661SOL    HW116442   4.594   1.004   7.693  0.0301 -1.2062  0.3854
 1661SOL    HW216443   4.466   0.950   7.737 -0.0673 -0.1571  2.1711
 1662SOL     OW16444   2.026   3.916   0.098 -0.2653 -0.9857  0.2422
 1662SOL    HW116445   2.078   3.836   0.083 -3.3016 -2.5616 -1.9032
 1662SOL    HW216446   2.032   3.924   0.193  1.7427 -0.6601  0.0879
 1663SOL     OW16447   4.161   2.941   7.923  0.0978  0.0171  0.0894
 1663SOL    HW116448   4.242   2.978   7.887  0.2446 -0.4979 -0.1007
 1663SOL    HW216449   4.183   2.849   7.912  3.2153  0.9207 -1.2949
 1664SOL     OW16450   1.237   0.995  17.639  0.2583  0.0815 -0.0022
 1664SOL    HW116451   1.200   0.912  17.608 -0.4804  0.8210 -1.0918
 1664SOL    HW216452   1.308   0.959   0.001  0.1269  2.3036  1.6460
 1665SOL     OW16453   2.183   2.936  11.630  0.1759 -0.0501  0.2980
 1665SOL    HW116454   2.135   2.863  11.592  0.4605 -0.7594  1.3240
 1665SOL    HW216455   2.251   2.955  11.564  1.4564 -2.0387  1.0589
 1666SOL     OW16456   0.165   0.249  10.494 -0.3436 -0.3992 -0.3791
 1666SOL    HW116457   0.214   0.226  10.573  0.1224 -0.8664 -0.8031
 1666SOL    HW216458   0.194   0.340  10.486 -2.4500  0.1302 -1.9542
 1667SOL     OW16459   0.913   3.657   3.157 -0.4090  0.0331  0.1776
 1667SOL    HW116460   0.842   3.594   3.168  0.9839 -1.6170 -0.3243
 1667SOL    HW216461   0.955   3.652   3.242  1.7190  1.0060 -0.8028
 1668SOL     OW16462   1.887   3.682   2.597 -0.3569  0.5746  0.5367
 1668SOL    HW116463   1.894   3.726   2.512  1.3835  0.8779  0.8519
 1668SOL    HW216464   1.867   3.597   2.557 -2.6445  1.8881 -1.1268
 1669SOL     OW16465   2.261   0.415  17.397  0.2985 -0.7158 -0.0645
 1669SOL    HW116466   2.291   0.434  17.486  0.3349 -3.5538  0.5369
 1669SOL    HW216467   2.247   0.504  17.366 -0.4209 -0.9514 -0.4185
 1670SOL     OW16468   2.401   0.119   7.789 -0.2439  0.1150  0.0021
 1670SOL    HW116469   2.371   0.193   7.842  0.5504 -1.7113  3.0347
 1670SOL    HW216470   2.402   0.040   7.844 -1.4615  1.1253  1.4593
 1671SOL     OW16471   3.692   3.550   1.407 -0.5513 -0.4779  0.3150
 1671SOL    HW116472   3.705   3.637   1.369  2.5971 -0.6710  0.9826
 1671SOL    HW216473   3.769   3.532   1.460 -0.8035  1.0343  1.1805
 1672SOL     OW16474   1.644   3.959   5.216  0.2468  0.6622 -0.1397
 1672SOL    HW116475   1.661   3.943   5.123 -0.7548  0.1852 -0.2390
 1672SOL    HW216476   1.734   3.964   5.250  0.3232  0.5193 -0.3205
 1673SOL     OW16477   0.071   1.316   6.529 -0.2575 -0.6799 -0.6584
 1673SOL    HW116478   0.153   1.280   6.497  0.3431 -1.2508  1.5292
 1673SOL    HW216479   0.064   1.262   6.608 -1.1165 -0.2699 -0.4468
 1674SOL     OW16480   4.274   1.910   0.591  0.0504  0.4763  0.5361
 1674SOL    HW116481   4.267   1.923   0.686 -1.5423 -0.2411  0.5192
 1674SOL    HW216482   4.362   1.942   0.573 -0.1901  0.2457 -1.0292
 1675SOL     OW16483   2.994   2.072   5.143 -0.5319  0.3463  0.5830
 1675SOL    HW116484   3.065   2.129   5.171 -0.0501  0.4088 -0.7921
 1675SOL    HW216485   2.947   2.068   5.226 -0.3881  0.3403  0.6643
 1676SOL     OW16486   1.365   1.346   2.921 -0.3112 -0.0562  0.5300
 1676SOL    HW116487   1.339   1.416   2.981  0.2480  0.4918  0.1336
 1676SOL    HW216488   1.279   1.304   2.914  0.2840 -1.2729  0.5208
 1677SOL     OW16489   3.015   1.946  15.384 -0.1491  0.8520 -0.9913
 1677SOL    HW116490   2.976   1.999  15.314  0.3928  1.1024 -1.1030
 1677SOL    HW216491   2.946   1.880  15.390 -2.2734  3.0200 -1.4356
 1678SOL     OW16492   0.543   1.779   5.390  0.4473 -0.2642  0.1259
 1678SOL    HW116493   0.594   1.858   5.405  0.9947 -0.3533 -1.3077
 1678SOL    HW216494   0.492   1.779   5.472  2.6888 -0.3734  1.5193
 1679SOL     OW16495   2.526   2.577  14.036 -0.3264 -0.1768 -0.1621
 1679SOL    HW116496   2.615   2.600  14.064 -0.8824  2.0760 -0.3122
 1679SOL    HW216497   2.499   2.537  14.119 -0.1263 -0.3234 -0.1665
 1680SOL     OW16498   3.916   1.635  13.088  0.1540 -0.2472  0.0645
 1680SOL    HW116499   3.963   1.653  13.006  0.3518 -0.9346  0.0295
 1680SOL    HW216500   3.942   1.714  13.135  0.3825 -0.1930 -0.1519
 1681SOL     OW16501   1.764   2.024   7.289  0.5899 -0.1301  0.0379
 1681SOL    HW116502   1.821   2.077   7.344  0.1548 -0.3757  0.7194
 1681SOL    HW216503   1.707   1.987   7.356 -1.7152  2.4045 -0.5417
 1682SOL     OW16504   0.133   3.194   1.138 -0.1822 -0.3597 -0.0622
 1682SOL    HW116505   0.187   3.224   1.065 -1.2048  1.2902 -0.1338
 1682SOL    HW216506   0.156   3.101   1.143 -0.1494 -0.4920 -3.0364
 1683SOL     OW16507   4.017   2.066   3.339  0.8070  0.1578 -0.3657
 1683SOL    HW116508   4.032   2.121   3.263 -0.6161 -0.1674 -0.8702
 1683SOL    HW216509   3.950   2.113   3.388  0.2869  0.5535 -1.4749
 1684SOL     OW16510   1.874   3.724   7.459  0.4711  0.1972  0.4128
 1684SOL    HW116511   1.780   3.718   7.441 -0.0977  0.4064  3.2871
 1684SOL    HW216512   1.880   3.811   7.421 -1.0945  1.2456  2.5922
 1685SOL     OW16513   2.995   2.705   8.066 -0.3589 -0.2247  0.7028
 1685SOL    HW116514   2.982   2.794   8.032 -1.0534 -0.4011  0.4944
 1685SOL    HW216515   3.080   2.684   8.027  0.4787 -1.8883  3.4458
 1686SOL     OW16516   0.918   2.099   2.798 -0.0674  0.1145  0.4810
 1686SOL    HW116517   0.985   2.114   2.732  0.8419 -0.1149  1.3647
 1686SOL    HW216518   0.901   2.005   2.808  0.2159  0.0504  0.3377
 1687SOL     OW16519   0.649   2.455   6.733 -0.2319 -0.4375 -0.2167
 1687SOL    HW116520   0.557   2.431   6.743 -0.2170 -0.1812  0.5782
 1687SOL    HW216521   0.693   2.413   6.807  2.0281  0.3186 -1.1237
 1688SOL     OW16522   1.307   3.658   9.342 -0.4685 -0.2402  0.1305
 1688SOL    HW116523   1.336   3.572   9.312  1.0655  0.4315 -0.3364
 1688SOL    HW216524   1.213   3.660   9.324 -0.1195  0.8635 -1.5006
 1689SOL     OW16525   4.198   3.231  14.564  0.3375  0.7473  0.0773
 1689SOL    HW116526   4.186   3.304  14.626 -0.7651  0.1910  0.5289
 1689SOL    HW216527   4.107   3.203  14.558  0.0057  1.8704 -0.0996
 1690SOL     OW16528   2.056   1.669   1.035 -0.0721  0.6298  0.4157
 1690SOL    HW116529   2.059   1.753   0.989 -0.9199  0.2201 -0.4053
 1690SOL    HW216530   2.012   1.611   0.972  1.3088  0.1356 -0.0798
 1691SOL     OW16531   4.131   2.002  14.103 -0.2807 -0.3800  0.3625
 1691SOL    HW116532   4.201   2.067  14.103 -1.4365  0.8643 -0.2510
 1691SOL    HW216533   4.186   1.939  14.055 -0.4953 -1.3540  1.4057
 1692SOL     OW16534   2.233   0.360  10.283 -0.3383  0.0905  0.3006
 1692SOL    HW116535   2.173   0.292  10.251  0.2275  0.4318 -1.4773
 1692SOL    HW216536   2.314   0.312  10.296 -0.6819 -0.7755 -0.7316
 1693SOL     OW16537   4.411   0.280   4.973 -0.0828 -0.1787 -0.4416
 1693SOL    HW116538   4.431   0.295   5.066  1.7730  0.3210 -0.9079
 1693SOL    HW216539   4.445   0.191   4.963 -1.8874 -0.9485  0.3530
 1694SOL     OW16540   4.401   2.945   9.791 -0.5319 -0.1928  0.0595
 1694SOL    HW116541   4.485   2.909   9.763 -0.9942 -0.8638 -0.4767
 1694SOL    HW216542   4.376   2.991   9.710  1.0472  1.4086  0.4674
 1695SOL     OW16543   1.937   2.502   0.784  0.2848  0.5745 -0.1788
 1695SOL    HW116544   1.942   2.426   0.726  1.7939  0.6676 -0.1614
 1695SOL    HW216545   2.029   2.504   0.809 -0.0062  0.4862  0.8654
 1696SOL     OW16546   2.913   3.455  14.969  0.3912  0.4289 -0.7142
 1696SOL    HW116547   3.001   3.430  14.995 -0.0192 -1.1630 -0.9024
 1696SOL    HW216548   2.867   3.403  15.035  0.6382  0.1200 -0.7892
 1697SOL     OW16549   2.690   2.937  14.039 -0.6138  0.1825 -0.5257
 1697SOL    HW116550   2.758   2.996  14.072  0.4048 -0.7895 -0.8557
 1697SOL    HW216551   2.622   2.957  14.103 -1.9959  0.7689 -2.1980
 1698SOL     OW16552   4.361   2.319   6.600 -0.3073 -0.3166 -0.0770
 1698SOL    HW116553   4.332   2.238   6.642 -1.6576  0.3584  0.2905
 1698SOL    HW216554   4.275   2.361   6.600 -0.0284  0.2511  0.3528
 1699SOL     OW16555   3.113   0.196   3.674 -0.1324  0.5214  0.5530
 1699SOL    HW116556   3.035   0.177   3.621  0.4273  0.2289 -0.1723
 1699SOL    HW216557   3.100   0.146   3.754 -1.2801  1.3677  0.8927
 1700SOL     OW16558   2.272   2.870  13.387  0.1595 -0.2329 -0.8549
 1700SOL    HW116559   2.184   2.832  13.387 -0.1427  0.4659 -2.8161
 1700SOL    HW216560   2.309   2.821  13.460 -2.3311 -0.7667  0.0204
 1701SOL     OW16561   3.045   4.479   1.961 -0.2534  0.1889  0.2282
 1701SOL    HW116562   3.087   4.393   1.961  0.6460  0.6333 -0.6984
 1701SOL    HW216563   3.054   4.504   1.869 -0.9829  1.4030  0.4787
 1702SOL     OW16564   2.402   0.003   5.020  0.1181  0.4078  0.1761
 1702SOL    HW116565   2.306   4.722   5.019  0.1350 -0.6145  2.3665
 1702SOL    HW216566   2.414   0.070   5.087  1.2216  1.0637 -0.6904
 1703SOL     OW16567   0.883   0.664  15.703 -0.1023 -0.2648 -0.6645
 1703SOL    HW116568   0.966   0.698  15.736  0.1826 -0.0181 -1.6649
 1703SOL    HW216569   0.854   0.743  15.658 -1.6642  1.0349  2.6161
 1704SOL     OW16570   0.518   0.600   6.336 -0.2001 -0.1238  0.2278
 1704SOL    HW116571   0.522   0.673   6.274  0.5110 -2.3415 -2.3508
 1704SOL    HW216572   0.528   0.654   6.414 -0.0877 -0.3040  0.3390
 1705SOL     OW16573   4.539   4.532   5.655  0.1460 -0.0475  0.6680
 1705SOL    HW116574   4.605   4.463   5.649  1.8681  1.6774 -0.1267
 1705SOL    HW216575   4.543   4.557   5.748  0.4751 -0.7838  0.8552
 1706SOL     OW16576   2.736   4.720   4.468 -0.1412  0.3333  0.3760
 1706SOL    HW116577   2.718   4.712   4.375  0.2942 -1.1286  0.4196
 1706SOL    HW216578   2.767   0.088   4.465 -2.0469  1.0019  0.4909
 1707SOL     OW16579   4.170   3.207   6.014  0.2035 -0.6225  0.1514
 1707SOL    HW116580   4.224   3.164   5.947 -0.5053 -0.2435 -0.6617
 1707SOL    HW216581   4.107   3.258   5.965  3.0864  2.6620 -0.1589
 1708SOL     OW16582   0.150   3.994   7.191  0.2540  0.8110  0.6889
 1708SOL    HW116583   0.212   3.923   7.206  2.2486  2.1398 -1.2208
 1708SOL    HW216584   0.195   4.062   7.140  0.5098 -0.3344 -0.6225
 1709SOL     OW16585   3.677   1.809   5.893  0.7862 -0.1198 -0.2285
 1709SOL    HW116586   3.767   1.789   5.871  1.3905  0.6181  1.5855
 1709SOL    HW216587   3.675   1.904   5.905  0.9822  0.1926 -2.6614
 1710SOL     OW16588   4.433   3.993   3.450 -0.2369  0.3666 -0.3573
 1710SOL    HW116589   4.494   3.921   3.466  0.0945  0.8310  0.5094
 1710SOL    HW216590   4.364   3.948   3.403  0.2618  2.0549 -2.7030
 1711SOL     OW16591   2.818   2.511   6.302 -0.0363 -0.0923  0.5199
 1711SOL    HW116592   2.820   2.417   6.322  0.6526 -0.4043 -1.0523
 1711SOL    HW216593   2.728   2.525   6.273  0.3840 -2.1849 -1.8006
 1712SOL     OW16594   4.414   4.122   8.170 -0.0486  0.3466 -0.1050
 1712SOL    HW116595   4.465   4.041   8.172  0.8200  0.8818 -0.1015
 1712SOL    HW216596   4.330   4.082   8.189 -0.2555  0.0426 -1.6677
 1713SOL     OW16597   0.186   1.243   1.314  0.0897 -0.3197 -0.2254
 1713SOL    HW116598   0.125   1.246   1.388  0.7421  1.2013  0.2594
 1713SOL    HW216599   0.168   1.322   1.263 -1.1823  0.3315  1.2388
 1714SOL     OW16600   1.857   3.386   7.578  0.5772  0.1137 -0.1292
 1714SOL    HW116601   1.893   3.302   7.607 -1.4233 -0.6670  0.0516
 1714SOL    HW216602   1.889   3.453   7.638 -0.9024  1.8490 -1.2799
 1715SOL     OW16603   1.870   2.471  10.509  0.0745  0.1504  0.0061
 1715SOL    HW116604   1.787   2.442  10.470  0.1768 -1.6396  1.0968
 1715SOL    HW216605   1.848   2.562  10.526  0.9818  0.0067  1.9241
 1716SOL     OW16606   1.183   4.015   2.422  0.0345  1.1194  0.1473
 1716SOL    HW116607   1.094   4.037   2.451  0.8405  0.5862  2.9800
 1716SOL    HW216608   1.223   4.102   2.423  0.5352  0.9025 -0.8564
 1717SOL     OW16609   0.104   1.176  17.215  0.8042  0.0116  0.0504
 1717SOL    HW116610   0.145   1.202  17.132 -1.2977 -2.3427 -1.7339
 1717SOL    HW216611   0.020   1.222  17.219 -0.2274 -1.9011  0.4962
 1718SOL     OW16612   2.378   2.155   2.925  0.1445 -0.6993 -0.4962
 1718SOL    HW116613   2.372   2.110   2.841 -1.9895  3.3087 -2.4631
 1718SOL    HW216614   2.317   2.227   2.907 -1.1806 -1.4853  0.8565
 1719SOL     OW16615   3.535   4.454   3.082  0.5091 -0.2412 -0.7755
 1719SOL    HW116616   3.564   4.368   3.050 -1.1863 -0.8641 -0.6272
 1719SOL    HW216617   3.617   4.502   3.071 -0.8476  1.8992 -1.4804
 1720SOL     OW16618   3.779   0.144   8.544 -0.1183  0.6989 -0.0529
 1720SOL    HW116619   3.687   0.121   8.525 -0.1306  0.9822 -0.3333
 1720SOL    HW216620   3.805   0.065   8.592 -0.2210  0.3536 -0.5666
 1721SOL     OW16621   2.825   3.761   4.337  0.4367  0.0193  0.3234
 1721SOL    HW116622   2.734   3.750   4.366  0.3442 -0.5449 -0.2025
 1721SOL    HW216623   2.870   3.682   4.368  0.3531  0.1437  0.7699
 1722SOL     OW16624   3.079   1.274  11.573  0.3645 -0.0122  0.0452
 1722SOL    HW116625   2.995   1.265  11.528 -0.2973  0.4106  1.2025
 1722SOL    HW216626   3.124   1.317  11.500  1.9390 -2.0990 -0.2115
 1723SOL     OW16627   2.592   3.232   7.699  0.7526 -0.9008  1.0438
 1723SOL    HW116628   2.525   3.174   7.736  0.2681 -1.8103 -1.2074
 1723SOL    HW216629   2.537   3.300   7.661 -2.3983 -3.3548  1.1611
 1724SOL     OW16630   1.956   4.329  12.399  0.4568 -0.1189 -0.1135
 1724SOL    HW116631   1.932   4.420  12.416 -1.3959 -1.0761  2.3751
 1724SOL    HW216632   2.009   4.315  12.477 -0.2216 -0.5623  0.2625
 1725SOL     OW16633   1.155   0.313  12.201 -0.8186  0.4618  0.6344
 1725SOL    HW116634   1.157   0.400  12.240 -0.4233  0.5612  0.3910
 1725SOL    HW216635   1.089   0.280  12.263  0.7586 -0.4830  1.7910
 1726SOL     OW16636   1.111   3.741   2.070  0.3019  0.2482 -0.3569
 1726SOL    HW116637   1.175   3.672   2.051  1.0342  0.4961  1.2188
 1726SOL    HW216638   1.118   3.740   2.166 -1.1061 -0.3231 -0.2619
 1727SOL     OW16639   4.469   0.258   4.114 -0.6601  0.2277 -0.2471
 1727SOL    HW116640   4.444   0.281   4.024 -1.9578 -1.5305 -0.3327
 1727SOL    HW216641   4.478   0.163   4.112  0.4023  0.3218  0.5683
 1728SOL     OW16642   4.375   0.743   6.148  0.0177 -0.0542  0.2308
 1728SOL    HW116643   4.451   0.792   6.179  2.3187 -0.7567 -4.2866
 1728SOL    HW216644   4.312   0.756   6.219  0.6231 -0.4792  0.8496
 1729SOL     OW16645   1.513   4.202  14.569  0.1071 -0.2054 -0.2358
 1729SOL    HW116646   1.549   4.186  14.656  1.3476 -1.7910 -1.0483
 1729SOL    HW216647   1.446   4.133  14.563  2.6508 -2.7088  0.3902
 1730SOL     OW16648   3.938   3.414   3.027  0.1849  0.1991 -0.0534
 1730SOL    HW116649   3.908   3.397   2.938 -0.4567  1.1480 -0.0150
 1730SOL    HW216650   3.958   3.507   3.017  0.9726  0.1862  1.3916
 1731SOL     OW16651   3.981   3.726   9.414  0.4565 -0.1274 -0.0274
 1731SOL    HW116652   3.997   3.680   9.496 -0.8259  1.5904  1.1803
 1731SOL    HW216653   3.886   3.740   9.416  0.3714  0.0766 -5.0471
 1732SOL     OW16654   1.026   1.304   6.695  0.5332  0.1514  0.4866
 1732SOL    HW116655   1.023   1.216   6.658 -0.5386  0.5924 -0.4500
 1732SOL    HW216656   0.951   1.348   6.655  1.1672  0.5658 -0.2437
 1733SOL     OW16657   1.280   2.863  15.902 -0.0676  0.3855  0.1670
 1733SOL    HW116658   1.246   2.848  15.991 -2.5181  0.0874 -0.8337
 1733SOL    HW216659   1.226   2.807  15.847 -0.6932  0.9142  0.2463
 1734SOL     OW16660   2.783   2.882  12.633 -0.1023 -0.2644  0.4331
 1734SOL    HW116661   2.688   2.886  12.642 -0.0851  1.4045 -0.3161
 1734SOL    HW216662   2.815   2.894  12.722  2.4919 -0.8958 -0.3946
 1735SOL     OW16663   0.007   0.661   8.088  0.4282  0.1043 -0.4444
 1735SOL    HW116664   4.722   0.671   8.183  1.5095  1.3805 -0.4883
 1735SOL    HW216665   0.065   0.736   8.077  0.0811  0.3213 -0.7850
 1736SOL     OW16666   3.088   0.137   6.274  0.1948  0.2663 -0.0612
 1736SOL    HW116667   3.090   0.221   6.229  2.2682 -0.2018 -0.8220
 1736SOL    HW216668   3.031   0.162   6.347 -1.9287  0.1032 -1.6472
 1737SOL     OW16669   3.496   0.825   2.105 -0.5128  0.5593 -0.1272
 1737SOL    HW116670   3.461   0.753   2.053  0.9255 -0.1892 -0.0634
 1737SOL    HW216671   3.501   0.886   2.031  0.7818  1.4929  0.7229
 1738SOL     OW16672   2.228   0.126   9.019  0.7847  0.1254 -0.0718
 1738SOL    HW116673   2.160   0.068   9.053  0.2484  1.0116  0.3612
 1738SOL    HW216674   2.284   0.137   9.096  2.6994 -1.2093 -1.2824
 1739SOL     OW16675   4.445   1.377  12.114  0.4791  0.4832  0.3108
 1739SOL    HW116676   4.456   1.404  12.023 -0.1040  0.0068  0.1033
 1739SOL    HW216677   4.457   1.463  12.156  1.6532  0.0057  0.9425
 1740SOL     OW16678   0.575   3.914   3.010  0.2498  0.6851  1.1441
 1740SOL    HW116679   0.539   3.846   2.954 -1.5059  2.7636 -0.2451
 1740SOL    HW216680   0.637   3.964   2.957 -0.1385 -0.5134 -0.4287
 1741SOL     OW16681   0.552   0.379   2.134 -0.3013  0.4246  0.2603
 1741SOL    HW116682   0.509   0.317   2.075 -0.6053  1.9921 -1.1749
 1741SOL    HW216683   0.638   0.392   2.093  0.4553 -0.7077  1.5045
 1742SOL     OW16684   1.084   1.524   4.742 -0.4777  0.8412  0.7756
 1742SOL    HW116685   1.134   1.605   4.729  1.5444 -0.5645 -0.0965
 1742SOL    HW216686   1.031   1.546   4.819 -1.7317  0.7387 -0.0517
 1743SOL     OW16687   4.548   1.660   9.136  0.2197 -0.0301 -0.2097
 1743SOL    HW116688   4.575   1.659   9.044 -1.0721  2.5549 -0.6377
 1743SOL    HW216689   4.619   1.713   9.173 -0.9644  0.4233  1.4519
 1744SOL     OW16690   0.924   2.599   9.170  0.0330  0.6069 -0.1657
 1744SOL    HW116691   0.869   2.617   9.246  1.3081 -0.0746  0.9378
 1744SOL    HW216692   0.980   2.528   9.202  0.9621  0.8545 -1.2244
 1745SOL     OW16693   3.411   4.366  14.373  0.2337  0.1780 -0.0553
 1745SOL    HW116694   3.354   4.443  14.372  0.2031  0.1524 -0.3166
 1745SOL    HW216695   3.385   4.326  14.456  0.5209 -1.7215 -0.8709
 1746SOL     OW16696   4.703   0.336   6.144 -0.0252 -0.1905 -0.1468
 1746SOL    HW116697   4.690   0.430   6.129  0.8226  0.1669  1.3627
 1746SOL    HW216698   0.034   0.311   6.068 -0.9535 -2.6360  0.0150
 1747SOL     OW16699   4.235   1.287  10.702  0.2568  0.6982  0.0955
 1747SOL    HW116700   4.278   1.354  10.649  3.7410  0.8730  3.1741
 1747SOL    HW216701   4.175   1.247  10.638 -0.5400  1.0090  0.6413
 1748SOL     OW16702   4.268   1.918   3.818  0.5602 -0.0200 -0.1969
 1748SOL    HW116703   4.314   1.874   3.746  0.9210  0.8397 -0.4834
 1748SOL    HW216704   4.205   1.970   3.768 -0.7307  0.2496  1.7048
 1749SOL     OW16705   3.915   4.078  13.086 -0.1801 -0.0542  0.1373
 1749SOL    HW116706   3.974   4.045  13.019  0.9332 -1.5950  1.8653
 1749SOL    HW216707   3.950   4.029  13.161 -0.8403 -0.2725  0.3040
 1750SOL     OW16708   2.688   0.401   7.896 -0.1035  0.2613 -0.3273
 1750SOL    HW116709   2.639   0.411   7.814  0.6477  1.4754 -0.6251
 1750SOL    HW216710   2.739   0.326   7.867  1.1698  0.8679  0.3607
 1751SOL     OW16711   1.183   0.536   5.368 -0.4552 -0.1965  0.7902
 1751SOL    HW116712   1.207   0.617   5.413 -1.8802  0.5935  0.1210
 1751SOL    HW216713   1.098   0.558   5.330  0.1210  1.4719  0.4669
 1752SOL     OW16714   2.236   1.690   8.675 -0.8614  0.0876 -0.1378
 1752SOL    HW116715   2.319   1.650   8.651 -0.2904  0.4347  1.2448
 1752SOL    HW216716   2.182   1.612   8.662 -3.2889  1.6308  0.5298
 1753SOL     OW16717   2.523   0.714   8.269  0.6554 -0.0631 -0.2125
 1753SOL    HW116718   2.603   0.727   8.320 -0.0820  1.8387  0.4869
 1753SOL    HW216719   2.468   0.684   8.342 -0.6591 -0.3586 -1.3357
 1754SOL     OW16720   2.760   2.346  13.971  0.2243  0.5844 -0.0431
 1754SOL    HW116721   2.844   2.372  13.935 -0.3957 -0.2280 -2.0842
 1754SOL    HW216722   2.736   2.430  14.012 -1.3221  0.9938 -1.7791
 1755SOL     OW16723   3.044   3.741   3.513  0.1859  0.5409 -0.2226
 1755SOL    HW116724   3.133   3.756   3.481  0.7538  0.8413  1.4955
 1755SOL    HW216725   2.997   3.683   3.454  0.4888 -0.1665  0.2263
 1756SOL     OW16726   0.010   3.356  12.350  0.5942  0.4079 -0.0124
 1756SOL    HW116727   4.658   3.394  12.304 -2.0016 -1.7985  2.4253
 1756SOL    HW216728   0.062   3.436  12.337  0.0857  0.9184  1.1295
 1757SOL     OW16729   1.019   3.837  15.502 -0.3241 -0.1502  0.6361
 1757SOL    HW116730   0.944   3.825  15.561  0.3155  1.7469  1.8594
 1757SOL    HW216731   0.980   3.834  15.415  0.9271 -2.7720  0.1866
 1758SOL     OW16732   3.088   1.388   1.328  0.3996 -0.0837  0.5548
 1758SOL    HW116733   3.099   1.394   1.233  1.2640  3.3951  0.8582
 1758SOL    HW216734   2.999   1.422   1.334  0.6842  0.6096  0.8607
 1759SOL     OW16735   1.995   2.267   2.827  0.3719  0.8251  0.1541
 1759SOL    HW116736   2.072   2.323   2.833  0.7151  0.1496  1.8753
 1759SOL    HW216737   1.928   2.323   2.865  0.6815  0.8626  0.6362
 1760SOL     OW16738   4.362   4.251  10.976  0.2300  0.6944 -0.8743
 1760SOL    HW116739   4.316   4.334  10.981 -0.3685  0.3512 -0.7234
 1760SOL    HW216740   4.443   4.271  10.928  2.9360 -1.2146  2.8977
 1761SOL     OW16741   1.187   0.540   3.604  0.1269  0.3571  0.2356
 1761SOL    HW116742   1.132   0.491   3.665  0.6901  0.4840  0.8374
 1761SOL    HW216743   1.213   0.474   3.539  0.3684 -0.2893  0.9986
 1762SOL     OW16744   1.442   1.881   4.155  0.2413  0.2461  0.2457
 1762SOL    HW116745   1.396   1.965   4.144 -0.3688  0.0183  1.0285
 1762SOL    HW216746   1.522   1.910   4.199  1.1681  1.7051 -2.4144
 1763SOL     OW16747   1.709   2.351  17.477  0.7353  0.3766  0.2761
 1763SOL    HW116748   1.664   2.374  17.395  1.8842 -0.7282 -0.6623
 1763SOL    HW216749   1.650   2.293  17.524  1.3124 -0.9683 -0.6636
 1764SOL     OW16750   1.348   1.042   5.312 -0.4803 -0.1341  0.0768
 1764SOL    HW116751   1.395   0.997   5.382 -1.8062 -1.0995  0.3480
 1764SOL    HW216752   1.413   1.110   5.293  0.0924 -0.7390 -0.1143
 1765SOL     OW16753   1.221   0.618   7.575 -0.0511 -0.5173  0.4987
 1765SOL    HW116754   1.168   0.619   7.655 -0.3151 -1.5448  0.3410
 1765SOL    HW216755   1.234   0.710   7.555  0.7119 -0.7482 -0.0464
 1766SOL     OW16756   4.460   1.259   3.862  0.3797  0.0873  0.1999
 1766SOL    HW116757   4.512   1.274   3.941  1.0569 -0.9816 -0.0485
 1766SOL    HW216758   4.520   1.221   3.797 -0.4893 -0.5068 -0.2496
 1767SOL     OW16759   2.947   1.086  17.510 -0.2719  0.3980 -0.2578
 1767SOL    HW116760   2.937   1.178  17.485 -2.7799  0.8220  2.3311
 1767SOL    HW216761   2.869   1.075  17.563 -1.5682 -1.2699 -2.5227
 1768SOL     OW16762   1.631   0.219   7.686  0.7809  0.2996  0.0859
 1768SOL    HW116763   1.650   0.288   7.750  3.0141  1.0825 -1.4285
 1768SOL    HW216764   1.543   0.239   7.655  0.6693  1.1261  0.9251
 1769SOL     OW16765   4.107   3.428  12.995 -0.1834  0.1149  0.1338
 1769SOL    HW116766   4.034   3.369  13.012 -1.3128  1.4103 -0.2149
 1769SOL    HW216767   4.182   3.369  13.002 -1.8123 -1.9394  0.0401
 1770SOL     OW16768   4.073   2.034   9.927 -0.0004 -0.0377  0.0524
 1770SOL    HW116769   4.069   2.107   9.865  0.0970  1.1832  1.4828
 1770SOL    HW216770   4.096   2.074  10.011 -0.5138 -0.4202  0.3764
 1771SOL     OW16771   1.972   4.172   4.334 -0.6277 -0.6086 -0.0306
 1771SOL    HW116772   1.999   4.260   4.311  0.0067 -0.4230  1.4444
 1771SOL    HW216773   1.938   4.157   4.246 -0.0608 -0.6789 -0.2381
 1772SOL     OW16774   2.514   2.402   4.340  0.2143 -0.3047 -0.0829
 1772SOL    HW116775   2.565   2.375   4.417 -0.5182 -0.7704  0.2371
 1772SOL    HW216776   2.435   2.351   4.353 -0.0321 -0.0731 -0.6977
 1773SOL     OW16777   1.578   4.330   8.422 -0.0267 -0.0686  0.3680
 1773SOL    HW116778   1.618   4.263   8.367  0.1662 -1.2899  2.0361
 1773SOL    HW216779   1.530   4.275   8.484  0.1870  1.0022  1.4828
 1774SOL     OW16780   1.950   3.863  13.729 -0.3195  0.1559  0.2016
 1774SOL    HW116781   1.916   3.939  13.681 -2.5586 -1.8662 -1.4301
 1774SOL    HW216782   1.896   3.790  13.697 -1.3990  1.3663 -0.7231
 1775SOL     OW16783   1.174   3.203   6.296  0.2300  0.3208  0.5758
 1775SOL    HW116784   1.110   3.272   6.314 -0.2602 -0.1894  0.7775
 1775SOL    HW216785   1.141   3.130   6.349 -0.4823 -0.0150 -0.3187
 1776SOL     OW16786   3.271   3.480   6.137 -0.2752 -0.4637 -0.0468
 1776SOL    HW116787   3.290   3.453   6.227 -0.7278  0.3307  0.2924
 1776SOL    HW216788   3.352   3.448   6.099  0.3150 -0.4933  1.2198
 1777SOL     OW16789   1.651   2.736  16.064 -0.2967 -0.1416 -0.2415
 1777SOL    HW116790   1.711   2.665  16.041 -0.8081 -0.9047  0.7804
 1777SOL    HW216791   1.591   2.748  15.991 -1.6100  0.1572  0.8978
 1778SOL     OW16792   3.353   3.367   3.101  0.2572  0.0397  0.4347
 1778SOL    HW116793   3.290   3.306   3.139 -0.1519  0.1777 -0.0167
 1778SOL    HW216794   3.407   3.384   3.179  1.1216  1.9000 -0.5566
 1779SOL     OW16795   3.172   2.320   7.763  0.5038 -0.3150 -0.3506
 1779SOL    HW116796   3.210   2.375   7.831  0.7510  2.5048 -2.7710
 1779SOL    HW216797   3.244   2.264   7.732  2.1514  0.6143  1.8823
 1780SOL     OW16798   1.032   1.179   2.896 -0.5901 -0.1630 -0.7232
 1780SOL    HW116799   1.073   1.265   2.883 -1.3496 -0.0465 -2.3663
 1780SOL    HW216800   0.977   1.187   2.818 -0.1683 -0.1223 -1.0193
 1781SOL     OW16801   2.201   1.687  16.343 -0.4999  0.1127 -0.1212
 1781SOL    HW116802   2.112   1.660  16.320 -0.1360  1.1749 -2.7835
 1781SOL    HW216803   2.217   1.629  16.417 -1.1425  0.9413  0.6710
 1782SOL     OW16804   1.525   0.586   7.874  1.0858  0.0759  0.5596
 1782SOL    HW116805   1.483   0.670   7.892 -0.6051 -0.6092 -0.2060
 1782SOL    HW216806   1.583   0.588   7.950  0.3450  0.1250  1.1258
 1783SOL     OW16807   3.665   0.655   6.975  0.1345 -0.1562  0.1293
 1783SOL    HW116808   3.667   0.571   6.929  2.3677 -0.3981  0.6861
 1783SOL    HW216809   3.737   0.706   6.937 -0.0647  0.0844  0.0745
 1784SOL     OW16810   3.327   3.691   3.390 -0.2078  0.1974  1.0687
 1784SOL    HW116811   3.398   3.631   3.368  0.4251  1.4704 -0.3288
 1784SOL    HW216812   3.284   3.716   3.309  0.5473 -0.7508  0.3839
 1785SOL     OW16813   0.790   1.518  13.479 -0.1317 -0.3470 -0.2395
 1785SOL    HW116814   0.882   1.543  13.492 -0.4056 -0.6803  2.3315
 1785SOL    HW216815   0.794   1.482  13.391 -3.6617 -0.7899 -0.2182
 1786SOL     OW16816   0.762   3.856   4.026  0.4336  0.3349 -0.0554
 1786SOL    HW116817   0.796   3.946   4.018 -0.3403  0.5523 -0.9472
 1786SOL    HW216818   0.770   3.855   4.121 -1.0998  1.2487  0.0793
 1787SOL     OW16819   0.644   3.796  15.332  0.4340  0.3531 -0.0201
 1787SOL    HW116820   0.644   3.834  15.245  1.2528 -0.0113 -0.1746
 1787SOL    HW216821   0.717   3.735  15.319  1.2373  0.6792  2.9855
 1788SOL     OW16822   4.585   3.537   8.209  0.8626  0.1432 -0.1527
 1788SOL    HW116823   4.506   3.570   8.252  1.5771 -0.0669  1.3407
 1788SOL    HW216824   4.584   3.576   8.122 -1.1312 -0.5959 -0.4592
 1789SOL     OW16825   2.696   2.727   2.657 -0.1762 -0.3197 -0.1307
 1789SOL    HW116826   2.643   2.804   2.636  2.5658  1.4521 -0.5011
 1789SOL    HW216827   2.715   2.693   2.570  0.7868  0.4539 -0.2313
 1790SOL     OW16828   2.977   0.680   3.037 -0.0238  0.4861  0.4867
 1790SOL    HW116829   2.930   0.619   2.980  1.4036 -2.6388  2.6681
 1790SOL    HW216830   2.989   0.747   2.969 -2.1253 -0.4066 -0.7964
 1791SOL     OW16831   2.948   0.252   9.125 -0.5401  0.0166 -0.8153
 1791SOL    HW116832   2.906   0.174   9.161 -2.6216  0.8500 -1.4212
 1791SOL    HW216833   2.932   0.321   9.190 -0.0632  0.4452 -1.1593
 1792SOL     OW16834   0.508   2.593   8.838 -0.2835 -0.1013 -0.4456
 1792SOL    HW116835   0.598   2.566   8.855 -0.6803 -0.3106  1.2628
 1792SOL    HW216836   0.479   2.535   8.767  0.8687 -1.2791  0.0505
 1793SOL     OW16837   0.322   2.072   8.633 -0.7836  0.1688 -0.2095
 1793SOL    HW116838   0.348   2.020   8.558 -1.0844 -0.0526 -0.1598
 1793SOL    HW216839   0.260   2.010   8.671  0.9520  0.0648  2.4241
 1794SOL     OW16840   0.321   2.602   5.596 -0.2454  0.2874  0.0112
 1794SOL    HW116841   0.277   2.624   5.678  0.3718  0.2801  0.3428
 1794SOL    HW216842   0.335   2.686   5.553  0.2957  0.2182  0.0464
 1795SOL     OW16843   1.635   2.828   3.406 -0.3768 -0.5348 -0.2523
 1795SOL    HW116844   1.577   2.858   3.477  2.6246 -1.0682  2.4539
 1795SOL    HW216845   1.674   2.755   3.454  1.6012  0.0854 -0.8881
 1796SOL     OW16846   2.102   1.053   6.187 -0.4066  0.2901 -0.2457
 1796SOL    HW116847   2.137   0.964   6.188 -1.2841 -0.0565 -0.0477
 1796SOL    HW216848   2.047   1.039   6.110 -0.3141  0.7672 -0.4005
 1797SOL     OW16849   4.030   3.538   4.219 -0.0845  0.2121  0.6980
 1797SOL    HW116850   4.076   3.454   4.221  1.7572  1.1644 -2.0436
 1797SOL    HW216851   4.034   3.562   4.126 -0.2537 -1.2536  0.3125
 1798SOL     OW16852   0.556   4.231   6.593  0.1928  0.3336  0.0432
 1798SOL    HW116853   0.482   4.183   6.631  1.0358  0.5455  1.9530
 1798SOL    HW216854   0.560   4.195   6.505 -0.9699 -0.3987  0.2883
 1799SOL     OW16855   3.046   1.787   9.944  0.4712  0.0365  0.4476
 1799SOL    HW116856   3.012   1.774  10.032 -2.0913 -0.2993 -0.5907
 1799SOL    HW216857   3.020   1.704   9.905 -0.6334  0.4976  0.2099
 1800SOL     OW16858   1.275   4.676   2.745  0.5052  0.3614 -0.0819
 1800SOL    HW116859   1.249   4.585   2.728 -1.5515  1.0610 -0.6196
 1800SOL    HW216860   1.332   4.701   2.672 -0.0982  1.9264 -0.0220
 1801SOL     OW16861   1.231   2.357   6.773  0.4711  0.5459 -0.7007
 1801SOL    HW116862   1.218   2.262   6.776  0.0515  0.6666  1.5336
 1801SOL    HW216863   1.266   2.366   6.861 -0.2485 -0.9643 -0.2443
 1802SOL     OW16864   0.116   4.637   3.169  0.1225  0.4898  0.6014
 1802SOL    HW116865   0.169   4.578   3.115 -1.0216 -0.5948  0.6817
 1802SOL    HW216866   0.182   4.702   3.197 -0.4314  1.2671  0.0904
 1803SOL     OW16867   4.619   3.867  11.263  0.3699 -0.7014 -0.1454
 1803SOL    HW116868   4.557   3.893  11.195 -0.2728  1.6087  1.3442
 1803SOL    HW216869   4.647   3.780  11.235  1.2121 -0.8845  1.2735
 1804SOL     OW16870   4.047   2.872  15.077 -0.4947  0.1201 -0.1293
 1804SOL    HW116871   3.960   2.851  15.042  0.7174 -2.0213 -1.7881
 1804SOL    HW216872   4.014   2.907  15.161 -0.0067 -0.6856  0.3935
 1805SOL     OW16873   0.951   3.415   7.678 -0.4638  0.4397 -0.4462
 1805SOL    HW116874   0.992   3.501   7.677 -0.1443  0.2756 -1.8611
 1805SOL    HW216875   0.892   3.429   7.751  0.0138  0.2111 -0.0124
 1806SOL     OW16876   2.163   0.572   9.740  0.1990 -0.1499 -0.3423
 1806SOL    HW116877   2.100   0.575   9.812 -0.7116  0.0419 -1.1488
 1806SOL    HW216878   2.229   0.596   9.806 -0.8917  0.2328  0.6101
 1807SOL     OW16879   2.675   2.090   8.586 -0.6156  0.1059 -0.1629
 1807SOL    HW116880   2.758   2.064   8.545  0.6511  1.5752  1.4674
 1807SOL    HW216881   2.686   2.184   8.580  1.5455 -0.1789 -0.8880
 1808SOL     OW16882   3.990   4.279   2.340  0.1317 -0.4635 -0.1057
 1808SOL    HW116883   3.917   4.295   2.280 -0.1410  0.6391  0.5255
 1808SOL    HW216884   4.067   4.268   2.283  0.2402 -1.2427  0.1952
 1809SOL     OW16885   4.283   0.022   5.144  0.2724 -0.4443  0.8200
 1809SOL    HW116886   4.203   4.694   5.157 -0.7550  0.3951 -2.1087
 1809SOL    HW216887   4.236   0.103   5.121  0.1707 -1.0845 -1.2783
 1810SOL     OW16888   0.962   2.732   5.770  0.3745  0.5331 -0.3489
 1810SOL    HW116889   1.056   2.748   5.777  0.4200 -0.1096  0.5753
 1810SOL    HW216890   0.934   2.725   5.862 -0.3205  0.0482 -0.5963
 1811SOL     OW16891   1.276   3.523   1.933 -0.2420 -0.2741 -0.6993
 1811SOL    HW116892   1.315   3.496   1.849  0.1311  2.3531 -1.3742
 1811SOL    HW216893   1.355   3.532   1.986  1.0231 -2.6560 -2.1963
 1812SOL     OW16894   2.878   1.114   4.210 -0.3087 -0.5190  0.4300
 1812SOL    HW116895   2.846   1.115   4.301 -0.8730  1.3817  0.2017
 1812SOL    HW216896   2.936   1.189   4.202 -0.4957 -0.4249 -0.0411
 1813SOL     OW16897   4.300   0.514   6.330  0.4579 -0.0570  0.1867
 1813SOL    HW116898   4.355   0.592   6.330  0.6600 -0.2057 -2.9230
 1813SOL    HW216899   4.314   0.484   6.420 -2.3643 -0.6417  0.4430
 1814SOL     OW16900   2.266   1.077   1.477 -0.1215 -0.0320  0.5223
 1814SOL    HW116901   2.204   1.012   1.443  0.8297  0.4675 -2.1481
 1814SOL    HW216902   2.225   1.086   1.563  0.1615 -0.1785  0.6760
 1815SOL     OW16903   0.877   2.414   5.605 -0.5074 -0.1377 -0.0692
 1815SOL    HW116904   0.891   2.508   5.595 -1.3802 -0.0359 -0.3522
 1815SOL    HW216905   0.790   2.414   5.646  0.4024  1.1587  1.8357
 1816SOL     OW16906   2.560   0.354   2.813  0.1645 -0.4163  0.1167
 1816SOL    HW116907   2.566   0.400   2.897 -2.4298 -1.3158  0.7911
 1816SOL    HW216908   2.581   0.423   2.749  0.3519 -0.1460  0.4644
 1817SOL     OW16909   1.166   2.638   3.198 -0.2684  0.4526 -0.1549
 1817SOL    HW116910   1.217   2.592   3.132 -1.9778 -0.6332 -0.7015
 1817SOL    HW216911   1.229   2.669   3.264  1.1441 -0.5441 -1.0526
 1818SOL     OW16912   3.057   2.417  12.495 -0.2073 -0.4287  0.4810
 1818SOL    HW116913   3.036   2.461  12.578  1.6008 -0.7516  1.1072
 1818SOL    HW216914   3.141   2.379  12.520  0.5552  1.3861  0.6350
 1819SOL     OW16915   3.175   0.587   7.918 -0.4793  0.0615  0.0740
 1819SOL    HW116916   3.246   0.542   7.964 -1.3480 -3.3571 -1.9113
 1819SOL    HW216917   3.169   0.671   7.963 -0.9444  0.2254 -0.2962
 1820SOL     OW16918   3.414   3.701   9.552  0.0457  0.0896 -0.4399
 1820SOL    HW116919   3.509   3.688   9.559  0.2758  2.1062  0.0910
 1820SOL    HW216920   3.390   3.674   9.640 -1.0730  0.6828 -0.5706
 1821SOL     OW16921   1.836   4.346   7.231 -0.3742 -0.0594  0.2203
 1821SOL    HW116922   1.882   4.392   7.302  0.6358 -1.1547  0.2747
 1821SOL    HW216923   1.786   4.418   7.193  0.8812  0.3656 -0.6261
 1822SOL     OW16924   3.448   4.359  13.128 -0.2212 -0.3206 -0.7146
 1822SOL    HW116925   3.416   4.415  13.199 -0.5090  0.0787 -1.1596
 1822SOL    HW216926   3.489   4.424  13.071 -0.2428 -0.0744 -0.4457
 1823SOL     OW16927   4.168   3.459  12.155 -0.0419 -0.7132 -0.2901
 1823SOL    HW116928   4.110   3.388  12.126 -1.6303  0.9493 -1.1601
 1823SOL    HW216929   4.253   3.432  12.120 -0.0247 -0.3151 -0.5491
 1824SOL     OW16930   0.669   1.493   4.124 -0.2098 -0.0864 -0.2890
 1824SOL    HW116931   0.724   1.570   4.111  0.1136 -0.2464  0.1184
 1824SOL    HW216932   0.730   1.432   4.166 -0.8325  0.4510  1.4060
 1825SOL     OW16933   2.527   2.454   5.123  0.4346  0.0230  0.1513
 1825SOL    HW116934   2.525   2.534   5.069 -0.2891 -0.3691 -0.4074
 1825SOL    HW216935   2.596   2.404   5.080  0.6630  0.6915 -0.2660
 1826SOL     OW16936   0.356   0.153   9.860  0.1067 -0.6542  0.0755
 1826SOL    HW116937   0.296   0.158   9.786 -1.0635  0.1253  1.0757
 1826SOL    HW216938   0.413   0.227   9.842 -0.7514  0.0242  0.1588
 1827SOL     OW16939   2.854   2.466   1.586 -0.5692  0.5807 -0.5744
 1827SOL    HW116940   2.887   2.444   1.499  0.3675  0.7984 -0.2665
 1827SOL    HW216941   2.828   2.554   1.560  1.0281  1.0544 -0.5437
 1828SOL     OW16942   1.936   2.380   4.357  0.8931  0.0436  0.7400
 1828SOL    HW116943   1.939   2.288   4.380  3.2200 -0.1908 -0.4846
 1828SOL    HW216944   1.999   2.408   4.423 -0.5541 -1.6284  2.8091
 1829SOL     OW16945   2.085   1.188   3.557 -0.6875  0.2253 -0.2488
 1829SOL    HW116946   2.161   1.204   3.613 -1.0093 -0.2277  0.3146
 1829SOL    HW216947   2.076   1.270   3.507 -2.0503 -0.2755 -0.8061
 1830SOL     OW16948   0.404   2.148   4.901 -0.4619 -0.3288 -0.2357
 1830SOL    HW116949   0.313   2.162   4.927  0.8842 -1.8548  5.3090
 1830SOL    HW216950   0.439   2.130   4.988  0.8366 -1.6525 -1.0378
 1831SOL     OW16951   1.582   2.251   1.091  0.1594 -0.4138 -0.2406
 1831SOL    HW116952   1.571   2.162   1.123 -1.5502  0.2428  0.9874
 1831SOL    HW216953   1.586   2.240   0.996  0.4196 -0.2167 -0.2519
 1832SOL     OW16954   1.232   0.954  11.996  0.3653  0.4236  0.1334
 1832SOL    HW116955   1.315   0.935  12.040 -1.6493  0.2687  3.8513
 1832SOL    HW216956   1.190   0.980  12.078 -1.3315 -0.0509 -0.5850
 1833SOL     OW16957   4.108   3.615   3.802 -0.4148  0.0595  0.3676
 1833SOL    HW116958   4.025   3.599   3.846 -1.3561  1.7462 -0.8083
 1833SOL    HW216959   4.084   3.588   3.713  0.1770 -1.0064  0.5292
 1834SOL     OW16960   3.695   3.818   2.784  0.0908 -0.5631 -0.6070
 1834SOL    HW116961   3.733   3.893   2.829  0.4019 -0.6878 -0.6623
 1834SOL    HW216962   3.769   3.787   2.733  0.5857 -0.0365 -0.2035
 1835SOL     OW16963   0.312   2.667   6.286  0.5434 -0.2284  0.2994
 1835SOL    HW116964   0.373   2.730   6.247  0.9288  1.0101  2.9640
 1835SOL    HW216965   0.263   2.713   6.354 -1.0823 -2.3214  0.5328
 1836SOL     OW16966   0.913   2.691   7.305 -0.5563 -0.4900  0.0779
 1836SOL    HW116967   0.890   2.600   7.328 -3.9049  0.1402 -0.6777
 1836SOL    HW216968   0.987   2.713   7.361 -0.0209  0.0582 -0.8690
 1837SOL     OW16969   1.639   2.860   9.896 -0.2328 -0.2875 -0.0414
 1837SOL    HW116970   1.564   2.887   9.842 -2.1512 -1.2072  2.1871
 1837SOL    HW216971   1.602   2.778   9.929  0.3022 -1.2049 -1.6646
 1838SOL     OW16972   2.065   2.519   8.748 -0.2817  0.1630  0.2948
 1838SOL    HW116973   2.042   2.550   8.835 -1.1447  1.6915 -0.4716
 1838SOL    HW216974   2.027   2.584   8.689 -1.9069 -0.3776  0.7378
 1839SOL     OW16975   0.397   0.967   4.733  0.4196 -0.0328 -0.4484
 1839SOL    HW116976   0.471   0.987   4.791  0.7487 -1.2346 -0.4487
 1839SOL    HW216977   0.330   1.014   4.783  0.8163  1.7314 -1.5418
 1840SOL     OW16978   1.590   3.034   1.603  0.3860 -0.2190 -0.3664
 1840SOL    HW116979   1.599   3.129   1.610  0.2381  0.0405 -3.7421
 1840SOL    HW216980   1.500   3.022   1.572  1.1505  0.2646 -2.7508
 1841SOL     OW16981   3.607   4.209   2.984 -0.0029  0.1661  0.5992
 1841SOL    HW116982   3.665   4.137   3.008  1.2738  1.1933  0.6403
 1841SOL    HW216983   3.540   4.159   2.939 -0.6312 -0.3264  2.0981
 1842SOL     OW16984   4.629   1.052   0.953 -0.3846 -0.0081  0.2225
 1842SOL    HW116985   4.567   1.125   0.940  0.3906  0.4059 -1.1567
 1842SOL    HW216986   4.710   1.089   0.987  0.9285 -1.1745 -1.6347
 1843SOL     OW16987   3.964   1.336   3.958  0.7196  0.3396  0.9886
 1843SOL    HW116988   4.023   1.266   3.984  0.8615 -0.6469 -1.9821
 1843SOL    HW216989   4.027   1.405   3.939  0.4004  0.7482  1.4272
 1844SOL     OW16990   0.427   0.769   2.727 -0.3240 -0.3585  0.7244
 1844SOL    HW116991   0.340   0.804   2.707  0.4323  0.7082 -0.6812
 1844SOL    HW216992   0.465   0.768   2.639  0.8558  1.2707  1.2144
 1845SOL     OW16993   4.095   4.348   6.874  1.3007 -0.1966  0.4982
 1845SOL    HW116994   4.053   4.292   6.808 -0.1711  1.6080 -0.1185
 1845SOL    HW216995   4.189   4.348   6.857  0.9372 -0.1685 -1.5207
 1846SOL     OW16996   3.149   1.725   8.597 -0.1994 -0.3146 -0.4012
 1846SOL    HW116997   3.062   1.702   8.630 -0.1356  0.2835  0.1748
 1846SOL    HW216998   3.191   1.641   8.619 -0.0938 -0.1801 -0.0834
 1847SOL     OW16999   0.531   0.049   4.100  0.2031 -0.2025  0.3638
 1847SOL    HW117000   0.499   0.047   4.009  1.7548 -0.3482 -0.1884
 1847SOL    HW217001   0.476   4.707   4.144 -1.4669  1.0894  0.1352
 1848SOL     OW17002   3.355   3.156   2.660 -0.4225  0.3810  0.2335
 1848SOL    HW117003   3.264   3.179   2.675 -0.3951 -0.6237  1.9438
 1848SOL    HW217004   3.405   3.201   2.729 -0.5344 -1.9274  1.8016
 1849SOL     OW17005   0.884   0.577   3.060 -0.1631  0.6548 -0.0209
 1849SOL    HW117006   0.927   0.565   2.975  0.2051 -1.6080  0.4881
 1849SOL    HW217007   0.887   0.670   3.082  0.6723  0.3957  0.9606
 1850SOL     OW17008   4.127   0.323   5.241 -0.3090 -0.4344  0.1722
 1850SOL    HW117009   4.046   0.369   5.217 -0.4499 -0.1719  1.1633
 1850SOL    HW217010   4.102   0.307   5.332 -1.5946 -2.2080 -0.4892
 1851SOL     OW17011   4.322   3.654   1.387 -0.0699 -0.1870 -0.0805
 1851SOL    HW117012   4.279   3.635   1.470 -1.4460 -1.2787 -1.0409
 1851SOL    HW217013   4.255   3.641   1.319 -0.5885 -0.4220  0.4787
 1852SOL     OW17014   4.081   2.394  10.332 -0.0549  0.3184  0.2281
 1852SOL    HW117015   4.080   2.389  10.236 -1.1691  1.6364  0.1544
 1852SOL    HW217016   3.988   2.410  10.349  0.0712 -1.3331  2.3324
 1853SOL     OW17017   3.463   4.408   0.001 -0.6306  0.4886 -0.7593
 1853SOL    HW117018   3.528   4.339   0.016 -3.0023 -1.2512  1.4968
 1853SOL    HW217019   3.498   4.452  17.615  0.1366  1.5186  0.1718
 1854SOL     OW17020   3.746   2.736   6.239 -0.0674 -0.1461 -0.2675
 1854SOL    HW117021   3.753   2.830   6.219  0.1107 -0.1011  0.0002
 1854SOL    HW217022   3.652   2.722   6.225 -0.2667  0.3264  0.5938
 1855SOL     OW17023   0.403   1.636   8.727  0.5942  0.2972  0.0302
 1855SOL    HW117024   0.497   1.644   8.743  0.9051  1.0918 -2.1744
 1855SOL    HW217025   0.363   1.652   8.812  0.7991  2.3505 -0.2649
 1856SOL     OW17026   1.435   0.009   8.840 -0.3326  0.2153 -0.0884
 1856SOL    HW117027   1.342   0.018   8.820 -0.6790  0.0553  1.3814
 1856SOL    HW217028   1.462   4.667   8.775 -4.5325 -1.0292 -0.5710
 1857SOL     OW17029   3.357   2.920   3.700 -0.7872 -0.1424  0.0103
 1857SOL    HW117030   3.420   2.856   3.732 -0.4164  0.3173  0.1900
 1857SOL    HW217031   3.274   2.873   3.693 -0.7462 -0.4987  1.9609
 1858SOL     OW17032   4.078   0.743   6.006  0.5625 -0.0853 -0.0238
 1858SOL    HW117033   4.082   0.761   6.100  0.4708 -2.8802  0.5125
 1858SOL    HW217034   4.036   0.823   5.975 -0.3424  0.0417  1.5626
 1859SOL     OW17035   1.765   3.694  11.951 -0.2633 -0.2800  0.1766
 1859SOL    HW117036   1.761   3.675  11.857 -1.1399  2.5891 -0.3630
 1859SOL    HW217037   1.732   3.611  11.985  2.6449 -1.1309  0.9745
 1860SOL     OW17038   1.736   2.281  16.263 -0.2697 -0.0974  0.3838
 1860SOL    HW117039   1.758   2.276  16.170 -1.1658  0.6427  0.1382
 1860SOL    HW217040   1.798   2.353  16.278  2.5200 -2.8520  2.3416
 1861SOL     OW17041   3.618   4.006   9.610  0.6134 -0.5981 -0.5512
 1861SOL    HW117042   3.532   3.966   9.622  1.0481 -1.0128  1.1961
 1861SOL    HW217043   3.637   4.054   9.691  2.7162 -1.0873 -0.7513
 1862SOL     OW17044   2.139   0.262  10.807  0.5851  0.0096 -0.5061
 1862SOL    HW117045   2.047   0.234  10.809  0.6785 -0.2897 -0.2913
 1862SOL    HW217046   2.151   0.283  10.715 -0.5971 -0.0198 -0.6662
 1863SOL     OW17047   2.397   0.973   4.789  0.4713  0.1797 -0.6649
 1863SOL    HW117048   2.437   1.018   4.864 -1.0340  0.0672  0.2160
 1863SOL    HW217049   2.333   1.035   4.753  0.7812  0.9178  0.0532
 1864SOL     OW17050   3.955   2.758   7.717  0.0567 -0.0135 -0.4787
 1864SOL    HW117051   3.934   2.846   7.684  0.1141  0.5569  0.9746
 1864SOL    HW217052   3.951   2.768   7.813 -1.2375  0.8936 -0.6280
 1865SOL     OW17053   2.242   2.643  16.607  0.3249 -0.7164 -0.0914
 1865SOL    HW117054   2.205   2.664  16.693  2.4115  0.2996  0.5430
 1865SOL    HW217055   2.168   2.661  16.549 -0.1989  0.2692  0.8800
 1866SOL     OW17056   0.489   3.812   7.788 -0.0977  1.1010  0.0924
 1866SOL    HW117057   0.411   3.757   7.788  0.2135  0.6619 -0.6623
 1866SOL    HW217058   0.453   3.892   7.825 -1.0076  0.3559  0.8305
 1867SOL     OW17059   0.047   2.004   6.930 -0.2982 -0.1930  0.1152
 1867SOL    HW117060   0.046   2.099   6.941 -0.1565 -0.3512  1.4021
 1867SOL    HW217061   4.719   1.994   7.010  2.9430 -1.4931  1.9797
 1868SOL     OW17062   1.901   1.211   6.285 -0.3190  0.2161  0.2077
 1868SOL    HW117063   1.928   1.301   6.269  3.2035 -0.8403  0.3412
 1868SOL    HW217064   1.970   1.155   6.250 -0.4347 -0.4448  1.0607
 1869SOL     OW17065   3.355   3.784  13.641 -0.9977 -0.0128  0.2403
 1869SOL    HW117066   3.442   3.767  13.604 -0.8069  0.5110  0.4401
 1869SOL    HW217067   3.375   3.853  13.704  2.3934 -0.3986 -0.4487
 1870SOL     OW17068   1.829   2.181   1.213  0.2727 -0.0045 -0.0882
 1870SOL    HW117069   1.748   2.221   1.183  0.0405  0.5072  1.1896
 1870SOL    HW217070   1.814   2.093   1.177 -1.6417 -0.7036  2.3576
 1871SOL     OW17071   0.546   3.421   2.656 -0.3546 -0.1454 -0.2155
 1871SOL    HW117072   0.473   3.360   2.657 -0.7815  0.3648 -0.1002
 1871SOL    HW217073   0.616   3.358   2.639  0.8025  0.8169  0.9603
 1872SOL     OW17074   3.585   3.632   8.798 -0.2905  0.3582  0.1059
 1872SOL    HW117075   3.646   3.561   8.818 -0.6565  0.5528  1.9495
 1872SOL    HW217076   3.581   3.645   8.704 -3.2521 -0.4990  0.0841
 1873SOL     OW17077   0.364   2.516   7.056  1.2704  0.2033 -0.5052
 1873SOL    HW117078   0.359   2.538   6.963  1.8622  1.3608 -0.2670
 1873SOL    HW217079   0.383   2.422   7.052  1.8848  0.3730 -1.4881
 1874SOL     OW17080   0.435   4.523   7.037 -0.2925  0.0349 -0.0813
 1874SOL    HW117081   0.426   4.454   7.103  0.9749  1.3002  1.4097
 1874SOL    HW217082   0.398   4.478   6.961 -0.5102  2.0370 -1.1625
 1875SOL     OW17083   4.551   1.894   0.597  0.1058  0.2960 -0.7899
 1875SOL    HW117084   4.577   1.806   0.570  2.2644  1.6135 -2.9877
 1875SOL    HW217085   4.628   1.944   0.571  1.8307 -0.9228  1.8878
 1876SOL     OW17086   4.056   2.298   7.883  0.1524 -0.0598  0.0686
 1876SOL    HW117087   3.991   2.363   7.857  0.3198 -0.4687 -1.3746
 1876SOL    HW217088   4.082   2.250   7.804 -1.9368  0.5773 -1.0227
 1877SOL     OW17089   3.389   2.256   2.380  0.3258  0.5985  0.2938
 1877SOL    HW117090   3.472   2.226   2.417 -1.1184 -1.1389  2.1162
 1877SOL    HW217091   3.353   2.311   2.449 -1.2781 -0.4230  0.2654
 1878SOL     OW17092   0.597   1.990   9.210  0.4474 -0.2204  0.7605
 1878SOL    HW117093   0.523   2.028   9.163 -0.8484 -0.5175  2.5899
 1878SOL    HW217094   0.633   1.926   9.149 -1.4111  0.3814 -0.9412
 1879SOL     OW17095   2.450   0.551  10.147  0.5246 -0.1852 -0.2816
 1879SOL    HW117096   2.452   0.497  10.226  0.1971 -2.3067 -1.7131
 1879SOL    HW217097   2.434   0.636  10.188  0.5919  0.5911 -1.8571
 1880SOL     OW17098   3.858   4.487   0.008 -0.5499 -0.3324  0.5343
 1880SOL    HW117099   3.876   4.393   0.012 -0.8148 -0.3970  0.1244
 1880SOL    HW217100   3.868   4.525   0.096 -0.5607  0.4013  0.2175
 1881SOL     OW17101   0.695   4.119   7.365 -0.0015  0.3578 -0.0292
 1881SOL    HW117102   0.608   4.081   7.377 -0.1423  0.7734  0.2517
 1881SOL    HW217103   0.697   4.174   7.443 -3.5770  0.1950  0.1834
 1882SOL     OW17104   1.568   3.495   1.930 -0.1763 -0.0059 -0.2445
 1882SOL    HW117105   1.621   3.433   1.881  1.2215  0.3367  0.8227
 1882SOL    HW217106   1.632   3.566   1.926  1.1583 -1.2652 -0.9764
 1883SOL     OW17107   0.173   4.064   3.748 -0.0075 -0.1131 -0.1629
 1883SOL    HW117108   0.088   4.045   3.788 -0.2336  1.8452  0.2735
 1883SOL    HW217109   0.163   4.159   3.751  1.7776  0.1601 -2.6076
 1884SOL     OW17110   4.287   0.187   7.203  0.3947  0.3439 -0.1963
 1884SOL    HW117111   4.250   0.114   7.252 -1.2127  1.6763  0.5359
 1884SOL    HW217112   4.303   0.254   7.269 -2.2655  0.2765  0.5120
 1885SOL     OW17113   0.506   4.470  17.495 -0.2696 -0.8259 -0.2855
 1885SOL    HW117114   0.514   4.426  17.580 -0.1165 -1.1652 -0.4778
 1885SOL    HW217115   0.588   4.520  17.489  0.1131 -1.5667 -1.1985
 1886SOL     OW17116   3.930   1.847   3.870  0.1070 -0.1286  0.1344
 1886SOL    HW117117   4.017   1.844   3.830  1.6145  1.5645  3.2204
 1886SOL    HW217118   3.908   1.938   3.890 -0.5489 -0.0493 -0.9620
 1887SOL     OW17119   0.102   1.599   2.774 -0.2843  0.3979 -0.2639
 1887SOL    HW117120   0.010   1.590   2.751  0.2947 -1.1559 -1.9308
 1887SOL    HW217121   0.092   1.645   2.857 -1.1872  0.4331 -0.3883
 1888SOL     OW17122   1.958   4.656  14.996 -0.6037 -0.2514  0.5925
 1888SOL    HW117123   1.954   4.683  14.904  2.1206  0.0069  0.5567
 1888SOL    HW217124   1.866   4.634  15.007 -0.3824 -1.5592 -0.1622
 1889SOL     OW17125   3.797   3.235  15.229 -0.1735 -0.5421 -0.3098
 1889SOL    HW117126   3.706   3.240  15.198  0.2072  2.2298 -1.0106
 1889SOL    HW217127   3.827   3.308  15.175 -1.3618 -1.4884 -2.2792
 1890SOL     OW17128   2.920   3.163   6.915 -0.1660  0.0128  0.0427
 1890SOL    HW117129   2.880   3.245   6.943  0.9876 -0.2570  2.5639
 1890SOL    HW217130   2.849   3.101   6.932  0.5317 -0.2913  1.8784
 1891SOL     OW17131   3.281   2.219   0.068 -0.1345 -0.5248  0.3707
 1891SOL    HW117132   3.316   2.253   0.150 -1.1054  2.9257 -0.6249
 1891SOL    HW217133   3.337   2.271   0.010 -2.0777 -1.9317 -2.8132
 1892SOL     OW17134   3.419   2.922   1.935 -0.0141 -0.2571  0.5514
 1892SOL    HW117135   3.446   2.834   1.907  0.3189  0.2446 -0.6882
 1892SOL    HW217136   3.344   2.933   1.876  0.5906 -3.6756 -0.8853
 1893SOL     OW17137   4.263   2.474  13.935  0.3315 -0.3989 -0.0010
 1893SOL    HW117138   4.318   2.552  13.933 -0.5873  0.2446  0.0494
 1893SOL    HW217139   4.190   2.517  13.892  1.1320  0.5993 -0.3385
 1894SOL     OW17140   0.261   0.782   7.700 -0.3182 -0.5577  0.4682
 1894SOL    HW117141   0.351   0.806   7.679 -0.2655  1.0840  2.5619
 1894SOL    HW217142   0.264   0.777   7.796 -0.3547  2.3412  0.6228
 1895SOL     OW17143   4.648   0.302  15.631 -0.3188  0.2134 -0.6836
 1895SOL    HW117144   4.661   0.374  15.569 -1.9965  1.0178 -0.0992
 1895SOL    HW217145   4.688   0.237  15.572 -1.1145 -2.0991  1.3441
 1896SOL     OW17146   4.609   0.460   2.997 -0.2491  0.1080 -0.3618
 1896SOL    HW117147   4.515   0.446   3.005  0.1181 -1.5159  1.0579
 1896SOL    HW217148   4.607   0.522   2.923 -0.9649  1.0986  0.4879
 1897SOL     OW17149   0.716   1.356   6.880  0.3102 -0.3699 -0.1383
 1897SOL    HW117150   0.633   1.309   6.877  0.2829 -0.3209 -0.1660
 1897SOL    HW217151   0.746   1.327   6.965  1.2528 -0.7521 -0.6062
 1898SOL     OW17152   3.145   3.527   7.842 -0.1582 -0.0449 -0.0311
 1898SOL    HW117153   3.230   3.566   7.864 -0.2142 -0.2156  0.4847
 1898SOL    HW217154   3.084   3.584   7.889 -1.7842 -0.6681 -1.3857
 1899SOL     OW17155   1.745   1.856   7.795 -0.3086 -0.1119 -0.1916
 1899SOL    HW117156   1.821   1.810   7.831  0.6583  0.3959 -1.5798
 1899SOL    HW217157   1.786   1.877   7.711  1.1857  0.3093  0.6386
 1900SOL     OW17158   1.955   4.369   6.777 -0.1358 -0.7332  0.2471
 1900SOL    HW117159   2.008   4.360   6.857 -2.2686 -0.0469  1.7505
 1900SOL    HW217160   1.866   4.355   6.808 -0.4630 -0.7928 -0.7300
 1901SOL     OW17161   2.455   0.085  13.572  0.0603 -0.2497 -0.1002
 1901SOL    HW117162   2.474   0.030  13.496 -0.6235  0.3060 -0.6765
 1901SOL    HW217163   2.493   0.169  13.546  0.3745  0.4499  2.6513
 1902SOL     OW17164   3.456   2.407   5.526 -0.4256 -0.5612  0.3240
 1902SOL    HW117165   3.418   2.321   5.509 -1.4550  0.1940 -1.1888
 1902SOL    HW217166   3.494   2.423   5.440  1.2250 -1.4599  0.8759
 1903SOL     OW17167   4.575   3.036   0.705  0.2053 -0.6032 -0.3490
 1903SOL    HW117168   4.549   2.967   0.644 -1.0204  0.5222 -1.0871
 1903SOL    HW217169   4.663   3.016   0.737 -0.3329 -0.9105  0.9309
 1904SOL     OW17170   1.414   1.848   7.187  0.2683 -0.2049  0.0797
 1904SOL    HW117171   1.484   1.785   7.170  0.2179 -0.3539  0.4268
 1904SOL    HW217172   1.349   1.781   7.207  0.5512 -0.6842 -0.6000
 1905SOL     OW17173   4.518   2.604  14.457 -0.3634 -1.0109  0.2793
 1905SOL    HW117174   4.462   2.609  14.379  1.9924  0.4579 -1.3087
 1905SOL    HW217175   4.551   2.694  14.462 -1.6675 -0.5445  0.5377
 1906SOL     OW17176   0.049   3.086   2.557  0.0029  0.2775 -0.1733
 1906SOL    HW117177   0.014   3.153   2.499 -0.2139  2.1648  2.1342
 1906SOL    HW217178   0.112   3.041   2.501  1.8395  2.9837 -0.3188
 1907SOL     OW17179   0.493   4.261   0.010 -0.0205 -0.1761 -0.3780
 1907SOL    HW117180   0.492   4.294   0.100  0.1581 -0.3196 -0.3243
 1907SOL    HW217181   0.510   4.170   0.034  3.2080 -0.4827 -3.8246
 1908SOL     OW17182   0.173   0.952  16.036 -0.4377 -0.6062 -0.0618
 1908SOL    HW117183   0.155   0.875  16.090  0.4802 -1.4054 -0.9121
 1908SOL    HW217184   0.264   0.975  16.055 -0.6533 -1.4580  2.0147
 1909SOL     OW17185   4.126   4.511   7.092 -0.1669  0.3784 -0.4654
 1909SOL    HW117186   4.101   4.441   7.032 -0.5984 -0.0801  0.2456
 1909SOL    HW217187   4.056   4.574   7.076  1.0744  2.3092  1.8207
 1910SOL     OW17188   3.433   2.856   1.531  0.3187 -0.1197 -0.2598
 1910SOL    HW117189   3.464   2.946   1.537 -1.9706  0.6767 -0.1150
 1910SOL    HW217190   3.341   2.861   1.558  0.3048 -0.1574 -0.3003
 1911SOL     OW17191   4.454   3.558   0.550 -0.4269  0.4235  0.4105
 1911SOL    HW117192   4.397   3.575   0.625  0.4159  1.6422  0.7670
 1911SOL    HW217193   4.391   3.523   0.487  0.5238 -1.2776  0.4079
 1912SOL     OW17194   4.544   3.451   7.468 -0.1557  0.2447  0.2980
 1912SOL    HW117195   4.599   3.477   7.394 -1.6715  3.3202  0.2743
 1912SOL    HW217196   4.474   3.512   7.446  0.2082  1.3114  2.1081
 1913SOL     OW17197   3.386   2.166  16.303  0.2690 -0.3127  0.4595
 1913SOL    HW117198   3.302   2.199  16.270  0.7085  0.2068 -0.1472
 1913SOL    HW217199   3.381   2.072  16.290  0.8155 -0.0081 -1.9885
 1914SOL     OW17200   0.533   2.550   9.317 -0.4436  0.0167 -0.4161
 1914SOL    HW117201   0.484   2.611   9.372  2.6623  0.3169  2.0059
 1914SOL    HW217202   0.487   2.560   9.233 -0.1261  0.5788 -0.5277
 1915SOL     OW17203   0.757   2.976   2.751  0.4665 -0.0270 -0.4550
 1915SOL    HW117204   0.850   2.951   2.746  0.2411 -1.0172  0.2949
 1915SOL    HW217205   0.726   2.906   2.808  0.6502  0.5252  0.3263
 1916SOL     OW17206   4.435   4.267  17.478  0.3381 -0.0458  0.4007
 1916SOL    HW117207   4.462   4.347  17.522  1.4399 -0.5629  0.6537
 1916SOL    HW217208   4.341   4.259  17.498  0.7730 -1.4389  1.9362
 1917SOL     OW17209   0.338   1.473   5.151  0.0039  0.2261 -0.4370
 1917SOL    HW117210   0.415   1.417   5.143 -0.8276 -1.4654  3.0787
 1917SOL    HW217211   0.309   1.484   5.060  0.5210 -0.6684 -0.7104
 1918SOL     OW17212   2.841   1.098   5.852 -0.0199 -0.4554 -0.2396
 1918SOL    HW117213   2.876   1.053   5.929 -2.4130 -0.2878  0.9170
 1918SOL    HW217214   2.904   1.168   5.833 -0.0573  0.0334  1.4656
 1919SOL     OW17215   1.365   0.363   6.591  0.2971 -0.1693  0.0845
 1919SOL    HW117216   1.357   0.295   6.525 -1.0687  0.9207 -0.8792
 1919SOL    HW217217   1.294   0.424   6.568  0.1556  0.1906  1.4748
 1920SOL     OW17218   4.203   0.650   2.685  0.1183  0.6436 -0.4962
 1920SOL    HW117219   4.120   0.694   2.666 -0.0056  0.3965 -0.5217
 1920SOL    HW217220   4.233   0.697   2.763 -1.4205 -0.8942  1.0249
 1921SOL     OW17221   0.768   3.620   9.408 -0.3398 -0.0911  0.1253
 1921SOL    HW117222   0.753   3.685   9.476  0.3124 -0.8199  0.9739
 1921SOL    HW217223   0.861   3.640   9.399 -1.4873  2.6250 -5.5684
 1922SOL     OW17224   1.765   2.542   2.850  0.0190 -0.0042  0.1327
 1922SOL    HW117225   1.833   2.589   2.803 -1.1750  0.8760 -0.7002
 1922SOL    HW217226   1.707   2.613   2.877  1.9576  0.6238  2.6683
 1923SOL     OW17227   0.215   2.223   6.762 -0.1494 -0.1803 -0.0992
 1923SOL    HW117228   0.154   2.270   6.818 -1.7300 -2.5379  0.1687
 1923SOL    HW217229   0.165   2.227   6.680 -1.4629  0.6286  0.7513
 1924SOL     OW17230   2.644   2.173  13.048  0.5747  0.1218  0.2621
 1924SOL    HW117231   2.616   2.264  13.052 -1.1368 -0.4422  1.1160
 1924SOL    HW217232   2.710   2.167  12.978 -0.8072  1.6280 -1.1650
 1925SOL     OW17233   1.307   3.188   3.899 -0.4458 -0.3349  0.1573
 1925SOL    HW117234   1.218   3.156   3.916 -0.2698  0.2470  2.1659
 1925SOL    HW217235   1.339   3.127   3.832 -0.1180 -1.1291  1.0528
 1926SOL     OW17236   3.636   2.150  10.720 -0.3555 -0.7670  0.3791
 1926SOL    HW117237   3.673   2.134  10.806 -1.4581 -2.1641  0.5987
 1926SOL    HW217238   3.550   2.184  10.743 -0.4215 -1.0838  0.6055
 1927SOL     OW17239   1.303   0.473   8.275  0.4856  0.6377 -0.0546
 1927SOL    HW117240   1.368   0.499   8.211  1.3979 -2.3751 -0.3389
 1927SOL    HW217241   1.348   0.399   8.317  0.7308  0.3968 -0.7365
 1928SOL     OW17242   0.481   2.703   1.566  0.1542 -0.1264 -0.8066
 1928SOL    HW117243   0.391   2.710   1.598  0.4955  1.4611 -0.2249
 1928SOL    HW217244   0.521   2.676   1.649 -1.2407  2.1494  0.5885
 1929SOL     OW17245   1.500   0.879   2.516 -0.2093 -0.2687  0.0311
 1929SOL    HW117246   1.505   0.964   2.473 -3.4165  0.1003  0.3805
 1929SOL    HW217247   1.434   0.828   2.469  0.0589 -2.4236  1.9353
 1930SOL     OW17248   1.848   0.311   2.175  0.6413  0.0904 -0.4359
 1930SOL    HW117249   1.830   0.270   2.091 -1.1829  1.2791 -0.6217
 1930SOL    HW217250   1.939   0.341   2.167  0.7439  0.2812  1.4746
 1931SOL     OW17251   0.049   2.340   4.596  0.5365 -0.3534 -0.0304
 1931SOL    HW117252   0.115   2.399   4.633 -0.5601  2.4424 -2.4984
 1931SOL    HW217253   0.066   2.349   4.502  0.0275 -0.9341 -0.1795
 1932SOL     OW17254   0.755   4.183   6.248  0.4184 -0.2756  0.0197
 1932SOL    HW117255   0.830   4.147   6.296 -1.8015  0.2761  3.9333
 1932SOL    HW217256   0.802   4.257   6.211 -2.3505  1.3212 -0.2819
 1933SOL     OW17257   0.168   2.244   5.705  0.3263 -0.1329  0.7452
 1933SOL    HW117258   0.158   2.256   5.800 -1.8914 -0.6319  0.5668
 1933SOL    HW217259   0.127   2.158   5.696  0.9099 -0.4927  1.5215
 1934SOL     OW17260   3.776   1.764   3.270  0.1410  0.1485  0.6102
 1934SOL    HW117261   3.781   1.859   3.275 -1.8935  0.3435 -0.8953
 1934SOL    HW217262   3.682   1.747   3.265  0.6649 -2.2157 -1.5452
 1935SOL     OW17263   1.383   1.177   9.137 -0.3209  0.2059  0.7292
 1935SOL    HW117264   1.302   1.226   9.121 -1.0512 -0.5039  2.2132
 1935SOL    HW217265   1.414   1.163   9.048  0.4018  0.7554  0.8983
 1936SOL     OW17266   1.654   4.173   4.002  0.0339  0.5053  0.0055
 1936SOL    HW117267   1.567   4.193   4.038 -0.4038  2.2314 -1.9985
 1936SOL    HW217268   1.688   4.262   3.993  1.4257 -0.2083 -1.7057
 1937SOL     OW17269   2.320   2.068   6.427 -0.0639 -0.0832  0.2683
 1937SOL    HW117270   2.280   1.982   6.418  0.0086  0.0825 -1.5685
 1937SOL    HW217271   2.347   2.068   6.519  0.5199  1.3240  0.1055
 1938SOL     OW17272   2.884   4.153  16.494 -0.4068  0.3343 -0.2559
 1938SOL    HW117273   2.914   4.170  16.584 -1.7756 -3.0806  0.8811
 1938SOL    HW217274   2.799   4.112  16.511  0.5414 -1.4589  0.1669
 1939SOL     OW17275   2.693   1.238   2.948 -0.4227 -0.1800  0.0022
 1939SOL    HW117276   2.722   1.256   3.038  0.1400  0.2266 -0.2590
 1939SOL    HW217277   2.730   1.151   2.932  2.4045  1.2098 -1.0967
 1940SOL     OW17278   2.591   1.255   3.456 -0.4003 -0.4384 -0.0952
 1940SOL    HW117279   2.572   1.168   3.489 -0.9280 -0.1945  0.2415
 1940SOL    HW217280   2.548   1.308   3.524 -2.1994 -0.7262 -1.0137
 1941SOL     OW17281   3.902   2.645   5.068 -0.1928 -0.0526  0.1934
 1941SOL    HW117282   3.931   2.736   5.069 -1.3189  0.3121  0.8129
 1941SOL    HW217283   3.936   2.621   5.154 -1.1824  2.2721  1.2357
 1942SOL     OW17284   2.894   4.337   4.998 -0.7259  0.6552 -0.0604
 1942SOL    HW117285   2.892   4.284   4.918 -3.4642  0.5779  0.0639
 1942SOL    HW217286   2.811   4.382   4.979 -0.0685  1.0998 -1.8775
 1943SOL     OW17287   1.200   1.523  14.916  0.2077 -0.7077  0.3200
 1943SOL    HW117288   1.279   1.565  14.882 -1.0472  1.3142 -0.1656
 1943SOL    HW217289   1.134   1.580  14.875 -0.5356 -2.9111 -1.5613
 1944SOL     OW17290   1.725   3.888   4.207 -0.0061  0.6226 -0.4038
 1944SOL    HW117291   1.715   3.824   4.136  0.5833  0.2912 -0.1952
 1944SOL    HW217292   1.756   3.836   4.282 -0.7275  2.2221  0.9891
 1945SOL     OW17293   0.941   0.372   6.653  0.2671  0.1222 -0.0850
 1945SOL    HW117294   1.017   0.317   6.633  1.1156  1.8473 -1.6106
 1945SOL    HW217295   0.872   0.306   6.650  0.9979 -0.6019 -0.9499
 1946SOL     OW17296   3.639   2.852   2.433  0.3829  0.8404 -0.6676
 1946SOL    HW117297   3.567   2.793   2.455  1.9979 -0.2152  1.8453
 1946SOL    HW217298   3.598   2.938   2.426  0.4497  1.0368  1.3843
 1947SOL     OW17299   0.703   1.478   6.229 -0.2670  0.0134 -0.1287
 1947SOL    HW117300   0.779   1.531   6.253 -0.8158  0.4224  0.7309
 1947SOL    HW217301   0.654   1.468   6.311  2.9866  2.5650  2.1684
 1948SOL     OW17302   0.728   2.613   8.293 -0.2753 -0.2393  0.5339
 1948SOL    HW117303   0.717   2.625   8.387  1.6182 -2.1994  1.0247
 1948SOL    HW217304   0.639   2.633   8.266 -0.9079  0.8701  3.5770
 1949SOL     OW17305   2.320   3.643   5.863  0.1158  0.6343  0.2532
 1949SOL    HW117306   2.257   3.652   5.934  0.3414  0.0535  0.5269
 1949SOL    HW217307   2.292   3.715   5.806 -0.6164  1.9092  2.2460
 1950SOL     OW17308   4.219   0.645   4.462  0.1078 -0.0014  0.6968
 1950SOL    HW117309   4.171   0.563   4.471  0.2361 -0.0768  0.6982
 1950SOL    HW217310   4.236   0.647   4.368  0.8420 -4.4375  0.7405
 1951SOL     OW17311   0.565   3.305   7.443 -0.3606 -0.2647 -0.0589
 1951SOL    HW117312   0.491   3.272   7.393 -0.4833 -0.5728  0.3291
 1951SOL    HW217313   0.622   3.229   7.434  0.1221  0.0405  0.4425
 1952SOL     OW17314   3.824   0.168  16.404 -0.0874 -0.5424  0.2811
 1952SOL    HW117315   3.903   0.221  16.419 -1.0009  0.8404  0.1717
 1952SOL    HW217316   3.766   0.207  16.469  0.9852  1.9851 -0.2912
 1953SOL     OW17317   0.986   2.317  12.188  0.3333 -0.4045 -0.3031
 1953SOL    HW117318   1.032   2.305  12.271  1.4816  0.8425 -0.7523
 1953SOL    HW217319   1.008   2.409  12.175 -1.5055  0.5010  3.1862
 1954SOL     OW17320   2.625   0.323   4.079 -0.1978 -0.4134 -0.0183
 1954SOL    HW117321   2.607   0.303   4.171  0.3611  1.3198  0.4829
 1954SOL    HW217322   2.613   0.418   4.077 -0.0624 -0.3913  0.2182
 1955SOL     OW17323   2.567   1.962   8.372  0.2037  0.2685 -0.3246
 1955SOL    HW117324   2.641   1.958   8.311  1.4186 -0.1715  1.1763
 1955SOL    HW217325   2.595   2.037   8.425  1.2470  0.8065 -1.6480
 1956SOL     OW17326   2.257   2.250   7.789  0.2394 -0.1645 -0.2140
 1956SOL    HW117327   2.162   2.259   7.793  0.3247 -0.1885  1.7454
 1956SOL    HW217328   2.282   2.299   7.868  0.1768  2.3627 -1.7493
 1957SOL     OW17329   4.133   1.406   9.675  0.1763 -0.0820  0.1285
 1957SOL    HW117330   4.223   1.392   9.706  1.0466  2.9708 -1.0762
 1957SOL    HW217331   4.087   1.418   9.758  2.1035 -2.7961  1.5959
 1958SOL     OW17332   0.772   2.621   0.878 -0.4740  0.2610 -0.1889
 1958SOL    HW117333   0.846   2.672   0.912  0.2713 -2.1220  1.7452
 1958SOL    HW217334   0.763   2.550   0.942 -0.7619  0.4591 -0.0088
 1959SOL     OW17335   2.985   2.406   6.709  0.0254 -0.4562 -0.0142
 1959SOL    HW117336   3.036   2.357   6.645 -0.5261  0.3204 -1.0378
 1959SOL    HW217337   3.022   2.369   6.789 -0.0711  0.8388  0.6298
 1960SOL     OW17338   2.111   4.678  15.551  0.1438 -0.0308  0.3231
 1960SOL    HW117339   2.163   4.645  15.623 -0.6572 -1.0720  0.4208
 1960SOL    HW217340   2.129   4.607  15.490 -0.7787 -1.0178  1.2066
 1961SOL     OW17341   3.930   4.436   8.532  0.0757  0.0068  0.8950
 1961SOL    HW117342   3.913   4.527   8.506  0.4792 -0.0630  0.3813
 1961SOL    HW217343   3.873   4.434   8.608 -0.5453 -2.0152  0.3657
 1962SOL     OW17344   3.069   4.607   8.092 -0.0686  0.1772  0.3414
 1962SOL    HW117345   3.091   4.520   8.127  1.6167  0.0875 -0.9322
 1962SOL    HW217346   3.144   4.664   8.111 -1.1774  1.4033  1.0297
 1963SOL     OW17347   1.003   2.763   7.745  0.8842 -0.0081  0.1863
 1963SOL    HW117348   1.014   2.679   7.700  0.3981  0.6448 -1.1457
 1963SOL    HW217349   1.093   2.779   7.775  1.9349 -1.6535 -2.0670
 1964SOL     OW17350   3.540   4.370   3.549  0.2603 -0.1086  0.5443
 1964SOL    HW117351   3.556   4.465   3.552  0.2717 -0.1198  0.8077
 1964SOL    HW217352   3.457   4.355   3.504  0.2356 -0.2731  0.6453
 1965SOL     OW17353   4.629   1.473   8.135  0.1031  0.1709  0.1291
 1965SOL    HW117354   4.671   1.555   8.110 -0.1268  0.6071  1.1864
 1965SOL    HW217355   4.583   1.449   8.054  0.1680 -2.8692  0.9960
 1966SOL     OW17356   2.918   0.857  11.931  0.6008  0.1799  0.7332
 1966SOL    HW117357   2.887   0.947  11.922  1.3047  0.4363  0.8921
 1966SOL    HW217358   2.845   0.802  11.904  0.6366 -0.8135  2.6457
 1967SOL     OW17359   1.519   0.712   6.547  0.1792 -0.0338 -0.5128
 1967SOL    HW117360   1.587   0.658   6.588 -0.9693  0.5755  2.2514
 1967SOL    HW217361   1.470   0.648   6.495 -1.2014  1.3331 -0.9012
 1968SOL     OW17362   0.047   1.960   2.350 -0.1562 -0.0916 -0.0396
 1968SOL    HW117363   0.048   1.963   2.255  1.3367 -1.3108 -0.0701
 1968SOL    HW217364   0.120   1.898   2.362 -0.5832 -0.7022 -0.5973
 1969SOL     OW17365   1.648   3.716   8.518 -0.0073 -0.0691  0.4608
 1969SOL    HW117366   1.611   3.771   8.587  2.2271  1.6760  0.2965
 1969SOL    HW217367   1.569   3.672   8.486 -0.6190  0.2692  1.5046
 1970SOL     OW17368   3.968   1.343  11.825  0.4776  0.3062  0.1512
 1970SOL    HW117369   3.881   1.351  11.864  0.5174  2.0816 -0.1320
 1970SOL    HW217370   4.020   1.282  11.876 -0.1662 -1.7228 -1.6162
 1971SOL     OW17371   3.735   0.792   2.253 -0.5021  0.3123  0.1481
 1971SOL    HW117372   3.728   0.887   2.257 -1.5635  0.2237  0.3035
 1971SOL    HW217373   3.642   0.779   2.234 -0.7967  0.9801  1.1577
 1972SOL     OW17374   1.753   1.539   2.640 -0.4250  0.0737  0.0051
 1972SOL    HW117375   1.724   1.463   2.689  2.8803 -2.2756 -1.6829
 1972SOL    HW217376   1.848   1.537   2.652 -0.3360 -0.2437 -0.7768
 1973SOL     OW17377   0.392   4.056   3.142  0.0494  0.6529  0.0672
 1973SOL    HW117378   0.471   4.017   3.106 -0.1378  0.6046 -0.2870
 1973SOL    HW217379   0.386   4.005   3.223  2.2189  0.0539 -0.1589
 1974SOL     OW17380   2.718   3.410  16.778 -0.0006  0.2416 -0.2083
 1974SOL    HW117381   2.665   3.469  16.832 -2.0049 -1.9076  0.1961
 1974SOL    HW217382   2.652   3.365  16.725  0.2940 -1.2685  0.7270
 1975SOL     OW17383   0.082   2.607  16.202  0.1775  0.0072 -0.2269
 1975SOL    HW117384   0.151   2.616  16.135  1.3845  1.5396  1.2340
 1975SOL    HW217385   0.002   2.620  16.152  0.3089 -2.1278 -1.0087
 1976SOL     OW17386   1.960   1.252  17.098 -0.2163  0.2407 -0.4969
 1976SOL    HW117387   2.012   1.221  17.172  0.6304  0.1092 -1.1451
 1976SOL    HW217388   1.964   1.174  17.043  1.3516  0.9971 -1.4726
 1977SOL     OW17389   1.875   0.910   0.847 -0.3570 -0.0014  0.0780
 1977SOL    HW117390   1.782   0.905   0.823 -0.5356  1.6021  0.4157
 1977SOL    HW217391   1.901   0.820   0.866 -0.4408 -0.1342 -0.4366
 1978SOL     OW17392   2.103   2.953   7.607  0.1389 -0.0943  1.0567
 1978SOL    HW117393   2.067   2.875   7.564 -1.0748  1.3820 -0.5753
 1978SOL    HW217394   2.192   2.938   7.577 -0.2061  1.1773 -0.6066
 1979SOL     OW17395   2.501   2.920   0.937 -0.4137 -0.1963  0.2732
 1979SOL    HW117396   2.432   2.977   0.903 -3.7922 -2.7589  2.7144
 1979SOL    HW217397   2.555   2.980   0.988 -2.1062  1.6672 -0.0976
 1980SOL     OW17398   3.570   1.800  16.527 -0.4591 -0.0353 -0.2668
 1980SOL    HW117399   3.516   1.880  16.530  1.7096  1.3675  1.0587
 1980SOL    HW217400   3.586   1.778  16.435 -2.0266  2.1840 -1.0862
 1981SOL     OW17401   3.745   4.379   4.226 -0.7945  0.4073 -0.2687
 1981SOL    HW117402   3.665   4.375   4.173 -1.4607  0.0555  0.7433
 1981SOL    HW217403   3.775   4.466   4.204  2.9415 -0.3479  1.9211
 1982SOL     OW17404   2.855   4.493   0.553  0.4228  0.8389 -0.1712
 1982SOL    HW117405   2.800   4.423   0.518 -0.3787  1.1779  0.4172
 1982SOL    HW217406   2.899   4.520   0.472  1.5551 -0.0673  0.1343
 1983SOL     OW17407   3.795   2.842   4.726  0.0891 -0.0908 -0.3116
 1983SOL    HW117408   3.816   2.817   4.816  0.9396  1.2041 -0.1573
 1983SOL    HW217409   3.882   2.827   4.689 -0.9141 -0.6717 -2.4231
 1984SOL     OW17410   3.432   1.329  10.738  0.0904 -0.2658 -0.1273
 1984SOL    HW117411   3.419   1.296  10.827 -2.5635 -1.1472 -0.8443
 1984SOL    HW217412   3.499   1.265  10.712  0.2596 -0.3375  0.4720
 1985SOL     OW17413   0.449   2.776   7.557 -0.0171 -0.5885 -0.6034
 1985SOL    HW117414   0.516   2.826   7.604 -1.1515 -1.1991  1.6875
 1985SOL    HW217415   0.445   2.707   7.624  2.2530  2.2267  2.4507
 1986SOL     OW17416   4.671   0.119   2.439  0.6708 -0.1135  0.2483
 1986SOL    HW117417   4.691   0.045   2.496 -1.2932 -0.5940  0.3373
 1986SOL    HW217418   4.579   0.124   2.467  1.1551 -1.8338  2.0888
 1987SOL     OW17419   2.718   4.480   0.956  0.1144  0.0325  0.0006
 1987SOL    HW117420   2.651   4.440   0.900 -0.9530  1.5220  0.1964
 1987SOL    HW217421   2.751   4.399   0.995 -0.2735 -0.2777 -0.3057
 1988SOL     OW17422   2.741   2.673   4.300 -0.1231 -0.4047 -0.5090
 1988SOL    HW117423   2.721   2.599   4.243 -0.4544 -1.0109  0.3884
 1988SOL    HW217424   2.827   2.649   4.335 -0.2476 -0.4317 -0.2171
 1989SOL     OW17425   1.082   0.688  15.006 -0.0076 -0.9518 -0.4146
 1989SOL    HW117426   1.133   0.767  14.991 -0.7668 -0.1743  1.0957
 1989SOL    HW217427   1.148   0.622  15.029  0.6046 -0.6840 -1.3960
 1990SOL     OW17428   4.339   2.544   7.247  0.1938  0.7310 -0.3080
 1990SOL    HW117429   4.407   2.576   7.188  0.2837  3.4932  1.2658
 1990SOL    HW217430   4.341   2.619   7.307  1.3687 -0.6726  1.3894
 1991SOL     OW17431   2.909   1.350  17.429 -0.3072 -0.0637 -0.1290
 1991SOL    HW117432   2.877   1.334  17.340  1.1809  2.7190 -1.1540
 1991SOL    HW217433   2.906   1.446  17.430  0.4645 -0.0567  0.5829
 1992SOL     OW17434   1.518   0.237   6.791 -0.1133  0.1730  0.1143
 1992SOL    HW117435   1.471   0.282   6.721 -0.1062  0.0653  0.0402
 1992SOL    HW217436   1.569   0.173   6.741 -2.8337 -1.9826  0.1248
 1993SOL     OW17437   2.730   3.667   8.931 -0.1023 -0.1981 -0.3177
 1993SOL    HW117438   2.676   3.621   8.996 -1.0006 -1.6996 -2.1344
 1993SOL    HW217439   2.804   3.685   8.989 -0.8539 -0.5582  0.7700
 1994SOL     OW17440   1.458   2.785   8.172  0.3814 -0.2873  0.0679
 1994SOL    HW117441   1.395   2.740   8.116  1.8788 -1.5500 -0.6059
 1994SOL    HW217442   1.432   2.876   8.160  2.2910 -0.0146 -1.9835
 1995SOL     OW17443   4.016   1.487   1.691 -0.5895  0.1036  0.4972
 1995SOL    HW117444   4.002   1.433   1.768 -1.4553 -0.1641  0.1624
 1995SOL    HW217445   3.951   1.557   1.698  0.3133  1.1540 -1.4908
 1996SOL     OW17446   0.335   3.382   0.561 -0.0192 -0.6082  0.3444
 1996SOL    HW117447   0.428   3.404   0.554 -1.0197  2.5057 -2.7880
 1996SOL    HW217448   0.341   3.287   0.547  1.6922 -0.4389 -0.1035
 1997SOL     OW17449   2.556   0.527   8.637 -0.0016  0.1703  0.1468
 1997SOL    HW117450   2.601   0.445   8.615  0.6961 -0.0101  2.2453
 1997SOL    HW217451   2.635   0.579   8.652 -1.5777  1.8197  2.7127
 1998SOL     OW17452   0.212   4.336   7.337 -0.1967 -0.1505 -0.0872
 1998SOL    HW117453   0.180   4.426   7.335 -0.9315 -0.3690  2.0630
 1998SOL    HW217454   0.308   4.340   7.329 -0.1810 -1.4486 -0.6317
 1999SOL     OW17455   0.717   0.168   9.508 -0.2851 -0.2814 -0.7726
 1999SOL    HW117456   0.745   0.232   9.442 -1.0219 -0.9664 -1.7507
 1999SOL    HW217457   0.797   0.120   9.532 -0.1846 -0.1668 -0.8781
 2000SOL     OW17458   4.228   1.276   0.471  0.2426  0.1415 -0.0589
 2000SOL    HW117459   4.299   1.216   0.494  1.4272  0.2339 -3.4622
 2000SOL    HW217460   4.283   1.328   0.412  1.0741  0.2485  0.8106
 2001SOL     OW17461   2.114   2.961   9.464  0.3757  0.1611  0.5691
 2001SOL    HW117462   2.105   2.870   9.492  0.1885 -0.8176 -2.6733
 2001SOL    HW217463   2.049   2.994   9.525 -3.5364  0.5038 -3.7319
 2002SOL     OW17464   2.775   4.312   9.944 -0.2083  0.3830 -0.0538
 2002SOL    HW117465   2.838   4.243   9.926  1.2701  1.1388  2.1427
 2002SOL    HW217466   2.804   4.391   9.897  0.9771 -0.3593 -0.5653
 2003SOL     OW17467   1.118   2.873  17.430  0.2968 -0.3669 -0.2855
 2003SOL    HW117468   1.122   2.783  17.397  0.6790 -0.7106  0.6807
 2003SOL    HW217469   1.088   2.920  17.353  0.6855  0.2757 -0.0460
 2004SOL     OW17470   1.901   3.744   5.693  0.5840  0.0540  0.6321
 2004SOL    HW117471   1.944   3.687   5.630  0.5143  2.4719 -1.6297
 2004SOL    HW217472   1.810   3.713   5.685  0.6729  0.2352 -1.0348
 2005SOL     OW17473   1.151   0.467   6.416  0.3469  0.4628 -0.8732
 2005SOL    HW117474   1.064   0.447   6.452 -0.0870 -1.0154 -2.7285
 2005SOL    HW217475   1.120   0.541   6.363 -1.9218  0.9564  1.1378
 2006SOL     OW17476   4.525   3.444   6.905 -0.2632  0.0109 -0.1082
 2006SOL    HW117477   4.565   3.513   6.958  0.7908 -0.8462  0.2202
 2006SOL    HW217478   4.433   3.437   6.932  0.4077 -0.4249  2.1294
 2007SOL     OW17479   3.388   4.626   0.581  0.6351 -0.1277 -0.1420
 2007SOL    HW117480   3.358   4.582   0.661 -1.2742 -0.6304 -1.1308
 2007SOL    HW217481   3.375   4.720   0.593  0.6681 -0.1932  0.3841
 2008SOL     OW17482   1.564   4.540   6.481  0.0433 -0.1270 -0.0575
 2008SOL    HW117483   1.625   4.468   6.465  2.1699  1.0933  2.5674
 2008SOL    HW217484   1.501   4.506   6.544 -0.7801 -0.4448 -1.0519
 2009SOL     OW17485   1.789   1.686   6.288 -0.8174 -0.0648 -0.5493
 2009SOL    HW117486   1.707   1.636   6.291 -0.7053 -0.1047  1.6332
 2009SOL    HW217487   1.786   1.748   6.215 -2.8054  1.0274  0.4614
 2010SOL     OW17488   2.878   2.777   3.573  0.1107 -0.5755 -0.2134
 2010SOL    HW117489   2.829   2.858   3.560  1.3461  0.6708  2.8530
 2010SOL    HW217490   2.895   2.755   3.482 -2.3260  2.7968 -1.4539
 2011SOL     OW17491   0.028   4.676  17.038  0.1932 -0.1986  0.3286
 2011SOL    HW117492   4.707   0.017  17.096  0.1980 -0.5793  0.7455
 2011SOL    HW217493   0.120   4.680  17.067  0.9615 -0.9373 -2.0165
 2012SOL     OW17494   1.552   1.785   4.950 -0.2372 -0.0898  0.2639
 2012SOL    HW117495   1.578   1.848   4.884  1.2979 -0.2637  0.7140
 2012SOL    HW217496   1.638   1.763   4.985  0.5841 -1.2599 -2.4810
 2013SOL     OW17497   0.552   1.295   1.227 -0.0654  0.4986  0.4207
 2013SOL    HW117498   0.516   1.206   1.227  1.1393 -0.0042 -1.6749
 2013SOL    HW217499   0.647   1.287   1.211 -0.6138 -1.0981 -2.0614
 2014SOL     OW17500   4.591   2.857   6.277  0.1551 -0.7242  0.0777
 2014SOL    HW117501   4.610   2.834   6.186 -0.2712 -0.2573 -0.1301
 2014SOL    HW217502   4.654   2.806   6.328  0.7371  1.3038  1.4060
 2015SOL     OW17503   4.269   1.377   6.962  0.2503  0.2347  0.7707
 2015SOL    HW117504   4.236   1.309   7.020  0.8900 -0.6835  0.0441
 2015SOL    HW217505   4.188   1.399   6.916  0.3412  1.5073  1.2034
 2016SOL     OW17506   3.041   4.030   0.499 -0.6334 -0.1684  0.5918
 2016SOL    HW117507   2.994   3.951   0.473  1.0361 -0.5231 -1.3593
 2016SOL    HW217508   3.129   3.991   0.503 -0.6712 -0.2645  0.4678
 2017SOL     OW17509   1.649   3.276  14.228 -0.0597  0.0746  0.0805
 2017SOL    HW117510   1.610   3.264  14.141  0.2405  0.6145 -0.1304
 2017SOL    HW217511   1.739   3.246  14.218  0.0334  0.8487 -1.4947
 2018SOL     OW17512   2.499   0.481   7.708  0.4212  0.1542  0.0324
 2018SOL    HW117513   2.428   0.462   7.647  0.4965 -1.8818  0.5698
 2018SOL    HW217514   2.544   0.548   7.657  0.7344 -0.1760 -0.1309
 2019SOL     OW17515   3.475   4.372   1.782  0.4122  0.1200 -0.3453
 2019SOL    HW117516   3.468   4.427   1.704 -0.5184  0.5732  0.0559
 2019SOL    HW217517   3.516   4.293   1.748  0.6181  0.1264 -0.1100
 2020SOL     OW17518   2.241   1.605   6.574  0.3528  0.0038  0.2875
 2020SOL    HW117519   2.167   1.637   6.625  0.4102 -0.2494  0.5314
 2020SOL    HW217520   2.227   1.661   6.498 -0.4151 -0.8031 -0.1591
 2021SOL     OW17521   1.570   1.256   4.978  0.1853 -0.1081  0.1119
 2021SOL    HW117522   1.559   1.326   4.913 -0.3934 -0.4365 -0.1483
 2021SOL    HW217523   1.533   1.178   4.937  0.6539  0.2971 -1.1072
 2022SOL     OW17524   1.198   0.971   3.867  0.4112 -0.4266 -0.2304
 2022SOL    HW117525   1.183   0.967   3.962  0.3457  0.2704 -0.2088
 2022SOL    HW217526   1.183   1.065   3.858  0.4403 -0.7963 -3.9833
 2023SOL     OW17527   4.252   3.060   1.751  0.2708 -0.6335 -0.3213
 2023SOL    HW117528   4.345   3.068   1.768  0.6215 -2.9950 -1.1276
 2023SOL    HW217529   4.268   2.995   1.682 -0.5949 -0.0202 -1.1101
 2024SOL     OW17530   3.094   0.340  15.486 -0.0946  1.1416 -0.5943
 2024SOL    HW117531   3.053   0.425  15.502 -0.9451  0.9103 -1.5232
 2024SOL    HW217532   3.038   0.314  15.413 -1.4008 -1.6743  1.4209
 2025SOL     OW17533   3.882   4.326   1.865  0.6736  0.6828 -1.0434
 2025SOL    HW117534   3.840   4.409   1.889  0.1126 -0.6639  2.7221
 2025SOL    HW217535   3.835   4.304   1.785  1.3867  1.4631 -1.6729
 2026SOL     OW17536   4.499   4.278  13.629  0.2842 -0.4020  0.7970
 2026SOL    HW117537   4.530   4.298  13.718  0.5511  0.2043  0.5726
 2026SOL    HW217538   4.406   4.265  13.646  0.0368 -1.5123 -1.5240
 2027SOL     OW17539   3.292   0.613  10.795 -0.3430  0.1036  0.1118
 2027SOL    HW117540   3.351   0.569  10.734 -2.5564  0.5177 -2.3468
 2027SOL    HW217541   3.353   0.679  10.825 -0.9257  0.1752  1.1220
 2028SOL     OW17542   3.725   2.131   6.630 -0.3582 -0.0696  0.0557
 2028SOL    HW117543   3.652   2.084   6.670  0.3388 -0.5053  0.8109
 2028SOL    HW217544   3.785   2.056   6.622  0.5568  0.9636 -3.0535
 2029SOL     OW17545   0.896   1.598  17.261  0.2411  0.0108 -0.1769
 2029SOL    HW117546   0.801   1.593  17.274  0.0406 -0.8433 -2.1423
 2029SOL    HW217547   0.900   1.628  17.170 -2.2927  2.8590  0.6540
 2030SOL     OW17548   0.899   1.872   8.544 -0.3551  0.3996  0.4367
 2030SOL    HW117549   0.932   1.942   8.487  0.1571 -1.2869 -1.3779
 2030SOL    HW217550   0.931   1.889   8.632 -4.7190 -1.0440  2.2634
 2031SOL     OW17551   2.342   3.583   6.205 -0.0764  0.9096 -0.1408
 2031SOL    HW117552   2.312   3.588   6.296 -1.2651  0.9437 -0.5325
 2031SOL    HW217553   2.290   3.521   6.154  0.0707 -0.6393  1.5921
 2032SOL     OW17554   1.915   3.977  13.965 -0.2261 -0.3656  0.2379
 2032SOL    HW117555   1.980   4.047  13.961 -0.1519 -0.3172  2.2276
 2032SOL    HW217556   1.936   3.938  13.880 -0.6040 -1.4119  0.6162
 2033SOL     OW17557   1.728   1.861   4.216 -0.1009 -0.5743 -0.3721
 2033SOL    HW117558   1.685   1.777   4.229 -2.7038  0.4335 -2.3059
 2033SOL    HW217559   1.774   1.856   4.132 -0.2497 -2.4627 -0.3345
 2034SOL     OW17560   1.983   2.780   3.986 -0.7559  0.5731 -0.2148
 2034SOL    HW117561   1.988   2.738   4.072  3.8740  0.8941 -0.3141
 2034SOL    HW217562   1.914   2.725   3.950 -0.3255 -0.0268 -0.1220
 2035SOL     OW17563   3.500   4.159  11.930  0.4095 -0.8554  0.0923
 2035SOL    HW117564   3.434   4.199  11.873  1.0309  1.5750  1.0518
 2035SOL    HW217565   3.572   4.162  11.868  0.0632  1.7737 -0.1911
 2036SOL     OW17566   2.999   4.217   3.789  0.0681 -0.2927 -0.6800
 2036SOL    HW117567   2.938   4.176   3.851  0.0431  1.5556  0.5414
 2036SOL    HW217568   3.069   4.153   3.804  1.0096  0.1208 -3.4244
 2037SOL     OW17569   4.633   4.312  11.328 -0.7514 -0.6356  0.0696
 2037SOL    HW117570   4.701   4.252  11.359 -0.3975 -0.4676 -0.3961
 2037SOL    HW217571   4.560   4.249  11.331 -0.0026 -1.4357  1.5288
 2038SOL     OW17572   1.313   4.329   4.825 -0.1151 -0.7791 -0.3057
 2038SOL    HW117573   1.345   4.266   4.761  0.3176 -2.1241  1.2291
 2038SOL    HW217574   1.374   4.313   4.897 -1.0221  2.4261  1.2169
 2039SOL     OW17575   2.550   3.661   6.052  0.4264 -0.0197  0.0169
 2039SOL    HW117576   2.492   3.653   5.976 -0.1441  1.7375  0.2656
 2039SOL    HW217577   2.479   3.666   6.116  0.4405 -0.6642  0.0823
 2040SOL     OW17578   0.191   3.927   2.513  1.0920 -0.4258  0.0192
 2040SOL    HW117579   0.182   3.887   2.427 -2.2248  1.0120 -0.3002
 2040SOL    HW217580   0.212   3.851   2.567  0.7496 -0.0122  0.7435
 2041SOL     OW17581   4.477   3.809  15.466  0.2996 -0.0100  0.0618
 2041SOL    HW117582   4.554   3.828  15.520  0.9106 -1.0710 -0.4197
 2041SOL    HW217583   4.408   3.790  15.530 -1.7894 -1.4651 -2.6153
 2042SOL     OW17584   0.077   0.261  16.528 -0.2760 -0.8067  0.4733
 2042SOL    HW117585   0.166   0.234  16.553 -0.1262 -1.2263 -0.4897
 2042SOL    HW217586   0.059   0.351  16.555 -0.9134 -0.4177 -1.2577
 2043SOL     OW17587   0.401   4.280   0.901 -0.4390 -0.3170  0.3806
 2043SOL    HW117588   0.315   4.290   0.942  0.0460  0.0688  1.2892
 2043SOL    HW217589   0.385   4.250   0.811  0.3982 -0.5023  0.2929
 2044SOL     OW17590   2.033   2.901   8.697  0.1579 -0.2368  0.2221
 2044SOL    HW117591   2.087   2.870   8.769  2.0555  0.5552 -0.8670
 2044SOL    HW217592   2.046   2.826   8.639 -0.0742  0.3128 -0.5381
 2045SOL     OW17593   1.893   4.624  13.493 -0.1201 -0.1752  0.0727
 2045SOL    HW117594   1.890   4.670  13.409  0.8167  0.0825  0.1758
 2045SOL    HW217595   1.817   4.567  13.490 -1.3266  1.3770  0.8537
 2046SOL     OW17596   0.087   3.134  11.077 -0.3086 -0.1582  0.1342
 2046SOL    HW117597   0.168   3.084  11.089 -1.7992 -2.6675 -0.1776
 2046SOL    HW217598   0.065   3.139  11.170  0.8792 -4.0325  0.6213
 2047SOL     OW17599   4.646   2.655   8.256  0.1390  0.3281  0.0174
 2047SOL    HW117600   4.599   2.652   8.173 -0.2716 -0.0146  0.2606
 2047SOL    HW217601   4.586   2.600   8.307  0.1038  2.2068  2.0082
 2048SOL     OW17602   1.096   1.601   3.646  0.4899  0.2920  0.0945
 2048SOL    HW117603   1.106   1.511   3.614 -1.8170  0.5105 -1.1896
 2048SOL    HW217604   1.047   1.576   3.724 -0.5616 -0.0440 -0.6711
 2049SOL     OW17605   3.445   0.385   9.860 -0.0258  0.6211  0.2467
 2049SOL    HW117606   3.512   0.434   9.908  0.8789 -1.3322  0.9759
 2049SOL    HW217607   3.374   0.439   9.894 -0.3291  0.0543  0.5082
 2050SOL     OW17608   3.806   3.170   7.088  0.0818  0.1422  0.6105
 2050SOL    HW117609   3.777   3.261   7.083 -0.0648  0.0264 -0.6124
 2050SOL    HW217610   3.777   3.147   7.000 -0.3653  0.1701  0.7513
 2051SOL     OW17611   4.565   0.803  16.597 -0.2292  0.3059 -0.1201
 2051SOL    HW117612   4.656   0.782  16.618 -0.2185  0.5733  0.0933
 2051SOL    HW217613   4.520   0.722  16.621 -1.9515  1.6912  1.2544
 2052SOL     OW17614   3.073   0.529   4.491  1.0016  0.0697 -0.0885
 2052SOL    HW117615   3.046   0.495   4.406 -1.1914 -0.0235  0.6381
 2052SOL    HW217616   3.001   0.496   4.545 -0.4894 -1.6530 -3.1203
 2053SOL     OW17617   4.572   0.833   6.769 -0.3969 -0.0336 -0.1691
 2053SOL    HW117618   4.495   0.870   6.727 -0.4168  2.0208  1.6837
 2053SOL    HW217619   4.625   0.811   6.692  0.4032  0.4106  0.2586
 2054SOL     OW17620   1.905   0.481  14.554  0.0311 -0.0826 -0.1476
 2054SOL    HW117621   1.973   0.484  14.486  2.0059  0.1105  1.8329
 2054SOL    HW217622   1.880   0.573  14.551 -1.5863 -0.5180  0.3022
 2055SOL     OW17623   2.739   3.059  13.315  0.0669 -0.1331 -0.8998
 2055SOL    HW117624   2.792   2.981  13.332  2.2141  1.5112 -0.0763
 2055SOL    HW217625   2.767   3.105  13.394  0.7929  0.0401 -1.2638
 2056SOL     OW17626   4.263   1.161   6.353  0.3675 -0.0599  0.2238
 2056SOL    HW117627   4.236   1.160   6.444 -1.2270  0.2119 -0.2537
 2056SOL    HW217628   4.247   1.251   6.325 -1.4263 -0.2297  0.6966
 2057SOL     OW17629   3.339   0.814  16.409  0.1959  0.3248 -0.0414
 2057SOL    HW117630   3.304   0.831  16.496  1.3674 -0.7659  0.6398
 2057SOL    HW217631   3.377   0.901  16.398  2.1958 -0.5930 -0.3909
 2058SOL     OW17632   1.150   1.499   1.909  0.2026 -0.5506 -0.0686
 2058SOL    HW117633   1.059   1.471   1.922 -0.0320 -0.3144 -1.2026
 2058SOL    HW217634   1.163   1.454   1.825 -0.1966 -1.0013  0.1140
 2059SOL     OW17635   0.570   0.842  15.948  0.3422  0.4399  0.0035
 2059SOL    HW117636   0.494   0.803  15.991  1.5477 -0.7976  1.0455
 2059SOL    HW217637   0.555   0.930  15.983 -1.4930 -0.0679  0.4948
 2060SOL     OW17638   1.149   2.311  15.195 -0.0849  0.4106 -0.8875
 2060SOL    HW117639   1.223   2.275  15.145  1.0142  4.0884 -1.9764
 2060SOL    HW217640   1.160   2.406  15.196 -0.4227  0.4338  0.3317
 2061SOL     OW17641   1.189   2.222   2.841 -0.0556 -0.4757 -0.5654
 2061SOL    HW117642   1.218   2.154   2.902 -1.0739 -0.8154 -0.4410
 2061SOL    HW217643   1.180   2.165   2.765  0.6073 -0.0656 -0.9424
 2062SOL     OW17644   0.082   2.752   4.043 -0.1648  0.1204 -0.0641
 2062SOL    HW117645   0.170   2.713   4.040 -0.8608 -1.4391  0.1354
 2062SOL    HW217646   0.062   2.784   3.955 -2.4513  2.6652  1.4024
 2063SOL     OW17647   2.358   4.522   5.339 -0.0149  0.0634 -0.3237
 2063SOL    HW117648   2.322   4.433   5.346 -0.6941  0.4241  0.8397
 2063SOL    HW217649   2.278   4.575   5.344 -1.3176 -1.6072 -3.1679
 2064SOL     OW17650   1.077   3.397   2.245 -0.5232  0.0203  0.0213
 2064SOL    HW117651   1.165   3.433   2.240 -0.7846  0.6381 -0.0547
 2064SOL    HW217652   1.050   3.405   2.153  0.5968  0.8902 -0.2252
 2065SOL     OW17653   3.658   1.764  14.124 -0.2342 -0.2570  0.4432
 2065SOL    HW117654   3.617   1.830  14.180 -0.7297 -1.2873  1.3137
 2065SOL    HW217655   3.748   1.778  14.152 -0.4512 -0.4778  1.2739
 2066SOL     OW17656   0.036   0.391   5.708 -0.7378 -0.1887 -0.5131
 2066SOL    HW117657   4.669   0.416   5.687 -1.2358 -2.3957 -1.0688
 2066SOL    HW217658   0.079   0.476   5.716 -0.7127 -0.0661 -1.8255
 2067SOL     OW17659   1.582   0.178  12.953 -0.2264  0.1563  0.1715
 2067SOL    HW117660   1.590   0.256  13.007 -1.2904  1.5424 -1.6538
 2067SOL    HW217661   1.536   0.112  13.004 -0.3062  1.9966  2.4807
 2068SOL     OW17662   2.720   4.195   8.199 -0.3256  0.3353 -0.1390
 2068SOL    HW117663   2.715   4.279   8.155  1.1410  0.1465 -0.6669
 2068SOL    HW217664   2.744   4.146   8.120 -0.3947  0.8801 -0.4925
 2069SOL     OW17665   1.437   1.975   1.891  0.2465 -0.2322  0.3241
 2069SOL    HW117666   1.499   1.967   1.819 -0.8221 -2.4390 -0.3367
 2069SOL    HW217667   1.393   1.890   1.887 -0.2222  0.1003 -1.5687
 2070SOL     OW17668   3.056   2.287   3.527 -0.0577  0.0576 -0.6469
 2070SOL    HW117669   2.962   2.304   3.535 -0.2878 -1.3018 -0.2783
 2070SOL    HW217670   3.090   2.347   3.593 -0.9223 -1.2884  1.0355
 2071SOL     OW17671   1.792   4.653   6.089 -0.3691  0.0868  0.1226
 2071SOL    HW117672   1.815   4.684   6.002  0.8893 -0.3118  0.3136
 2071SOL    HW217673   1.818   4.561   6.077  1.2279  0.5498 -0.0340
 2072SOL     OW17674   2.856   3.682   5.528 -0.2865  0.4067 -0.3312
 2072SOL    HW117675   2.836   3.737   5.604 -0.7463 -1.7384  1.1181
 2072SOL    HW217676   2.940   3.718   5.502 -0.4572  0.2201 -1.1373
 2073SOL     OW17677   4.318   2.586  10.449  0.4753  0.1004 -0.3671
 2073SOL    HW117678   4.308   2.679  10.470  1.5263 -0.0689  0.8682
 2073SOL    HW217679   4.365   2.584  10.366 -0.1439  1.6779 -0.7766
 2074SOL     OW17680   1.269   4.375  11.705 -0.1949  0.3393 -0.0903
 2074SOL    HW117681   1.241   4.333  11.786  0.3682  1.3161  0.6079
 2074SOL    HW217682   1.321   4.450  11.735 -0.8573  0.6969  0.1389
 2075SOL     OW17683   0.331   1.903   5.854 -0.6036  0.0288  0.8081
 2075SOL    HW117684   0.237   1.893   5.837 -0.4052 -0.6336  0.1041
 2075SOL    HW217685   0.343   1.987   5.897 -1.4746  0.6378 -0.1654
 2076SOL     OW17686   0.465   3.970   8.205 -0.4240  0.4321 -0.0001
 2076SOL    HW117687   0.384   4.021   8.200 -0.1774  0.9581  1.0957
 2076SOL    HW217688   0.461   3.939   8.296  0.8178  1.5099  0.4382
 2077SOL     OW17689   4.251   2.458   0.093  0.7935  1.2908  0.2255
 2077SOL    HW117690   4.263   2.552   0.080 -0.7525  1.5268  0.4910
 2077SOL    HW217691   4.337   2.435   0.127  0.5821  1.5301  0.9256
 2078SOL     OW17692   1.340   3.359   7.125  0.0404 -0.0547 -0.3506
 2078SOL    HW117693   1.292   3.417   7.185 -1.0010  2.5661 -3.7315
 2078SOL    HW217694   1.344   3.413   7.046 -1.2283 -0.0978 -0.4520
 2079SOL     OW17695   3.777   2.287   3.697  0.1131  0.2979 -0.2888
 2079SOL    HW117696   3.683   2.298   3.709  0.2260 -0.3829  1.1360
 2079SOL    HW217697   3.805   2.355   3.758  0.6691 -1.3753  1.2993
 2080SOL     OW17698   2.819   2.043   7.593 -0.3656 -0.4159  0.1838
 2080SOL    HW117699   2.810   2.116   7.656 -0.1868  0.4542 -0.7953
 2080SOL    HW217700   2.852   1.972   7.648 -0.3053 -0.9088 -0.5023
 2081SOL     OW17701   1.223   4.574   3.496 -0.6818  0.1096 -0.7412
 2081SOL    HW117702   1.300   4.598   3.444  1.3751 -0.3537  2.0868
 2081SOL    HW217703   1.211   4.480   3.490 -2.0868  0.1241  1.9055
 2082SOL     OW17704   3.640   4.106  16.300  0.0651  0.3692  0.0851
 2082SOL    HW117705   3.660   4.014  16.312  0.3106  0.5794  1.2942
 2082SOL    HW217706   3.559   4.103  16.249  0.8934 -1.6163 -1.1026
 2083SOL     OW17707   0.405   0.169   2.755  0.2804 -0.2331 -0.2125
 2083SOL    HW117708   0.428   0.239   2.694 -0.7932 -0.5623 -0.9822
 2083SOL    HW217709   0.397   0.220   2.836  2.1014 -0.9318  0.4155
 2084SOL     OW17710   3.307   1.070  14.229 -0.3160 -0.1129  0.1605
 2084SOL    HW117711   3.275   0.982  14.208  0.4767 -0.2840 -0.3570
 2084SOL    HW217712   3.235   1.118  14.190 -0.2004  0.8636  1.1671
 2085SOL     OW17713   3.497   3.216   7.240  0.0630 -0.5434 -0.0155
 2085SOL    HW117714   3.439   3.290   7.224 -0.7292 -0.9184  1.1268
 2085SOL    HW217715   3.509   3.174   7.155 -1.4601 -0.2262 -0.3870
 2086SOL     OW17716   3.977   2.372  10.071 -0.5625 -0.2784  0.1419
 2086SOL    HW117717   3.927   2.303  10.028 -2.2133  0.2245  1.2491
 2086SOL    HW217718   3.905   2.435  10.081 -0.5288 -0.2892  0.4466
 2087SOL     OW17719   0.015   4.083  13.766  0.1805  0.4039 -0.1033
 2087SOL    HW117720   4.661   4.109  13.715 -0.4389  0.1910  0.7160
 2087SOL    HW217721   4.712   4.006  13.816 -1.6547  0.3226 -1.1838
 2088SOL     OW17722   1.792   1.853   8.800  0.2859  0.0857 -0.0448
 2088SOL    HW117723   1.854   1.803   8.747 -2.2870 -3.1633  0.0208
 2088SOL    HW217724   1.825   1.830   8.887  0.9550 -0.4369 -0.4324
 2089SOL     OW17725   0.071   1.959   5.954  0.3514 -0.0618  0.3048
 2089SOL    HW117726   0.013   1.951   5.878  1.4635 -0.1873 -0.5239
 2089SOL    HW217727   0.091   2.053   5.955 -0.6153  0.1549 -0.7761
 2090SOL     OW17728   2.723   3.502   2.904 -0.1549  0.3445 -0.2062
 2090SOL    HW117729   2.666   3.496   2.827  1.5877  2.6995 -1.6955
 2090SOL    HW217730   2.673   3.466   2.977  0.5755  0.2276  0.2262
 2091SOL     OW17731   2.328   2.143   6.732 -0.5638 -0.2553  0.3692
 2091SOL    HW117732   2.396   2.084   6.763 -1.3013 -1.1186  0.3477
 2091SOL    HW217733   2.294   2.173   6.816 -0.7558 -0.1114  0.2413
 2092SOL     OW17734   0.655   3.279   5.278  0.6109 -0.2859  0.3064
 2092SOL    HW117735   0.711   3.343   5.322 -0.4820  1.1280 -0.3582
 2092SOL    HW217736   0.578   3.329   5.304  0.7483 -0.5678  1.2684
 2093SOL     OW17737   1.332   1.339  15.080 -0.5615  0.3882 -0.0883
 2093SOL    HW117738   1.261   1.382  15.031  0.6941  2.5338 -0.0549
 2093SOL    HW217739   1.359   1.271  15.019 -0.1506 -1.1023  1.7511
 2094SOL     OW17740   0.867   0.947   0.237 -0.0602  1.1436  0.1460
 2094SOL    HW117741   0.799   0.964   0.302 -0.8945  0.3594 -0.5360
 2094SOL    HW217742   0.849   0.855   0.221 -0.1609  1.2512 -0.3578
 2095SOL     OW17743   4.192   1.720  12.130  0.1422 -0.4356  0.3580
 2095SOL    HW117744   4.175   1.680  12.045  0.6399 -0.1496  0.1286
 2095SOL    HW217745   4.169   1.646  12.186  0.7375 -1.0633 -0.2276
 2096SOL     OW17746   0.476   2.654  15.351 -0.1371  0.4510 -0.5874
 2096SOL    HW117747   0.566   2.669  15.378  0.5441 -1.4309 -1.8309
 2096SOL    HW217748   0.488   2.633  15.259  1.1775  1.4630 -0.6409
 2097SOL     OW17749   2.334   3.206   4.229  0.6100  0.2085 -0.3362
 2097SOL    HW117750   2.264   3.228   4.167  0.4482 -2.1059 -0.9456
 2097SOL    HW217751   2.419   3.202   4.186  1.4474 -1.9716  1.5334
 2098SOL     OW17752   0.484   0.595   1.298 -0.5082 -0.0365  0.1496
 2098SOL    HW117753   0.402   0.588   1.348 -0.6299  1.5642  0.1646
 2098SOL    HW217754   0.543   0.571   1.371  0.1712 -0.7273 -0.6238
 2099SOL     OW17755   3.007   1.095   0.795 -0.0592  0.0524  0.7240
 2099SOL    HW117756   3.069   1.071   0.864  1.5218 -1.7523 -1.3416
 2099SOL    HW217757   3.060   1.148   0.736 -0.4628  0.0214  0.3313
 2100SOL     OW17758   3.004   2.307   0.054  0.1790  0.2751 -0.0026
 2100SOL    HW117759   2.983   2.308   0.148  1.3365 -1.9403  0.2732
 2100SOL    HW217760   3.091   2.270   0.065  0.2881 -0.1159 -2.3432
 2101SOL     OW17761   1.933   3.847   6.522  0.2602  0.1767 -0.0861
 2101SOL    HW117762   1.888   3.915   6.472  0.3437  0.4927  0.2687
 2101SOL    HW217763   1.869   3.780   6.547 -0.1685  0.5888 -0.1005
 2102SOL     OW17764   3.056   2.114   1.538 -0.2733  0.7232  0.3282
 2102SOL    HW117765   2.986   2.109   1.604 -1.3100  0.8472 -0.7746
 2102SOL    HW217766   3.125   2.122   1.604  0.9736 -1.9391 -0.6874
 2103SOL     OW17767   0.895   0.351   7.243  0.2055 -0.7488  0.1222
 2103SOL    HW117768   0.817   0.318   7.287 -0.5109  1.9816  0.8747
 2103SOL    HW217769   0.867   0.362   7.152  0.6859  2.1136  0.3214
 2104SOL     OW17770   0.968   1.565   5.010 -0.0773 -0.0061  0.1911
 2104SOL    HW117771   1.023   1.513   5.068  0.2037  0.4849  0.3697
 2104SOL    HW217772   0.907   1.615   5.064 -0.1127  1.8664 -1.5573
 2105SOL     OW17773   0.487   4.599   7.926  0.0157 -0.2649 -0.0084
 2105SOL    HW117774   0.398   4.601   7.963  0.1084  0.0823  0.2009
 2105SOL    HW217775   0.512   4.511   7.955  1.0531  0.8897  2.5624
 2106SOL     OW17776   2.653   3.658  13.953  0.3531  0.6319  0.1377
 2106SOL    HW117777   2.646   3.753  13.943 -0.1282  0.7383  1.5328
 2106SOL    HW217778   2.643   3.631  13.862  0.0469 -0.5821  0.5319
 2107SOL     OW17779   1.828   1.839   3.937 -0.2230 -0.9021  0.3483
 2107SOL    HW117780   1.887   1.766   3.920 -0.4287 -1.2556  1.1405
 2107SOL    HW217781   1.875   1.906   3.889 -1.1435  0.8263  1.8583
 2108SOL     OW17782   3.698   2.386   1.934  0.4360  0.7432  0.3218
 2108SOL    HW117783   3.791   2.363   1.931  0.4924  1.2342 -1.4719
 2108SOL    HW217784   3.713   2.480   1.943  0.9924  0.7070 -0.2621
 2109SOL     OW17785   3.497   2.605   2.394  0.7177  0.0067 -0.4990
 2109SOL    HW117786   3.419   2.623   2.447  1.0710 -1.0000  0.3802
 2109SOL    HW217787   3.464   2.597   2.304 -0.2946  1.2660 -0.2490
 2110SOL     OW17788   4.084   0.170   7.441  0.3812 -0.7635 -0.1669
 2110SOL    HW117789   4.030   0.222   7.380 -0.1142 -0.8431  0.2011
 2110SOL    HW217790   4.017   0.112   7.476 -0.8213  1.3770  1.1278
 2111SOL     OW17791   2.014   3.872  11.191 -0.3649  0.1950  0.1414
 2111SOL    HW117792   2.100   3.911  11.176 -1.1020  1.1998 -1.6165
 2111SOL    HW217793   2.033   3.855  11.283 -1.3302  0.6509  0.4261
 2112SOL     OW17794   0.261   0.243  11.546  0.0033 -0.3700  0.0535
 2112SOL    HW117795   0.323   0.171  11.531  0.1096 -0.1115 -0.7207
 2112SOL    HW217796   0.181   0.195  11.566 -0.1836  0.1213  0.4780
 2113SOL     OW17797   2.415   1.645   3.419  0.0902  0.5025 -0.1796
 2113SOL    HW117798   2.371   1.722   3.457 -2.5778 -1.4091  0.6010
 2113SOL    HW217799   2.475   1.693   3.362  1.5012 -0.3371  0.6065
 2114SOL     OW17800   0.288   3.793   6.328  0.2984  0.3904 -0.3391
 2114SOL    HW117801   0.227   3.823   6.261  2.1833  0.8649 -1.8465
 2114SOL    HW217802   0.244   3.830   6.405  0.7362  0.4839 -0.1314
 2115SOL     OW17803   0.677   3.709   7.630 -0.1557  0.0411 -0.0059
 2115SOL    HW117804   0.607   3.740   7.688 -1.6076 -4.1797  0.4496
 2115SOL    HW217805   0.634   3.639   7.582 -0.0286  0.7559 -1.1580
 2116SOL     OW17806   0.475   0.287  11.172 -0.2624  0.1454 -0.0779
 2116SOL    HW117807   0.559   0.241  11.173 -0.6423 -0.6671 -3.9792
 2116SOL    HW217808   0.449   0.291  11.080 -1.2254 -1.7953  0.1165
 2117SOL     OW17809   4.549   3.281   5.905  0.6248  0.4735  0.0146
 2117SOL    HW117810   4.548   3.274   6.000 -0.7024 -1.0890 -0.1110
 2117SOL    HW217811   4.535   3.375   5.900 -0.1050  0.3173 -0.9979
 2118SOL     OW17812   3.525   4.494   5.690 -0.0334  0.2591  0.0453
 2118SOL    HW117813   3.474   4.432   5.638 -1.5769  1.5165  0.0421
 2118SOL    HW217814   3.547   4.554   5.619 -1.8013 -0.5571 -1.2078
 2119SOL     OW17815   4.589   2.944   1.045 -0.7929 -0.1628 -0.1132
 2119SOL    HW117816   4.594   2.988   1.130 -1.0049  0.7107 -0.5522
 2119SOL    HW217817   4.685   2.940   1.038 -0.7167  0.9355  0.2952
 2120SOL     OW17818   2.424   4.015   6.275  0.0003 -0.0536 -0.3215
 2120SOL    HW117819   2.388   4.092   6.320 -2.0698  0.1946 -2.4302
 2120SOL    HW217820   2.518   4.029   6.288 -0.5064  1.6560  1.5068
 2121SOL     OW17821   0.273   3.753   4.489 -0.0596  0.1193 -0.4884
 2121SOL    HW117822   0.205   3.788   4.547  0.7342  2.7705 -1.1652
 2121SOL    HW217823   0.299   3.834   4.445  0.3241  0.3811  0.2195
 2122SOL     OW17824   4.555   0.412  13.941  0.2243  0.3166  0.5564
 2122SOL    HW117825   4.505   0.421  13.859  1.3040 -0.2849 -0.1714
 2122SOL    HW217826   4.639   0.450  13.915  0.7414 -0.5942  0.8955
 2123SOL     OW17827   1.953   1.519  12.913 -0.6435 -0.1329  0.1051
 2123SOL    HW117828   1.892   1.456  12.952  0.6605  0.0175  2.4330
 2123SOL    HW217829   2.035   1.478  12.943 -1.0613 -0.9859  0.0775
 2124SOL     OW17830   2.919   1.642  17.364  0.4007 -0.2169  0.5008
 2124SOL    HW117831   2.855   1.710  17.341 -0.3155 -0.4077  1.9204
 2124SOL    HW217832   2.988   1.702  17.392  1.3885 -1.2540  0.2720
 2125SOL     OW17833   1.747   4.457   3.129  0.6133 -0.1824 -0.2707
 2125SOL    HW117834   1.798   4.421   3.056  1.2352 -0.7883  0.4572
 2125SOL    HW217835   1.758   4.390   3.196  2.4068 -0.7304 -1.0980
 2126SOL     OW17836   0.439   0.098   8.814 -0.4835 -0.0513 -0.1387
 2126SOL    HW117837   0.400   0.175   8.772 -1.2835 -0.3283  0.0854
 2126SOL    HW217838   0.357   0.050   8.823  1.6453 -3.6393  0.0850
 2127SOL     OW17839   2.636   0.596   2.594  0.0552 -0.5779 -0.0813
 2127SOL    HW117840   2.677   0.512   2.615 -0.2633 -0.8386 -0.5017
 2127SOL    HW217841   2.702   0.628   2.533 -0.1973 -0.4955 -0.3103
 2128SOL     OW17842   1.676   0.275  15.712  0.3042  0.1775 -0.2609
 2128SOL    HW117843   1.723   0.199  15.678 -1.5678 -2.2154  2.5078
 2128SOL    HW217844   1.611   0.297  15.646 -0.6432 -1.3368  0.1843
 2129SOL     OW17845   0.635   0.011   3.814  0.1942 -0.4645  0.4769
 2129SOL    HW117846   0.589   4.661   3.772  1.9090 -2.4547  2.0674
 2129SOL    HW217847   0.572   0.079   3.790  1.2362  0.6109  0.7587
 2130SOL     OW17848   0.996   1.196   9.218 -0.8510 -0.2990  0.2825
 2130SOL    HW117849   1.056   1.220   9.289 -1.4343 -2.3838  1.4906
 2130SOL    HW217850   1.024   1.260   9.154 -1.2864 -0.8318 -0.4399
 2131SOL     OW17851   1.844   2.744   6.622 -0.3786 -0.3276 -0.0958
 2131SOL    HW117852   1.866   2.653   6.643 -2.1216 -1.1408 -1.7450
 2131SOL    HW217853   1.835   2.746   6.527 -1.2244 -1.8702 -0.0460
 2132SOL     OW17854   1.858   0.894   2.717 -0.4502  0.0417  0.1512
 2132SOL    HW117855   1.793   0.829   2.687  0.2777 -0.0454 -1.2158
 2132SOL    HW217856   1.938   0.861   2.677  0.6342  1.4914  1.1354
 2133SOL     OW17857   3.324   1.333   6.653  0.2440  1.0971  0.0501
 2133SOL    HW117858   3.268   1.261   6.682 -0.0164  2.0905  2.0172
 2133SOL    HW217859   3.264   1.405   6.673  0.4169  1.2169  0.1430
 2134SOL     OW17860   1.305   1.709   3.516 -0.1186 -0.2328  0.8684
 2134SOL    HW117861   1.238   1.687   3.581  0.8835  0.7060  2.2201
 2134SOL    HW217862   1.315   1.626   3.469  2.4121  0.1777  0.6890
 2135SOL     OW17863   3.612   2.600   5.278  0.3320 -0.4740 -0.2298
 2135SOL    HW117864   3.600   2.647   5.196 -0.0142  2.6803  1.6409
 2135SOL    HW217865   3.534   2.626   5.326 -0.0721 -0.2347 -1.0101
 2136SOL     OW17866   2.868   3.652   2.132  0.2462  0.3199  0.6541
 2136SOL    HW117867   2.873   3.614   2.044 -1.3492  2.1761 -0.2183
 2136SOL    HW217868   2.801   3.718   2.115  0.2213  0.3448  0.8519
 2137SOL     OW17869   0.092   2.691  11.961 -1.0219 -0.6882 -0.3103
 2137SOL    HW117870   0.142   2.643  12.027 -1.2437  1.4393  1.3785
 2137SOL    HW217871   0.014   2.638  11.949 -1.1517 -0.1669 -1.8022
 2138SOL     OW17872   3.500   2.300   3.746 -0.5527 -0.7297 -0.3242
 2138SOL    HW117873   3.445   2.368   3.785  1.7161  0.5879  0.5588
 2138SOL    HW217874   3.515   2.244   3.822 -0.6588 -1.5421 -0.9027
 2139SOL     OW17875   0.976   1.557   7.980 -0.5064 -0.0097 -0.2136
 2139SOL    HW117876   0.900   1.513   8.017 -1.3623  0.0742 -1.9106
 2139SOL    HW217877   0.957   1.556   7.887  1.8476  1.0051 -0.7247
 2140SOL     OW17878   1.979   4.680   8.764 -0.0251 -0.2162  0.4044
 2140SOL    HW117879   1.976   4.721   8.850 -1.6174  0.3230  0.0929
 2140SOL    HW217880   1.971   4.588   8.788  1.6227 -0.4636 -0.0335
 2141SOL     OW17881   1.587   0.188   1.017 -0.5392  0.4906 -0.0257
 2141SOL    HW117882   1.649   0.182   1.090  0.5970  1.2277 -0.9313
 2141SOL    HW217883   1.506   0.220   1.056 -2.2052 -2.1015 -1.3145
 2142SOL     OW17884   0.558   0.338  17.556 -0.7012 -0.2061 -0.0489
 2142SOL    HW117885   0.542   0.313  17.465  0.0100 -1.0355  0.0555
 2142SOL    HW217886   0.650   0.312  17.562 -0.2473  2.2322  3.1208
 2143SOL     OW17887   0.454   1.384   7.146  0.1392 -0.0392  0.9144
 2143SOL    HW117888   0.379   1.334   7.176 -0.2958  1.0295  1.6115
 2143SOL    HW217889   0.507   1.384   7.226  0.3356 -1.1244  0.7863
 2144SOL     OW17890   2.505   2.764   8.358 -0.5440  0.0489 -0.0225
 2144SOL    HW117891   2.546   2.697   8.413 -0.8318 -0.4857 -0.4519
 2144SOL    HW217892   2.482   2.827   8.426 -0.2020  0.5651 -0.3878
 2145SOL     OW17893   3.437   4.184   7.395 -0.0574  0.3914 -0.2857
 2145SOL    HW117894   3.398   4.272   7.398  0.4948  0.7258 -2.7139
 2145SOL    HW217895   3.417   4.160   7.486  2.4772  0.3831  0.2808
 2146SOL     OW17896   1.897   0.242  12.554 -0.1823  0.2321 -0.8883
 2146SOL    HW117897   1.827   0.208  12.498 -0.4719 -0.7344  0.0574
 2146SOL    HW217898   1.846   0.231  12.635  0.7641  2.8134  0.0673
 2147SOL     OW17899   1.826   1.444  14.298  0.2779 -0.3581  0.4854
 2147SOL    HW117900   1.760   1.493  14.249 -1.2576 -0.7541  2.1478
 2147SOL    HW217901   1.840   1.508  14.368 -0.5850  1.2636 -0.8384
 2148SOL     OW17902   2.472   0.278   0.621  0.3940  0.3275  0.3216
 2148SOL    HW117903   2.448   0.268   0.713 -3.3539  0.5416 -0.6332
 2148SOL    HW217904   2.541   0.343   0.637  0.0144  0.3576  1.8694
 2149SOL     OW17905   0.931   1.092   5.287  0.1387  0.4218 -0.3811
 2149SOL    HW117906   0.977   1.053   5.361 -3.0072  1.0489  1.9207
 2149SOL    HW217907   0.840   1.065   5.297  0.0161  1.0920  0.3148
 2150SOL     OW17908   2.130   3.135   4.838 -0.0952  0.0796  0.5699
 2150SOL    HW117909   2.112   3.066   4.774  0.6084 -1.7245  2.3029
 2150SOL    HW217910   2.224   3.152   4.831 -0.4329  0.5730 -2.9200
 2151SOL     OW17911   2.847   2.443   4.758 -0.0990  0.2361  0.4502
 2151SOL    HW117912   2.850   2.417   4.850  0.0847 -2.8243 -0.4425
 2151SOL    HW217913   2.930   2.486   4.736  0.7634 -2.5766 -1.6948
 2152SOL     OW17914   1.066   1.117   4.484  0.0832  0.0002 -0.1440
 2152SOL    HW117915   1.094   1.043   4.537 -1.3010 -0.3570  0.0735
 2152SOL    HW217916   1.132   1.184   4.502  2.6486 -2.4574 -0.3273
 2153SOL     OW17917   4.397   0.834   1.572  0.2801 -0.3129  0.4002
 2153SOL    HW117918   4.361   0.752   1.605 -1.8744 -0.2250 -1.7523
 2153SOL    HW217919   4.322   0.870   1.525  0.1995 -0.4074  0.4558
 2154SOL     OW17920   3.876   3.352   7.659  0.2005  0.3007 -0.3395
 2154SOL    HW117921   3.940   3.400   7.712 -1.8543  1.7798  0.8262
 2154SOL    HW217922   3.886   3.393   7.572  0.6540 -0.4237 -0.6271
 2155SOL     OW17923   4.543   1.323   6.911 -0.0781  0.1051 -0.1649
 2155SOL    HW117924   4.449   1.331   6.927 -0.3965 -1.6084 -1.0638
 2155SOL    HW217925   4.568   1.415   6.910 -0.9448  0.3099 -3.3540
 2156SOL     OW17926   3.953   0.922   9.065 -0.0072  0.1262  0.1741
 2156SOL    HW117927   3.942   0.979   8.988 -1.7983 -0.7182 -0.2059
 2156SOL    HW217928   3.925   0.979   9.137  0.7208 -0.8377  1.2079
 2157SOL     OW17929   3.235   4.437   0.126  0.0678  0.1808  0.4819
 2157SOL    HW117930   3.260   4.484   0.206 -2.1127  1.1426  0.6004
 2157SOL    HW217931   3.315   4.451   0.074  1.2989 -2.7191  1.6352
 2158SOL     OW17932   0.807   1.413   6.635  0.0414  0.0325 -0.2379
 2158SOL    HW117933   0.723   1.393   6.593 -0.9738  2.0857  0.8247
 2158SOL    HW217934   0.784   1.397   6.727  2.0048  0.3347  0.3050
 2159SOL     OW17935   3.802   0.110   8.959 -0.4702  0.8631 -0.3494
 2159SOL    HW117936   3.821   0.016   8.966  1.2794  1.4331  2.5414
 2159SOL    HW217937   3.725   0.118   9.015  0.0713 -1.3237  0.6998
 2160SOL     OW17938   1.051   2.735  17.043  0.1220 -0.1587  0.4133
 2160SOL    HW117939   1.041   2.676  16.969 -0.1009  0.1288  0.2170
 2160SOL    HW217940   1.054   2.823  17.004  1.2688 -0.1457  0.5389
 2161SOL     OW17941   3.495   2.981   5.101  0.2743  0.0268  0.0791
 2161SOL    HW117942   3.573   2.926   5.111  0.6745  0.5227 -0.3545
 2161SOL    HW217943   3.504   3.051   5.167 -0.9273  0.2611 -0.0130
 2162SOL     OW17944   3.375   4.047   2.834 -0.3720 -0.2571 -0.5325
 2162SOL    HW117945   3.362   3.989   2.909 -2.2894  1.1757  0.2272
 2162SOL    HW217946   3.301   4.108   2.839  0.9979  1.2929  0.7642
 2163SOL     OW17947   1.371   2.608   0.284  0.5614  0.0491 -0.0761
 2163SOL    HW117948   1.400   2.575   0.199 -0.9444 -2.6387  0.4479
 2163SOL    HW217949   1.286   2.644   0.258 -0.0749 -0.6519  1.0362
 2164SOL     OW17950   2.923   2.246   5.579  0.2356 -0.2104 -0.3376
 2164SOL    HW117951   3.003   2.212   5.619  1.6438  0.4572 -2.6174
 2164SOL    HW217952   2.874   2.291   5.648  1.6827 -0.3269  0.7645
 2165SOL     OW17953   1.684   1.222   0.459  0.1226  0.3566  0.0736
 2165SOL    HW117954   1.664   1.280   0.385 -0.8196  0.9224  0.7707
 2165SOL    HW217955   1.779   1.221   0.449  0.2169  0.2112  1.0170
 2166SOL     OW17956   1.217   4.239   8.368 -0.2807 -0.3092 -0.2231
 2166SOL    HW117957   1.196   4.333   8.376  2.4253  0.0593  2.4299
 2166SOL    HW217958   1.283   4.244   8.299  1.7738 -0.9588  1.6826
 2167SOL     OW17959   0.388   3.355   9.817  0.3721  0.4338  0.1200
 2167SOL    HW117960   0.366   3.430   9.871  0.5040  1.0749 -0.7208
 2167SOL    HW217961   0.359   3.383   9.730  0.6865 -0.0718 -0.1496
 2168SOL     OW17962   3.597   4.170   1.659  0.0269  0.1915  0.5963
 2168SOL    HW117963   3.571   4.172   1.567 -1.1721  0.6819  0.9407
 2168SOL    HW217964   3.692   4.181   1.652 -0.1753  1.0837 -0.6303
 2169SOL     OW17965   0.834   2.082  16.435  0.2436  0.4423 -0.5692
 2169SOL    HW117966   0.876   2.058  16.352 -0.2255 -0.9026 -0.4157
 2169SOL    HW217967   0.768   2.013  16.443 -1.2228  1.6525 -2.1943
 2170SOL     OW17968   3.713   2.793  11.177 -0.2658  0.4051  0.2696
 2170SOL    HW117969   3.713   2.698  11.161  0.0031  0.4812 -0.1918
 2170SOL    HW217970   3.621   2.811  11.196 -0.4426 -1.5182  1.2466
 2171SOL     OW17971   1.646   1.366   0.711  0.0831 -0.9767 -0.7762
 2171SOL    HW117972   1.727   1.408   0.683  0.8686 -0.4503  2.2938
 2171SOL    HW217973   1.637   1.303   0.639  0.2487 -0.0400 -1.6202
 2172SOL     OW17974   4.641   0.121   0.189  0.5419 -0.1098 -0.4251
 2172SOL    HW117975   4.580   0.191   0.214  2.6158  0.6234  2.6360
 2172SOL    HW217976   0.005   0.160   0.179 -0.2748  1.7743 -0.1913
 2173SOL     OW17977   3.094   3.700  10.038  0.1202 -0.2705  0.3279
 2173SOL    HW117978   3.094   3.693   9.943  0.3575 -0.3615  0.3358
 2173SOL    HW217979   3.171   3.753  10.059 -0.6189  0.9475 -0.0564
 2174SOL     OW17980   3.502   3.883   1.573  0.2367 -0.5702 -0.4497
 2174SOL    HW117981   3.472   3.969   1.602 -2.5604 -1.5959 -0.3252
 2174SOL    HW217982   3.547   3.854   1.652  1.1565  0.4570 -0.5970
 2175SOL     OW17983   0.344   2.600   4.349  0.0220  0.1516 -0.2882
 2175SOL    HW117984   0.359   2.690   4.319  0.0244 -0.4269 -2.0686
 2175SOL    HW217985   0.411   2.552   4.300 -0.1853 -0.4380  0.0156
 2176SOL     OW17986   4.187   2.523   0.373  0.2644  0.8674 -0.6036
 2176SOL    HW117987   4.213   2.494   0.286  0.7275  0.0724 -0.1991
 2176SOL    HW217988   4.130   2.448   0.390 -0.2435  1.0269 -1.6619
 2177SOL     OW17989   2.700   0.892   4.677 -0.9457 -0.4090  0.5595
 2177SOL    HW117990   2.650   0.903   4.758 -1.3597 -1.1315  0.4019
 2177SOL    HW217991   2.789   0.874   4.709 -1.4313 -0.0790  2.0821
 2178SOL     OW17992   1.540   1.121   2.385  0.0772 -0.6902 -0.1294
 2178SOL    HW117993   1.504   1.150   2.301  2.1147  1.4332 -0.2711
 2178SOL    HW217994   1.629   1.156   2.388  0.6962 -2.3189  0.5914
 2179SOL     OW17995   1.995   0.916  10.115  0.1505  0.3236 -0.0093
 2179SOL    HW117996   1.974   0.994  10.064 -0.6105 -0.3761 -0.7635
 2179SOL    HW217997   1.932   0.931  10.186 -1.1655  1.3796 -1.4128
 2180SOL     OW17998   1.343   2.182   2.066  0.1384  0.2059 -0.0575
 2180SOL    HW117999   1.378   2.234   1.993  2.0081  0.6369  1.1729
 2180SOL    HW218000   1.358   2.099   2.021 -0.1616  0.0445  0.1408
 2181SOL     OW18001   0.216   1.415   2.108  0.2900 -0.3184 -0.2487
 2181SOL    HW118002   0.293   1.426   2.163  1.6329 -0.1652 -2.1326
 2181SOL    HW218003   0.180   1.504   2.101  1.5710  0.3127  1.4515
 2182SOL     OW18004   2.250   0.394   3.437 -0.7117 -0.3095  0.0925
 2182SOL    HW118005   2.210   0.422   3.519 -3.9528 -2.5387 -0.7735
 2182SOL    HW218006   2.236   0.301   3.421  4.7245 -1.2764  0.7279
 2183SOL     OW18007   0.191   0.409   2.617  0.0028 -0.4381  0.3196
 2183SOL    HW118008   0.283   0.406   2.591  0.2567 -1.3134  1.3260
 2183SOL    HW218009   0.189   0.356   2.696 -0.8574 -1.3345 -0.3064
 2184SOL     OW18010   1.669   1.827  15.557 -0.5158 -0.0798 -0.0833
 2184SOL    HW118011   1.714   1.869  15.631 -0.8585 -0.5687  0.3957
 2184SOL    HW218012   1.584   1.800  15.590 -0.0813  0.0389  1.1497
 2185SOL     OW18013   1.104   1.368  12.054 -0.4281  0.1874 -0.3174
 2185SOL    HW118014   1.030   1.389  12.112  1.0775  2.4121  0.7812
 2185SOL    HW218015   1.169   1.354  12.123 -1.2683 -0.0181  0.4368
 2186SOL     OW18016   3.111   0.055  11.497 -0.5614 -0.1809 -0.1305
 2186SOL    HW118017   3.017   0.042  11.506 -0.3160 -1.2855  0.8642
 2186SOL    HW218018   3.117   0.099  11.582 -1.9694 -1.1014  0.4555
 2187SOL     OW18019   3.284   3.869   7.933 -0.4826 -0.3646 -0.6145
 2187SOL    HW118020   3.318   3.779   7.930  1.5288  0.3952 -0.5548
 2187SOL    HW218021   3.202   3.857   7.981 -0.4613  1.0715 -0.2479
 2188SOL     OW18022   1.071   1.210   1.834 -0.2177 -0.1583  0.0895
 2188SOL    HW118023   0.996   1.153   1.820  1.7578 -2.1582 -2.2806
 2188SOL    HW218024   1.107   1.214   1.745  2.2204  1.0279  1.1296
 2189SOL     OW18025   2.445   4.555   5.629  0.0245  0.2935  0.1991
 2189SOL    HW118026   2.429   4.463   5.648 -1.4773  0.1961 -1.4787
 2189SOL    HW218027   2.420   4.591   5.714  3.0677 -0.5498  1.4204
 2190SOL     OW18028   1.676   0.950   4.294 -0.4630  0.6043  0.2222
 2190SOL    HW118029   1.686   0.963   4.388 -0.1956 -0.0940  0.2866
 2190SOL    HW218030   1.594   0.901   4.283 -0.3195  0.0245  1.8207
 2191SOL     OW18031   3.648   3.890   7.996 -0.5842  0.2597 -0.2600
 2191SOL    HW118032   3.742   3.885   8.015 -0.2647 -0.3696 -2.0624
 2191SOL    HW218033   3.637   3.985   8.003 -5.3750 -0.2204 -1.8202
 2192SOL     OW18034   2.152   3.972   5.524  0.5544  0.2414  0.6754
 2192SOL    HW118035   2.178   3.925   5.445 -0.5000 -0.5848  0.8267
 2192SOL    HW218036   2.208   3.924   5.584 -0.7821  2.1888  3.4938
 2193SOL     OW18037   0.864   0.021   6.615 -0.0732  0.2970 -0.4528
 2193SOL    HW118038   0.840   4.683   6.545 -0.8510 -1.6023  1.4495
 2193SOL    HW218039   0.794   0.086   6.616 -0.2828  0.0664  0.4152
 2194SOL     OW18040   2.001   3.839   1.407  0.4583  1.2039 -0.4597
 2194SOL    HW118041   1.941   3.765   1.406  1.4064  0.4284  0.4191
 2194SOL    HW218042   2.034   3.835   1.317  2.3285  4.7303  0.0588
 2195SOL     OW18043   1.121   4.483   8.451  0.2109  0.5833  0.0742
 2195SOL    HW118044   1.102   4.576   8.435  1.9753  1.0634  0.7142
 2195SOL    HW218045   1.159   4.480   8.539  1.6533  0.9324 -0.5459
 2196SOL     OW18046   3.140   3.118   6.677 -0.0494 -0.2961 -0.1223
 2196SOL    HW118047   3.213   3.079   6.628 -0.1280  0.4979 -0.8822
 2196SOL    HW218048   3.180   3.135   6.762 -0.9566 -1.2744  0.4885
 2197SOL     OW18049   2.082   1.700  14.315 -0.3849  0.2849  0.1761
 2197SOL    HW118050   2.042   1.656  14.390 -3.0489 -1.8262 -2.4765
 2197SOL    HW218051   2.078   1.785  14.359  2.9012  0.4291  0.1928
 2198SOL     OW18052   3.937   3.206  13.007  0.2272  0.2871  0.5668
 2198SOL    HW118053   3.846   3.222  12.981  0.1066 -1.6133 -0.1955
 2198SOL    HW218054   3.927   3.114  13.033  1.9022  0.5915  2.2474
 2199SOL     OW18055   0.300   1.599   3.503 -0.0139 -0.2671 -0.4059
 2199SOL    HW118056   0.294   1.573   3.411  0.7557 -1.9959  0.0350
 2199SOL    HW218057   0.338   1.523   3.547 -1.4096 -0.1189  1.0352
 2200SOL     OW18058   1.994   0.708   9.559 -0.1548  0.8580  0.0791
 2200SOL    HW118059   1.959   0.626   9.524 -0.3341  0.7552  0.4928
 2200SOL    HW218060   2.055   0.671   9.623  1.7228  1.2377 -1.4873
 2201SOL     OW18061   0.600   0.781   0.512 -0.3118 -0.4006 -0.6594
 2201SOL    HW118062   0.674   0.840   0.500 -2.0462  2.2358  1.6798
 2201SOL    HW218063   0.647   0.711   0.558 -1.4501 -0.0543  1.0395
 2202SOL     OW18064   4.208   4.012  15.207 -0.0529 -0.2049  0.5155
 2202SOL    HW118065   4.256   4.090  15.180 -0.4528  0.5905  2.1554
 2202SOL    HW218066   4.207   4.016  15.302  0.0318 -1.7211  0.5766
 2203SOL     OW18067   1.740   3.157   0.984  0.0782 -0.2515 -0.2087
 2203SOL    HW118068   1.801   3.083   0.986 -1.0991 -1.1271  2.4661
 2203SOL    HW218069   1.739   3.180   1.077 -2.0510  0.8512 -0.5137
 2204SOL     OW18070   2.000   2.414  12.450 -0.1710 -0.4072  0.1805
 2204SOL    HW118071   1.982   2.358  12.525 -1.8649 -1.2684 -0.8474
 2204SOL    HW218072   1.933   2.483  12.452  2.4292  2.1982 -1.6468
 2205SOL     OW18073   2.997   0.871   0.216  0.0932 -0.2542 -0.2075
 2205SOL    HW118074   3.036   0.958   0.206 -1.4481  0.0461 -3.6432
 2205SOL    HW218075   2.906   0.900   0.215  0.4034  0.7036 -0.3598
 2206SOL     OW18076   2.250   3.063   1.178  0.5628 -0.3214  0.5086
 2206SOL    HW118077   2.163   3.063   1.139  0.9700 -1.8713 -0.3749
 2206SOL    HW218078   2.252   2.979   1.223  0.6351 -0.6841 -0.1729
 2207SOL     OW18079   2.435   1.435   7.106  0.4552 -0.3056 -0.0020
 2207SOL    HW118080   2.486   1.477   7.036 -0.3430  1.4514  0.4756
 2207SOL    HW218081   2.444   1.344   7.076  0.2633 -0.6602  1.0401
 2208SOL     OW18082   1.100   4.243   5.294  0.2451 -0.0347 -0.1331
 2208SOL    HW118083   1.180   4.284   5.328  1.3327 -1.3179 -1.1350
 2208SOL    HW218084   1.043   4.285   5.357 -0.0981  0.0483 -0.4979
 2209SOL     OW18085   2.471   3.879   7.005 -0.4031 -0.0240 -0.8257
 2209SOL    HW118086   2.515   3.809   6.957  0.2513 -0.0572 -0.1781
 2209SOL    HW218087   2.404   3.828   7.051 -0.4709  1.2202  0.4797
 2210SOL     OW18088   3.747   4.085   5.976  0.1210  1.1003  0.1331
 2210SOL    HW118089   3.706   4.090   6.063 -1.0821  0.2247 -0.3769
 2210SOL    HW218090   3.738   4.175   5.947 -1.8363  1.2365  1.1370
 2211SOL     OW18091   1.493   2.028   4.509 -0.0876  0.0275 -0.3398
 2211SOL    HW118092   1.476   1.939   4.480  2.8025 -0.0579 -1.7273
 2211SOL    HW218093   1.515   2.069   4.426  3.0627  0.7773  0.8877
 2212SOL     OW18094   2.011   0.474  12.729 -0.3646  0.3517 -0.0245
 2212SOL    HW118095   1.981   0.448  12.642  0.7283  0.6536 -0.4867
 2212SOL    HW218096   1.928   0.485  12.775  0.5140  0.6448  1.4965
 2213SOL     OW18097   1.244   0.444  16.263 -0.0463 -0.2900 -0.2847
 2213SOL    HW118098   1.202   0.528  16.283 -2.3189 -1.4880  0.0855
 2213SOL    HW218099   1.322   0.448  16.318  0.3069  0.3232 -0.8376
 2214SOL     OW18100   3.460   3.192   1.806 -0.0902 -0.3952 -0.0441
 2214SOL    HW118101   3.503   3.159   1.727 -0.1767  0.8301 -0.6070
 2214SOL    HW218102   3.457   3.118   1.866 -1.0039 -0.4425 -0.1375
 2215SOL     OW18103   0.504   3.546   1.934 -0.5825 -0.4876 -0.6650
 2215SOL    HW118104   0.487   3.459   1.972 -0.1565  0.1639  1.0324
 2215SOL    HW218105   0.491   3.603   2.010 -0.3220  0.5144 -1.3790
 2216SOL     OW18106   0.924   1.590   8.985 -0.0911  0.6232 -0.5430
 2216SOL    HW118107   0.906   1.556   9.073  1.0571  0.0839 -0.5174
 2216SOL    HW218108   0.936   1.684   9.001 -3.2041  0.8030  0.6948
 2217SOL     OW18109   1.867   1.181   4.245 -0.5679  0.4282 -0.2985
 2217SOL    HW118110   1.856   1.211   4.155  1.7285  2.2997  0.0499
 2217SOL    HW218111   1.819   1.099   4.235  2.1705 -0.8522 -2.8367
 2218SOL     OW18112   1.280   2.930   3.226  0.1970 -0.0417 -0.6913
 2218SOL    HW118113   1.188   2.917   3.202 -0.2712  0.5729  0.7344
 2218SOL    HW218114   1.313   2.898   3.142 -0.0191  1.7051 -1.4508
 2219SOL     OW18115   2.629   4.663   7.950  0.5469 -0.0312 -0.5966
 2219SOL    HW118116   2.588   4.720   8.015 -0.4442 -0.2766 -1.0038
 2219SOL    HW218117   2.692   0.005   7.918  0.5935  0.2243  0.0100
 2220SOL     OW18118   1.345   4.617   6.251 -0.5221 -0.1850 -0.3223
 2220SOL    HW118119   1.407   4.544   6.255 -2.2202 -1.5863  0.1469
 2220SOL    HW218120   1.270   4.584   6.299 -0.2400  0.1498  0.3457
 2221SOL     OW18121   0.807   1.322   2.216 -0.2231  0.1634  0.8140
 2221SOL    HW118122   0.838   1.350   2.130  0.4887 -2.6606  0.1371
 2221SOL    HW218123   0.887   1.352   2.259  0.6189 -1.8009  0.6048
 2222SOL     OW18124   2.769   3.726   6.306  0.0844  0.0134 -0.2277
 2222SOL    HW118125   2.806   3.686   6.227 -0.0423  0.2756 -0.4205
 2222SOL    HW218126   2.676   3.710   6.288  0.5330 -0.6652 -2.0428
 2223SOL     OW18127   2.155   4.333   6.971 -0.0784  0.6184 -0.1570
 2223SOL    HW118128   2.229   4.383   7.006  2.1386 -2.4538 -0.5188
 2223SOL    HW218129   2.117   4.290   7.048  0.6504  0.7790  0.2967
 2224SOL     OW18130   1.627   1.587   6.550 -0.5076  0.1866  0.2293
 2224SOL    HW118131   1.566   1.580   6.477 -1.3196  2.3159  0.6955
 2224SOL    HW218132   1.621   1.682   6.566  1.5699  0.2132  0.8237
 2225SOL     OW18133   0.293   3.079   6.611  0.3025 -0.9538  0.1964
 2225SOL    HW118134   0.201   3.096   6.593  0.0741 -1.7107  0.6569
 2225SOL    HW218135   0.332   3.165   6.626 -0.1776 -0.7270  0.1438
 2226SOL     OW18136   0.500   2.297  11.197 -0.2731  0.0685 -0.7232
 2226SOL    HW118137   0.594   2.309  11.204 -0.1596 -0.6664 -1.0547
 2226SOL    HW218138   0.479   2.272  11.287 -4.2962  2.6791 -0.8910
 2227SOL     OW18139   1.249   0.744   4.281 -1.0576  0.2043 -0.4575
 2227SOL    HW118140   1.263   0.679   4.349 -1.5258  0.3303 -0.2445
 2227SOL    HW218141   1.281   0.708   4.198 -0.2362  0.4944 -0.2706
 2228SOL     OW18142   3.918   4.599   4.222 -0.5653 -0.5471  0.0216
 2228SOL    HW118143   3.907   4.683   4.177  2.5746 -0.1663 -0.0330
 2228SOL    HW218144   4.002   4.577   4.181 -0.7574  0.1722 -0.7659
 2229SOL     OW18145   2.391   4.720  15.008  0.0253 -0.3441  0.0628
 2229SOL    HW118146   2.310   0.048  15.020 -0.1572  0.0011 -2.6636
 2229SOL    HW218147   2.444   0.014  15.085 -0.6712  1.3070  0.1874
 2230SOL     OW18148   1.779   1.219  16.238  0.3573  0.1654  0.6240
 2230SOL    HW118149   1.867   1.200  16.206  1.3629  3.1505  1.6124
 2230SOL    HW218150   1.736   1.220  16.152 -1.2822  1.8741  1.4447
 2231SOL     OW18151   2.403   0.005   8.840 -0.2693 -0.4268  0.4378
 2231SOL    HW118152   2.442   4.661   8.899 -1.1097 -1.6443 -0.3791
 2231SOL    HW218153   2.347   0.061   8.894 -1.3550 -0.5535 -0.5601
 2232SOL     OW18154   3.198   3.163   3.272 -0.2834  0.0087  0.5734
 2232SOL    HW118155   3.259   3.097   3.305  0.7575  0.6519 -0.0815
 2232SOL    HW218156   3.155   3.185   3.355 -0.6590  0.8568  0.1581
 2233SOL     OW18157   0.591   3.295   3.603 -0.5340 -0.3256  0.5359
 2233SOL    HW118158   0.667   3.264   3.553 -1.1603 -0.3988 -0.3757
 2233SOL    HW218159   0.612   3.387   3.617  0.1717 -0.2217 -1.1393
 2234SOL     OW18160   4.456   4.295   7.314 -0.0629  0.2546  1.0155
 2234SOL    HW118161   4.490   4.348   7.386  1.7595 -0.7925  0.8972
 2234SOL    HW218162   4.524   4.302   7.248 -0.0153  0.6510  1.1049
 2235SOL     OW18163   2.811   4.390   8.867  0.2195 -0.4961  0.9651
 2235SOL    HW118164   2.843   4.431   8.947  0.5001  1.1348  0.0092
 2235SOL    HW218165   2.731   4.348   8.898 -1.1249  2.2796  1.1808
 2236SOL     OW18166   2.917   3.554  15.993 -0.1487  0.1474  0.2020
 2236SOL    HW118167   2.858   3.501  16.046  0.0902  0.4223  0.7454
 2236SOL    HW218168   2.999   3.552  16.043 -0.2027  2.4200  0.4045
 2237SOL     OW18169   2.964   0.228   2.780  0.1075  0.5330  0.1279
 2237SOL    HW118170   2.939   0.216   2.872  0.9571  1.8896  0.5366
 2237SOL    HW218171   3.043   0.282   2.788 -0.4017  1.4423 -1.0508
 2238SOL     OW18172   0.915   0.273   8.121  0.3332 -0.6606 -0.7586
 2238SOL    HW118173   0.841   0.248   8.177  1.5879 -1.5064  0.5353
 2238SOL    HW218174   0.984   0.267   8.188 -1.9333  0.9684  1.7363
 2239SOL     OW18175   4.438   2.706  14.007 -0.0345  0.1390 -0.1361
 2239SOL    HW118176   4.471   2.677  13.922 -0.4081 -0.7479  0.0228
 2239SOL    HW218177   4.488   2.786  14.023 -2.3976  1.6195 -0.0039
 2240SOL     OW18178   4.345   1.464   5.788 -0.1835 -0.6315  0.4084
 2240SOL    HW118179   4.364   1.449   5.880 -0.4120 -3.0126  0.0634
 2240SOL    HW218180   4.423   1.427   5.746  0.8107  0.0664  1.6509
 2241SOL     OW18181   1.590   1.998   5.335 -0.4504  0.1028 -0.0783
 2241SOL    HW118182   1.594   1.955   5.420  1.6512 -0.2361 -0.3487
 2241SOL    HW218183   1.677   2.038   5.341 -2.1612  3.8257  0.0966
 2242SOL     OW18184   0.187   2.663   8.359 -0.1946 -0.5204 -0.4820
 2242SOL    HW118185   0.107   2.681   8.310 -1.1984 -1.9633  0.6113
 2242SOL    HW218186   0.189   2.720   8.435  0.1565 -0.9374 -0.1737
 2243SOL     OW18187   1.572   3.657  13.540 -0.1032 -0.4545  0.2571
 2243SOL    HW118188   1.547   3.747  13.517  1.3583  0.1989  1.2745
 2243SOL    HW218189   1.537   3.599  13.472 -0.6523 -1.1543  1.1469
 2244SOL     OW18190   1.287   4.247   1.069  0.2005 -0.6034 -0.3964
 2244SOL    HW118191   1.349   4.186   1.029  0.4446 -0.3083 -0.4689
 2244SOL    HW218192   1.350   4.271   1.137  0.7884 -3.1058 -0.0460
 2245SOL     OW18193   3.042   0.108   7.556  0.4844 -0.4614  0.0036
 2245SOL    HW118194   3.061   0.109   7.650  0.1499  2.0762  0.0446
 2245SOL    HW218195   3.102   0.177   7.527 -1.8764  1.2692 -0.7076
 2246SOL     OW18196   1.738   2.244  14.649  0.4760  0.3517 -0.2345
 2246SOL    HW118197   1.731   2.220  14.741 -0.3029 -2.1292 -0.9225
 2246SOL    HW218198   1.831   2.232  14.629  0.2955 -1.4672 -0.0522
 2247SOL     OW18199   3.899   0.780   6.908 -0.9947  0.3136 -0.0873
 2247SOL    HW118200   3.951   0.825   6.974  0.8225  0.3934 -1.5948
 2247SOL    HW218201   3.944   0.698   6.893  0.4235  1.1021 -0.0936
 2248SOL     OW18202   0.998   4.619   2.972  0.3502 -0.1666  0.2313
 2248SOL    HW118203   1.076   4.675   2.977 -0.0343  0.4287 -0.4649
 2248SOL    HW218204   0.934   4.681   2.937  1.4180  0.7111 -0.1593
 2249SOL     OW18205   1.822   4.688  15.591 -0.4273 -0.0122 -0.5480
 2249SOL    HW118206   1.796   4.662  15.502 -1.0059  1.1063 -0.6971
 2249SOL    HW218207   1.913   4.716  15.583 -0.2450 -1.4322 -3.4117
 2250SOL     OW18208   0.767   3.202   3.380 -0.0091 -0.1401  0.2553
 2250SOL    HW118209   0.802   3.138   3.442 -0.8790 -0.4809  0.3882
 2250SOL    HW218210   0.758   3.151   3.300 -0.2319 -0.1808  0.3071
 2251SOL     OW18211   3.325   4.149  16.587  0.4367  0.3503 -0.3771
 2251SOL    HW118212   3.396   4.173  16.527 -0.9559  0.1436 -2.1139
 2251SOL    HW218213   3.267   4.111  16.521 -0.3024 -1.8721  1.5437
 2252SOL     OW18214   3.954   2.708  17.096 -0.0621  0.2510  0.3631
 2252SOL    HW118215   3.901   2.641  17.141  2.4148 -1.9209  0.0569
 2252SOL    HW218216   3.991   2.760  17.168 -1.4106  0.5971  0.8100
 2253SOL     OW18217   4.378   2.289   8.137  0.4422 -0.5586 -0.3143
 2253SOL    HW118218   4.428   2.207   8.142 -0.4202 -1.0335  0.5527
 2253SOL    HW218219   4.294   2.246   8.156  0.5821 -0.7281 -0.0761
 2254SOL     OW18220   3.858   0.259   1.132  0.0355  0.3560 -0.4672
 2254SOL    HW118221   3.944   0.282   1.168  1.3505 -1.3124 -2.5261
 2254SOL    HW218222   3.800   0.334   1.138  0.4568  0.7951 -1.8394
 2255SOL     OW18223   4.216   3.626  12.556 -0.1944 -0.6574  0.4188
 2255SOL    HW118224   4.215   3.722  12.560  1.3027 -0.6947  1.5734
 2255SOL    HW218225   4.158   3.611  12.630 -0.9229 -3.0038 -0.6324
 2256SOL     OW18226   2.447   0.355   4.595  0.2706 -0.3802  0.7824
 2256SOL    HW118227   2.462   0.278   4.650 -0.2028 -0.7573  0.3818
 2256SOL    HW218228   2.372   0.387   4.644 -0.8441  0.3548 -1.4146
 2257SOL     OW18229   1.268   4.635   6.591  0.0938 -0.8414  0.3477
 2257SOL    HW118230   1.311   4.579   6.656  0.8829 -0.8532 -0.1885
 2257SOL    HW218231   1.196   4.581   6.559  0.9449 -3.3044  2.6227
 2258SOL     OW18232   4.298   0.399   2.594  0.2102 -0.1076 -0.4734
 2258SOL    HW118233   4.267   0.484   2.628 -0.6441 -0.9751  0.9066
 2258SOL    HW218234   4.288   0.426   2.503 -2.6207  1.6200  0.3174
 2259SOL     OW18235   2.630   1.110  11.181 -0.6188 -0.3567 -0.3549
 2259SOL    HW118236   2.594   1.097  11.093  1.2986 -3.0358 -0.7447
 2259SOL    HW218237   2.638   1.205  11.171  0.8125 -0.4949 -0.6077
 2260SOL     OW18238   2.993   3.999   9.922  0.4131 -0.3095  0.3806
 2260SOL    HW118239   3.026   3.937   9.856  2.4263  0.2857  0.8254
 2260SOL    HW218240   3.032   4.083   9.898 -1.0640  0.2408 -0.0448
 2261SOL     OW18241   4.306   3.774   8.575 -0.9050  0.1291  0.2175
 2261SOL    HW118242   4.269   3.862   8.584  2.1659  1.2193  2.3485
 2261SOL    HW218243   4.351   3.770   8.659  2.1259  1.1512 -1.3762
 2262SOL     OW18244   2.458   2.479  14.275 -0.1219 -0.3355  0.4750
 2262SOL    HW118245   2.487   2.392  14.248  1.0999  1.0407 -2.6369
 2262SOL    HW218246   2.398   2.462  14.347 -0.7707 -1.2369 -0.2868
 2263SOL     OW18247   3.276   0.577   6.132 -0.2485  0.5449 -0.4153
 2263SOL    HW118248   3.261   0.607   6.042 -1.7029  1.8355  0.2534
 2263SOL    HW218249   3.372   0.570   6.129 -0.0906  1.9615  1.2617
 2264SOL     OW18250   0.096   2.821   6.116  0.0914 -0.2328  0.1372
 2264SOL    HW118251   0.168   2.791   6.173  1.3133  1.6763 -0.4272
 2264SOL    HW218252   0.116   2.914   6.108 -0.4309 -0.2671 -1.3563
 2265SOL     OW18253   0.966   0.914  12.520  0.1582  0.2289  0.2140
 2265SOL    HW118254   0.959   0.823  12.493 -1.4032  0.4262 -0.0489
 2265SOL    HW218255   0.980   0.957  12.436  0.2600 -2.2085 -1.0037
 2266SOL     OW18256   0.364   0.678   0.684  0.2492 -0.3131 -0.1004
 2266SOL    HW118257   0.324   0.685   0.597 -0.6762 -1.2424  0.2426
 2266SOL    HW218258   0.452   0.707   0.661  0.6165 -0.5710  0.9843
 2267SOL     OW18259   1.233   2.978   1.866 -0.0460 -0.0382  0.6235
 2267SOL    HW118260   1.247   2.899   1.918 -1.5414  0.1604  1.3472
 2267SOL    HW218261   1.200   3.041   1.930  1.3052  0.6168  0.6704
 2268SOL     OW18262   4.221   4.283   2.189 -0.6575  0.5479  0.0360
 2268SOL    HW118263   4.247   4.210   2.132 -1.8477  1.9507 -2.2835
 2268SOL    HW218264   4.235   4.354   2.127  0.2412  0.1641 -0.1988
 2269SOL     OW18265   0.264   0.481  12.571  0.8076  0.2256  0.0334
 2269SOL    HW118266   0.213   0.540  12.516  1.8250  1.7364  0.7177
 2269SOL    HW218267   0.198   0.452  12.634  0.1575 -0.9399 -1.2001
 2270SOL     OW18268   3.286   2.835   5.002 -0.3166 -0.1908  0.0879
 2270SOL    HW118269   3.289   2.749   5.044  0.2546 -0.5912 -0.7662
 2270SOL    HW218270   3.358   2.884   5.042  0.2839 -2.2950  1.5913
 2271SOL     OW18271   3.047   0.439  11.848 -0.8391  0.7878  0.3403
 2271SOL    HW118272   3.062   0.516  11.793  1.8681 -0.5273 -0.7846
 2271SOL    HW218273   3.125   0.439  11.903  0.5470  0.5373 -1.6046
 2272SOL     OW18274   3.264   2.444   4.779  0.5546  0.0431  0.2909
 2272SOL    HW118275   3.253   2.359   4.736 -1.4026 -0.4059  1.6490
 2272SOL    HW218276   3.183   2.487   4.752 -0.6676 -0.7179  2.7025
 2273SOL     OW18277   1.549   3.980  13.223  0.2399  0.7433 -0.0552
 2273SOL    HW118278   1.505   3.938  13.296  1.3993 -1.9167 -0.8905
 2273SOL    HW218279   1.605   3.907  13.200 -1.4255 -0.9137  1.2063
 2274SOL     OW18280   2.049   4.398   4.207  0.1451 -0.3321  0.2512
 2274SOL    HW118281   2.057   4.475   4.264  0.2531 -0.1462 -0.0154
 2274SOL    HW218282   1.995   4.423   4.132  0.2045  1.3803  0.7671
 2275SOL     OW18283   1.981   0.939  11.646 -0.5059  0.2600 -0.3467
 2275SOL    HW118284   1.903   0.913  11.695  0.3030  1.3462  1.5042
 2275SOL    HW218285   2.050   0.936  11.713 -2.0178 -1.9974  1.0780
 2276SOL     OW18286   3.920   1.158   2.391  0.5517 -1.0089  0.2425
 2276SOL    HW118287   3.894   1.246   2.419 -0.1929 -0.1231 -3.2364
 2276SOL    HW218288   4.013   1.168   2.410  0.5225 -0.5368  0.1413
 2277SOL     OW18289   4.245   3.393   3.399 -0.2820 -0.0172 -0.2064
 2277SOL    HW118290   4.236   3.487   3.419 -1.3412  0.1645 -1.5381
 2277SOL    HW218291   4.330   3.380   3.441 -0.4124  0.8288  0.3338
 2278SOL     OW18292   0.104   2.267   8.591  0.1826  0.5573 -0.2883
 2278SOL    HW118293   0.185   2.225   8.619 -1.2347 -1.0840  1.3572
 2278SOL    HW218294   0.088   2.335   8.656 -0.7230 -0.7468  0.8485
 2279SOL     OW18295   4.095   2.726   8.725 -0.0059  0.0948 -0.0311
 2279SOL    HW118296   4.022   2.677   8.763 -0.0921  0.1169 -0.1656
 2279SOL    HW218297   4.149   2.650   8.705  0.3875  0.4301 -0.2319
 2280SOL     OW18298   2.634   4.208  11.716 -0.5060  0.2156  0.8225
 2280SOL    HW118299   2.687   4.241  11.789  0.3608  1.4924 -0.3695
 2280SOL    HW218300   2.703   4.161  11.668 -0.1217  1.6730 -0.0469
 2281SOL     OW18301   3.244   0.501   1.475  0.3492  0.2723 -0.5419
 2281SOL    HW118302   3.276   0.461   1.556 -0.9721  1.1376  0.4216
 2281SOL    HW218303   3.166   0.544   1.509 -0.3421 -0.2924 -1.4311
 2282SOL     OW18304   4.103   0.889   7.246  1.1488 -0.5128  0.4829
 2282SOL    HW118305   4.176   0.894   7.307  0.4947 -2.5019  1.4420
 2282SOL    HW218306   4.050   0.820   7.287 -1.2291  1.5539  0.8638
 2283SOL     OW18307   0.809   0.412   4.564 -0.0921  0.1099  0.0043
 2283SOL    HW118308   0.887   0.402   4.509  0.4770  1.3772  0.5885
 2283SOL    HW218309   0.773   0.497   4.540 -4.2974 -1.8492 -0.7086
 2284SOL     OW18310   0.489   1.918   1.539  0.0149  0.2495 -0.4915
 2284SOL    HW118311   0.574   1.878   1.557 -0.2215  0.8847  1.9606
 2284SOL    HW218312   0.447   1.866   1.471 -0.1339 -0.4161  0.1165
 2285SOL     OW18313   0.859   0.990   3.807 -0.7545  0.2529 -0.2808
 2285SOL    HW118314   0.893   0.908   3.772  1.0654  1.8148 -2.1606
 2285SOL    HW218315   0.815   1.029   3.731  0.1074 -1.5985 -1.7426
 2286SOL     OW18316   3.262   4.662  11.323  0.2690 -0.2430  0.1741
 2286SOL    HW118317   3.194   4.652  11.256  0.8102 -0.1117 -0.3919
 2286SOL    HW218318   3.207   4.717  11.378  2.6867 -0.4418  2.7646
 2287SOL     OW18319   2.015   4.709   9.117  0.8058  0.3205  0.2755
 2287SOL    HW118320   1.923   4.709   9.144  0.9845  1.7993  0.8389
 2287SOL    HW218321   2.049   4.630   9.160 -1.4236 -0.2367  1.0381
 2288SOL     OW18322   1.335   0.398   7.767 -0.5271  0.7603  0.1963
 2288SOL    HW118323   1.388   0.455   7.823  1.6037 -0.7791 -0.2253
 2288SOL    HW218324   1.255   0.449   7.774 -0.1310  0.9758  3.5848
 2289SOL     OW18325   0.651   2.889  17.275 -0.0566 -0.0172 -0.4214
 2289SOL    HW118326   0.556   2.876  17.269 -0.1283  0.9281 -1.2769
 2289SOL    HW218327   0.663   2.970  17.227 -4.4162  0.9085  0.0390
 2290SOL     OW18328   1.582   3.314   8.222 -0.1921 -0.0826 -0.0684
 2290SOL    HW118329   1.514   3.316   8.155 -0.3624  1.5998  0.1651
 2290SOL    HW218330   1.651   3.373   8.193 -0.0672  0.1531  0.7121
 2291SOL     OW18331   2.902   0.545   6.697  0.8309  0.0093  0.5404
 2291SOL    HW118332   2.852   0.467   6.674 -1.2024  1.5653 -0.2870
 2291SOL    HW218333   2.872   0.565   6.786 -1.7349  2.1592 -0.8209
 2292SOL     OW18334   0.627   1.231   4.018  0.1180 -0.1783  0.1528
 2292SOL    HW118335   0.610   1.313   4.063 -0.0044 -0.6156  0.9107
 2292SOL    HW218336   0.697   1.192   4.070  0.4554 -1.0743 -0.9727
 2293SOL     OW18337   3.637   1.940   7.329  0.2144 -0.7124  0.0906
 2293SOL    HW118338   3.627   1.930   7.234  1.9404 -0.3743 -0.1306
 2293SOL    HW218339   3.554   1.908   7.364 -0.5299  2.2490  0.9466
 2294SOL     OW18340   2.689   0.973  11.387 -0.1675 -0.3604  0.7263
 2294SOL    HW118341   2.725   0.894  11.346  0.5540  0.2975  0.0808
 2294SOL    HW218342   2.667   1.025  11.310 -1.7123 -0.1399  1.3369
 2295SOL     OW18343   3.108   3.052  15.087  0.0940  0.0045 -0.1025
 2295SOL    HW118344   3.015   3.026  15.084  0.5281 -1.2016 -2.8107
 2295SOL    HW218345   3.154   2.981  15.132 -0.5820 -1.3895 -1.6164
 2296SOL     OW18346   2.209   1.426  12.971  0.1326 -0.0756  0.2445
 2296SOL    HW118347   2.265   1.380  12.908 -0.1641  0.8531 -0.6858
 2296SOL    HW218348   2.242   1.516  12.967 -0.2099  0.0249 -0.2852
 2297SOL     OW18349   3.704   2.466  10.107 -0.5998  0.0389  0.1252
 2297SOL    HW118350   3.637   2.426  10.051 -0.0454  0.3050 -0.7086
 2297SOL    HW218351   3.738   2.539  10.057 -4.3221  2.0880  0.5943
 2298SOL     OW18352   3.718   4.362   5.822  0.6183  0.5217 -0.3236
 2298SOL    HW118353   3.761   4.447   5.815 -2.1139  2.0487  1.4281
 2298SOL    HW218354   3.643   4.392   5.770  0.0205  0.4194  0.4793
 2299SOL     OW18355   3.288   0.061   2.605  0.3646 -0.4020 -0.1465
 2299SOL    HW118356   3.223   0.079   2.538 -1.6548  0.4871  2.0534
 2299SOL    HW218357   3.263   0.117   2.679  1.6975 -3.0019  2.2793
 2300SOL     OW18358   4.192   2.456   5.891 -0.3475 -0.6708  0.0145
 2300SOL    HW118359   4.119   2.479   5.833 -1.2158 -0.2652  1.2776
 2300SOL    HW218360   4.188   2.529   5.953 -0.7063 -0.3965 -0.3310
 2301SOL     OW18361   1.813   3.133   8.850  0.2785  0.6344  0.1755
 2301SOL    HW118362   1.751   3.202   8.876 -0.2278  0.2792 -0.0966
 2301SOL    HW218363   1.836   3.095   8.934 -0.5980  1.7608  0.9315
 2302SOL     OW18364   1.017   0.472   2.830 -0.2787 -0.2880 -0.5362
 2302SOL    HW118365   1.099   0.520   2.841 -0.7335  0.3541  0.0516
 2302SOL    HW218366   1.041   0.386   2.865  1.7304  0.8711  0.9104
 2303SOL     OW18367   0.651   3.498   3.831  0.4609  0.0479  0.1446
 2303SOL    HW118368   0.616   3.585   3.849  0.4873 -0.2109  1.3924
 2303SOL    HW218369   0.581   3.436   3.849 -0.8830  1.4616 -0.1679
 2304SOL     OW18370   3.333   2.542   3.852 -0.2213  0.2155 -0.4834
 2304SOL    HW118371   3.414   2.590   3.838  1.2394 -1.6503  1.5969
 2304SOL    HW218372   3.284   2.566   3.773  1.7971  2.6779 -0.9542
 2305SOL     OW18373   4.224   3.663   2.023 -0.1966  0.4405  0.1744
 2305SOL    HW118374   4.229   3.606   2.100 -0.2359 -0.6182 -0.6076
 2305SOL    HW218375   4.194   3.605   1.953  0.9943  0.8922 -0.7105
 2306SOL     OW18376   2.388   2.943   4.630 -0.4515 -0.6461 -0.6753
 2306SOL    HW118377   2.359   2.853   4.645  0.6811 -1.3952 -3.0675
 2306SOL    HW218378   2.368   2.948   4.537 -0.2346  1.0594 -0.6303
 2307SOL     OW18379   0.971   1.940  14.022 -0.2744  0.2188  0.5451
 2307SOL    HW118380   1.022   1.908  13.948 -2.4377  1.8280 -1.6248
 2307SOL    HW218381   1.023   1.910  14.097  0.2870 -0.7550 -0.2420
 2308SOL     OW18382   2.665   2.753  11.069  0.1583  0.7681  0.1815
 2308SOL    HW118383   2.576   2.723  11.051  1.5284 -2.0316 -1.8991
 2308SOL    HW218384   2.716   2.676  11.045 -0.7647  0.3899 -0.5621
 2309SOL     OW18385   0.262   3.569   5.541 -0.3463 -0.1970 -0.6166
 2309SOL    HW118386   0.302   3.574   5.628  1.5527  2.8594 -1.6673
 2309SOL    HW218387   0.241   3.663   5.539  0.3035 -0.0374  0.0449
 2310SOL     OW18388   0.093   3.236   6.909  0.5871 -0.5760  0.0486
 2310SOL    HW118389   0.054   3.217   6.824 -0.5734 -0.7183  0.6060
 2310SOL    HW218390   0.180   3.266   6.885  0.3165  0.5990  0.5560
 2311SOL     OW18391   2.644   2.873   8.788 -0.0218 -0.2904 -0.4187
 2311SOL    HW118392   2.696   2.953   8.793 -2.2382  1.1500 -0.3271
 2311SOL    HW218393   2.595   2.895   8.708  1.3197  2.7133 -0.4084
 2312SOL     OW18394   2.897   2.155  17.530  0.6991  0.1378  0.1186
 2312SOL    HW118395   2.912   2.217  17.602 -0.6979  0.5598  0.0473
 2312SOL    HW218396   2.971   2.097  17.547  1.7596  1.3978 -0.2097
 2313SOL     OW18397   2.877   4.079   0.780 -0.1233  0.2719 -0.4058
 2313SOL    HW118398   2.966   4.045   0.765 -1.7930 -3.9745 -0.9286
 2313SOL    HW218399   2.813   4.008   0.782 -0.5002  0.6434  0.5932
 2314SOL     OW18400   4.609   2.769   8.701 -0.1532  0.5852  0.2128
 2314SOL    HW118401   4.685   2.750   8.756 -0.2564  1.2582  0.5827
 2314SOL    HW218402   4.539   2.751   8.763 -0.0649  0.3488  0.2455
 2315SOL     OW18403   0.328   2.108   7.305  0.3722  0.3010 -0.0328
 2315SOL    HW118404   0.285   2.026   7.279  0.3141  0.5097 -0.5903
 2315SOL    HW218405   0.267   2.136   7.374  0.5084 -0.9251  0.5909
 2316SOL     OW18406   1.100   0.223   4.168 -0.8138  0.4695 -0.1122
 2316SOL    HW118407   1.110   0.169   4.090  0.1182  0.0093  0.3215
 2316SOL    HW218408   1.009   0.198   4.183  0.0914 -3.1962 -0.5365
 2317SOL     OW18409   0.547   0.894   5.717  0.4489  0.3908 -0.4960
 2317SOL    HW118410   0.454   0.892   5.696  0.2478 -0.6489  0.5004
 2317SOL    HW218411   0.552   0.828   5.786 -2.2016  0.8242  0.1064
 2318SOL     OW18412   0.082   4.579   5.712  0.1890 -0.1252  0.0614
 2318SOL    HW118413   0.129   4.517   5.656  2.4119  2.0753 -0.5091
 2318SOL    HW218414   0.031   4.617   5.641  1.3036  1.9367  0.3693
 2319SOL     OW18415   2.179   3.670   4.629 -0.2823 -0.7093 -1.0627
 2319SOL    HW118416   2.253   3.668   4.690 -0.2758 -0.8977 -1.0742
 2319SOL    HW218417   2.227   3.676   4.547  1.8661 -1.6621  0.1053
 2320SOL     OW18418   0.495   0.366   9.620  0.1723  0.6471 -0.0962
 2320SOL    HW118419   0.426   0.383   9.556 -0.4158 -2.1165 -0.2285
 2320SOL    HW218420   0.532   0.287   9.580  0.7777  0.4623  0.8472
 2321SOL     OW18421   1.885   0.835   3.967  0.1744  0.4792 -0.2450
 2321SOL    HW118422   1.798   0.798   3.957  0.8056 -1.5384  1.6622
 2321SOL    HW218423   1.874   0.903   4.035 -1.1469  0.0156  0.0020
 2322SOL     OW18424   3.649   2.069   5.120 -0.3733  0.1519  0.0826
 2322SOL    HW118425   3.649   2.083   5.025  1.0848 -1.5378 -0.1594
 2322SOL    HW218426   3.586   1.997   5.125  1.1257 -1.0626  1.2817
 2323SOL     OW18427   0.377   2.168  15.440  0.5195 -0.3516  0.1719
 2323SOL    HW118428   0.423   2.222  15.504  0.2711  2.2448 -1.8220
 2323SOL    HW218429   0.440   2.158  15.369 -1.2998  0.1054 -1.5050
 2324SOL     OW18430   2.835   3.432   4.885  0.1374  0.6306  0.7430
 2324SOL    HW118431   2.897   3.501   4.860 -0.1975  0.8850  0.6132
 2324SOL    HW218432   2.896   3.358   4.890  1.7830  2.1698  4.0166
 2325SOL     OW18433   0.929   4.230   6.991 -0.3287  0.0077  0.2444
 2325SOL    HW118434   1.023   4.240   6.976 -0.3131 -1.4314 -0.6211
 2325SOL    HW218435   0.925   4.150   6.938 -0.0262  0.4375 -0.4152
 2326SOL     OW18436   1.295   3.196  16.792  0.2211  0.2806  0.1787
 2326SOL    HW118437   1.325   3.272  16.743  0.5831 -0.2193 -0.3768
 2326SOL    HW218438   1.308   3.235  16.878 -1.9888  1.7727 -0.1693
 2327SOL     OW18439   3.766   1.610   5.478  0.4155  0.4361  0.1853
 2327SOL    HW118440   3.747   1.704   5.473  0.5551  0.4051 -0.8231
 2327SOL    HW218441   3.861   1.611   5.467  0.5218 -1.2649  0.8532
 2328SOL     OW18442   0.004   3.714   7.779 -0.3885 -0.2169  0.1484
 2328SOL    HW118443   0.003   3.804   7.746  0.2985 -0.7092 -1.2381
 2328SOL    HW218444   4.652   3.675   7.734 -0.6347  0.1600  0.2345
 2329SOL     OW18445   3.461   4.122   2.530 -0.0313 -0.4913 -0.5465
 2329SOL    HW118446   3.368   4.135   2.547  0.3874  1.9353 -0.1271
 2329SOL    HW218447   3.495   4.131   2.619 -0.5876 -1.3684 -0.2499
 2330SOL     OW18448   0.204   3.017   0.134 -0.2173  0.0476 -0.0152
 2330SOL    HW118449   0.259   2.956   0.183 -2.3585 -0.3168  1.9042
 2330SOL    HW218450   0.125   3.014   0.187 -0.4226 -1.1312 -0.3859
 2331SOL     OW18451   1.433   4.144   0.532  0.1685 -0.7629  0.8035
 2331SOL    HW118452   1.422   4.073   0.469  0.7596  0.0817 -0.2751
 2331SOL    HW218453   1.514   4.177   0.493 -1.6583 -1.4364 -3.5395
 2332SOL     OW18454   3.274   0.587   7.606 -0.5502 -0.6745 -0.0152
 2332SOL    HW118455   3.182   0.579   7.583 -0.2368 -1.7206 -0.9026
 2332SOL    HW218456   3.306   0.595   7.516  1.3823  0.5458  0.7820
 2333SOL     OW18457   0.890   3.862   7.715  0.1059 -0.3373 -0.2777
 2333SOL    HW118458   0.952   3.789   7.712  0.3116 -0.1805  0.1985
 2333SOL    HW218459   0.804   3.819   7.715  1.1023 -2.3709 -1.7458
 2334SOL     OW18460   1.453   1.120   6.350  0.3436  0.0597 -0.5168
 2334SOL    HW118461   1.534   1.111   6.299  0.5672 -0.9712  0.0214
 2334SOL    HW218462   1.478   1.096   6.439 -3.9186 -1.4981  0.2409
 2335SOL     OW18463   0.018   3.071   5.027  0.0652 -0.1494  0.5559
 2335SOL    HW118464   4.659   3.029   4.999 -0.0002 -0.8677  1.8192
 2335SOL    HW218465   4.721   3.164   5.016  0.9433  0.0670  0.8532
 2336SOL     OW18466   0.274   0.866   1.189  0.2597 -0.1633 -0.0093
 2336SOL    HW118467   0.251   0.783   1.232 -0.2310 -1.2109 -2.2866
 2336SOL    HW218468   0.310   0.823   1.111 -0.4572  0.3282 -0.6160
 2337SOL     OW18469   0.160   1.000   3.971  0.1430  0.4204  0.1674
 2337SOL    HW118470   0.118   0.929   3.924  0.1981  1.1121 -0.9252
 2337SOL    HW218471   0.113   1.074   3.931 -1.4578 -0.1304  1.0493
 2338SOL     OW18472   4.068   2.142   6.435  0.5669 -0.5089 -0.5555
 2338SOL    HW118473   4.111   2.199   6.371 -0.7840  0.3644 -0.7004
 2338SOL    HW218474   3.983   2.186   6.424  0.7913 -0.5648 -2.3793
 2339SOL     OW18475   3.402   0.139  11.461  0.7819 -0.0673 -0.1210
 2339SOL    HW118476   3.359   0.193  11.394  1.1350  0.8151  0.3672
 2339SOL    HW218477   3.392   0.050  11.426 -0.0345 -0.2153  0.5149
 2340SOL     OW18478   3.400   4.575   8.236  0.1746 -0.0678  0.6395
 2340SOL    HW118479   3.315   4.532   8.246 -1.0368  2.2329  0.2389
 2340SOL    HW218480   3.455   4.501   8.211  0.5938  0.4446  0.0256
 2341SOL     OW18481   2.547   4.053  10.463 -0.2824  0.1948 -0.2910
 2341SOL    HW118482   2.527   3.961  10.444  1.5478 -0.7960  2.4778
 2341SOL    HW218483   2.552   4.066  10.558 -0.2527  0.5005 -0.3353
 2342SOL     OW18484   0.549   4.290   5.892 -0.1969 -0.8975 -0.0113
 2342SOL    HW118485   0.560   4.365   5.951  1.2207 -1.3871  0.3264
 2342SOL    HW218486   0.453   4.287   5.885 -0.6149  2.1230  4.1474
 2343SOL     OW18487   4.437   4.706   9.228  0.6987  0.1087 -0.3254
 2343SOL    HW118488   4.381   0.011   9.300  0.6582 -1.0467  0.0734
 2343SOL    HW218489   4.486   4.633   9.266 -2.3299 -1.8518 -0.2437
 2344SOL     OW18490   0.615   1.702   3.860 -0.0199  0.2666  0.2515
 2344SOL    HW118491   0.565   1.669   3.935  1.6199 -0.1074  1.1692
 2344SOL    HW218492   0.601   1.620   3.811 -0.7134  0.8280 -0.4978
 2345SOL     OW18493   1.649   4.608   0.241 -0.2061 -0.6666  0.3932
 2345SOL    HW118494   1.744   4.593   0.238 -0.0031  0.8099 -1.0378
 2345SOL    HW218495   1.625   4.628   0.150 -1.8333 -0.2033  0.9374
 2346SOL     OW18496   4.282   0.776   3.745  0.3175 -0.0148 -0.0666
 2346SOL    HW118497   4.364   0.763   3.696 -0.3935  2.0459 -1.8048
 2346SOL    HW218498   4.281   0.871   3.747 -0.2800 -0.0137 -0.3937
 2347SOL     OW18499   1.335   2.427   7.022 -0.3206  0.4930 -0.3661
 2347SOL    HW118500   1.303   2.517   7.032  0.4234  0.6313  0.7345
 2347SOL    HW218501   1.299   2.387   7.101  0.5950 -0.4623 -0.4417
 2348SOL     OW18502   3.107   3.324  15.118  0.6103 -0.3872  0.0704
 2348SOL    HW118503   3.089   3.325  15.212  0.5767 -1.8891  0.0794
 2348SOL    HW218504   3.091   3.231  15.102 -1.0816 -0.2640  1.0609
 2349SOL     OW18505   0.338   3.632   8.738 -0.4532 -0.0111 -0.1368
 2349SOL    HW118506   0.279   3.608   8.810 -0.7983 -1.4800 -0.9079
 2349SOL    HW218507   0.299   3.714   8.710  0.8355  0.1849 -1.3873
 2350SOL     OW18508   3.092   2.014  17.663  0.5752 -0.7834 -0.8559
 2350SOL    HW118509   3.171   2.061  17.691  1.1233 -0.9418 -2.1687
 2350SOL    HW218510   3.084   1.948   0.040  2.6014 -1.0545 -0.8730
 2351SOL     OW18511   3.138   1.705   4.130  0.0465 -0.2601 -0.2863
 2351SOL    HW118512   3.076   1.647   4.175  0.7501  1.0238  2.3224
 2351SOL    HW218513   3.201   1.646   4.089 -1.1042  0.0618 -2.5846
 2352SOL     OW18514   3.676   3.422  14.260  0.3822  0.6544 -0.0678
 2352SOL    HW118515   3.748   3.397  14.202  0.7971  0.5871  0.4710
 2352SOL    HW218516   3.602   3.390  14.209  0.3411  0.2231  0.2658
 2353SOL     OW18517   3.370   2.832   7.293 -0.0390  0.1681  0.2266
 2353SOL    HW118518   3.347   2.902   7.232 -0.3294  2.0162  2.4664
 2353SOL    HW218519   3.385   2.879   7.375  0.1732 -1.4845  1.1499
 2354SOL     OW18520   0.926   0.590   2.258  0.5541 -0.1631  0.3918
 2354SOL    HW118521   0.916   0.584   2.163  1.9790  0.6800  0.1827
 2354SOL    HW218522   1.019   0.571   2.269  0.3217 -0.6028  1.5063
 2355SOL     OW18523   2.274   0.705   5.053 -0.1872  0.5710  0.3748
 2355SOL    HW118524   2.282   0.653   5.133 -1.0347  0.1781  0.2009
 2355SOL    HW218525   2.341   0.669   4.996 -2.3565  0.9311 -2.3663
 2356SOL     OW18526   2.597   1.755   2.165 -0.7354  0.6405  0.3789
 2356SOL    HW118527   2.600   1.747   2.070  1.3324 -2.6135  0.7151
 2356SOL    HW218528   2.610   1.849   2.178 -1.4434  0.6581  0.9793
 2357SOL     OW18529   3.940   1.852   6.156 -0.0311  0.0193  0.7265
 2357SOL    HW118530   3.868   1.899   6.197 -0.2091  0.8366 -0.5401
 2357SOL    HW218531   3.998   1.922   6.127 -0.5982  0.3159  0.3216
 2358SOL     OW18532   2.763   3.306   8.824 -0.9367 -0.0247 -0.4332
 2358SOL    HW118533   2.779   3.352   8.742 -0.5883  1.4634  0.4492
 2358SOL    HW218534   2.695   3.365   8.858 -0.7607 -1.2000  1.9650
 2359SOL     OW18535   1.108   1.439   2.840 -0.0425 -0.0725 -0.6582
 2359SOL    HW118536   1.045   1.481   2.897 -0.1716  1.1208 -1.6877
 2359SOL    HW218537   1.154   1.517   2.809 -1.2106  1.2195  0.9001
 2360SOL     OW18538   1.054   3.228   3.315  0.1383  0.6779  0.2115
 2360SOL    HW118539   0.987   3.275   3.365 -1.1352 -1.0124  0.0975
 2360SOL    HW218540   1.136   3.258   3.355 -0.8826  0.0095  2.8390
 2361SOL     OW18541   4.210   1.277   5.241 -0.4293 -0.3951  0.6011
 2361SOL    HW118542   4.262   1.350   5.207  0.0042 -1.8203 -1.8116
 2361SOL    HW218543   4.260   1.199   5.215  0.8592  1.1745 -1.6083
 2362SOL     OW18544   3.495   1.821   5.127 -0.4087  0.2114 -0.8016
 2362SOL    HW118545   3.546   1.759   5.075 -0.1106  1.2575 -1.7641
 2362SOL    HW218546   3.423   1.834   5.066 -0.0557  0.4121 -1.1788
 2363SOL     OW18547   0.985   0.442   3.387 -0.6471  0.4669  0.1212
 2363SOL    HW118548   1.045   0.453   3.313 -0.5325  0.3723  0.2000
 2363SOL    HW218549   0.972   0.531   3.422 -0.3053 -0.0278  1.5136
 2364SOL     OW18550   3.017   1.682   4.835 -0.5206 -0.1113 -0.0123
 2364SOL    HW118551   3.067   1.665   4.756  1.0129  0.5038  0.8206
 2364SOL    HW218552   2.998   1.594   4.866 -1.5480 -0.0571 -0.5022
 2365SOL     OW18553   2.114   3.823  13.101 -0.4070  0.2030 -0.0586
 2365SOL    HW118554   2.044   3.875  13.062 -1.3112 -1.8193 -1.1266
 2365SOL    HW218555   2.135   3.883  13.172  0.2506  2.2701 -1.9955
 2366SOL     OW18556   4.318   3.006   4.451  0.4900 -0.0446 -0.2775
 2366SOL    HW118557   4.348   2.934   4.506  0.8507 -0.1705 -0.6388
 2366SOL    HW218558   4.313   2.968   4.364  1.0777 -1.0948  0.1541
 2367SOL     OW18559   3.199   0.268  13.160 -0.2836  0.3060 -0.0574
 2367SOL    HW118560   3.158   0.188  13.194 -0.1137  0.1958 -0.1145
 2367SOL    HW218561   3.134   0.338  13.162  1.1624  1.6279  0.2924
 2368SOL     OW18562   0.781   1.079   6.062 -0.3157  0.1709 -0.1265
 2368SOL    HW118563   0.715   1.111   6.124  1.6705  0.9970  1.5450
 2368SOL    HW218564   0.760   0.987   6.049  0.0634  0.1415 -0.5483
 2369SOL     OW18565   0.728   2.914   1.005  0.2495 -0.3795 -0.4452
 2369SOL    HW118566   0.660   2.847   1.012  0.2173 -0.0330  2.6050
 2369SOL    HW218567   0.687   2.982   0.951  0.4947 -1.1066 -1.5371
 2370SOL     OW18568   4.089   4.127  11.348 -0.5456 -0.1604  0.3666
 2370SOL    HW118569   3.994   4.125  11.336 -0.2903 -0.3148 -1.5624
 2370SOL    HW218570   4.122   4.049  11.305 -0.1623  1.5812 -2.4702
 2371SOL     OW18571   2.759   4.628  14.914 -0.5999  0.1155  0.0817
 2371SOL    HW118572   2.686   4.655  14.859  1.3457  0.1157 -2.4897
 2371SOL    HW218573   2.768   4.536  14.889  0.7840  0.4322 -0.5962
 2372SOL     OW18574   2.002   1.481   0.819  0.2976 -0.4146  0.8573
 2372SOL    HW118575   2.013   1.554   0.758 -1.0790  1.1668  2.4849
 2372SOL    HW218576   2.019   1.403   0.765  0.9106 -0.4964  1.1801
 2373SOL     OW18577   1.745   2.172   3.895 -0.4962  1.0217  0.1754
 2373SOL    HW118578   1.802   2.096   3.886 -0.3460  0.8510  2.5686
 2373SOL    HW218579   1.776   2.212   3.975  0.4374  1.2763 -0.3166
 2374SOL     OW18580   3.422   0.473   2.508 -0.2183  0.5875 -0.1713
 2374SOL    HW118581   3.348   0.422   2.477 -0.2094  0.4904 -0.0337
 2374SOL    HW218582   3.412   0.550   2.452  0.1736  1.5039  1.0006
 2375SOL     OW18583   0.245   4.627  13.431  0.2007 -0.8865 -0.3725
 2375SOL    HW118584   0.291   4.625  13.347 -0.1265 -3.0207 -0.4920
 2375SOL    HW218585   0.191   4.549  13.417 -0.5133 -0.9745  3.0122
 2376SOL     OW18586   3.596   0.256   6.205 -0.6679  0.0533 -0.4202
 2376SOL    HW118587   3.688   0.251   6.179  0.3282  0.5802  3.0528
 2376SOL    HW218588   3.609   0.228   6.295 -3.4927 -1.8045 -0.5719
 2377SOL     OW18589   3.366   4.364   5.145 -0.9053 -0.2066  0.0747
 2377SOL    HW118590   3.294   4.418   5.110  0.1027  0.5488 -0.8355
 2377SOL    HW218591   3.437   4.402   5.093 -0.0904  0.7373  1.8598
 2378SOL     OW18592   3.092   3.056   1.143  0.1177  0.2780 -0.2448
 2378SOL    HW118593   3.124   2.968   1.126 -2.0518 -0.2171 -1.7935
 2378SOL    HW218594   3.134   3.070   1.228 -2.2318  0.6485  0.8568
 2379SOL     OW18595   3.005   1.537  16.231  0.0623  0.7758 -0.3294
 2379SOL    HW118596   2.959   1.467  16.185 -1.3112  2.3746 -1.4241
 2379SOL    HW218597   2.968   1.614  16.187 -3.3708 -0.3661  0.5365
 2380SOL     OW18598   0.470   2.118   7.708  0.2590  0.0939 -0.6549
 2380SOL    HW118599   0.481   2.036   7.661 -1.6903  0.9537 -2.5847
 2380SOL    HW218600   0.378   2.137   7.689  0.1160 -1.0916 -1.1544
 2381SOL     OW18601   0.861   1.320  13.663 -0.4296  0.4592  1.0138
 2381SOL    HW118602   0.860   1.384  13.591  1.7059 -0.5843  0.0277
 2381SOL    HW218603   0.879   1.241  13.611 -0.6486  2.1075 -1.5600
 2382SOL     OW18604   2.387   3.114   7.262 -0.5391 -0.2463 -0.3803
 2382SOL    HW118605   2.395   3.082   7.352 -2.5488  0.6918  0.1274
 2382SOL    HW218606   2.304   3.081   7.227  0.5174 -0.8289 -2.3731
 2383SOL     OW18607   2.858   2.442  16.633  0.0192  0.0614 -0.0202
 2383SOL    HW118608   2.931   2.391  16.666 -0.1858  0.1864  0.6302
 2383SOL    HW218609   2.859   2.517  16.694  1.5175 -0.9435  1.1921
 2384SOL     OW18610   1.067   1.316   6.188  0.3746 -0.0623 -0.3970
 2384SOL    HW118611   1.043   1.243   6.244  2.6112  0.3718  1.1079
 2384SOL    HW218612   0.987   1.368   6.194 -0.0975 -0.9501  0.9958
 2385SOL     OW18613   4.163   2.739   0.732 -0.0266 -0.2651  0.2629
 2385SOL    HW118614   4.235   2.802   0.741 -0.1379 -0.0948 -0.0766
 2385SOL    HW218615   4.124   2.768   0.650 -2.3518 -0.9264  1.1488
 2386SOL     OW18616   1.859   0.525   2.551 -0.1136  0.1336  0.0817
 2386SOL    HW118617   1.931   0.534   2.489  0.5892 -1.0659  0.7332
 2386SOL    HW218618   1.785   0.561   2.502 -0.1938 -0.1562 -0.0116
 2387SOL     OW18619   3.851   2.477  15.007 -0.3150 -0.0476  0.4870
 2387SOL    HW118620   3.817   2.494  14.919 -1.3107  0.7580  1.0299
 2387SOL    HW218621   3.944   2.501  15.002  0.4120 -2.4720  2.0709
 2388SOL     OW18622   0.646   0.023  12.766  0.2537 -0.3140  0.2801
 2388SOL    HW118623   0.712   4.683  12.735 -0.0988 -1.1143  1.1264
 2388SOL    HW218624   0.681   0.112  12.760 -0.2299 -0.2062 -0.9226
 2389SOL     OW18625   1.527   4.652  14.915  0.2476 -0.0463  0.1178
 2389SOL    HW118626   1.454   4.620  14.862 -0.5384  1.3429  0.3786
 2389SOL    HW218627   1.556   0.008  14.869 -1.0767 -0.1746 -0.9346
 2390SOL     OW18628   0.064   3.213   9.158 -0.4138 -0.4035  0.0056
 2390SOL    HW118629   0.055   3.149   9.229  1.8629  0.2550  0.9037
 2390SOL    HW218630   0.155   3.208   9.132 -0.3711 -0.5485  0.1824
 2391SOL     OW18631   0.137   2.261   1.610 -0.8855 -0.5745  0.8671
 2391SOL    HW118632   0.127   2.209   1.690  3.4874 -1.4515  0.8215
 2391SOL    HW218633   0.164   2.192   1.549  1.7641 -0.4299  1.8885
 2392SOL     OW18634   0.976   4.106  14.218 -0.0896  0.0003 -0.2686
 2392SOL    HW118635   1.062   4.138  14.190 -0.9136  0.5829 -2.1673
 2392SOL    HW218636   0.927   4.089  14.137  1.1511  0.4947 -1.1309
 2393SOL     OW18637   4.326   2.817   5.876  0.2331  0.0016 -0.1196
 2393SOL    HW118638   4.419   2.795   5.875  0.5611  1.3552 -0.4943
 2393SOL    HW218639   4.330   2.913   5.875  0.7195 -0.0392 -1.7409
 2394SOL     OW18640   2.895   1.188   7.304 -0.2278  0.5736  0.2255
 2394SOL    HW118641   2.946   1.116   7.341  0.2685 -0.3441 -2.2507
 2394SOL    HW218642   2.921   1.262   7.359  0.0081 -0.9580  2.1949
 2395SOL     OW18643   4.378   2.160   2.770 -0.3721  0.2690  0.8456
 2395SOL    HW118644   4.457   2.210   2.754 -1.4340  1.4767 -0.6392
 2395SOL    HW218645   4.385   2.133   2.861 -0.1119  1.5236  1.1927
 2396SOL     OW18646   3.081   2.223   4.746  0.0670  0.1737  0.2546
 2396SOL    HW118647   3.073   2.157   4.676  0.2294  0.7230 -0.2781
 2396SOL    HW218648   3.043   2.176   4.820  0.9262 -0.2512  0.4247
 2397SOL     OW18649   0.398   3.646   5.778 -1.1412 -0.4393  0.3212
 2397SOL    HW118650   0.485   3.670   5.811 -1.1337  1.0652 -0.8289
 2397SOL    HW218651   0.347   3.670   5.856 -2.7528 -2.1368 -0.2136
 2398SOL     OW18652   3.237   2.950   1.705 -0.4351  0.1554 -0.5031
 2398SOL    HW118653   3.158   2.898   1.688  0.8405 -2.0689  0.4150
 2398SOL    HW218654   3.200   3.035   1.684  0.1888  0.2560 -1.1929
 2399SOL     OW18655   1.994   2.171   0.973  0.2757 -0.3226  0.0272
 2399SOL    HW118656   2.066   2.146   1.030 -0.4695 -1.0630  0.6417
 2399SOL    HW218657   1.922   2.189   1.033 -1.0351 -0.8550 -1.3672
 2400SOL     OW18658   2.207   1.273   2.697  0.7513 -0.0899 -0.2303
 2400SOL    HW118659   2.118   1.237   2.696  0.6703  0.1083 -0.0569
 2400SOL    HW218660   2.245   1.234   2.617 -0.4892 -1.7821 -0.0063
 2401SOL     OW18661   0.894   2.186  11.544 -0.8388 -0.4276  0.1913
 2401SOL    HW118662   0.850   2.264  11.577 -0.6586  0.2943 -1.3142
 2401SOL    HW218663   0.856   2.112  11.593  1.5977 -1.2355  0.8349
 2402SOL     OW18664   0.707   0.547   3.294  0.5759 -0.0429  0.2271
 2402SOL    HW118665   0.785   0.502   3.327  1.7018  0.7849 -1.3171
 2402SOL    HW218666   0.743   0.576   3.211 -0.6604  1.9036  0.3829
 2403SOL     OW18667   0.000   3.138   4.131  0.3795  0.2987 -0.4295
 2403SOL    HW118668   0.004   3.233   4.134  0.2505  0.2110  2.7406
 2403SOL    HW218669   0.088   3.107   4.155  0.5075  1.6026  0.7631
 2404SOL     OW18670   1.636   0.648  13.140 -0.5636  0.5750 -1.4351
 2404SOL    HW118671   1.681   0.725  13.104 -0.7364  0.9837 -0.7631
 2404SOL    HW218672   1.573   0.693  13.196 -0.1872  1.6223 -1.8618
 2405SOL     OW18673   2.181   0.597   8.669 -0.3295 -0.7081 -0.7446
 2405SOL    HW118674   2.202   0.672   8.724 -1.1466  0.6492 -2.2844
 2405SOL    HW218675   2.204   0.521   8.722  1.8202  0.8205  0.5341
 2406SOL     OW18676   4.362   2.985   0.861  0.3630 -0.1330 -0.6496
 2406SOL    HW118677   4.421   2.967   0.935  0.0508  1.6061  0.0454
 2406SOL    HW218678   4.429   3.021   0.803  1.9135  0.4033  1.4733
 2407SOL     OW18679   2.028   3.835   7.948 -0.2329 -0.1893  0.5645
 2407SOL    HW118680   2.014   3.901   8.017 -0.3638  0.7756 -0.3779
 2407SOL    HW218681   1.998   3.883   7.871 -1.3354 -1.3636  0.2761
 2408SOL     OW18682   4.537   0.006   7.122  0.5307 -0.1718 -0.0057
 2408SOL    HW118683   4.462   0.042   7.169 -0.2898 -0.1607 -1.3004
 2408SOL    HW218684   4.499   4.659   7.068  3.4866 -1.4678 -0.4717
 2409SOL     OW18685   3.065   4.576   7.440 -0.3213 -0.3446  0.1909
 2409SOL    HW118686   3.152   4.591   7.402 -0.7514 -4.5603 -2.4922
 2409SOL    HW218687   3.054   4.664   7.476  2.2314  0.7782 -1.7636
 2410SOL     OW18688   3.249   4.623   3.403 -0.5180  0.3174 -0.7710
 2410SOL    HW118689   3.174   4.645   3.348 -1.1909  2.9992  1.2567
 2410SOL    HW218690   3.263   4.533   3.371  0.9855  0.7005 -1.2193
 2411SOL     OW18691   1.688   4.047   7.605  0.2320  0.0262  0.2745
 2411SOL    HW118692   1.656   4.034   7.516  1.2695 -1.6958  0.1509
 2411SOL    HW218693   1.612   4.058   7.662  0.8046 -1.3737  1.2939
 2412SOL     OW18694   1.293   3.261   1.631  0.2768 -0.1170 -0.1347
 2412SOL    HW118695   1.304   3.245   1.537  0.1159  0.6382 -0.2780
 2412SOL    HW218696   1.212   3.213   1.647  0.7338 -1.3084 -1.3845
 2413SOL     OW18697   0.927   0.177   8.618  0.2802  0.1568  0.1631
 2413SOL    HW118698   0.844   0.139   8.648 -0.1010  1.4463  0.7075
 2413SOL    HW218699   0.900   0.264   8.590  0.8546 -0.0346 -1.0115
 2414SOL     OW18700   3.423   0.874  15.127 -0.0012 -0.1432 -0.0659
 2414SOL    HW118701   3.344   0.831  15.161 -2.1120  1.9574 -2.2992
 2414SOL    HW218702   3.476   0.802  15.094 -0.8629  0.0701 -1.8929
 2415SOL     OW18703   3.329   2.068   8.234 -0.2241  0.0187  0.6770
 2415SOL    HW118704   3.287   2.035   8.314 -1.7976 -0.2337 -0.2464
 2415SOL    HW218705   3.412   2.110   8.255  0.3102 -0.0071 -1.3955
 2416SOL     OW18706   2.696   3.864   8.352  0.1920 -0.2819 -0.3433
 2416SOL    HW118707   2.686   3.938   8.412  1.7236 -1.6575  1.5949
 2416SOL    HW218708   2.674   3.911   8.272 -0.5963  0.0643  0.0756
 2417SOL     OW18709   1.078   2.531   1.715  0.0699 -0.4926 -0.0689
 2417SOL    HW118710   1.073   2.436   1.728 -0.9738 -0.5012 -0.5104
 2417SOL    HW218711   1.117   2.561   1.797  3.3097 -2.8378 -0.7384
 2418SOL     OW18712   0.520   2.242  11.480 -0.1284  0.2631 -0.3624
 2418SOL    HW118713   0.557   2.211  11.563  0.3048  0.8128 -0.3417
 2418SOL    HW218714   0.504   2.336  11.487  1.1666  0.5166 -0.6948
 2419SOL     OW18715   4.071   2.796   4.630 -0.0892  0.2214 -0.2397
 2419SOL    HW118716   4.051   2.706   4.602  0.8085  0.1590 -0.6796
 2419SOL    HW218717   4.163   2.806   4.606 -0.3898  1.5786 -0.7918
 2420SOL     OW18718   2.493   1.502   7.560  0.4098 -0.3384 -0.5573
 2420SOL    HW118719   2.442   1.424   7.540  2.1858 -1.8723  0.9527
 2420SOL    HW218720   2.512   1.543   7.475  0.3559  2.7068  0.9145
 2421SOL     OW18721   2.796   3.790  16.358  0.0573 -0.4243  0.0076
 2421SOL    HW118722   2.835   3.762  16.441  3.3082  1.2817 -0.9434
 2421SOL    HW218723   2.707   3.755  16.358 -0.5796  1.2077  0.4546
 2422SOL     OW18724   0.687   1.688  14.305 -0.1804 -0.3693  0.1159
 2422SOL    HW118725   0.606   1.692  14.356  0.2594  1.1591  0.6714
 2422SOL    HW218726   0.688   1.776  14.269 -0.0591 -0.8906 -1.1494
 2423SOL     OW18727   3.235   0.487  10.005  0.1577  0.3459  0.0665
 2423SOL    HW118728   3.139   0.485   9.996  0.5044  0.4712 -3.7739
 2423SOL    HW218729   3.238   0.583  10.009  2.1049  0.2281  1.3672
 2424SOL     OW18730   1.560   2.949   2.323 -0.5796 -0.1354  0.0099
 2424SOL    HW118731   1.522   3.014   2.264 -0.0270  1.2471  1.1804
 2424SOL    HW218732   1.630   2.918   2.265 -0.2723  1.7231 -0.5844
 2425SOL     OW18733   3.557   4.434   8.885  0.0580 -0.2922 -0.0752
 2425SOL    HW118734   3.467   4.406   8.865  0.2111 -1.0897  0.3258
 2425SOL    HW218735   3.589   4.353   8.926 -0.5837  0.4914  2.0065
 2426SOL     OW18736   4.323   1.951   9.590  0.0639  0.6312  0.5943
 2426SOL    HW118737   4.292   1.922   9.676  0.6529  0.4245  0.7293
 2426SOL    HW218738   4.338   1.883   9.525 -3.1715 -0.7074  1.2253
 2427SOL     OW18739   2.165   2.229   1.664 -0.4234 -0.3662 -0.0873
 2427SOL    HW118740   2.161   2.176   1.584 -0.4996  0.3375 -0.5429
 2427SOL    HW218741   2.079   2.222   1.706 -0.7928 -0.2831 -0.8283
 2428SOL     OW18742   1.632   2.735  11.608  0.8131 -0.2767 -0.0630
 2428SOL    HW118743   1.608   2.808  11.552  4.0363  0.5987 -0.2980
 2428SOL    HW218744   1.586   2.762  11.688 -2.3048  1.7357 -2.5118
 2429SOL     OW18745   4.572   0.143   3.271 -0.1822  0.0680  0.2735
 2429SOL    HW118746   4.516   0.169   3.344  0.1336  2.9733 -0.5030
 2429SOL    HW218747   4.609   0.064   3.310  1.4978  0.1307 -1.2186
 2430SOL     OW18748   0.174   0.863   0.456 -0.2894  0.0723 -0.5716
 2430SOL    HW118749   0.252   0.918   0.464 -0.3030 -0.3932  3.1493
 2430SOL    HW218750   0.193   0.802   0.385  0.6509 -1.3819  0.9301
 2431SOL     OW18751   3.826   0.271   3.511  0.3617  0.2350 -0.5410
 2431SOL    HW118752   3.756   0.220   3.551 -0.3725  2.9125  1.6233
 2431SOL    HW218753   3.783   0.356   3.505  1.6176  0.9085 -0.1466
 2432SOL     OW18754   1.131   2.224  11.453 -0.0542 -0.5919  0.1924
 2432SOL    HW118755   1.172   2.174  11.524  3.2480 -1.7648 -2.5070
 2432SOL    HW218756   1.042   2.190  11.457 -0.7194  1.3485  1.6911
 2433SOL     OW18757   0.481   4.275   4.187  0.2479  0.1483 -0.0853
 2433SOL    HW118758   0.433   4.223   4.123  1.8064 -0.9473 -0.3733
 2433SOL    HW218759   0.527   4.337   4.131 -0.0816  0.3828 -0.0950
 2434SOL     OW18760   2.541   0.853   3.698  0.2589  0.5666  0.1441
 2434SOL    HW118761   2.616   0.912   3.689  0.6515 -0.2769 -2.0192
 2434SOL    HW218762   2.581   0.778   3.655  0.9233 -0.3379  2.3013
 2435SOL     OW18763   3.575   2.903   8.654 -0.7473  0.3337  0.1904
 2435SOL    HW118764   3.560   2.911   8.560 -2.8824 -0.9474  0.4099
 2435SOL    HW218765   3.523   2.975   8.689 -1.1460  1.8057 -3.4355
 2436SOL     OW18766   2.335   4.668   3.157  0.0906 -0.0190 -0.0149
 2436SOL    HW118767   2.304   0.034   3.178  0.8366  0.6803 -1.8123
 2436SOL    HW218768   2.410   4.696   3.103  0.1976 -2.0516 -0.9305
 2437SOL     OW18769   1.649   4.244   5.529  0.3122  1.3951  0.0016
 2437SOL    HW118770   1.721   4.283   5.579  0.5267  2.0003 -0.7675
 2437SOL    HW218771   1.667   4.154   5.556  0.0926  1.3335 -0.0526
 2438SOL     OW18772   0.834   1.074   7.600  0.1859  0.2211  0.0859
 2438SOL    HW118773   0.826   1.054   7.507 -0.0022  0.3210  0.0801
 2438SOL    HW218774   0.854   1.168   7.597 -0.3361  0.3682  1.3773
 2439SOL     OW18775   0.185   4.278   5.307 -0.1092  0.0371 -0.3661
 2439SOL    HW118776   0.205   4.218   5.235 -1.8537 -0.9539 -0.0120
 2439SOL    HW218777   0.149   4.355   5.264 -1.3465  0.5011  1.5224
 2440SOL     OW18778   0.597   3.004   0.110 -0.7858 -0.4191 -0.1497
 2440SOL    HW118779   0.681   2.974   0.143  0.1990  1.1267 -1.2437
 2440SOL    HW218780   0.621   3.090   0.076  0.9492 -1.2193 -0.9221
 2441SOL     OW18781   4.075   0.142   1.889  0.0782 -0.2221  0.7333
 2441SOL    HW118782   4.027   0.086   1.828  1.2008  0.5721 -0.8574
 2441SOL    HW218783   4.127   0.192   1.826  0.3186  1.3736  2.1986
 2442SOL     OW18784   1.666   1.217   5.483  0.0616  0.2762 -0.1341
 2442SOL    HW118785   1.647   1.186   5.394 -0.6072 -1.6409  0.6845
 2442SOL    HW218786   1.732   1.282   5.458 -0.1554 -0.1738 -1.9015
 2443SOL     OW18787   4.091   4.086   1.719 -0.2475 -0.2440  0.5780
 2443SOL    HW118788   4.160   4.037   1.674  0.9008  2.8776 -1.0871
 2443SOL    HW218789   4.086   4.042   1.804  1.4129  0.9029  1.2977
 2444SOL     OW18790   3.323   2.823  11.652 -0.3038  0.7378  0.4910
 2444SOL    HW118791   3.336   2.741  11.700  1.8285  1.4384  1.0767
 2444SOL    HW218792   3.397   2.872  11.688 -0.6185 -0.6582  3.0588
 2445SOL     OW18793   1.672   3.471   2.975 -0.1802 -0.0052  0.3992
 2445SOL    HW118794   1.657   3.402   2.910  2.7196  0.5488 -0.8623
 2445SOL    HW218795   1.760   3.495   2.946  0.6102 -1.9291  1.2097
 2446SOL     OW18796   2.400   2.138   1.883 -0.0441 -0.3456 -0.0487
 2446SOL    HW118797   2.357   2.080   1.946  1.5385 -3.1346 -1.5542
 2446SOL    HW218798   2.325   2.148   1.824 -0.8844  0.0917  1.0939
 2447SOL     OW18799   3.682   2.623   5.676 -0.3252  0.4460 -0.4504
 2447SOL    HW118800   3.598   2.666   5.693  0.1374  1.4266 -0.6989
 2447SOL    HW218801   3.652   2.534   5.695 -2.5457  0.8748 -2.0324
 2448SOL     OW18802   3.928   0.158   7.938 -0.1169  0.0847  0.1974
 2448SOL    HW118803   3.966   0.166   8.025  1.1836  0.0652 -0.3757
 2448SOL    HW218804   3.973   0.080   7.907 -1.8703 -1.2118  0.9013
 2449SOL     OW18805   4.459   1.161  13.297  0.6143  0.0310  0.2449
 2449SOL    HW118806   4.372   1.122  13.312  1.8815 -2.5210  0.8919
 2449SOL    HW218807   4.514   1.093  13.335  0.5606  0.3303  0.8644
 2450SOL     OW18808   0.462   3.520   7.951 -0.3444 -0.5697  0.1997
 2450SOL    HW118809   0.391   3.571   7.911  0.1854 -1.0192 -1.3112
 2450SOL    HW218810   0.422   3.522   8.038  2.0404 -0.1150  1.2747
 2451SOL     OW18811   4.665   1.177   3.699  0.6224 -0.0417 -0.2304
 2451SOL    HW118812   4.722   1.112   3.660 -0.4799 -0.2118 -1.5649
 2451SOL    HW218813   4.647   1.221   3.616  0.6616  1.0688  0.3498
 2452SOL     OW18814   0.117   0.692  12.454 -0.2558  0.4260 -0.2102
 2452SOL    HW118815   0.033   0.686  12.500 -0.9156 -0.3274 -1.4921
 2452SOL    HW218816   0.129   0.784  12.433 -1.3666  0.1486 -2.1389
 2453SOL     OW18817   3.425   2.064   3.582 -0.1353  0.5497  0.7886
 2453SOL    HW118818   3.333   2.063   3.556 -0.5153 -0.2043  2.1568
 2453SOL    HW218819   3.434   2.155   3.612 -0.3044  0.6757  0.4562
 2454SOL     OW18820   3.891   0.135  11.887  0.0732  0.0575  0.9928
 2454SOL    HW118821   3.958   0.147  11.820 -0.8291 -1.2049 -0.1232
 2454SOL    HW218822   3.834   0.079  11.834  1.0222  0.8980 -0.9379
 2455SOL     OW18823   2.862   3.619   7.410  0.5847  0.0348  0.5793
 2455SOL    HW118824   2.814   3.679   7.353  0.2327 -2.7865 -2.1211
 2455SOL    HW218825   2.833   3.651   7.496 -1.8281  0.6984 -0.4631
 2456SOL     OW18826   4.452   3.247   8.068 -1.0700 -0.4728  0.3378
 2456SOL    HW118827   4.363   3.258   8.100 -0.9507 -0.8651  0.8002
 2456SOL    HW218828   4.502   3.247   8.149 -1.7318  2.6956  0.7679
 2457SOL     OW18829   1.416   3.481   3.094  0.1390 -0.1764  0.5520
 2457SOL    HW118830   1.434   3.393   3.126 -1.1640 -0.6202  0.0679
 2457SOL    HW218831   1.495   3.489   3.040  0.2899 -1.6840  0.5492
 2458SOL     OW18832   4.468   3.359   1.363 -0.2683 -0.3218 -0.5089
 2458SOL    HW118833   4.378   3.337   1.341 -1.4080  1.0454  2.8040
 2458SOL    HW218834   4.461   3.432   1.425 -0.6875  0.7119 -1.7594
 2459SOL     OW18835   4.706   2.978   9.310  0.7433  0.3050 -0.6002
 2459SOL    HW118836   4.651   2.943   9.240 -0.3334  0.5093  0.1303
 2459SOL    HW218837   4.712   2.903   9.369 -1.6212  0.4447 -0.1749
 2460SOL     OW18838   3.110   2.836   9.036  0.3010 -0.4294  0.5613
 2460SOL    HW118839   3.156   2.753   9.037 -1.1176 -1.2219  0.1620
 2460SOL    HW218840   3.027   2.812   9.078 -0.4725 -0.3442 -0.9441
 2461SOL     OW18841   2.206   2.913   4.049 -0.0897 -0.4617 -0.1358
 2461SOL    HW118842   2.138   2.861   4.005 -0.4134 -0.9867  0.9868
 2461SOL    HW218843   2.277   2.850   4.053  1.2755  1.1867  1.8181
 2462SOL     OW18844   1.828   1.227   9.460  0.3220 -0.0177  0.2249
 2462SOL    HW118845   1.745   1.251   9.420  0.2495 -0.1099  0.3224
 2462SOL    HW218846   1.823   1.277   9.542  0.0142 -1.1150  0.8712
 2463SOL     OW18847   1.553   0.330  15.940 -0.4078 -0.1831  0.0135
 2463SOL    HW118848   1.579   0.284  15.859  2.2591  0.1305  0.6920
 2463SOL    HW218849   1.635   0.376  15.959 -1.1195  0.3067  1.8752
 2464SOL     OW18850   0.952   4.525  17.319  0.2476  0.3175 -0.3857
 2464SOL    HW118851   0.873   4.535  17.371 -0.6243  0.3321 -1.7066
 2464SOL    HW218852   1.021   4.508  17.383 -0.6611 -1.8897  0.0055
 2465SOL     OW18853   4.025   3.509   3.531 -0.2640  0.1426 -0.1620
 2465SOL    HW118854   4.062   3.426   3.501  1.2135  1.5957 -2.3914
 2465SOL    HW218855   3.940   3.477   3.560 -0.2322  0.2807  0.0848
 2466SOL     OW18856   4.541   1.743  17.487 -0.1153 -0.5452  0.0098
 2466SOL    HW118857   4.602   1.752  17.414 -0.7207  2.4114 -0.1362
 2466SOL    HW218858   4.482   1.815  17.463 -0.3071 -1.3115 -1.7597
 2467SOL     OW18859   1.488   3.795  16.778  0.0068 -0.2935 -0.0240
 2467SOL    HW118860   1.421   3.858  16.750 -0.5707 -1.3472 -1.0121
 2467SOL    HW218861   1.439   3.753  16.849  1.9553 -1.1580  0.8100
 2468SOL     OW18862   4.509   0.705   9.097 -0.1063  0.2859  0.6682
 2468SOL    HW118863   4.513   0.796   9.127  0.8958 -0.4475  2.7885
 2468SOL    HW218864   4.486   0.671   9.184  0.1634 -0.3378  0.4911
 2469SOL     OW18865   3.492   3.947   9.136 -0.2619  0.2634  0.2436
 2469SOL    HW118866   3.584   3.919   9.137 -0.6312 -0.9287  1.2054
 2469SOL    HW218867   3.463   3.903   9.216 -0.7227  0.3260  0.1093
 2470SOL     OW18868   4.331   2.192  17.400  0.6498 -0.1541  0.0020
 2470SOL    HW118869   4.331   2.196  17.495  2.6382  1.9108 -0.0847
 2470SOL    HW218870   4.385   2.265  17.367 -2.6923  1.6373 -1.5887
 2471SOL     OW18871   0.920   3.036   0.184 -0.1557  0.1516 -0.0942
 2471SOL    HW118872   0.946   3.106   0.125  1.6027  1.0466  1.7488
 2471SOL    HW218873   0.898   3.077   0.268 -1.7392 -0.0319 -0.4154
 2472SOL     OW18874   0.446   3.299   6.397 -0.5042  0.0543 -0.0522
 2472SOL    HW118875   0.366   3.248   6.381 -0.2137 -0.3368 -0.2734
 2472SOL    HW218876   0.402   3.383   6.384  1.2117  1.2485  2.0085
 2473SOL     OW18877   0.786   3.372   2.352 -0.1733  0.3086  0.3841
 2473SOL    HW118878   0.880   3.356   2.354 -0.4292 -1.2038  0.5393
 2473SOL    HW218879   0.792   3.465   2.330 -1.5819  0.5667  1.1067
 2474SOL     OW18880   0.493   2.084  14.254  0.1569  0.3706 -0.1986
 2474SOL    HW118881   0.429   2.043  14.195  0.1530 -0.8071  0.6312
 2474SOL    HW218882   0.569   2.028  14.245  0.4870  0.7879  0.0152
 2475SOL     OW18883   3.339   1.663   4.895  0.1214  0.0547  0.2911
 2475SOL    HW118884   3.269   1.672   4.960 -0.4682  0.5570 -0.4171
 2475SOL    HW218885   3.324   1.571   4.877 -0.0278  0.5553 -2.1117
 2476SOL     OW18886   4.614   0.571   4.016  0.3528 -0.2429 -0.4467
 2476SOL    HW118887   4.520   0.570   4.034  0.4798 -0.0021  0.1933
 2476SOL    HW218888   4.611   0.483   3.977 -3.1069 -0.0304 -0.6824
 2477SOL     OW18889   3.601   1.565   5.701  0.5530  0.2702  0.6764
 2477SOL    HW118890   3.674   1.535   5.648  1.6838 -2.7693  3.9473
 2477SOL    HW218891   3.636   1.637   5.754 -1.7797  1.5264  0.5349
 2478SOL     OW18892   0.996   3.134   6.828  0.5542 -0.1495 -0.3974
 2478SOL    HW118893   0.986   3.041   6.847  0.9160 -0.0594  0.2286
 2478SOL    HW218894   0.931   3.133   6.758  0.5195 -0.3284 -0.3611
 2479SOL     OW18895   0.981   1.797   4.572 -0.1794 -0.0490  0.4359
 2479SOL    HW118896   1.035   1.763   4.500  0.2238  0.1558  0.6366
 2479SOL    HW218897   0.895   1.781   4.533  0.2139  0.2682 -0.5635
 2480SOL     OW18898   3.320   4.544   2.507  0.0960 -0.4024  0.4219
 2480SOL    HW118899   3.307   4.637   2.525  1.6226 -0.7881  3.4910
 2480SOL    HW218900   3.333   4.548   2.413  0.1522  0.7299  0.4821
 2481SOL     OW18901   3.583   0.990   4.256 -0.1436 -0.4103  0.2725
 2481SOL    HW118902   3.651   0.997   4.323 -1.9684  0.3726  2.0606
 2481SOL    HW218903   3.534   1.071   4.270  1.1794  0.6655 -1.3121
 2482SOL     OW18904   3.173   3.026  17.463 -0.4092  0.0287 -0.4727
 2482SOL    HW118905   3.140   3.114  17.479 -0.2009  0.1901 -0.9374
 2482SOL    HW218906   3.095   2.970  17.465 -1.0277  0.9890  2.6689
 2483SOL     OW18907   0.516   4.405  13.373  0.2583  0.1509 -0.2491
 2483SOL    HW118908   0.556   4.367  13.451 -0.1050  1.0186  0.3550
 2483SOL    HW218909   0.444   4.343  13.357 -0.3099  0.7860 -0.1474
 2484SOL     OW18910   1.029   0.696   9.039 -0.7506  0.4285  1.0295
 2484SOL    HW118911   1.032   0.775   9.094  0.0242  1.3605 -0.3645
 2484SOL    HW218912   0.941   0.671   9.066 -0.8890 -0.6704 -0.4604
 2485SOL     OW18913   1.391   2.737  15.563  0.4930 -0.4330 -0.4988
 2485SOL    HW118914   1.465   2.723  15.622 -1.1478  1.5360  2.0160
 2485SOL    HW218915   1.316   2.708  15.614  2.1036 -1.6823  1.1560
 2486SOL     OW18916   1.991   3.752   8.798  0.4379  0.0853  0.1276
 2486SOL    HW118917   1.996   3.712   8.885 -0.8236  0.6595  0.4611
 2486SOL    HW218918   1.985   3.677   8.739  0.6544 -1.7799  2.4884
 2487SOL     OW18919   0.607   2.762  13.931  0.0166  0.0729 -0.2787
 2487SOL    HW118920   0.677   2.697  13.937 -0.1856 -0.0911  0.3405
 2487SOL    HW218921   0.530   2.726  13.886  0.7064 -0.5816 -0.9264
 2488SOL     OW18922   2.505   3.054   9.398  0.1455 -0.1103  0.5204
 2488SOL    HW118923   2.489   3.051   9.492  0.4668  1.2701  0.6187
 2488SOL    HW218924   2.436   3.116   9.374  2.2077  0.6046 -3.5355
 2489SOL     OW18925   3.397   0.576  17.401  0.0626 -0.1823  0.0349
 2489SOL    HW118926   3.310   0.550  17.430 -0.2234  0.0276 -0.6184
 2489SOL    HW218927   3.427   0.632  17.472  2.0593  0.9502 -1.7101
 2490SOL     OW18928   4.036   0.316  10.778  0.0918 -0.6255  0.1593
 2490SOL    HW118929   4.092   0.336  10.854 -1.3192  1.2717  0.7085
 2490SOL    HW218930   4.040   0.221  10.776 -1.5666 -0.6373 -2.2042
 2491SOL     OW18931   4.643   4.452  11.082 -0.1746  0.1868 -0.1209
 2491SOL    HW118932   4.645   4.382  11.017 -0.4795 -0.8832  1.0224
 2491SOL    HW218933   4.666   4.412  11.166 -1.7337 -0.3455  0.0618
 2492SOL     OW18934   0.256   1.958  15.540  0.2082 -0.0591 -0.6149
 2492SOL    HW118935   0.296   2.037  15.504 -0.2826  0.6832  0.4836
 2492SOL    HW218936   0.166   1.990  15.551 -0.2126 -1.0284 -1.2851
 2493SOL     OW18937   4.373   0.207   3.788  0.6418 -0.2613  0.8485
 2493SOL    HW118938   4.282   0.236   3.779  1.1228  0.8856 -0.4593
 2493SOL    HW218939   4.362   0.124   3.742  0.8369  0.9171 -1.3226
 2494SOL     OW18940   0.327   0.688  15.747 -0.2019 -0.0902  0.3820
 2494SOL    HW118941   0.284   0.645  15.821  1.7557  0.3693  1.7860
 2494SOL    HW218942   0.261   0.755  15.729 -0.7972 -1.0681 -1.0919
 2495SOL     OW18943   0.161   0.737   1.926  0.6329  0.7889  0.4158
 2495SOL    HW118944   0.244   0.767   1.889  1.1122 -0.8366  0.1784
 2495SOL    HW218945   0.187   0.653   1.964 -3.7761 -0.8376 -0.2125
 2496SOL     OW18946   2.398   0.845   6.600  0.1952  0.6351  0.1536
 2496SOL    HW118947   2.368   0.785   6.669 -2.1883  2.6699  0.8868
 2496SOL    HW218948   2.355   0.927   6.624 -2.4828 -1.2548  1.8558
 2497SOL     OW18949   1.119   3.856   8.114  0.7744 -0.6026  0.3503
 2497SOL    HW118950   1.053   3.854   8.044  1.0777 -1.6290  0.0885
 2497SOL    HW218951   1.175   3.924   8.079 -0.4875  0.3352  0.1473
 2498SOL     OW18952   2.981   1.712   9.630  0.2396  0.2467 -0.1343
 2498SOL    HW118953   2.937   1.675   9.706 -0.9955  0.7655 -0.6026
 2498SOL    HW218954   2.945   1.800   9.640 -0.3286  0.2286 -2.0047
 2499SOL     OW18955   2.650   4.233   3.517  0.1694  0.7553  0.2033
 2499SOL    HW118956   2.691   4.280   3.590 -0.5831  2.9309 -0.7760
 2499SOL    HW218957   2.560   4.254   3.541 -0.5927 -0.2561 -1.8014
 2500SOL     OW18958   0.772   0.626   9.105  0.6834 -0.1430 -0.5790
 2500SOL    HW118959   0.749   0.708   9.149  1.1668 -0.9715  1.1847
 2500SOL    HW218960   0.758   0.561   9.173  0.4511 -0.0317 -0.5206
 2501SOL     OW18961   2.287   3.207   9.384 -0.2734  0.3874 -0.0611
 2501SOL    HW118962   2.230   3.275   9.348 -1.9084  0.1019  2.0443
 2501SOL    HW218963   2.225   3.143   9.418  0.6535 -0.3460  0.2663
 2502SOL     OW18964   0.681   2.945   9.880 -0.2219 -0.1932  0.4054
 2502SOL    HW118965   0.772   2.916   9.889 -0.2082 -0.5999 -1.0256
 2502SOL    HW218966   0.659   3.016   9.940 -2.8976 -0.1871 -0.5965
 2503SOL     OW18967   1.856   4.397   5.935 -0.1879 -0.0747  0.5355
 2503SOL    HW118968   1.828   4.306   5.940  0.6842 -0.3585  0.2454
 2503SOL    HW218969   1.926   4.408   5.999 -0.3333  0.8679  0.5321
 2504SOL     OW18970   4.254   1.141   1.558 -0.6454  0.1920 -0.3948
 2504SOL    HW118971   4.222   1.059   1.520  4.1406 -0.1957 -3.5037
 2504SOL    HW218972   4.288   1.110   1.643 -1.8665  2.8167  1.0486
 2505SOL     OW18973   1.134   0.620   0.250 -0.8730 -0.2461 -0.2813
 2505SOL    HW118974   1.163   0.582   0.333 -1.4420  2.4363  1.1326
 2505SOL    HW218975   1.221   0.616   0.209 -1.2735  2.2878 -1.3801
 2506SOL     OW18976   0.185   0.711   6.412 -0.3755 -0.4008  0.2293
 2506SOL    HW118977   0.264   0.682   6.458  0.2357 -0.5126 -0.8764
 2506SOL    HW218978   0.182   0.652   6.337 -0.6393  1.1597 -1.0107
 2507SOL     OW18979   2.943   0.442   5.824 -0.3852  0.2234  0.4887
 2507SOL    HW118980   3.022   0.495   5.832 -1.4315  1.4314  2.7218
 2507SOL    HW218981   2.903   0.480   5.902 -3.0161 -0.8042 -0.3694
 2508SOL     OW18982   1.551   3.502   4.649  0.0228 -0.3068 -0.6692
 2508SOL    HW118983   1.576   3.593   4.634  0.5531 -0.3776 -0.2397
 2508SOL    HW218984   1.616   3.491   4.719 -0.1359 -1.5588 -0.7148
 2509SOL     OW18985   1.613   0.883   5.455  0.2755  0.6895  0.0044
 2509SOL    HW118986   1.657   0.892   5.371  2.4687  4.1869  1.5192
 2509SOL    HW218987   1.676   0.921   5.516  1.9202  0.0514 -1.2823
 2510SOL     OW18988   4.368   4.074   4.078  0.0109 -0.8177 -0.6252
 2510SOL    HW118989   4.349   3.998   4.023  2.0053 -0.8586 -1.2612
 2510SOL    HW218990   4.426   4.128   4.024 -1.3386  1.8645  0.6270
 2511SOL     OW18991   0.833   3.552   5.725 -0.4031 -0.0344 -0.3401
 2511SOL    HW118992   0.818   3.480   5.664 -1.6246 -0.5416  0.5695
 2511SOL    HW218993   0.929   3.547   5.727 -0.3045  1.8876 -0.0745
 2512SOL     OW18994   1.720   3.760   9.147 -0.2154 -0.3778 -0.1495
 2512SOL    HW118995   1.733   3.784   9.239 -0.4585 -0.2676 -0.1441
 2512SOL    HW218996   1.628   3.734   9.155 -0.6801  1.2418 -0.2800
 2513SOL     OW18997   3.129   0.916  17.400  0.0857  0.2069  0.3369
 2513SOL    HW118998   3.102   0.828  17.424  1.3811 -0.3684 -0.2837
 2513SOL    HW218999   3.055   0.968  17.429  2.0159  2.6312  0.9263
 2514SOL     OW19000   3.997   4.118  11.831  0.2451  0.8569  0.2904
 2514SOL    HW119001   4.026   4.208  11.817  0.6702  0.4135 -1.6718
 2514SOL    HW219002   4.073   4.079  11.787 -0.6025 -1.5341  0.9588
 2515SOL     OW19003   3.573   3.064   0.761  0.3756  0.0074 -0.3311
 2515SOL    HW119004   3.580   2.990   0.701 -0.4532 -1.4208  1.3580
 2515SOL    HW219005   3.600   3.022   0.843  1.5840 -1.1276 -1.3094
 2516SOL     OW19006   3.162   1.824   5.491  0.1574 -0.2184 -0.5853
 2516SOL    HW119007   3.075   1.784   5.482  1.3713 -2.5997 -1.5342
 2516SOL    HW219008   3.213   1.755   5.450 -0.9124 -2.3504  1.6734
 2517SOL     OW19009   2.624   0.690   7.984  0.3967  0.2815 -0.2046
 2517SOL    HW119010   2.677   0.721   8.058  0.7585 -0.3555 -0.1974
 2517SOL    HW219011   2.625   0.595   7.985  1.5104  0.2807 -1.2593
 2518SOL     OW19012   0.333   0.877  15.103 -0.0949 -0.0987 -0.0474
 2518SOL    HW119013   0.252   0.829  15.115 -0.4755  1.0362  1.8750
 2518SOL    HW219014   0.300   0.967  15.108 -1.2605 -0.7071  2.7031
 2519SOL     OW19015   4.282   4.695   3.658  0.2089 -0.0344  0.3565
 2519SOL    HW119016   4.246   0.019   3.582  0.0695 -0.7597 -0.0319
 2519SOL    HW219017   4.287   4.605   3.625  1.7673  0.8437 -1.8477
 2520SOL     OW19018   3.440   1.385   6.946 -0.9011  0.8338 -0.4629
 2520SOL    HW119019   3.464   1.295   6.924  2.0128  1.8036 -1.1655
 2520SOL    HW219020   3.371   1.373   7.011 -1.1813  1.7734 -0.5857
 2521SOL     OW19021   4.311   4.315   5.953 -0.2220 -0.5546 -0.4122
 2521SOL    HW119022   4.379   4.378   5.979 -0.8712  0.3447 -0.8709
 2521SOL    HW219023   4.338   4.244   6.012 -2.4354 -1.1331 -0.0873
 2522SOL     OW19024   3.687   3.689  11.168 -0.1060 -0.7060  0.6892
 2522SOL    HW119025   3.675   3.598  11.141 -0.4427 -0.6671  0.7037
 2522SOL    HW219026   3.683   3.670  11.262  1.1536 -0.9944  0.6785
 2523SOL     OW19027   4.153   0.221  14.979 -0.0395 -0.8729 -0.0867
 2523SOL    HW119028   4.239   0.252  14.952 -0.8402  2.7033  1.5248
 2523SOL    HW219029   4.158   0.249  15.070  1.3167  0.1560 -0.4916
 2524SOL     OW19030   2.028   4.578   5.168  0.2520 -0.7762 -0.2744
 2524SOL    HW119031   2.018   4.485   5.145 -0.2342  0.0045 -3.1966
 2524SOL    HW219032   1.943   4.592   5.210  0.5505 -0.5972  0.2686
 2525SOL     OW19033   4.060   0.743  12.820  0.1500  0.4517  0.6654
 2525SOL    HW119034   4.000   0.818  12.819 -0.0827  0.2447 -1.4423
 2525SOL    HW219035   4.137   0.766  12.767 -0.8094  3.1659  0.4397
 2526SOL     OW19036   4.561   2.063   9.741 -0.1893 -0.2522 -0.6172
 2526SOL    HW119037   4.480   2.056   9.691 -0.0922 -2.3018 -0.4689
 2526SOL    HW219038   4.540   2.018   9.823  1.3886  0.6803  0.3098
 2527SOL     OW19039   2.557   2.166   3.995 -0.0593  0.1793  0.2017
 2527SOL    HW119040   2.598   2.230   3.936 -0.3568 -1.9795 -2.3846
 2527SOL    HW219041   2.622   2.133   4.057  0.3485 -0.0583 -0.3439
 2528SOL     OW19042   1.434   3.606   6.997  0.5090  0.2677 -0.1683
 2528SOL    HW119043   1.507   3.666   7.008 -0.3757  1.2010  0.5961
 2528SOL    HW219044   1.369   3.648   7.054 -3.0311 -1.8965 -2.5629
 2529SOL     OW19045   3.397   2.964   4.538  0.7998 -0.1926  0.2153
 2529SOL    HW119046   3.413   3.059   4.541 -2.9692  0.4525  0.5274
 2529SOL    HW219047   3.442   2.947   4.621  0.1313  1.0781  0.8442
 2530SOL     OW19048   0.926   0.446  15.994  0.1670 -0.1556  0.0849
 2530SOL    HW119049   0.832   0.428  16.001  0.4552 -1.8208 -0.3280
 2530SOL    HW219050   0.929   0.530  16.040  0.3940 -1.3176  2.1838
 2531SOL     OW19051   1.551   3.551   2.544 -0.1987  0.0828  0.3766
 2531SOL    HW119052   1.626   3.530   2.488  1.8342 -0.2353  3.2024
 2531SOL    HW219053   1.566   3.494   2.620  0.4992  1.6232  1.4012
 2532SOL     OW19054   1.625   1.975   1.698  0.3008  0.3451  0.4504
 2532SOL    HW119055   1.640   1.981   1.604 -2.2644  0.0587  0.0048
 2532SOL    HW219056   1.638   2.066   1.725  1.9229  0.2084  0.1309
 2533SOL     OW19057   0.521   3.043   2.933 -0.2637 -0.2214  0.7889
 2533SOL    HW119058   0.516   2.950   2.951  4.1546 -0.4296  0.9477
 2533SOL    HW219059   0.496   3.045   2.841  0.6449  4.1268  0.6254
 2534SOL     OW19060   3.533   3.158   5.458 -0.3143  0.2927 -0.2556
 2534SOL    HW119061   3.494   3.215   5.392 -1.6197  1.4973  1.5448
 2534SOL    HW219062   3.615   3.199   5.486  0.2356 -0.0478 -1.3640
 2535SOL     OW19063   0.359   0.544   5.765 -0.1502 -0.2406 -0.3323
 2535SOL    HW119064   0.322   0.627   5.735 -0.5794 -0.4955 -0.5038
 2535SOL    HW219065   0.428   0.527   5.700  1.3438  1.0239  0.9137
 2536SOL     OW19066   0.668   0.036   3.193 -0.3327 -0.2746 -0.4585
 2536SOL    HW119067   0.747   0.051   3.244 -0.3890  0.9746 -0.7459
 2536SOL    HW219068   0.713   0.061   3.112  1.0879 -2.0716 -0.2336
 2537SOL     OW19069   0.438   0.781   9.023  0.1899 -0.2479  0.1187
 2537SOL    HW119070   0.369   0.804   9.085 -0.0827  0.9930 -0.6628
 2537SOL    HW219071   0.517   0.782   9.078  1.2449 -1.1859 -1.3844
 2538SOL     OW19072   3.737   3.611   4.250 -0.5668 -0.1084  0.1474
 2538SOL    HW119073   3.799   3.610   4.178 -0.6235 -2.0103  0.1243
 2538SOL    HW219074   3.759   3.531   4.298  0.2445 -0.1269 -0.2554
 2539SOL     OW19075   0.181   3.214   3.499  0.0767  0.2688  0.3135
 2539SOL    HW119076   0.261   3.211   3.446  0.4246  0.2583  0.8429
 2539SOL    HW219077   0.118   3.251   3.437 -0.4256  0.7095  1.0944
 2540SOL     OW19078   4.549   2.557   5.835  0.0529 -0.0275 -0.1473
 2540SOL    HW119079   4.566   2.605   5.754  0.3552 -1.0609 -0.6935
 2540SOL    HW219080   4.544   2.627   5.900 -0.6496  1.3549 -1.7110
 2541SOL     OW19081   3.236   2.794   4.719 -0.4277 -0.1212  0.1943
 2541SOL    HW119082   3.283   2.834   4.792 -2.2531 -0.0032  1.3139
 2541SOL    HW219083   3.287   2.829   4.645 -0.3198 -0.8021 -0.0566
 2542SOL     OW19084   2.963   3.907   6.400 -0.1608 -0.0561  0.1703
 2542SOL    HW119085   2.927   3.936   6.484  2.2214 -0.3801  1.2782
 2542SOL    HW219086   2.882   3.868   6.366 -0.9297  0.0512  1.8755
 2543SOL     OW19087   2.477   4.069   2.631  0.3320  0.4183  0.1616
 2543SOL    HW119088   2.427   4.102   2.706 -0.4163 -0.2301 -0.0558
 2543SOL    HW219089   2.418   4.092   2.559 -1.0510 -1.1137  0.8097
 2544SOL     OW19090   3.083   1.206   8.925 -0.0456  0.3357  0.2650
 2544SOL    HW119091   3.173   1.206   8.955 -0.6522  0.9900  2.0811
 2544SOL    HW219092   3.043   1.203   9.012 -0.1347  3.1507  0.3113
 2545SOL     OW19093   1.649   3.557  14.173 -0.1495  0.0645  0.1708
 2545SOL    HW119094   1.669   3.463  14.171 -0.7494 -0.0749  0.4618
 2545SOL    HW219095   1.719   3.589  14.230  0.7875 -1.1993 -0.2591
 2546SOL     OW19096   0.946   2.545  16.857 -0.1346 -0.0597 -0.1106
 2546SOL    HW119097   0.865   2.494  16.861  0.8935 -1.6625  0.2229
 2546SOL    HW219098   0.980   2.520  16.771 -0.5703 -0.1688 -0.2522
 2547SOL     OW19099   0.059   1.969   9.630  0.2042  0.0642  0.3810
 2547SOL    HW119100   0.045   1.896   9.570 -0.1982 -0.2725  0.8843
 2547SOL    HW219101   4.695   1.993   9.663 -0.1952  0.5002 -1.0109
 2548SOL     OW19102   3.165   3.341   9.176 -0.3686 -0.5436  0.0353
 2548SOL    HW119103   3.102   3.319   9.108 -0.3774  3.0878 -1.1328
 2548SOL    HW219104   3.231   3.278   9.146  0.5079  0.9739 -1.2305
 2549SOL     OW19105   1.997   2.088   4.094  0.3671 -0.0162 -0.0928
 2549SOL    HW119106   2.030   2.089   4.005  3.1811 -1.1028  0.9324
 2549SOL    HW219107   2.047   2.152   4.145 -0.8784  0.0155  1.1047
 2550SOL     OW19108   3.772   4.691   9.397 -0.1102 -0.3882  0.4932
 2550SOL    HW119109   3.734   4.603   9.402 -1.2477  0.0792 -0.0051
 2550SOL    HW219110   3.701   0.015   9.441  0.8431 -0.4361  2.1168
 2551SOL     OW19111   1.099   1.906  16.958 -0.2027  0.6618  0.2804
 2551SOL    HW119112   1.120   1.881  17.048 -0.1192  0.1355  0.1137
 2551SOL    HW219113   1.019   1.854  16.949 -1.0727  1.3310  4.2673
 2552SOL     OW19114   4.060   2.867   6.159  0.2064  0.1165  0.0087
 2552SOL    HW119115   4.015   2.937   6.206  0.4436  1.0978 -1.2353
 2552SOL    HW219116   4.145   2.853   6.202  0.9973  2.6671 -0.7254
 2553SOL     OW19117   0.630   1.817   8.584  0.2722  0.6264  0.0647
 2553SOL    HW119118   0.587   1.869   8.652  0.7720  2.0424 -0.6932
 2553SOL    HW219119   0.721   1.845   8.589  1.1482 -2.7128  2.7384
 2554SOL     OW19120   2.558   3.459   7.332  0.5850  0.0194 -0.4346
 2554SOL    HW119121   2.533   3.549   7.352 -0.6823 -0.9361  2.2623
 2554SOL    HW219122   2.504   3.437   7.256 -0.4835  2.3697 -0.3446
 2555SOL     OW19123   3.960   1.746   9.099  0.0933  0.0199 -0.0503
 2555SOL    HW119124   3.971   1.676   9.164 -2.9622 -0.3256  0.0670
 2555SOL    HW219125   4.046   1.746   9.057  0.6894  0.2781  1.1508
 2556SOL     OW19126   1.192   2.476   1.002 -0.3725  1.0638 -0.2223
 2556SOL    HW119127   1.186   2.509   0.912  0.9324  1.3979 -0.1923
 2556SOL    HW219128   1.231   2.554   1.043 -0.9950  1.3260 -0.1396
 2557SOL     OW19129   0.180   0.782   8.690  0.4751 -0.2586 -0.7475
 2557SOL    HW119130   0.121   0.850   8.658 -1.0278 -0.6625  1.1855
 2557SOL    HW219131   0.125   0.738   8.754  1.4541  2.6023  2.0592
 2558SOL     OW19132   4.589   3.207   4.662  0.4915  0.1377  0.3262
 2558SOL    HW119133   4.520   3.274   4.672 -0.8004 -1.5600  2.7491
 2558SOL    HW219134   4.582   3.178   4.571  0.4520 -1.9430  0.9933
 2559SOL     OW19135   0.762   1.817   7.724  0.3923  0.0977  0.0005
 2559SOL    HW119136   0.793   1.908   7.717  0.0155  0.0079 -2.4647
 2559SOL    HW219137   0.690   1.820   7.787  1.2117 -0.5330  0.9693
 2560SOL     OW19138   3.357   1.710   2.208  0.6696 -0.0237 -0.6601
 2560SOL    HW119139   3.332   1.656   2.283 -0.3677 -0.5079 -1.3567
 2560SOL    HW219140   3.377   1.789   2.258  1.5045 -0.6534 -0.0005
 2561SOL     OW19141   1.953   3.233   5.478  0.1393 -0.6140 -0.1814
 2561SOL    HW119142   2.005   3.231   5.397 -3.7747  1.9741 -2.7557
 2561SOL    HW219143   1.890   3.303   5.461 -1.2417 -1.8471 -0.0953
 2562SOL     OW19144   0.926   0.508   5.722  0.6675  0.3260 -0.0791
 2562SOL    HW119145   0.852   0.543   5.772  0.5134 -2.1423  1.4120
 2562SOL    HW219146   0.980   0.586   5.717 -1.0846  1.4992 -0.9369
 2563SOL     OW19147   3.843   4.580  10.454  0.3386 -0.2821  0.4927
 2563SOL    HW119148   3.901   4.643  10.496 -1.4710  1.3170  0.5924
 2563SOL    HW219149   3.796   4.626  10.384 -0.8638  0.5475  1.8554
 2564SOL     OW19150   2.359   1.811  13.572 -0.2717 -0.2047 -0.0031
 2564SOL    HW119151   2.375   1.821  13.666  0.9995  1.6509 -0.4253
 2564SOL    HW219152   2.271   1.778  13.592 -0.7238  1.3894  0.6929
 2565SOL     OW19153   0.030   0.316   3.607 -0.1280 -0.2809 -0.0945
 2565SOL    HW119154   0.002   0.225   3.605 -1.0592  0.0191 -1.2366
 2565SOL    HW219155   0.087   0.330   3.531  2.0121 -1.7811  1.2559
 2566SOL     OW19156   3.155   3.974   9.164  0.2269  0.1264 -0.0854
 2566SOL    HW119157   3.168   4.007   9.253  1.8086  1.4706 -0.8241
 2566SOL    HW219158   3.245   3.993   9.139  0.4405 -0.9704 -0.1395
 2567SOL     OW19159   3.723   3.155  10.919  0.0734 -0.7005 -0.2077
 2567SOL    HW119160   3.741   3.149  10.826  1.0190  1.6963 -0.1860
 2567SOL    HW219161   3.628   3.144  10.917 -0.1431  0.9413  1.3734
 2568SOL     OW19162   0.280   1.644   8.225 -0.1182  0.6604  0.5447
 2568SOL    HW119163   0.366   1.672   8.256  0.5312 -0.5768 -0.1838
 2568SOL    HW219164   0.307   1.597   8.146  0.1648  1.4756  0.1588
 2569SOL     OW19165   2.891   2.333   7.695 -0.1027  0.9207 -0.1204
 2569SOL    HW119166   2.983   2.307   7.698 -0.3382  0.1849  0.4774
 2569SOL    HW219167   2.900   2.408   7.755  0.4030  1.8210 -1.3174
 2570SOL     OW19168   2.459   2.645   4.407  0.2605 -0.3390 -0.2667
 2570SOL    HW119169   2.499   2.561   4.383  2.1900  0.8232 -1.1022
 2570SOL    HW219170   2.487   2.651   4.499 -0.6732 -0.8981  0.0576
 2571SOL     OW19171   0.587   2.691   0.485 -0.2692 -0.5166  0.2438
 2571SOL    HW119172   0.551   2.631   0.550  1.9718 -0.8126  1.2192
 2571SOL    HW219173   0.627   2.632   0.420  2.0760 -0.2586  1.4793
 2572SOL     OW19174   4.323   1.145  12.170  0.2655 -0.5252  0.0921
 2572SOL    HW119175   4.318   1.134  12.075  1.0581 -2.0287  0.2212
 2572SOL    HW219176   4.363   1.232  12.175  2.1955 -1.2910 -1.7405
 2573SOL     OW19177   3.596   4.037   4.621  0.1940 -0.1524  0.0114
 2573SOL    HW119178   3.606   4.094   4.545  0.8092 -0.6365 -0.2711
 2573SOL    HW219179   3.675   4.058   4.670 -0.7190 -0.9044  1.7936
 2574SOL     OW19180   0.682   3.747  17.607 -0.5968  0.2505  0.5179
 2574SOL    HW119181   0.654   3.807  17.538 -0.0136 -1.4112 -1.1530
 2574SOL    HW219182   0.667   3.804  17.683 -0.2055 -0.1495  0.9002
 2575SOL     OW19183   1.449   2.174   4.777 -0.0342 -0.2120  0.0716
 2575SOL    HW119184   1.425   2.152   4.866  2.5355 -0.8589  0.6110
 2575SOL    HW219185   1.495   2.098   4.740  1.1587  0.8676 -0.6771
 2576SOL     OW19186   4.034   4.319   6.045 -0.1689  0.3728  0.7468
 2576SOL    HW119187   3.963   4.363   6.000 -0.3340 -0.2009  0.4536
 2576SOL    HW219188   4.109   4.335   5.988  0.4960 -0.3320  1.4108
 2577SOL     OW19189   3.465   3.244   9.403 -0.1296 -0.1691 -0.0004
 2577SOL    HW119190   3.479   3.261   9.310 -0.2207  0.9604  0.1910
 2577SOL    HW219191   3.371   3.224   9.405  0.1643 -1.4530  0.8804
 2578SOL     OW19192   3.721   0.896   8.261 -0.3161  0.1497  0.5144
 2578SOL    HW119193   3.813   0.907   8.284 -0.9263  3.2709  1.4263
 2578SOL    HW219194   3.729   0.912   8.167 -1.6443  0.5428  0.4653
 2579SOL     OW19195   0.071   0.054   6.528 -0.1712  0.4605 -0.3248
 2579SOL    HW119196   0.090   0.146   6.509  0.5784  0.0804 -1.3818
 2579SOL    HW219197   0.153   0.008   6.512  0.3318  2.0490 -2.2701
 2580SOL     OW19198   4.253   2.936   7.083  0.2490  0.3037 -0.0732
 2580SOL    HW119199   4.159   2.947   7.065 -0.1362 -1.8640  0.5863
 2580SOL    HW219200   4.296   3.012   7.044 -0.8521  0.1075 -1.7144
 2581SOL     OW19201   4.114   1.127  15.423 -0.1573 -0.4226 -0.0517
 2581SOL    HW119202   4.040   1.187  15.433  0.5148  0.7806 -2.3643
 2581SOL    HW219203   4.125   1.125  15.328  3.4929  0.0005  0.3555
 2582SOL     OW19204   0.771   2.986   6.998 -0.4844 -0.2123  0.2054
 2582SOL    HW119205   0.744   2.906   7.042  0.6550 -0.6541  0.0959
 2582SOL    HW219206   0.854   2.952   6.965 -0.6818  0.2003 -0.7281
 2583SOL     OW19207   1.815   3.061   9.875  0.0313 -0.3120  0.4415
 2583SOL    HW119208   1.777   2.975   9.888  0.7814 -0.4130  1.9478
 2583SOL    HW219209   1.734   3.105   9.850 -0.6887 -0.8480  1.8214
 2584SOL     OW19210   3.704   0.874   2.983  0.0189 -0.1933  0.5527
 2584SOL    HW119211   3.667   0.792   2.950 -0.4111 -0.2481  1.1755
 2584SOL    HW219212   3.731   0.919   2.903 -2.1552 -1.5938 -0.9887
 2585SOL     OW19213   1.954   0.241   9.206  0.0860  0.2795 -0.4453
 2585SOL    HW119214   1.983   0.150   9.200  0.1109  0.3046 -0.7008
 2585SOL    HW219215   1.860   0.232   9.224  0.7168 -1.9954  1.8422
 2586SOL     OW19216   0.471   4.435   8.414 -0.0213  0.1726  0.2637
 2586SOL    HW119217   0.533   4.507   8.401 -0.6828  0.4992 -1.0868
 2586SOL    HW219218   0.509   4.386   8.487  1.0780 -1.8270 -1.6632
 2587SOL     OW19219   0.972   3.691   1.041  0.2270  0.1657 -0.0637
 2587SOL    HW119220   0.955   3.758   1.107  0.2729 -0.4342  0.5515
 2587SOL    HW219221   1.066   3.700   1.026 -0.0002  0.2607 -1.4658
 2588SOL     OW19222   4.523   4.150   5.803  0.1352 -0.0730  0.1161
 2588SOL    HW119223   4.504   4.079   5.742  0.9494  0.1526 -0.3999
 2588SOL    HW219224   4.439   4.154   5.848  1.2463  1.4991  2.0652
 2589SOL     OW19225   3.216   0.269   7.899  0.1455 -0.4465  0.0746
 2589SOL    HW119226   3.220   0.182   7.939  4.0432 -0.3630 -0.1363
 2589SOL    HW219227   3.305   0.304   7.901  0.7278 -1.9752  0.7866
 2590SOL     OW19228   2.758   1.259   3.250  0.2876  0.1097 -0.0873
 2590SOL    HW119229   2.819   1.239   3.321 -1.5589 -1.6065  0.9968
 2590SOL    HW219230   2.691   1.295   3.308 -0.2074  0.4854 -0.8975
 2591SOL     OW19231   0.689   1.700   1.795 -0.0954  0.8059  0.3099
 2591SOL    HW119232   0.652   1.774   1.844  0.8721  0.5168  1.4618
 2591SOL    HW219233   0.612   1.646   1.777  0.1727  1.1633 -1.9763
 2592SOL     OW19234   0.066   2.488   9.252  0.3288  0.0668 -0.1462
 2592SOL    HW119235   0.026   2.407   9.220  0.4265  0.7953 -2.1014
 2592SOL    HW219236   0.103   2.451   9.332  1.2480  2.2949  0.4660
 2593SOL     OW19237   0.206   0.360   9.606  0.5236  0.1186 -0.5372
 2593SOL    HW119238   0.192   0.266   9.595 -0.0797  0.2595 -0.9666
 2593SOL    HW219239   0.196   0.367   9.701 -1.5282 -0.3997 -0.7184
 2594SOL     OW19240   4.202   0.017   4.450 -0.4258  0.2445 -0.3271
 2594SOL    HW119241   4.168   0.058   4.369 -2.0144 -0.0177  0.1962
 2594SOL    HW219242   4.170   0.080   4.515  2.6544  0.2457  1.1488
 2595SOL     OW19243   4.398   4.113   6.119 -0.6897 -0.5776  0.1895
 2595SOL    HW119244   4.423   4.154   6.202  1.9862  0.3977 -1.0817
 2595SOL    HW219245   4.435   4.026   6.132 -0.2598 -0.0264  2.6649
 2596SOL     OW19246   3.109   4.271   5.586 -0.2283  0.1894 -0.0647
 2596SOL    HW119247   3.191   4.230   5.613 -0.7212 -0.6906  0.0941
 2596SOL    HW219248   3.131   4.364   5.599 -1.0900  0.4906 -0.7203
 2597SOL     OW19249   0.758   1.426  13.200  0.2720 -0.2698 -0.6557
 2597SOL    HW119250   0.782   1.423  13.108  0.0432  1.1440 -0.7600
 2597SOL    HW219251   0.673   1.383  13.208 -0.4154  1.4066  1.2600
 2598SOL     OW19252   3.203   2.563   9.034 -0.3627  0.2305  0.3375
 2598SOL    HW119253   3.296   2.543   9.023 -0.9483 -1.0447 -2.3610
 2598SOL    HW219254   3.173   2.480   8.998  0.0549  1.5849 -3.1087
 2599SOL     OW19255   4.586   3.583  10.223 -0.1094 -0.0348  0.0116
 2599SOL    HW119256   4.592   3.630  10.140 -0.8461 -0.6455 -0.3858
 2599SOL    HW219257   4.619   3.647  10.286 -1.3246 -0.1664  0.7803
 2600SOL     OW19258   1.909   1.393  13.889  0.1372 -0.1381 -0.1163
 2600SOL    HW119259   1.893   1.306  13.924 -1.1763  0.7555  1.5574
 2600SOL    HW219260   1.963   1.429  13.960  0.2447 -0.1285 -0.2048
 2601SOL     OW19261   0.560   1.391  11.834 -0.5992  0.4484 -0.2602
 2601SOL    HW119262   0.635   1.388  11.894 -2.9297 -2.6333  2.5029
 2601SOL    HW219263   0.479   1.370  11.880  1.1542 -1.1678  2.0849
 2602SOL     OW19264   0.593   1.289  16.626  0.0577  0.2057 -0.9679
 2602SOL    HW119265   0.550   1.214  16.666 -1.2654 -0.1073 -2.9818
 2602SOL    HW219266   0.676   1.245  16.607 -0.4613 -0.5042 -1.5981
 2603SOL     OW19267   2.530   3.597   7.068  0.7031  0.1688  0.3591
 2603SOL    HW119268   2.533   3.501   7.068  0.0112  0.1377 -1.2996
 2603SOL    HW219269   2.439   3.626   7.063 -0.3566 -2.7233  3.0865
 2604SOL     OW19270   4.235   3.946   7.383  0.3716 -0.7007 -0.6204
 2604SOL    HW119271   4.230   3.876   7.448  0.2642  0.0299  0.1471
 2604SOL    HW219272   4.145   3.949   7.350  0.1086  0.0419  0.1665
 2605SOL     OW19273   1.416   0.164  17.506  0.1676 -0.1961 -0.0254
 2605SOL    HW119274   1.409   0.084  17.558 -0.5040 -1.6316 -2.3377
 2605SOL    HW219275   1.490   0.195  17.558  1.5250 -2.0016 -0.8516
 2606SOL     OW19276   2.492   3.801   2.649  0.0017 -0.8980  0.0995
 2606SOL    HW119277   2.513   3.880   2.599 -1.3635 -0.2614  0.5422
 2606SOL    HW219278   2.397   3.808   2.645 -0.0557 -2.3836 -1.2580
 2607SOL     OW19279   3.947   1.209  12.119  0.0462 -0.0360 -0.1149
 2607SOL    HW119280   3.856   1.203  12.149  0.5427 -0.6777  1.2463
 2607SOL    HW219281   3.997   1.198  12.200 -1.2897 -0.5378  0.6445
 2608SOL     OW19282   4.701   0.094   9.028  0.0223 -0.2118 -0.1178
 2608SOL    HW119283   4.711   0.151   8.952  2.9528  2.1627  2.0998
 2608SOL    HW219284   4.609   0.111   9.048 -0.2595 -0.3957 -1.2590
 2609SOL     OW19285   3.957   1.029  15.715 -0.4210 -0.6211 -0.2652
 2609SOL    HW119286   3.908   1.016  15.634 -1.0783 -0.0465  0.0455
 2609SOL    HW219287   3.974   1.122  15.701 -1.8357 -0.3151  0.0643
 2610SOL     OW19288   0.930   3.592  15.727  0.3302 -0.0653  0.0410
 2610SOL    HW119289   0.975   3.567  15.808  2.0675 -0.6031 -1.0941
 2610SOL    HW219290   0.896   3.680  15.743  0.9427  0.0426  0.8005
 2611SOL     OW19291   4.128   0.164   6.975 -0.0362 -0.2987  0.5768
 2611SOL    HW119292   4.182   0.176   7.052  1.1255 -2.1165  0.0588
 2611SOL    HW219293   4.195   0.125   6.918 -0.9498  2.3272 -2.2727
 2612SOL     OW19294   2.764   1.540   3.040 -0.0640 -1.1439  0.5440
 2612SOL    HW119295   2.824   1.514   3.109  0.4808  0.2390  0.5888
 2612SOL    HW219296   2.677   1.531   3.079 -0.2135 -0.5467  0.3467
 2613SOL     OW19297   1.155   4.250  14.579  0.2208 -0.1835 -0.1347
 2613SOL    HW119298   1.239   4.263  14.534 -1.1673  2.1040 -2.0459
 2613SOL    HW219299   1.174   4.168  14.624  0.9718  0.0807  0.0234
 2614SOL     OW19300   4.047   0.451   4.420  0.3053  0.5234 -0.8849
 2614SOL    HW119301   4.049   0.479   4.328 -1.6723 -0.9250 -1.3687
 2614SOL    HW219302   3.955   0.451   4.445  1.0326  1.6089  1.7601
 2615SOL     OW19303   2.500   1.013   5.058  0.4547  0.1670  0.2255
 2615SOL    HW119304   2.448   0.965   5.122  0.8233 -2.0555 -1.1694
 2615SOL    HW219305   2.569   0.950   5.035  2.5193  2.1135  1.0219
 2616SOL     OW19306   4.406   1.756   1.408 -0.3122 -0.8314  0.2150
 2616SOL    HW119307   4.361   1.686   1.361 -1.0045 -0.8972  0.9789
 2616SOL    HW219308   4.439   1.714   1.487  0.8691 -1.8454 -0.8144
 2617SOL     OW19309   1.112   3.190  14.878 -0.3665  0.4670  1.0341
 2617SOL    HW119310   1.154   3.132  14.814 -0.5724  2.1086 -0.5796
 2617SOL    HW219311   1.065   3.250  14.821 -2.1710  0.0851  2.1105
 2618SOL     OW19312   1.069   2.227  13.933 -0.1150 -0.0211 -0.3061
 2618SOL    HW119313   0.976   2.218  13.957  0.1686 -1.0365  0.4305
 2618SOL    HW219314   1.098   2.136  13.943  0.8043  0.1741 -1.2513
 2619SOL     OW19315   0.575   4.664   2.742  0.4166 -0.3433 -0.6358
 2619SOL    HW119316   0.513   4.716   2.793 -0.0412  0.9987 -2.5901
 2619SOL    HW219317   0.606   0.007   2.680  2.5032  0.3823  1.1836
 2620SOL     OW19318   0.522   0.134   1.969 -0.7190 -0.1618 -0.0704
 2620SOL    HW119319   0.479   0.156   1.887 -0.2742  0.0567 -0.2450
 2620SOL    HW219320   0.602   0.186   1.958 -1.2653  0.4443 -1.1434
 2621SOL     OW19321   1.284   0.885   1.804  0.0506 -0.4097  0.1086
 2621SOL    HW119322   1.305   0.792   1.801 -1.1351 -0.6709 -0.4017
 2621SOL    HW219323   1.280   0.905   1.710 -0.8588 -0.2277  0.1839
 2622SOL     OW19324   1.800   2.117  11.170 -0.0195  0.1809 -0.3233
 2622SOL    HW119325   1.712   2.082  11.185 -0.3374  0.7617 -0.8618
 2622SOL    HW219326   1.858   2.065  11.226 -2.0343  0.3484  1.9194
 2623SOL     OW19327   0.149   2.944   7.763  0.0917 -0.1703 -0.0296
 2623SOL    HW119328   0.238   2.907   7.755 -0.1835 -0.3709 -2.0826
 2623SOL    HW219329   0.167   3.038   7.761  0.4985 -0.3007 -2.5245
 2624SOL     OW19330   1.348   2.456   1.259  0.1344  0.4305 -0.2666
 2624SOL    HW119331   1.284   2.399   1.303 -0.1145 -1.1065 -2.5777
 2624SOL    HW219332   1.327   2.424   1.171 -2.0653  0.0970  0.3948
 2625SOL     OW19333   1.027   4.285   3.677 -0.0612 -0.2373 -0.3534
 2625SOL    HW119334   0.983   4.292   3.592  0.6387  1.3126 -0.5836
 2625SOL    HW219335   1.065   4.197   3.685 -0.6499 -0.5017 -0.4529
 2626SOL     OW19336   0.515   0.089   4.713  0.4895  0.3556  0.2962
 2626SOL    HW119337   0.463   0.148   4.659  1.9895 -0.4204 -1.9690
 2626SOL    HW219338   0.588   0.150   4.724  1.0074 -0.3871  0.9734
 2627SOL     OW19339   1.593   1.980  12.525 -0.4071  0.2860 -0.0280
 2627SOL    HW119340   1.662   1.913  12.527 -0.7334 -0.0368  0.5469
 2627SOL    HW219341   1.637   2.059  12.493  2.3882 -1.2783 -0.1198
 2628SOL     OW19342   1.798   1.510   1.843  0.2530  0.6726  0.6149
 2628SOL    HW119343   1.887   1.541   1.861  1.1842  0.2891 -3.2030
 2628SOL    HW219344   1.761   1.489   1.929 -0.1858 -2.0050 -0.2265
 2629SOL     OW19345   1.285   4.519  12.392  0.3090  0.4298  0.0501
 2629SOL    HW119346   1.275   4.551  12.303 -0.0033 -2.3106 -0.8874
 2629SOL    HW219347   1.202   4.559  12.420  0.1222 -1.5458  2.3154
 2630SOL     OW19348   0.357   0.036  12.788  0.2745 -0.1228  0.4461
 2630SOL    HW119349   0.399   0.119  12.766  2.3725 -0.5867  2.6382
 2630SOL    HW219350   0.431   4.697  12.786  0.8212  0.5872 -1.3641
 2631SOL     OW19351   2.949   3.386  15.777 -0.0065 -0.5652  0.2720
 2631SOL    HW119352   2.868   3.431  15.751  0.0813 -1.4688 -1.5684
 2631SOL    HW219353   2.984   3.443  15.845  0.2891  0.9751 -1.1536
 2632SOL     OW19354   4.198   3.790   4.272 -0.0591 -0.2553 -0.3167
 2632SOL    HW119355   4.152   3.777   4.189  0.7325 -0.2229 -0.7706
 2632SOL    HW219356   4.276   3.735   4.261 -1.5148 -2.2491 -0.6874
 2633SOL     OW19357   0.318   3.433  17.078 -0.0556 -0.4303  0.4757
 2633SOL    HW119358   0.284   3.436  17.167 -1.6630  0.3808 -0.1617
 2633SOL    HW219359   0.316   3.339  17.059  2.4557 -0.3582 -0.2272
 2634SOL     OW19360   0.797   4.089   5.953 -0.5126 -0.0007  0.3753
 2634SOL    HW119361   0.750   4.104   6.035  0.8785 -2.9618  1.7479
 2634SOL    HW219362   0.873   4.148   5.947 -2.0196  1.8363 -0.4645
 2635SOL     OW19363   2.148   0.975   5.634 -0.5674 -0.2684  0.2627
 2635SOL    HW119364   2.206   0.907   5.599 -0.9107 -0.2745 -0.2882
 2635SOL    HW219365   2.144   0.957   5.728  0.8446 -4.6505 -0.4902
 2636SOL     OW19366   2.929   4.290   2.287 -0.5193 -0.4607  0.2765
 2636SOL    HW119367   2.891   4.216   2.334  0.1385 -0.3592  0.9636
 2636SOL    HW219368   2.914   4.368   2.340 -0.7745 -0.3184 -0.0033
 2637SOL     OW19369   1.014   2.028   7.763  0.4446  0.1573  0.0697
 2637SOL    HW119370   1.053   1.958   7.711 -2.9397 -0.6861 -1.2981
 2637SOL    HW219371   0.997   2.095   7.697 -2.6008 -1.0140 -0.3236
 2638SOL     OW19372   3.869   4.200   1.622  0.6586  0.4394 -0.4585
 2638SOL    HW119373   3.949   4.172   1.665 -0.4922  2.1850  2.8411
 2638SOL    HW219374   3.916   4.255   1.559  0.4412  0.3931 -0.6621
 2639SOL     OW19375   1.220   1.287  16.661 -0.7134  0.1134 -0.1893
 2639SOL    HW119376   1.201   1.379  16.679  2.9689  0.5752  1.2339
 2639SOL    HW219377   1.170   1.241  16.729 -2.2011 -0.0176 -1.3465
 2640SOL     OW19378   3.370   2.088   4.718  0.2003 -0.1489 -0.3165
 2640SOL    HW119379   3.415   2.004   4.714  1.0763  0.1854  2.3982
 2640SOL    HW219380   3.287   2.069   4.673  0.2321  1.4119 -1.0218
 2641SOL     OW19381   4.153   1.282   0.911 -0.5650 -0.4332 -0.3210
 2641SOL    HW119382   4.102   1.237   0.843 -0.2594 -0.7734 -0.3237
 2641SOL    HW219383   4.153   1.369   0.872  0.6952 -0.7022 -0.9408
 2642SOL     OW19384   3.149   3.523   4.905 -0.1308  0.2029 -0.9142
 2642SOL    HW119385   3.213   3.478   4.849 -0.2411 -2.9130  1.4580
 2642SOL    HW219386   3.131   3.599   4.851 -0.7660  0.2614 -0.6191
 2643SOL     OW19387   3.766   0.909   8.648  0.3889  0.0378 -0.4909
 2643SOL    HW119388   3.814   0.845   8.595 -1.7047 -0.9957 -1.1328
 2643SOL    HW219389   3.833   0.949   8.704 -0.3354 -0.8207  0.9892
 2644SOL     OW19390   0.987   0.467   1.976 -0.3955 -0.2606 -0.1349
 2644SOL    HW119391   0.997   0.411   2.053 -0.2100 -0.3200 -0.2019
 2644SOL    HW219392   1.070   0.514   1.987 -0.4978  0.0321 -0.6229
 2645SOL     OW19393   4.310   3.697   4.648 -0.3549  0.0208  0.2328
 2645SOL    HW119394   4.394   3.700   4.602  1.0509  1.8340  2.9193
 2645SOL    HW219395   4.279   3.788   4.645 -0.0646  0.1261  0.5174
 2646SOL     OW19396   2.358   2.524  12.204 -0.0690 -0.4462  0.3143
 2646SOL    HW119397   2.311   2.466  12.264 -0.8663  0.4830  0.5994
 2646SOL    HW219398   2.397   2.587  12.265  1.4722 -1.1201  0.0180
 2647SOL     OW19399   1.085   1.139   1.243 -0.3239 -0.1201  0.2500
 2647SOL    HW119400   1.084   1.174   1.154  3.1356 -0.3766  0.1027
 2647SOL    HW219401   1.155   1.075   1.226  0.1262  0.6223 -0.7011
 2648SOL     OW19402   2.412   0.213   6.349 -0.5432 -0.3935  0.5790
 2648SOL    HW119403   2.437   0.305   6.360 -0.5347 -0.3920  0.5486
 2648SOL    HW219404   2.333   0.203   6.402 -1.3844 -0.9367 -0.7761
 2649SOL     OW19405   2.874   4.056   3.994  0.7589 -0.2496 -0.1799
 2649SOL    HW119406   2.888   3.970   4.034  1.6033  0.2332  0.5713
 2649SOL    HW219407   2.854   4.096   4.079  0.6252  0.7659 -0.6927
 2650SOL     OW19408   0.546   3.078   3.993 -0.4011  0.7116 -0.4039
 2650SOL    HW119409   0.500   3.008   3.947  0.7787  0.6605 -1.4807
 2650SOL    HW219410   0.501   3.149   3.947  0.9601  0.7030 -1.7268
 2651SOL     OW19411   2.812   2.093   5.375  0.4884  0.1929 -0.6796
 2651SOL    HW119412   2.731   2.142   5.382  1.9746  2.7571 -1.6482
 2651SOL    HW219413   2.867   2.141   5.437  0.1868 -1.5228  0.9349
 2652SOL     OW19414   3.940   0.106   5.069 -0.5231 -0.5883 -0.3223
 2652SOL    HW119415   3.857   0.149   5.049 -0.8105 -1.2695 -0.5784
 2652SOL    HW219416   3.959   0.067   4.983  0.3780  1.0899 -0.8992
 2653SOL     OW19417   2.722   4.586   6.395  0.5974 -0.6137  0.2972
 2653SOL    HW119418   2.733   4.674   6.431 -0.0246  0.4800 -2.2084
 2653SOL    HW219419   2.709   4.542   6.479  0.5203  0.6648  0.9636
 2654SOL     OW19420   3.902   2.340   0.555  0.4174  0.3210 -0.2810
 2654SOL    HW119421   3.949   2.272   0.604  0.0089 -0.1788 -0.5812
 2654SOL    HW219422   3.939   2.323   0.468  1.1293  1.1398 -0.1384
 2655SOL     OW19423   4.469   2.420  17.363  0.4152 -0.4883  0.1138
 2655SOL    HW119424   4.535   2.460  17.419 -1.3393  0.2980  1.6310
 2655SOL    HW219425   4.393   2.477  17.376 -0.2788 -1.6743  1.2067
 2656SOL     OW19426   3.969   0.517  12.120 -0.3827 -0.3696  0.5952
 2656SOL    HW119427   3.943   0.609  12.124 -0.6027 -0.4516  1.1154
 2656SOL    HW219428   3.948   0.487  12.032 -0.7735  0.8496  0.2686
 2657SOL     OW19429   2.509   0.586   9.640  0.3480 -0.7825 -0.3472
 2657SOL    HW119430   2.602   0.569   9.648  1.0436  2.8062 -0.9110
 2657SOL    HW219431   2.476   0.546   9.721 -1.3001  1.7825  0.2479
 2658SOL     OW19432   2.262   0.280  13.389  0.6850 -0.3747 -0.3371
 2658SOL    HW119433   2.239   0.187  13.381 -1.7248  0.2506 -0.5261
 2658SOL    HW219434   2.336   0.267  13.449  0.0129  1.2529  0.8264
 2659SOL     OW19435   3.067   0.513  13.108  0.1526  0.3052 -0.2744
 2659SOL    HW119436   3.020   0.586  13.148 -3.0190 -1.1035 -1.3779
 2659SOL    HW219437   3.078   0.538  13.016  1.0514 -0.0439 -0.2564
 2660SOL     OW19438   0.715   4.637   4.604  1.1143  0.0664  0.2240
 2660SOL    HW119439   0.747   4.714   4.556 -2.1663  2.9823  2.6738
 2660SOL    HW219440   0.647   4.688   4.649 -0.8373 -0.8694 -1.7036
 2661SOL     OW19441   3.789   1.309  13.444  0.0786  0.0754 -0.0585
 2661SOL    HW119442   3.781   1.390  13.495 -1.1012  1.6781 -2.7672
 2661SOL    HW219443   3.713   1.265  13.483  0.2124 -0.7496 -0.7483
 2662SOL     OW19444   4.586   1.060   6.986  0.8064  0.1288 -0.1700
 2662SOL    HW119445   4.591   1.135   6.926 -0.9741 -0.2494 -0.7963
 2662SOL    HW219446   4.611   0.986   6.930 -0.1628  1.2468 -2.0941
 2663SOL     OW19447   2.106   0.748   7.710 -0.1587  0.0758 -0.5762
 2663SOL    HW119448   2.021   0.743   7.755  0.1627 -2.0043 -0.1873
 2663SOL    HW219449   2.158   0.799   7.772 -2.4488 -1.4773  2.6701
 2664SOL     OW19450   3.798   0.708   3.740 -0.0064  0.2863  0.5092
 2664SOL    HW119451   3.891   0.693   3.757 -0.3210 -0.0630  1.9790
 2664SOL    HW219452   3.780   0.661   3.659 -1.8537  0.3101  0.9001
 2665SOL     OW19453   4.199   2.667   7.856  0.2397  0.3965  0.0649
 2665SOL    HW119454   4.150   2.654   7.775 -0.8807  0.6453  0.7040
 2665SOL    HW219455   4.235   2.580   7.874  2.0828  0.6575 -2.4930
 2666SOL     OW19456   1.805   2.303   1.523 -0.0562 -0.0677 -0.3711
 2666SOL    HW119457   1.749   2.341   1.455  2.5871  3.5356 -0.5598
 2666SOL    HW219458   1.742   2.271   1.587 -0.0293  0.0489 -0.2862
 2667SOL     OW19459   1.979   3.313  11.584 -0.3902 -0.4124 -0.1978
 2667SOL    HW119460   1.892   3.349  11.602 -0.3302 -1.7455  2.8386
 2667SOL    HW219461   1.991   3.250  11.655 -1.0423 -0.8931 -0.5179
 2668SOL     OW19462   3.794   0.974   1.949  0.3888  0.4326 -1.2343
 2668SOL    HW119463   3.771   0.886   1.921 -1.3145  0.7338 -0.8189
 2668SOL    HW219464   3.771   0.982   2.042  2.9513  2.9529 -0.8398
 2669SOL     OW19465   4.513   1.827  15.994 -0.5269 -0.0854  0.2248
 2669SOL    HW119466   4.431   1.780  16.010 -0.4627 -0.8132 -1.4838
 2669SOL    HW219467   4.577   1.756  15.980 -0.2895  0.0338  0.7045
 2670SOL     OW19468   1.954   1.869   3.107  0.4156  0.5541 -0.2470
 2670SOL    HW119469   1.992   1.919   3.035 -0.5440 -0.2855 -1.3340
 2670SOL    HW219470   1.884   1.817   3.068 -0.2343 -0.1096  1.7873
 2671SOL     OW19471   0.454   1.635   6.275 -0.8323  0.2610  0.3857
 2671SOL    HW119472   0.482   1.674   6.192  0.9446  0.3903  1.0464
 2671SOL    HW219473   0.372   1.598   6.241 -0.6643 -0.2548  0.5432
 2672SOL     OW19474   0.535   2.749   2.941  0.0570  0.4068  0.0058
 2672SOL    HW119475   0.467   2.685   2.961  0.4142 -0.3256 -1.1057
 2672SOL    HW219476   0.610   2.691   2.956  2.0417  3.0667  0.3248
 2673SOL     OW19477   2.532   0.840   8.733 -0.5201  0.0514  0.2465
 2673SOL    HW119478   2.606   0.897   8.754 -0.1158  0.0926 -1.2574
 2673SOL    HW219479   2.531   0.781   8.809  0.7240 -0.5454 -0.1923
 2674SOL     OW19480   4.688   0.752   2.187 -0.1768  1.0590  0.4442
 2674SOL    HW119481   4.594   0.768   2.177 -0.2161  0.2204 -0.5202
 2674SOL    HW219482   4.721   0.813   2.121  0.3995  0.9074  0.5888
 2675SOL     OW19483   1.353   3.896   9.184 -0.1187 -0.0304  0.2932
 2675SOL    HW119484   1.330   3.824   9.242 -0.3127  0.6100  1.0002
 2675SOL    HW219485   1.360   3.856   9.097  1.7494 -0.0553  0.4479
 2676SOL     OW19486   0.127   2.753   5.779 -0.1724  0.1317  0.7806
 2676SOL    HW119487   0.194   2.808   5.819  0.5611 -0.1916  0.0044
 2676SOL    HW219488   0.100   2.811   5.708 -0.4084 -1.2779 -0.2907
 2677SOL     OW19489   2.078   4.355  10.583 -0.0631  0.3588  0.4608
 2677SOL    HW119490   2.027   4.365  10.664  0.8564  1.6522  0.8906
 2677SOL    HW219491   2.064   4.267  10.550  2.3069 -0.4653  1.7043
 2678SOL     OW19492   4.303   0.314   4.321  0.2960  0.1448  0.3373
 2678SOL    HW119493   4.232   0.250   4.314 -0.1613  0.8425 -1.4257
 2678SOL    HW219494   4.376   0.285   4.265 -1.4602 -0.6797 -1.5272
 2679SOL     OW19495   3.177   1.009   3.612  0.1256 -0.2443  0.1503
 2679SOL    HW119496   3.252   1.065   3.591  0.7604 -0.4839  1.7828
 2679SOL    HW219497   3.114   1.074   3.645  2.5201  0.3908  3.4835
 2680SOL     OW19498   1.595   1.056  10.804  0.4606  0.4727  0.1155
 2680SOL    HW119499   1.634   1.142  10.788  1.5479 -0.3497 -1.6341
 2680SOL    HW219500   1.671   1.011  10.840  1.0220  0.7199 -0.7541
 2681SOL     OW19501   1.285   3.901   7.161 -0.1289 -0.3150 -0.0401
 2681SOL    HW119502   1.196   3.875   7.187 -0.3151  0.3778  0.0075
 2681SOL    HW219503   1.313   3.944   7.242  1.2368 -1.9622  0.3444
 2682SOL     OW19504   3.068   4.553  14.232  0.2106  0.1457 -0.0091
 2682SOL    HW119505   3.000   4.568  14.297  1.1688 -0.5058  1.1216
 2682SOL    HW219506   3.143   4.580  14.285  0.9573 -0.1083 -0.9325
 2683SOL     OW19507   0.802   1.351   7.547 -0.2145 -0.2598 -0.6148
 2683SOL    HW119508   0.806   1.420   7.614 -0.5487  0.9575 -1.8501
 2683SOL    HW219509   0.882   1.378   7.502  1.8827 -1.3388  2.4221
 2684SOL     OW19510   4.510   0.261   1.259  0.1481  0.6687  0.3786
 2684SOL    HW119511   4.504   0.288   1.168 -1.4365 -1.5669 -0.1640
 2684SOL    HW219512   4.421   0.276   1.293  0.1017 -0.2997  0.6713
 2685SOL     OW19513   3.298   0.632   2.713 -0.0350 -0.2569 -0.3796
 2685SOL    HW119514   3.228   0.652   2.650 -0.5561 -0.3805  0.1591
 2685SOL    HW219515   3.356   0.593   2.648 -0.1424  2.5821 -2.2082
 2686SOL     OW19516   3.990   1.456   8.756  0.2272  0.5247  0.3608
 2686SOL    HW119517   3.986   1.474   8.850 -0.3261 -0.7499  0.5815
 2686SOL    HW219518   3.914   1.506   8.727  2.4185  3.6894  0.1772
 2687SOL     OW19519   3.368   4.123   7.959 -0.2873  0.3036  0.2326
 2687SOL    HW119520   3.280   4.152   7.934  0.1909 -0.1961 -2.0302
 2687SOL    HW219521   3.350   4.031   7.978  0.7760 -0.1652 -1.0649
 2688SOL     OW19522   2.218   2.377   5.050 -0.0088 -0.0674 -0.2477
 2688SOL    HW119523   2.156   2.440   5.086  0.7727 -0.3986  1.6316
 2688SOL    HW219524   2.272   2.364   5.128  2.2419  0.1341 -1.7639
 2689SOL     OW19525   0.620   1.213   6.266 -0.0260 -0.0539 -0.0901
 2689SOL    HW119526   0.538   1.227   6.217  0.7737  0.0791 -1.3959
 2689SOL    HW219527   0.652   1.303   6.255 -0.3909 -0.3021 -3.1800
 2690SOL     OW19528   1.372   1.614   4.856  0.1564  1.0404 -0.0536
 2690SOL    HW119529   1.444   1.673   4.876  1.7741  1.1484 -6.0557
 2690SOL    HW219530   1.345   1.639   4.767 -0.2647  0.7544 -0.0110
 2691SOL     OW19531   3.048   3.909   6.139 -0.0540  0.4350  0.7132
 2691SOL    HW119532   2.962   3.933   6.107  0.2318  0.7483  0.1854
 2691SOL    HW219533   3.043   3.905   6.235 -0.3381 -2.4664  0.5692
 2692SOL     OW19534   1.580   0.684   7.090  0.0590 -0.2557 -0.5366
 2692SOL    HW119535   1.494   0.719   7.111 -0.1007 -0.0028 -1.6433
 2692SOL    HW219536   1.625   0.759   7.052  0.8791 -0.4555  0.0331
 2693SOL     OW19537   1.681   3.118   3.821  0.1639 -0.2093 -0.0842
 2693SOL    HW119538   1.665   3.172   3.744  3.1478  1.5213  0.5107
 2693SOL    HW219539   1.756   3.060   3.805 -0.7587 -1.3167 -0.3766
 2694SOL     OW19540   4.627   0.691   7.548  0.2884 -0.0577  0.1500
 2694SOL    HW119541   4.575   0.615   7.575  1.9523 -0.5261  2.0092
 2694SOL    HW219542   4.590   0.721   7.464 -2.8618  2.1887  2.3113
 2695SOL     OW19543   0.659   2.162   4.510 -0.2671 -0.3401  0.2590
 2695SOL    HW119544   0.631   2.103   4.581 -0.6100  0.5355  0.8510
 2695SOL    HW219545   0.682   2.101   4.440  0.9410 -0.5236  0.8059
 2696SOL     OW19546   1.970   1.296   8.004  0.2085  0.3533 -0.1516
 2696SOL    HW119547   1.991   1.365   8.067 -2.4151  0.0846  0.9913
 2696SOL    HW219548   1.880   1.310   7.978  0.0358  1.2895  0.9593
 2697SOL     OW19549   4.573   1.317   5.725 -0.6710 -0.3261 -0.0272
 2697SOL    HW119550   4.596   1.252   5.658  0.1050 -0.3072  0.2225
 2697SOL    HW219551   4.584   1.272   5.808  1.3110  2.9082  1.4692
 2698SOL     OW19552   0.540   4.670  17.203  0.0829  0.5693 -0.0521
 2698SOL    HW119553   0.450   4.659  17.172 -0.3657  3.5793  0.2378
 2698SOL    HW219554   0.584   4.714  17.131 -0.8230  3.1871  1.0158
 2699SOL     OW19555   4.618   3.935   8.181 -0.0988 -0.0475  0.2087
 2699SOL    HW119556   4.696   3.987   8.162 -0.2991  0.3757  0.5518
 2699SOL    HW219557   4.620   3.873   8.109 -3.7086 -0.4906  0.4609
 2700SOL     OW19558   2.677   1.123   9.834  0.4121 -0.6089  0.0935
 2700SOL    HW119559   2.596   1.109   9.783 -0.2815  0.5599  0.8764
 2700SOL    HW219560   2.655   1.086   9.919 -2.4108  1.4208  0.2825
 2701SOL     OW19561   1.181   0.053   2.396  0.1993  0.0510  0.7845
 2701SOL    HW119562   1.216   0.137   2.424 -0.3513  0.2569  0.8568
 2701SOL    HW219563   1.234   0.034   2.319  1.6902  0.5375  1.6946
 2702SOL     OW19564   2.160   4.660   8.079 -0.5117  0.5149 -0.0762
 2702SOL    HW119565   2.106   4.704   8.013 -0.5568 -1.5796 -1.4273
 2702SOL    HW219566   2.095   4.613   8.131  2.0449 -1.3430  1.4436
 2703SOL     OW19567   2.011   0.058   2.334  0.7432 -0.2659  0.5354
 2703SOL    HW119568   1.936   0.011   2.370  0.0749  0.8831  0.6161
 2703SOL    HW219569   2.044   4.718   2.269 -0.7523  0.1010 -0.5546
 2704SOL     OW19570   2.291   1.840   4.613 -0.3244 -0.1439  0.0648
 2704SOL    HW119571   2.263   1.785   4.686 -2.7981 -0.2482 -0.9416
 2704SOL    HW219572   2.385   1.824   4.616 -0.3467 -0.0743  0.9193
 2705SOL     OW19573   3.500   0.004   4.746  0.1633 -0.1125 -0.0921
 2705SOL    HW119574   3.488   4.644   4.698  2.1231 -0.5956  0.2584
 2705SOL    HW219575   3.596   0.006   4.745  0.1573  0.7496  1.2350
 2706SOL     OW19576   3.555   0.764   4.895  0.2333  0.3408 -0.4506
 2706SOL    HW119577   3.624   0.822   4.927  1.0344 -1.4436  1.0279
 2706SOL    HW219578   3.597   0.681   4.917 -0.6100 -0.3821 -1.5648
 2707SOL     OW19579   2.979   2.950   2.480  0.2247  0.2398 -0.1115
 2707SOL    HW119580   3.032   2.901   2.543  0.0704 -0.6948 -0.7027
 2707SOL    HW219581   2.893   2.938   2.522 -0.5609  0.2199 -1.7444
 2708SOL     OW19582   0.947   4.659   8.829 -0.3529  0.0687  0.2782
 2708SOL    HW119583   0.877   4.689   8.887  0.0730  1.5038  0.0236
 2708SOL    HW219584   0.932   4.715   8.753  2.2391  2.2286  1.3846
 2709SOL     OW19585   4.553   0.259  11.280  0.2805 -0.6236  0.2894
 2709SOL    HW119586   4.645   0.232  11.280  0.4171 -0.1440 -0.5138
 2709SOL    HW219587   4.561   0.354  11.269  2.7258 -1.0471 -1.6240
 2710SOL     OW19588   1.161   1.365  17.566  0.5096 -0.2017 -0.1943
 2710SOL    HW119589   1.111   1.433  17.521  2.1618  1.1835  0.0638
 2710SOL    HW219590   1.246   1.408  17.558  0.5027 -0.1845 -0.1738
 2711SOL     OW19591   3.646   2.771   4.082  0.0283 -0.5803  0.1692
 2711SOL    HW119592   3.696   2.708   4.133 -0.6448 -0.4756  0.9687
 2711SOL    HW219593   3.559   2.765   4.122 -0.0713 -2.0434 -0.2807
 2712SOL     OW19594   1.829   0.997   7.000  0.1125 -0.2614 -0.3942
 2712SOL    HW119595   1.874   0.915   7.019 -1.1638 -1.1519 -1.1893
 2712SOL    HW219596   1.858   1.011   6.909  0.8116  1.5847  0.1141
 2713SOL     OW19597   0.128   0.119   8.680  0.1043 -0.4341  0.9742
 2713SOL    HW119598   0.138   0.208   8.711 -1.0710  0.2170 -0.4873
 2713SOL    HW219599   0.033   0.104   8.686  0.1945 -1.6805 -0.4619
 2714SOL     OW19600   0.199   4.718   2.765  0.2632  0.3844 -0.2096
 2714SOL    HW119601   0.121   0.043   2.793 -0.0807  0.6164 -1.5631
 2714SOL    HW219602   0.267   0.060   2.751  0.1350  0.6310  0.3162
 2715SOL     OW19603   0.651   1.626   2.879  0.1787  0.0432 -0.1788
 2715SOL    HW119604   0.562   1.599   2.901  1.4034 -1.1338  3.4554
 2715SOL    HW219605   0.699   1.543   2.880  0.9561  0.4927 -0.4610
 2716SOL     OW19606   2.718   0.489  15.214  0.2675  0.7055 -0.2245
 2716SOL    HW119607   2.718   0.584  15.199 -1.4150  0.1013 -3.9589
 2716SOL    HW219608   2.623   0.479  15.210  0.3187  0.0989  0.0945
 2717SOL     OW19609   0.824   0.869   7.798  0.4013  0.2249 -0.3912
 2717SOL    HW119610   0.833   0.925   7.721  1.5190 -0.4466 -0.7414
 2717SOL    HW219611   0.764   0.806   7.757 -0.0656  0.7263 -0.4775
 2718SOL     OW19612   2.004   2.615   9.020 -0.2260 -0.3486 -0.3301
 2718SOL    HW119613   2.069   2.682   9.001 -0.2696 -0.4231 -0.7550
 2718SOL    HW219614   1.938   2.666   9.067 -0.1809  2.2462 -3.0955
 2719SOL     OW19615   3.641   3.970   8.335  0.0860 -0.2246  0.4766
 2719SOL    HW119616   3.631   3.879   8.365 -0.1788 -0.9836 -1.8955
 2719SOL    HW219617   3.546   3.983   8.325  0.4525  0.5690 -1.9002
 2720SOL     OW19618   2.379   4.489   7.067 -0.6969 -0.3988  0.5883
 2720SOL    HW119619   2.438   4.463   6.997 -1.7174 -2.0537  0.3276
 2720SOL    HW219620   2.438   4.542   7.120 -1.0877  0.0257  0.5981
 2721SOL     OW19621   0.422   2.462  11.730 -0.1484  0.3533 -0.4145
 2721SOL    HW119622   0.386   2.386  11.776  0.4146  1.3531  1.7262
 2721SOL    HW219623   0.367   2.474  11.653  1.9599 -1.6501 -2.2386
 2722SOL     OW19624   1.271   3.668   9.823 -0.1324 -0.3902  0.1046
 2722SOL    HW119625   1.290   3.725   9.749  2.4843  0.1699  1.2114
 2722SOL    HW219626   1.181   3.644   9.800 -0.5620  2.2193 -0.9347
 2723SOL     OW19627   2.149   2.792   2.530  0.6258  0.9512 -0.6331
 2723SOL    HW119628   2.232   2.748   2.508 -0.0321 -0.3442 -0.4949
 2723SOL    HW219629   2.123   2.832   2.447  0.1882 -0.7236 -1.2994
 2724SOL     OW19630   2.337   2.114   2.645 -0.0487  0.4739 -0.1558
 2724SOL    HW119631   2.276   2.183   2.618 -1.1540 -0.2059  0.5942
 2724SOL    HW219632   2.397   2.118   2.570  1.2736  2.3477  1.0169
 2725SOL     OW19633   0.372   3.300   6.802  0.1683  0.0260  0.3429
 2725SOL    HW119634   0.431   3.365   6.839 -0.5031  1.6231 -1.4132
 2725SOL    HW219635   0.428   3.224   6.819 -0.5463 -0.1834  1.7505
 2726SOL     OW19636   3.316   4.147   8.710  0.2463 -0.0505  0.2094
 2726SOL    HW119637   3.255   4.216   8.738  1.1132  0.1573  1.5756
 2726SOL    HW219638   3.270   4.072   8.747  0.2375  0.8153  1.9360
 2727SOL     OW19639   1.589   2.839   1.802 -0.3191  0.1324  0.0169
 2727SOL    HW119640   1.671   2.791   1.788 -0.9109 -0.4588 -1.4307
 2727SOL    HW219641   1.598   2.910   1.738 -3.4989 -0.7338 -1.3765
 2728SOL     OW19642   1.373   3.726   8.977  0.2253 -0.3303  0.2927
 2728SOL    HW119643   1.410   3.665   8.913 -1.0673 -1.2953  0.4580
 2728SOL    HW219644   1.285   3.687   8.980 -0.0323  0.4507  3.2672
 2729SOL     OW19645   4.186   2.446   8.417 -0.1656 -0.3930 -0.1250
 2729SOL    HW119646   4.177   2.472   8.508 -3.0117 -0.3601 -0.4254
 2729SOL    HW219647   4.166   2.353   8.415 -2.1601  0.0334  0.2500
 2730SOL     OW19648   3.172   3.976   3.832 -0.2018  0.3372 -0.2832
 2730SOL    HW119649   3.185   3.896   3.883  1.8425  0.6458 -0.3236
 2730SOL    HW219650   3.246   4.033   3.853 -0.2330  0.3388 -0.1781
 2731SOL     OW19651   2.177   1.800   1.758  0.5756  0.1708  0.0834
 2731SOL    HW119652   2.180   1.716   1.712 -1.4780  0.3699 -0.4362
 2731SOL    HW219653   2.090   1.833   1.734 -0.3573 -0.6832  2.2328
 2732SOL     OW19654   0.890   1.610   2.672  0.5496  0.4139  0.1037
 2732SOL    HW119655   0.806   1.573   2.697  0.0522 -0.1227 -2.3223
 2732SOL    HW219656   0.861   1.632   2.584  1.3471  2.8433  0.4352
 2733SOL     OW19657   1.716   2.870   5.196  0.6268  0.3302  0.2591
 2733SOL    HW119658   1.687   2.826   5.275  0.8922  0.6470  0.5341
 2733SOL    HW219659   1.777   2.931   5.238 -2.8399  3.1040  1.3190
 2734SOL     OW19660   1.721   4.513  15.067 -0.3479  0.4022 -0.4715
 2734SOL    HW119661   1.681   4.427  15.053  0.4419  0.1065 -0.9101
 2734SOL    HW219662   1.655   4.576  15.037 -0.3882 -0.3432 -1.9701
 2735SOL     OW19663   1.143   4.503  17.489  0.7823 -0.1293 -0.2597
 2735SOL    HW119664   1.164   4.451  17.566  1.5767  0.1925 -0.2526
 2735SOL    HW219665   1.210   4.470  17.428  1.1691 -0.0048  0.1006
 2736SOL     OW19666   4.269   0.190   5.598  0.1003 -0.1871 -1.0835
 2736SOL    HW119667   4.279   0.099   5.628 -1.5745 -0.4869 -1.4047
 2736SOL    HW219668   4.330   0.184   5.525  2.2402  3.0347  0.4558
 2737SOL     OW19669   1.874   2.346   7.130  0.2811 -0.0597 -0.3032
 2737SOL    HW119670   1.799   2.291   7.153  0.9526 -0.2764  1.4078
 2737SOL    HW219671   1.855   2.372   7.040 -0.1359 -1.1772 -0.5375
 2738SOL     OW19672   4.487   4.089   7.822 -0.4524 -0.4931  0.5646
 2738SOL    HW119673   4.428   4.050   7.886 -0.4200 -0.0040  0.8883
 2738SOL    HW219674   4.427   4.151   7.780 -2.4255 -1.3766  2.1034
 2739SOL     OW19675   4.186   1.244   5.831 -0.0046 -0.1072 -0.2657
 2739SOL    HW119676   4.247   1.306   5.791  1.7191 -0.2214  2.1583
 2739SOL    HW219677   4.119   1.303   5.866 -0.2207  0.3883 -1.5045
 2740SOL     OW19678   1.733   1.555   4.961  0.2695 -0.4922 -0.0584
 2740SOL    HW119679   1.725   1.474   4.910 -0.6174  0.5206 -1.5372
 2740SOL    HW219680   1.772   1.617   4.901  1.2795 -0.8198  0.2638
 2741SOL     OW19681   3.554   1.395   1.716  0.1005  0.2313 -0.0172
 2741SOL    HW119682   3.630   1.358   1.762 -0.1280 -0.1394  0.0611
 2741SOL    HW219683   3.570   1.489   1.725 -3.4277  0.7865  0.5142
 2742SOL     OW19684   2.327   4.070   9.081  0.2461 -0.1394 -0.5438
 2742SOL    HW119685   2.301   4.159   9.057 -0.4577  0.2256  1.5538
 2742SOL    HW219686   2.362   4.084   9.169 -1.9784  0.3125  0.2673
 2743SOL     OW19687   4.559   3.707   7.044  0.3181 -0.3804 -0.1144
 2743SOL    HW119688   4.593   3.786   7.087 -0.7482 -1.0479  1.9415
 2743SOL    HW219689   4.471   3.716   7.080  0.6621  1.8090  0.1839
 2744SOL     OW19690   3.542   0.556   6.082 -0.0871  0.6995 -0.2891
 2744SOL    HW119691   3.546   0.463   6.061  2.5315  1.3313 -2.4723
 2744SOL    HW219692   3.629   0.562   6.122 -0.6024 -1.4883  1.1490
 2745SOL     OW19693   1.794   2.462   6.917  0.0682  0.5102 -0.1326
 2745SOL    HW119694   1.737   2.529   6.879  0.2744  0.8375  0.1353
 2745SOL    HW219695   1.850   2.444   6.841  1.5303  4.6087 -0.0224
 2746SOL     OW19696   4.210   4.477  15.770  0.9059 -0.0716 -0.5889
 2746SOL    HW119697   4.196   4.572  15.775 -1.0540 -0.3734 -0.2361
 2746SOL    HW219698   4.297   4.478  15.810 -0.1994  1.1625  1.7965
 2747SOL     OW19699   2.656   4.663   6.661  0.2556  0.2131  0.4171
 2747SOL    HW119700   2.605   0.018   6.681 -0.3110  0.8502 -3.4604
 2747SOL    HW219701   2.584   4.610   6.627 -0.1385 -0.3912  2.2215
 2748SOL     OW19702   1.640   0.489   4.980 -0.0699  0.2822  0.0590
 2748SOL    HW119703   1.625   0.396   4.993  0.2955  0.2220  0.0684
 2748SOL    HW219704   1.689   0.490   4.898  0.2105 -0.1915  0.2244
 2749SOL     OW19705   1.038   2.856   9.068 -0.4211  0.0982 -0.1362
 2749SOL    HW119706   0.969   2.915   9.098  0.2167  0.7538  0.0294
 2749SOL    HW219707   1.002   2.778   9.112 -0.7430  0.2958 -0.0484
 2750SOL     OW19708   3.192   2.633   5.198  0.0569  0.2477  0.6845
 2750SOL    HW119709   3.261   2.639   5.264 -1.9025  2.7634  2.4637
 2750SOL    HW219710   3.114   2.659   5.246  0.0719  1.7010 -0.0692
 2751SOL     OW19711   2.254   1.994   7.369  0.0090  0.0751 -0.1140
 2751SOL    HW119712   2.246   2.034   7.455 -2.7714 -0.3321 -0.2059
 2751SOL    HW219713   2.348   2.005   7.350  0.1417 -0.1051  0.4530
 2752SOL     OW19714   4.177   2.392   2.032  0.2217  0.0227  0.5097
 2752SOL    HW119715   4.116   2.347   1.973 -0.9164 -0.2464  1.9071
 2752SOL    HW219716   4.147   2.482   2.022  2.1836  0.6053 -0.1826
 2753SOL     OW19717   1.146   3.413   7.950 -0.2796  0.0291 -0.7491
 2753SOL    HW119718   1.232   3.400   7.910 -1.2877 -3.6575 -1.7337
 2753SOL    HW219719   1.139   3.508   7.944 -0.9319 -0.1161 -2.2700
 2754SOL     OW19720   0.695   2.010  11.214  0.0467  0.6793 -0.3502
 2754SOL    HW119721   0.766   1.965  11.261  1.4408  0.3289 -2.7898
 2754SOL    HW219722   0.734   2.097  11.223 -1.2974  0.8874  3.6628
 2755SOL     OW19723   0.466   0.467   9.866  0.4125 -0.0371 -0.0276
 2755SOL    HW119724   0.481   0.429   9.779 -0.6267 -2.4866  0.8797
 2755SOL    HW219725   0.371   0.467   9.872  0.2695  0.4149 -2.4077
 2756SOL     OW19726   1.697   2.530   2.562 -0.1972  0.0813 -0.0664
 2756SOL    HW119727   1.692   2.441   2.599  3.6016  0.5423  1.6074
 2756SOL    HW219728   1.774   2.557   2.613 -0.8274 -0.8770  1.4097
 2757SOL     OW19729   4.113   0.933   0.603 -0.0917  0.5263  0.4760
 2757SOL    HW119730   4.101   0.851   0.651 -2.6612  1.0713  0.7457
 2757SOL    HW219731   4.163   0.973   0.673 -0.5530  0.2380  0.9695
 2758SOL     OW19732   4.589   4.292  10.072  0.2424  0.2072  0.5587
 2758SOL    HW119733   4.562   4.349  10.143 -0.7095  0.0813  0.3046
 2758SOL    HW219734   4.677   4.328  10.062  0.8766 -1.8485 -1.3838
 2759SOL     OW19735   2.811   3.628   5.212 -0.0862 -0.1243  0.4427
 2759SOL    HW119736   2.804   3.677   5.293  2.1464  0.6727  0.1479
 2759SOL    HW219737   2.857   3.681   5.147  1.6657 -1.1571  0.8477
 2760SOL     OW19738   0.924   0.135   3.323 -0.6147 -0.1708  0.0022
 2760SOL    HW119739   0.935   0.115   3.416 -0.8739 -2.3039 -0.4296
 2760SOL    HW219740   0.952   0.227   3.320 -3.2764  0.6443  0.6891
 2761SOL     OW19741   4.244   2.069   6.639  0.5531  0.5222  0.0061
 2761SOL    HW119742   4.287   2.018   6.570  1.9204  2.9680 -0.9421
 2761SOL    HW219743   4.174   2.100   6.581 -0.6205 -0.6108  0.8041
 2762SOL     OW19744   1.134   2.050  11.823 -0.0455  0.5777 -0.0186
 2762SOL    HW119745   1.185   2.132  11.821  1.0673 -0.1192  0.0148
 2762SOL    HW219746   1.050   2.083  11.791 -0.0125  0.2709 -0.4173
 2763SOL     OW19747   1.756   0.822  16.470  0.0023 -0.3055 -0.3418
 2763SOL    HW119748   1.710   0.906  16.471 -1.1909 -0.9468 -1.5454
 2763SOL    HW219749   1.829   0.866  16.426 -1.4918 -0.4566 -2.9376
 2764SOL     OW19750   4.150   0.022  10.557 -0.1182 -0.0049 -0.0915
 2764SOL    HW119751   4.065   0.067  10.551  0.0995  0.2374 -1.4164
 2764SOL    HW219752   4.178   0.031  10.648 -2.8767 -1.7459  0.9587
 2765SOL     OW19753   0.415   4.275   2.375  0.2391 -0.0852 -0.3134
 2765SOL    HW119754   0.460   4.314   2.300 -0.2809 -1.7177 -1.4790
 2765SOL    HW219755   0.330   4.318   2.368  0.6227  0.6010 -0.7646
 2766SOL     OW19756   2.604   3.535   6.485 -0.0355  0.0083  0.1129
 2766SOL    HW119757   2.659   3.614   6.493 -0.1350 -0.0361  1.3093
 2766SOL    HW219758   2.670   3.477   6.449 -0.5832  1.1665 -2.7051
 2767SOL     OW19759   4.116   2.810   3.130  0.4406  0.0052 -0.1268
 2767SOL    HW119760   4.204   2.789   3.163  0.4601  1.0239  0.4633
 2767SOL    HW219761   4.079   2.866   3.197 -2.6236  0.2059 -1.9705
 2768SOL     OW19762   0.049   3.649   8.538  0.1141  0.4679 -0.2767
 2768SOL    HW119763   4.720   3.703   8.478  0.7126 -0.4922 -1.6525
 2768SOL    HW219764   0.045   3.708   8.613 -0.9862 -1.1061  0.8866
 2769SOL     OW19765   4.443   4.560   8.298  0.5535 -0.0285 -0.0849
 2769SOL    HW119766   4.499   4.569   8.375  1.1455  0.8470 -0.6163
 2769SOL    HW219767   4.506   4.534   8.231 -0.1357  1.2512 -1.2287
 2770SOL     OW19768   3.749   3.453   9.829  0.5578  0.6079 -0.0678
 2770SOL    HW119769   3.804   3.528   9.850 -0.5933  1.1227  1.1134
 2770SOL    HW219770   3.688   3.455   9.904  0.7530  0.7316  0.0868
 2771SOL     OW19771   0.822   4.192   8.337  0.2582 -0.1281  0.2666
 2771SOL    HW119772   0.763   4.167   8.408 -0.3997  0.2406 -0.1516
 2771SOL    HW219773   0.872   4.112   8.329  0.3711  0.0437 -0.6636
 2772SOL     OW19774   2.219   4.234   5.685  0.4355  0.0030 -0.3223
 2772SOL    HW119775   2.198   4.145   5.659 -0.2254 -0.1964  0.8810
 2772SOL    HW219776   2.228   4.271   5.597  0.6202  0.0908 -0.2678
 2773SOL     OW19777   2.466   3.320   7.069 -0.9400 -0.5037 -0.1075
 2773SOL    HW119778   2.458   3.280   7.155 -2.6298 -0.7575 -0.3944
 2773SOL    HW219779   2.538   3.269   7.030 -0.3800  0.6049 -0.5461
 2774SOL     OW19780   1.322   3.903   6.676 -0.7265 -0.0850 -0.1395
 2774SOL    HW119781   1.268   3.908   6.754  0.6541 -1.4702  0.9151
 2774SOL    HW219782   1.343   3.810   6.676  2.9791  0.7112 -1.5841
 2775SOL     OW19783   1.632   4.530  13.512  0.6467  0.0774  0.3298
 2775SOL    HW119784   1.543   4.495  13.501 -1.1614  4.3124  1.5017
 2775SOL    HW219785   1.644   4.540  13.606 -0.3578  3.0329  0.1533
 2776SOL     OW19786   0.953   4.608   5.672 -0.4208  0.8150 -0.1324
 2776SOL    HW119787   0.983   4.633   5.584 -0.8917 -0.9450 -0.7906
 2776SOL    HW219788   0.860   4.628   5.661 -0.4438 -0.1795 -1.7531
 2777SOL     OW19789   2.910   2.836  13.303  0.3618 -0.2708  0.0048
 2777SOL    HW119790   2.919   2.766  13.239 -1.7951 -1.7218  1.2903
 2777SOL    HW219791   2.993   2.885  13.297 -0.6070  1.5680  1.3897
 2778SOL     OW19792   4.073   1.859   6.600  0.2701  0.3048  0.2950
 2778SOL    HW119793   4.139   1.844   6.532 -0.3664 -0.6512 -0.1009
 2778SOL    HW219794   4.104   1.943   6.634  0.4945  1.4741 -2.7862
 2779SOL     OW19795   3.657   4.262  11.545 -0.3289  0.6176 -0.0665
 2779SOL    HW119796   3.573   4.217  11.536  0.7968 -1.4131 -0.6412
 2779SOL    HW219797   3.684   4.234  11.632  0.1756  0.0820 -0.3858
 2780SOL     OW19798   0.436   0.470   3.238  0.5582  0.2281  0.3856
 2780SOL    HW119799   0.429   0.547   3.181 -1.2881  0.2268  0.5926
 2780SOL    HW219800   0.527   0.467   3.267 -0.2630 -3.4955  2.5383
 2781SOL     OW19801   1.257   2.493   5.726 -0.1730  0.2592  0.1598
 2781SOL    HW119802   1.194   2.423   5.706  0.4686  0.7005 -3.2931
 2781SOL    HW219803   1.329   2.439   5.757 -0.2881  0.1230  0.1911
 2782SOL     OW19804   0.737   2.135   7.564  0.0282 -0.1377  0.9472
 2782SOL    HW119805   0.679   2.118   7.638  0.7128 -1.2203  1.2466
 2782SOL    HW219806   0.672   2.136   7.494  0.6665 -0.2348  0.3426
 2783SOL     OW19807   3.708   2.981   6.148  0.0911 -0.0213 -0.3976
 2783SOL    HW119808   3.739   3.066   6.118 -0.3932  0.4011  0.2859
 2783SOL    HW219809   3.614   2.998   6.138  0.1882 -0.3472 -1.8366
 2784SOL     OW19810   1.599   0.972  11.192  0.1040  0.0515  0.2763
 2784SOL    HW119811   1.585   1.054  11.241  1.1579 -0.0418  0.7389
 2784SOL    HW219812   1.692   0.962  11.213 -0.4689 -3.3902  1.1500
 2785SOL     OW19813   2.594   2.358  15.825  0.0806  0.3416  0.2563
 2785SOL    HW119814   2.511   2.315  15.801  0.1781  0.2071  0.1590
 2785SOL    HW219815   2.621   2.378  15.736  0.1292  0.7439  0.3626
 2786SOL     OW19816   0.977   2.781  11.310  0.4057  0.0474 -0.5517
 2786SOL    HW119817   1.012   2.801  11.222  0.2528 -2.4985 -1.1922
 2786SOL    HW219818   0.997   2.862  11.357  0.0601  0.5254 -1.2268
 2787SOL     OW19819   0.024   0.096   7.647  0.0506  0.4189 -0.3048
 2787SOL    HW119820   0.060   0.007   7.640  2.3193  1.2898  0.0673
 2787SOL    HW219821   4.688   0.102   7.722 -1.1319 -1.7054 -1.0367
 2788SOL     OW19822   0.858   1.692   6.690  0.0292  0.2522  0.2682
 2788SOL    HW119823   0.823   1.677   6.778 -1.0677  0.7244 -0.0824
 2788SOL    HW219824   0.833   1.607   6.654  0.7449  0.1395  0.0318
 2789SOL     OW19825   1.081   1.881   6.747  0.6828 -0.2632  0.4421
 2789SOL    HW119826   1.150   1.867   6.681  1.0393  0.2380  0.7083
 2789SOL    HW219827   1.013   1.816   6.730 -0.6796  1.3789 -0.2654
 2790SOL     OW19828   3.523   3.769   8.470 -0.0597  0.2708  0.1864
 2790SOL    HW119829   3.456   3.728   8.415 -0.7745  2.5013 -0.6016
 2790SOL    HW219830   3.556   3.686   8.504  0.9416  1.2558  1.6053
 2791SOL     OW19831   4.270   2.442   2.362 -0.3209  0.7450 -0.7612
 2791SOL    HW119832   4.179   2.461   2.340 -0.9840 -0.3554  0.9421
 2791SOL    HW219833   4.266   2.428   2.457 -0.9572  0.5260 -0.8173
 2792SOL     OW19834   0.333   4.146  17.524  0.3147  0.4628  0.3371
 2792SOL    HW119835   0.371   4.214  17.579  0.0228  0.5705  0.4091
 2792SOL    HW219836   0.239   4.163  17.535 -0.0879  0.4859 -3.2217
 2793SOL     OW19837   0.079   0.445   5.407 -0.0100  0.1236  0.3396
 2793SOL    HW119838   0.077   0.407   5.495 -1.3100 -0.8694 -0.1092
 2793SOL    HW219839   0.035   0.373   5.359  0.5561  2.1629 -3.2449
 2794SOL     OW19840   4.385   3.662  11.234 -0.4443 -0.1083  0.4432
 2794SOL    HW119841   4.468   3.617  11.249 -0.1456  0.3871  0.2558
 2794SOL    HW219842   4.406   3.705  11.151  0.8417 -1.0139  0.3038
 2795SOL     OW19843   3.792   1.333   2.788  0.2592 -0.1400  0.3623
 2795SOL    HW119844   3.799   1.340   2.693  0.0708 -0.2277  0.3416
 2795SOL    HW219845   3.884   1.323   2.813  0.5062  1.6101  0.1677
 2796SOL     OW19846   1.747   0.511   7.623  0.2502 -0.4891  0.1854
 2796SOL    HW119847   1.715   0.583   7.677 -2.6596 -0.5766 -1.3874
 2796SOL    HW219848   1.815   0.466   7.673 -0.3890  0.4904  1.9262
 2797SOL     OW19849   2.284   0.766   4.678 -0.5398  0.2330 -0.2066
 2797SOL    HW119850   2.370   0.724   4.681 -1.5926 -1.9643 -0.6617
 2797SOL    HW219851   2.308   0.848   4.720 -1.3248  0.5033 -0.2684
 2798SOL     OW19852   3.018   2.699   7.402 -0.1821  0.0274  0.2087
 2798SOL    HW119853   3.057   2.776   7.443 -0.2871 -0.3934  1.0944
 2798SOL    HW219854   3.090   2.677   7.342  1.7187  3.3484  1.2769
 2799SOL     OW19855   1.535   2.953   9.093  0.3517 -0.7469 -0.0471
 2799SOL    HW119856   1.458   2.912   9.054  0.0861 -0.0130 -0.2988
 2799SOL    HW219857   1.593   2.953   9.017 -0.3740 -2.3061 -0.6104
 2800SOL     OW19858   4.055   3.413  10.640  0.2022  0.2425 -0.5344
 2800SOL    HW119859   3.959   3.415  10.645  0.2161 -0.8036  0.1021
 2800SOL    HW219860   4.068   3.356  10.563 -1.9747  0.4112 -1.0346
 2801SOL     OW19861   1.167   0.897   7.641  0.2027  0.4491 -0.5527
 2801SOL    HW119862   1.086   0.920   7.687  0.4525 -0.5270  0.3806
 2801SOL    HW219863   1.175   0.978   7.591  0.8925  0.0088 -1.1578
 2802SOL     OW19864   4.575   3.823   2.230 -0.1283  0.5687 -0.1331
 2802SOL    HW119865   4.589   3.911   2.265  0.5664  0.5110 -0.2673
 2802SOL    HW219866   4.664   3.788   2.229 -0.1245  0.5577  1.3801
 2803SOL     OW19867   3.650   2.855   7.187  0.4874 -0.3130  0.2124
 2803SOL    HW119868   3.631   2.896   7.103  1.7336  0.6918  0.4153
 2803SOL    HW219869   3.565   2.814   7.201 -0.2673  1.4677  0.9099
 2804SOL     OW19870   0.444   3.381   5.445 -0.4887 -0.1128 -0.3789
 2804SOL    HW119871   0.378   3.448   5.461  0.4410  0.0096  3.1348
 2804SOL    HW219872   0.434   3.340   5.531  0.4774 -1.8634 -1.0945
 2805SOL     OW19873   1.297   3.966  16.477  0.5236 -0.3700 -0.0608
 2805SOL    HW119874   1.297   4.043  16.420  1.5722 -1.1600 -1.1314
 2805SOL    HW219875   1.374   3.998  16.524  0.3973  0.6411 -0.5495
 2806SOL     OW19876   4.555   0.089   8.709 -0.6080 -0.0416  0.1826
 2806SOL    HW119877   4.542   4.717   8.722 -0.9370  0.1828  1.4865
 2806SOL    HW219878   4.485   0.124   8.763 -0.1461 -0.8099  1.2779
 2807SOL     OW19879   2.296   0.519  13.266  0.1377 -0.1577  0.1190
 2807SOL    HW119880   2.292   0.438  13.317 -1.9817 -0.3782 -0.4111
 2807SOL    HW219881   2.354   0.485  13.198 -2.6499 -1.6019 -1.5522
 2808SOL     OW19882   0.759   0.863   5.130 -0.0463  0.5847 -0.2022
 2808SOL    HW119883   0.713   0.931   5.178 -1.9740 -0.4072 -0.6441
 2808SOL    HW219884   0.684   0.824   5.085 -0.6771 -0.6872  1.9687
 2809SOL     OW19885   4.576   2.918   7.241  0.3390 -0.1460 -0.0917
 2809SOL    HW119886   4.484   2.932   7.264  0.8364  1.4415  0.8911
 2809SOL    HW219887   4.611   3.004   7.217  0.2463  0.1569  0.8345
 2810SOL     OW19888   3.478   0.289   6.765  0.2308 -0.3075  0.0158
 2810SOL    HW119889   3.510   0.200   6.780 -3.4047 -1.2584  2.3099
 2810SOL    HW219890   3.412   0.267   6.699 -1.3770  3.2790  0.4098
 2811SOL     OW19891   1.237   2.271  16.403 -0.0841 -0.0309 -0.0140
 2811SOL    HW119892   1.325   2.309  16.401  0.5153 -1.2928  2.2885
 2811SOL    HW219893   1.177   2.343  16.387 -0.9452 -0.5751  0.7954
 2812SOL     OW19894   1.974   0.017   3.964  0.1708 -0.1212  0.0431
 2812SOL    HW119895   1.987   0.110   3.984 -0.6408 -0.4934  2.2602
 2812SOL    HW219896   2.040   0.004   3.896  0.4276  0.1516  0.2425
 2813SOL     OW19897   1.510   2.994   2.740 -0.0476 -0.3070  0.0160
 2813SOL    HW119898   1.555   3.045   2.808 -1.5170  1.6689 -0.4778
 2813SOL    HW219899   1.521   3.055   2.667 -3.2242 -1.1401 -1.1607
 2814SOL     OW19900   2.791   0.637   6.918 -0.5958 -0.5497  0.2293
 2814SOL    HW119901   2.822   0.564   6.972 -1.1446 -1.3772 -0.5941
 2814SOL    HW219902   2.696   0.640   6.918 -0.5118  1.8707 -1.6280
 2815SOL     OW19903   1.151   2.260   5.649 -0.3956  0.1370 -0.3156
 2815SOL    HW119904   1.228   2.232   5.600  1.7845 -1.1691  3.8216
 2815SOL    HW219905   1.089   2.295   5.584  0.5265 -0.3047 -1.4228
 2816SOL     OW19906   2.393   3.237   2.783 -0.3266  0.5239 -0.2590
 2816SOL    HW119907   2.446   3.303   2.738  1.1662  0.4685  1.4214
 2816SOL    HW219908   2.308   3.271   2.759 -1.1235 -1.6155 -0.4968
 2817SOL     OW19909   3.355   0.376  12.322  0.6046 -0.1812 -0.5372
 2817SOL    HW119910   3.359   0.439  12.250  0.3961 -0.6821 -0.9886
 2817SOL    HW219911   3.424   0.323  12.283 -0.3901 -2.7533  1.2329
 2818SOL     OW19912   4.445   0.279   0.267 -0.0981 -0.0695 -0.1820
 2818SOL    HW119913   4.409   0.228   0.339 -1.3574 -1.1206 -1.5368
 2818SOL    HW219914   4.369   0.298   0.211 -0.7900 -1.1120  0.4098
 2819SOL     OW19915   3.089   0.632   5.524  0.7556 -0.7847  0.3893
 2819SOL    HW119916   3.037   0.687   5.582 -0.9513  0.5316 -2.4051
 2819SOL    HW219917   3.167   0.630   5.580  1.0532 -1.6652 -0.0644
 2820SOL     OW19918   4.092   2.115   6.872 -0.0527 -0.4394  0.1123
 2820SOL    HW119919   4.057   2.052   6.935 -0.0614 -0.7332 -0.1831
 2820SOL    HW219920   4.163   2.058   6.841 -0.3871  0.3653 -2.1211
 2821SOL     OW19921   3.205   4.639  16.836 -0.6155  0.0451 -0.5885
 2821SOL    HW119922   3.259   4.561  16.826 -0.3848  0.6280 -3.8519
 2821SOL    HW219923   3.265   4.711  16.819  0.4612 -0.3381  1.6951
 2822SOL     OW19924   2.773   3.801   6.028  0.0694 -0.2553 -1.0127
 2822SOL    HW119925   2.773   3.804   5.933  2.5670 -2.1580 -1.0959
 2822SOL    HW219926   2.691   3.752   6.024 -0.4587  0.4622  1.0041
 2823SOL     OW19927   1.817   1.740   3.589  0.7590 -0.2552 -0.0507
 2823SOL    HW119928   1.810   1.695   3.505 -1.1178  2.0188 -1.1075
 2823SOL    HW219929   1.761   1.683   3.641 -1.7192  0.9871 -1.3614
 2824SOL     OW19930   0.435   4.451   2.628  0.2288  0.2026 -0.1953
 2824SOL    HW119931   0.501   4.507   2.670 -0.6671  0.3161  1.0576
 2824SOL    HW219932   0.367   4.518   2.615 -1.0324 -1.0138  0.1228
 2825SOL     OW19933   1.715   3.397   5.354 -0.5645 -0.6213 -0.0641
 2825SOL    HW119934   1.642   3.457   5.371  0.4237  0.9582 -1.3627
 2825SOL    HW219935   1.733   3.403   5.260  0.3188 -1.8919  0.0302
 2826SOL     OW19936   3.031   1.606   2.787 -0.2773  0.1289 -0.1637
 2826SOL    HW119937   3.025   1.692   2.746 -0.5798  1.1962  2.0916
 2826SOL    HW219938   3.125   1.595   2.796 -0.0735  2.0254  0.1786
 2827SOL     OW19939   4.721   2.747   9.449 -0.1676 -0.4062  0.3407
 2827SOL    HW119940   4.642   2.717   9.494  0.6751 -1.5501  1.0490
 2827SOL    HW219941   0.054   2.674   9.476  0.7463  0.0209 -0.3850
 2828SOL     OW19942   2.071   4.671   7.476 -0.1429  0.4503 -0.4722
 2828SOL    HW119943   2.077   4.712   7.563 -0.1571 -1.6444  0.5114
 2828SOL    HW219944   2.161   4.691   7.448 -0.0734  1.3153  0.3605
 2829SOL     OW19945   0.791   4.285   4.283 -0.1587 -0.2623 -0.2166
 2829SOL    HW119946   0.761   4.361   4.332  2.2809 -0.5231  1.6761
 2829SOL    HW219947   0.878   4.274   4.322  0.0772 -0.6813 -0.8558
 2830SOL     OW19948   0.234   2.802   1.679  0.0452  0.7729 -0.5835
 2830SOL    HW119949   0.173   2.830   1.748 -0.1225  1.4713 -1.0159
 2830SOL    HW219950   0.257   2.878   1.626  1.5309  1.2913  0.8241
 2831SOL     OW19951   2.798   0.023  11.837  0.3444 -0.8577  0.0261
 2831SOL    HW119952   2.735   0.085  11.801  0.9209  0.1674  0.7877
 2831SOL    HW219953   2.862   0.087  11.868  1.2183 -0.0683 -3.5001
 2832SOL     OW19954   1.931   3.147   6.686 -0.3553  0.4219  0.4667
 2832SOL    HW119955   1.965   3.073   6.634 -1.5392  0.3975 -0.2793
 2832SOL    HW219956   1.981   3.133   6.766 -0.8197 -0.6850  0.5763
 2833SOL     OW19957   3.780   2.454   3.902  0.6648 -0.0571  0.2153
 2833SOL    HW119958   3.695   2.433   3.939  1.3171 -1.3595  0.9727
 2833SOL    HW219959   3.817   2.493   3.981  1.3949  0.1922 -0.2512
 2834SOL     OW19960   1.102   1.774   9.982 -0.8216  0.0788  0.4262
 2834SOL    HW119961   1.090   1.866   9.956  1.8327 -0.0878 -1.4655
 2834SOL    HW219962   1.020   1.735   9.953 -0.0338 -0.8065 -0.6041
 2835SOL     OW19963   4.719   0.926   3.325 -0.4312  0.0324 -0.3131
 2835SOL    HW119964   4.720   0.830   3.324  0.4642  0.0024  3.2527
 2835SOL    HW219965   4.628   0.942   3.350  0.6127  1.7781  2.2116
 2836SOL     OW19966   0.420   2.838   6.688  0.2005 -0.1233  0.3186
 2836SOL    HW119967   0.483   2.832   6.615  1.1468 -1.8053  1.2777
 2836SOL    HW219968   0.382   2.920   6.658 -1.4744 -1.0800 -0.1734
 2837SOL     OW19969   4.339   4.005   2.197  0.0455  0.2538 -0.4092
 2837SOL    HW119970   4.351   4.046   2.283 -0.9350  0.2614 -0.2742
 2837SOL    HW219971   4.353   3.914   2.224 -1.0426  0.5489  1.2028
 2838SOL     OW19972   3.112   3.828   8.586 -0.5109 -0.1247 -0.1187
 2838SOL    HW119973   3.153   3.741   8.584 -0.1469  0.0367  0.4336
 2838SOL    HW219974   3.145   3.861   8.503  0.1631 -0.0673  0.1732
 2839SOL     OW19975   2.733   0.716  11.777 -0.5497 -0.0389  0.5943
 2839SOL    HW119976   2.702   0.777  11.710 -0.5248 -0.7680 -0.0865
 2839SOL    HW219977   2.745   0.632  11.733 -0.3344 -0.2164  0.9902
 2840SOL     OW19978   4.524   4.190  16.023  0.4502 -0.7560 -0.6657
 2840SOL    HW119979   4.619   4.204  16.024  0.0783  1.8596 -1.9105
 2840SOL    HW219980   4.509   4.130  15.950  1.5654 -0.7901 -0.8650
 2841SOL     OW19981   1.678   2.937  16.252 -0.2263  0.1960  0.0122
 2841SOL    HW119982   1.633   2.986  16.183  0.8780  0.1530 -0.7324
 2841SOL    HW219983   1.704   2.859  16.204 -1.8179 -0.5381  0.3532
 2842SOL     OW19984   3.871   2.971   4.127  0.7788 -0.2510 -0.4361
 2842SOL    HW119985   3.912   2.941   4.208 -0.9043  0.9887  0.8867
 2842SOL    HW219986   3.786   2.929   4.137  0.5055  0.7917  1.6441
 2843SOL     OW19987   0.272   0.326  15.995 -0.6428  0.5760 -0.0278
 2843SOL    HW119988   0.350   0.327  15.941 -0.6583 -0.9733 -0.0970
 2843SOL    HW219989   0.305   0.273  16.068  1.8853  1.5951 -0.4389
 2844SOL     OW19990   4.659   2.856  10.816  0.4829 -0.4906  0.3439
 2844SOL    HW119991   4.577   2.829  10.774  2.6342 -3.9186 -1.6168
 2844SOL    HW219992   4.627   2.891  10.899  0.1940 -1.3795  0.6178
 2845SOL     OW19993   1.881   3.300  11.058  0.2473  0.5425  0.2085
 2845SOL    HW119994   1.879   3.330  11.149 -1.8659  0.3078  0.2469
 2845SOL    HW219995   1.951   3.236  11.071  1.4037  1.7064 -0.2914
 2846SOL     OW19996   3.395   2.051  16.843 -0.6577 -0.3014  0.4027
 2846SOL    HW119997   3.386   2.018  16.753  2.9567 -1.8180  0.5630
 2846SOL    HW219998   3.315   2.019  16.883 -0.3561 -0.7754  0.6302
 2847SOL     OW19999   0.525   0.941   7.143 -0.3588  0.1612  0.3366
 2847SOL    HW120000   0.509   0.930   7.237  0.3201 -1.7878  0.2184
 2847SOL    HW220001   0.502   0.857   7.103 -0.9680 -0.7451  2.5707
 2848SOL     OW20002   2.805   0.286  11.609  0.3764 -0.3387 -0.4424
 2848SOL    HW120003   2.890   0.330  11.606  0.3212 -0.1288  1.1011
 2848SOL    HW220004   2.839   0.198  11.624  0.8798  0.0851  0.9291
 2849SOL     OW20005   3.241   2.939   2.783 -0.4795  0.1543 -0.3331
 2849SOL    HW120006   3.184   2.896   2.719  0.3225  0.4009 -1.2036
 2849SOL    HW220007   3.265   3.016   2.733  1.7653  0.0987  0.6634
 2850SOL     OW20008   1.289   3.926   3.102  0.2727 -0.0910 -0.3037
 2850SOL    HW120009   1.314   3.977   3.025 -0.1506 -1.7238 -1.5331
 2850SOL    HW220010   1.346   3.850   3.090 -1.5254 -1.3632 -0.9021
 2851SOL     OW20011   0.302   1.795   4.535 -0.2640  0.1609  0.2209
 2851SOL    HW120012   0.356   1.797   4.614  2.1754  1.5797 -1.4612
 2851SOL    HW220013   0.251   1.876   4.545 -0.1981 -0.2284  3.7960
 2852SOL     OW20014   0.185   3.069   4.324 -0.2769 -0.1110  0.3373
 2852SOL    HW120015   0.160   3.007   4.392 -0.2166  0.7787  1.1549
 2852SOL    HW220016   0.179   3.155   4.366  0.2276  0.2022 -0.2376
 2853SOL     OW20017   4.185   0.603   4.866 -0.2586  0.0690  0.6828
 2853SOL    HW120018   4.190   0.509   4.847  2.1962  0.4591 -0.6902
 2853SOL    HW220019   4.090   0.615   4.866 -0.2280  0.2994  0.3665
 2854SOL     OW20020   3.872   0.936   7.577 -0.1302  0.1177 -0.6727
 2854SOL    HW120021   3.825   0.895   7.650 -0.0166  0.2829 -0.5069
 2854SOL    HW220022   3.947   0.981   7.615 -2.3635  2.7313  0.7355
 2855SOL     OW20023   3.578   2.550  13.602  0.1677  0.2700  0.2226
 2855SOL    HW120024   3.575   2.455  13.589 -0.9113  0.5785 -1.7352
 2855SOL    HW220025   3.621   2.560  13.687 -0.0879  0.7982  0.2826
 2856SOL     OW20026   3.684   3.969   2.437 -0.0219  0.2274  0.3581
 2856SOL    HW120027   3.596   4.002   2.451  0.0608 -0.0766  1.6469
 2856SOL    HW220028   3.665   3.903   2.370  0.7895 -0.6883  1.0108
 2857SOL     OW20029   1.012   0.343   5.145 -0.9250  0.3389 -0.4024
 2857SOL    HW120030   0.991   0.436   5.156 -0.0704  0.4533  0.2577
 2857SOL    HW220031   0.946   0.309   5.205  0.4111 -0.8468  0.4219
 2858SOL     OW20032   3.830   0.451   9.155 -0.2017 -0.6524  0.1430
 2858SOL    HW120033   3.861   0.522   9.098 -3.7599 -0.0065 -1.0206
 2858SOL    HW220034   3.912   0.421   9.195  1.2849  2.2299 -0.7195
 2859SOL     OW20035   1.739   0.256   5.715 -0.3496 -0.1392 -0.2348
 2859SOL    HW120036   1.707   0.216   5.634  0.8669  0.7673 -1.1714
 2859SOL    HW220037   1.725   0.347   5.688 -2.2062 -0.8890 -1.8300
 2860SOL     OW20038   2.512   4.539   9.010 -0.0077  0.7983  0.0298
 2860SOL    HW120039   2.547   4.610   9.064 -1.2028  1.2006  0.2805
 2860SOL    HW220040   2.584   4.476   9.009 -0.7931 -0.0723 -1.2464
 2861SOL     OW20041   3.544   2.621   4.681  0.0817  0.6168 -0.4183
 2861SOL    HW120042   3.578   2.707   4.705  1.4263 -0.4037  1.3611
 2861SOL    HW220043   3.463   2.600   4.728  1.1668 -0.0349  1.1656
 2862SOL     OW20044   1.334   3.001   8.437  0.1273 -0.7923  0.3065
 2862SOL    HW120045   1.403   2.978   8.499  0.4354  0.8418  0.5730
 2862SOL    HW220046   1.267   2.933   8.438  0.8247 -1.4833  0.0393
 2863SOL     OW20047   2.347   2.101  12.469 -0.9061 -0.1620 -0.4715
 2863SOL    HW120048   2.346   2.064  12.557  0.2799  0.9796  0.0211
 2863SOL    HW220049   2.439   2.087  12.447 -1.0077  0.0265 -1.0308
 2864SOL     OW20050   2.628   4.189   5.162 -0.4312  0.0560  0.6528
 2864SOL    HW120051   2.645   4.282   5.144  1.2653 -0.0160  1.8787
 2864SOL    HW220052   2.543   4.185   5.204  0.3432  2.2639  2.4348
 2865SOL     OW20053   0.938   3.361  17.260  0.0263  0.9277 -0.0578
 2865SOL    HW120054   0.914   3.435  17.315 -0.0755 -1.0575  2.5377
 2865SOL    HW220055   0.853   3.318  17.253  0.6810 -0.4478  0.3977
 2866SOL     OW20056   0.645   1.488  11.592 -0.3304  0.0669 -0.3129
 2866SOL    HW120057   0.572   1.548  11.581 -0.9387 -0.8083 -1.0681
 2866SOL    HW220058   0.604   1.441  11.665  0.0321 -0.6156 -0.5425
 2867SOL     OW20059   0.222   1.811  10.283  0.0039 -0.4010 -0.1374
 2867SOL    HW120060   0.267   1.877  10.336  1.4939 -1.6558  0.1898
 2867SOL    HW220061   0.131   1.834  10.298 -0.3444 -0.9040 -1.4406
 2868SOL     OW20062   4.033   1.019  11.952 -0.2725 -0.0269 -0.2304
 2868SOL    HW120063   4.123   1.044  11.929  0.4872  0.7786  3.7317
 2868SOL    HW220064   4.006   1.080  12.020 -1.1980 -0.0257 -0.5991
 2869SOL     OW20065   4.511   4.254  15.608  0.2552  0.1742  0.3794
 2869SOL    HW120066   4.603   4.271  15.590  0.2737  0.0303  0.3342
 2869SOL    HW220067   4.468   4.338  15.622 -1.7718 -1.1205  1.9769
 2870SOL     OW20068   1.937   0.652   6.600 -0.7223  0.4169 -0.5604
 2870SOL    HW120069   1.912   0.677   6.511 -0.9235  0.2714 -0.5445
 2870SOL    HW220070   1.851   0.619   6.626  0.5228  0.3754  3.4643
 2871SOL     OW20071   1.289   4.023  14.661  0.0218 -0.2740 -0.2774
 2871SOL    HW120072   1.306   4.002  14.753  1.0821  1.3421 -0.1093
 2871SOL    HW220073   1.261   3.934  14.637  1.8161 -1.6090  2.5027
 2872SOL     OW20074   3.810   2.383  15.590 -0.3341  0.2109  0.1236
 2872SOL    HW120075   3.878   2.443  15.558 -0.3093  1.3070  2.2035
 2872SOL    HW220076   3.855   2.299  15.596 -0.1212  0.1668 -2.1489
 2873SOL     OW20077   4.703   3.691   6.121  0.6125 -0.2318  0.6108
 2873SOL    HW120078   4.666   3.684   6.209  0.5915 -2.9600  0.3860
 2873SOL    HW220079   4.637   3.741   6.074  1.9148 -1.0554 -2.0631
 2874SOL     OW20080   0.060   1.579   1.510  0.2001 -0.4899 -0.3683
 2874SOL    HW120081   0.021   1.609   1.428 -0.6712  0.3100  0.3378
 2874SOL    HW220082   0.023   1.491   1.509 -1.2357  0.1072 -0.4565
 2875SOL     OW20083   3.211   3.570   2.951 -0.1619  0.0467 -0.1802
 2875SOL    HW120084   3.140   3.507   2.955  1.2574 -1.5371  0.1600
 2875SOL    HW220085   3.284   3.516   2.983  0.2919  0.5619 -0.3273
 2876SOL     OW20086   2.217   3.891   3.276  0.7495 -0.1264  0.0636
 2876SOL    HW120087   2.276   3.826   3.315  0.9471 -0.5894 -0.9999
 2876SOL    HW220088   2.134   3.849   3.300 -0.3377  1.4289 -1.0722
 2877SOL     OW20089   0.877   0.422   8.580 -0.1307 -0.1363 -0.7450
 2877SOL    HW120090   0.957   0.474   8.580 -0.3881  0.2746  0.1794
 2877SOL    HW220091   0.844   0.454   8.664  1.1814  0.2370 -0.3700
 2878SOL     OW20092   3.476   3.784   4.658  0.1209  0.6277  0.2152
 2878SOL    HW120093   3.532   3.860   4.640 -0.1052  1.1527  1.7206
 2878SOL    HW220094   3.520   3.751   4.736 -3.0473 -3.5410  0.2311
 2879SOL     OW20095   3.161   4.599   3.001  0.3730 -0.6045  0.2045
 2879SOL    HW120096   3.230   4.648   2.956 -0.1348  0.2641  0.3537
 2879SOL    HW220097   3.205   4.515   3.012 -0.7328 -0.7733  3.4248
 2880SOL     OW20098   2.223   3.489   8.854 -0.3179 -0.1187 -0.5584
 2880SOL    HW120099   2.249   3.581   8.851 -0.7993  0.1095  1.8624
 2880SOL    HW220100   2.166   3.483   8.778  1.8739  1.1181 -2.2929
 2881SOL     OW20101   3.847   3.110   2.413 -0.1018 -0.1759 -0.8789
 2881SOL    HW120102   3.794   3.190   2.420 -2.2943 -1.8955  2.2331
 2881SOL    HW220103   3.858   3.103   2.318  1.8878 -1.4931 -0.5482
 2882SOL     OW20104   1.689   1.954   1.415 -0.4382 -1.0245 -0.0783
 2882SOL    HW120105   1.773   1.975   1.373  0.3413 -1.7366  1.1193
 2882SOL    HW220106   1.646   1.956   1.329  1.3664 -1.9510 -1.0115
 2883SOL     OW20107   2.839   3.097   7.281 -0.4127  0.1112 -0.5650
 2883SOL    HW120108   2.847   3.191   7.300  0.3832  0.0035 -0.3643
 2883SOL    HW220109   2.780   3.070   7.352  0.6325 -2.4410 -0.6758
 2884SOL     OW20110   3.436   1.939   2.790 -0.4998  0.5032  0.7642
 2884SOL    HW120111   3.441   1.876   2.718 -0.9016 -0.1378  1.3046
 2884SOL    HW220112   3.498   1.906   2.855 -0.1520  1.6295  1.0088
 2885SOL     OW20113   0.120   3.720   2.943 -0.2793 -0.1450 -0.1534
 2885SOL    HW120114   0.185   3.791   2.943  0.9779 -1.3043  0.2722
 2885SOL    HW220115   0.043   3.764   2.979 -0.0771  1.3118 -1.5044
 2886SOL     OW20116   3.905   0.311  10.404 -0.2923  0.0119 -0.1454
 2886SOL    HW120117   3.968   0.370  10.445 -0.4563 -0.3009  0.5509
 2886SOL    HW220118   3.882   0.371  10.334  1.3158  0.1059 -0.5868
 2887SOL     OW20119   2.294   1.108   1.142 -0.1666  0.0183 -0.5321
 2887SOL    HW120120   2.316   1.056   1.219 -1.9127 -0.3450 -0.2662
 2887SOL    HW220121   2.206   1.073   1.122 -1.0666  1.5594  0.7416
 2888SOL     OW20122   0.639   3.887  17.142  0.5216  0.4728 -0.2957
 2888SOL    HW120123   0.575   3.915  17.077  0.0697  0.4949  0.1605
 2888SOL    HW220124   0.725   3.885  17.099 -1.2287  0.7599 -3.7742
 2889SOL     OW20125   4.037   1.200   1.778  0.3723  0.0633 -0.2059
 2889SOL    HW120126   3.989   1.203   1.695 -1.1416 -1.2311  0.6347
 2889SOL    HW220127   4.023   1.109   1.805 -2.6660  0.7378  0.4263
 2890SOL     OW20128   1.113   2.271  17.507 -0.3057  0.1596 -0.7587
 2890SOL    HW120129   1.081   2.288  17.419  1.2168  0.7607 -1.1831
 2890SOL    HW220130   1.045   2.209  17.535 -2.1112  2.8602  0.8431
 2891SOL     OW20131   0.063   0.229  16.261  0.1021 -0.0726  0.2609
 2891SOL    HW120132   4.701   0.256  16.226 -0.4758  0.0448  1.7475
 2891SOL    HW220133   0.050   0.249  16.354 -1.8412 -0.5017  0.0832
 2892SOL     OW20134   1.501   4.097   6.979 -0.6121 -0.1389 -0.1485
 2892SOL    HW120135   1.485   4.162   7.047 -1.3515 -1.3259  0.8080
 2892SOL    HW220136   1.525   4.023   7.035  1.3482  0.2267 -0.5281
 2893SOL     OW20137   2.359   2.648   2.441  0.1588 -0.0206 -0.6116
 2893SOL    HW120138   2.407   2.579   2.394 -0.1514 -0.6917  0.0525
 2893SOL    HW220139   2.351   2.714   2.372 -3.2603 -0.9741 -1.1192
 2894SOL     OW20140   0.228   1.396   1.778 -0.3774  0.3247  0.3638
 2894SOL    HW120141   0.215   1.373   1.870 -0.7906 -0.0509  0.2132
 2894SOL    HW220142   0.275   1.323   1.738 -0.5023 -0.5317  1.7972
 2895SOL     OW20143   2.143   1.446   8.716  0.8795  0.9187 -0.0685
 2895SOL    HW120144   2.127   1.357   8.683  3.9381  0.0689  0.8070
 2895SOL    HW220145   2.140   1.438   8.811  0.5815 -0.5213 -0.1890
 2896SOL     OW20146   2.158   2.037   4.753  0.0450  0.2048  0.0385
 2896SOL    HW120147   2.164   1.996   4.839 -1.5076 -0.5604 -0.2039
 2896SOL    HW220148   2.201   1.971   4.699  0.1484 -0.1425  0.5597
 2897SOL     OW20149   3.695   3.320   2.364  0.0576 -0.3343  0.2377
 2897SOL    HW120150   3.619   3.370   2.334 -0.0360 -0.9389 -0.5252
 2897SOL    HW220151   3.682   3.332   2.459 -1.1707  0.0389  0.0305
 2898SOL     OW20152   2.692   1.943   1.274  0.5069  0.1424  0.1661
 2898SOL    HW120153   2.732   2.005   1.335  0.6264 -0.5886  0.8285
 2898SOL    HW220154   2.766   1.893   1.238  0.0067  0.1447 -0.8757
 2899SOL     OW20155   0.465   4.175   3.532  0.0068 -0.7334  0.0381
 2899SOL    HW120156   0.536   4.173   3.468  0.7654 -0.4252  0.8723
 2899SOL    HW220157   0.517   4.203   3.607 -1.4626  3.8567 -0.6300
 2900SOL     OW20158   2.854   2.977  15.112  0.3801 -0.3676  0.0653
 2900SOL    HW120159   2.885   2.927  15.188 -0.5330 -0.3024  0.4789
 2900SOL    HW220160   2.769   2.934  15.115  0.7828 -1.3438 -2.8707
 2901SOL     OW20161   0.335   3.425  17.379  0.0028 -0.2930 -0.1923
 2901SOL    HW120162   0.307   3.512  17.349 -1.9902 -1.1605 -0.8778
 2901SOL    HW220163   0.408   3.463  17.427 -0.7512  0.3351  0.4740
 2902SOL     OW20164   4.299   0.783  12.653 -0.8047  0.1936 -0.5749
 2902SOL    HW120165   4.309   0.748  12.565 -1.3761  1.4479 -1.1310
 2902SOL    HW220166   4.355   0.861  12.642 -0.9874  0.6026  1.3410
 2903SOL     OW20167   3.405   4.036   6.012  0.4056  0.3953 -0.2147
 2903SOL    HW120168   3.409   4.094   6.088  0.9015 -2.9239  2.3134
 2903SOL    HW220169   3.324   4.067   5.972  0.7938  0.7204 -0.7351
 2904SOL     OW20170   1.242   2.966   0.962  0.3871  1.0668 -0.3283
 2904SOL    HW120171   1.227   3.022   0.886 -1.7977  1.4153  0.3501
 2904SOL    HW220172   1.162   2.914   0.962  0.7142  0.5526 -1.0434
 2905SOL     OW20173   1.831   2.555   3.406 -0.2669  0.2180  0.5931
 2905SOL    HW120174   1.822   2.460   3.406  2.2321 -0.0336 -0.8288
 2905SOL    HW220175   1.892   2.566   3.333 -0.7277 -2.1956 -0.1566
 2906SOL     OW20176   3.354   4.337  11.798 -0.1099 -0.0379  0.0351
 2906SOL    HW120177   3.342   4.358  11.705 -1.2865 -1.9508 -0.2325
 2906SOL    HW220178   3.369   4.428  11.825 -1.3951  1.0639 -2.8132
 2907SOL     OW20179   1.700   0.022  17.197 -0.5583 -0.7169 -0.4155
 2907SOL    HW120180   1.605   0.029  17.184 -0.3322 -0.5355 -1.9948
 2907SOL    HW220181   1.724   0.114  17.209 -1.8843 -0.2986 -0.9058
 2908SOL     OW20182   2.749   4.458  11.605  0.1418 -0.3293  0.0921
 2908SOL    HW120183   2.798   4.377  11.615  1.8217  0.5734 -0.8087
 2908SOL    HW220184   2.713   4.474  11.692  1.7010 -0.3245  0.7358
 2909SOL     OW20185   4.019   0.461   6.332  0.6856 -0.4695 -0.1577
 2909SOL    HW120186   4.033   0.550   6.364  1.3677 -0.9093  0.7645
 2909SOL    HW220187   4.102   0.444   6.288 -0.4212 -2.4701 -1.4966
 2910SOL     OW20188   0.692   4.701   8.693  0.2478 -0.5163 -0.1720
 2910SOL    HW120189   0.601   4.684   8.717  0.3566 -0.1465  0.5061
 2910SOL    HW220190   0.731   4.618   8.667  1.4837  0.7554 -2.4272
 2911SOL     OW20191   0.880   2.323   0.065  0.0540 -0.4722  0.5171
 2911SOL    HW120192   0.915   2.295   0.150 -0.1948 -0.8950  0.4830
 2911SOL    HW220193   0.890   2.241   0.017 -2.1857  0.7762 -2.0949
 2912SOL     OW20194   0.566   1.999   6.827  0.8551 -0.3304  0.8728
 2912SOL    HW120195   0.642   1.998   6.885  0.9898 -1.6664  0.6680
 2912SOL    HW220196   0.497   1.993   6.893  0.3607 -0.1147  0.3809
 2913SOL     OW20197   3.734   2.111   5.364 -0.3570 -0.3738  0.2019
 2913SOL    HW120198   3.719   2.098   5.270 -1.7276  2.5061  0.0388
 2913SOL    HW220199   3.744   2.206   5.365 -1.3246 -0.2774  1.3538
 2914SOL     OW20200   1.920   1.179   1.397  0.5182 -0.0556 -0.0298
 2914SOL    HW120201   1.986   1.236   1.358 -0.2050  0.2996 -0.7308
 2914SOL    HW220202   1.953   1.093   1.372 -2.2905 -0.6132 -1.8312
 2915SOL     OW20203   3.183   0.984  16.074  0.2178 -0.2689  0.0982
 2915SOL    HW120204   3.268   1.004  16.113 -1.0065 -0.0489  2.6268
 2915SOL    HW220205   3.125   1.053  16.105  1.9260  1.8004 -1.3683
 2916SOL     OW20206   2.875   1.249  12.103 -0.4471 -0.0887 -0.5230
 2916SOL    HW120207   2.792   1.289  12.077  0.1542  1.4915  0.0247
 2916SOL    HW220208   2.861   1.204  12.187  0.8005  1.9280  0.7451
 2917SOL     OW20209   2.576   4.192   7.263  0.1494 -0.6993  0.4419
 2917SOL    HW120210   2.619   4.106   7.266 -0.2630 -0.9040  0.4830
 2917SOL    HW220211   2.599   4.229   7.348  1.7330 -1.6969  0.4433
 2918SOL     OW20212   0.124   2.550   5.162  0.5558 -0.3245 -0.0662
 2918SOL    HW120213   0.210   2.524   5.128  0.1132 -1.0601 -0.6275
 2918SOL    HW220214   0.068   2.538   5.085  0.7893 -0.2159 -0.2522
 2919SOL     OW20215   2.826   4.687   1.162 -0.1419 -0.4760  0.2890
 2919SOL    HW120216   2.847   0.015   1.083 -3.4458  1.7290  0.8120
 2919SOL    HW220217   2.775   4.617   1.122 -2.8298  3.2697 -2.8963
 2920SOL     OW20218   3.080   0.996   7.349  0.1519 -0.2765  0.7971
 2920SOL    HW120219   3.116   1.035   7.269  0.5259 -0.4192  0.8972
 2920SOL    HW220220   3.104   0.905   7.333  0.7511 -0.2488  1.5673
 2921SOL     OW20221   3.288   2.932   5.476 -0.1051  0.0554  0.7788
 2921SOL    HW120222   3.233   2.944   5.399  0.6446  1.8314  0.5125
 2921SOL    HW220223   3.339   3.012   5.490 -1.4864  1.1024 -0.1915
 2922SOL     OW20224   1.797   3.606  11.299 -0.1013  0.2134  0.7434
 2922SOL    HW120225   1.864   3.539  11.314  0.3958  0.2976 -1.1528
 2922SOL    HW220226   1.809   3.629  11.207 -0.6280  1.4196  0.9717
 2923SOL     OW20227   1.192   1.177   5.980 -0.0378  0.4330  0.0164
 2923SOL    HW120228   1.168   1.221   6.061  0.6543 -1.2191  1.1218
 2923SOL    HW220229   1.286   1.195   5.971 -0.0059 -1.1098 -2.5650
 2924SOL     OW20230   2.003   0.143  14.532 -0.2326 -0.5669  0.2253
 2924SOL    HW120231   1.993   0.236  14.553  1.8084 -0.8397  2.4177
 2924SOL    HW220232   1.963   0.097  14.606  2.4490 -1.4245  1.1500
 2925SOL     OW20233   2.927   3.220   5.633 -0.4396  0.4179 -0.1424
 2925SOL    HW120234   2.886   3.295   5.591 -1.5517 -0.6119 -0.9045
 2925SOL    HW220235   2.899   3.153   5.570 -0.5983 -0.7904  1.1921
 2926SOL     OW20236   3.420   3.679   5.267 -0.2416 -0.0825  0.1450
 2926SOL    HW120237   3.423   3.775   5.266  2.4136 -0.1914 -2.3541
 2926SOL    HW220238   3.335   3.672   5.224 -0.5175 -0.5962  0.7866
 2927SOL     OW20239   1.011   3.265  13.662  0.0152  0.4333  0.1954
 2927SOL    HW120240   1.024   3.221  13.746  2.4124 -0.3973 -0.5856
 2927SOL    HW220241   1.089   3.246  13.609  0.0838 -0.9506  0.7778
 2928SOL     OW20242   2.484   4.471   2.486 -0.0761  0.5937  0.2184
 2928SOL    HW120243   2.466   4.421   2.407 -0.7880 -1.9498  2.0209
 2928SOL    HW220244   2.467   4.563   2.462  0.0727 -0.5291 -4.1980
 2929SOL     OW20245   4.136   2.654  16.787 -0.4934 -0.1511  0.1612
 2929SOL    HW120246   4.088   2.705  16.722 -0.9797  0.1306  0.7485
 2929SOL    HW220247   4.068   2.640  16.853 -0.9441  2.1285  0.1813
 2930SOL     OW20248   0.202   1.631   3.233 -0.0994  0.2700 -0.1870
 2930SOL    HW120249   0.280   1.582   3.207  0.2509  0.7661 -0.0822
 2930SOL    HW220250   0.136   1.563   3.245 -1.7231  1.6362 -1.4227
 2931SOL     OW20251   0.329   4.208   9.011  0.0258 -0.1901 -0.6257
 2931SOL    HW120252   0.297   4.118   9.008 -0.5516 -0.0120  0.2851
 2931SOL    HW220253   0.261   4.256   8.962  1.9442  1.6620 -1.4762
 2932SOL     OW20254   1.245   2.121  17.179 -0.2738 -0.5194 -0.1349
 2932SOL    HW120255   1.334   2.154  17.165 -0.6320 -0.1413 -1.5506
 2932SOL    HW220256   1.222   2.107  17.088 -0.8198 -1.6526  0.1844
 2933SOL     OW20257   2.253   0.204   3.163 -0.0633 -0.1188  0.6071
 2933SOL    HW120258   2.290   0.292   3.152 -0.1141 -0.3419 -1.5006
 2933SOL    HW220259   2.176   0.209   3.106 -1.1236  4.2060  2.4234
 2934SOL     OW20260   0.341   2.106   4.632  0.3000  0.0908  0.2242
 2934SOL    HW120261   0.379   2.180   4.585 -1.8252  1.2716  0.3815
 2934SOL    HW220262   0.414   2.076   4.686 -1.1753  1.1445  2.8110
 2935SOL     OW20263   1.593   3.858  14.550  0.3901  0.0558 -0.3566
 2935SOL    HW120264   1.572   3.941  14.508  0.0325  0.0134 -0.2580
 2935SOL    HW220265   1.544   3.800  14.493  1.2270  1.4749 -2.5243
 2936SOL     OW20266   4.385   0.520  13.731 -0.0517  0.2172 -0.1048
 2936SOL    HW120267   4.457   0.489  13.676 -0.5896 -0.8398 -0.2229
 2936SOL    HW220268   4.304   0.510  13.679 -1.3993  1.5343  1.7594
 2937SOL     OW20269   1.977   3.969   5.798 -0.2569 -0.6211 -0.0480
 2937SOL    HW120270   2.072   3.964   5.799 -0.3099 -1.7763 -0.5131
 2937SOL    HW220271   1.961   3.884   5.757 -0.5221  0.7990 -2.8471
 2938SOL     OW20272   2.727   0.745   8.453  0.1013  0.3793 -0.1685
 2938SOL    HW120273   2.774   0.828   8.464  1.1963 -0.4035  1.1271
 2938SOL    HW220274   2.752   0.701   8.535 -0.1503 -1.5507 -1.1283
 2939SOL     OW20275   2.485   1.648   7.285 -0.1053  0.5321  0.2717
 2939SOL    HW120276   2.490   1.582   7.216 -0.4822  0.3153  0.4503
 2939SOL    HW220277   2.392   1.672   7.287  0.1979  1.4864  2.9793
 2940SOL     OW20278   4.187   3.942   4.596  0.2650 -0.0170  0.3516
 2940SOL    HW120279   4.249   3.985   4.537  0.0667 -4.0029 -2.6949
 2940SOL    HW220280   4.107   3.946   4.543  0.2149  0.3522  0.4529
 2941SOL     OW20281   0.478   1.965  10.375  0.1541 -0.5156  0.3320
 2941SOL    HW120282   0.485   1.906  10.300 -1.5520  1.4710 -1.3677
 2941SOL    HW220283   0.551   2.018  10.343 -2.1245  2.4813  0.1387
 2942SOL     OW20284   3.089   3.221  12.011  0.5877  0.4916  0.2636
 2942SOL    HW120285   3.162   3.262  12.058  2.8638 -2.6170 -0.5611
 2942SOL    HW220286   3.027   3.185  12.075  2.0647  1.9558  2.5374
 2943SOL     OW20287   3.879   3.801  17.461 -0.7664  0.0954 -0.2532
 2943SOL    HW120288   3.838   3.731  17.511  1.2226 -0.7817  0.1753
 2943SOL    HW220289   3.956   3.754  17.428  0.2573  1.1525  0.6084
 2944SOL     OW20290   1.979   0.821  11.952  0.2190 -0.4531 -0.3641
 2944SOL    HW120291   2.017   0.758  11.890 -0.3768  0.4438 -1.6340
 2944SOL    HW220292   2.029   0.902  11.940  0.3615 -0.9590 -3.2063
 2945SOL     OW20293   0.641   1.115  11.973 -0.4519  0.5258  0.5873
 2945SOL    HW120294   0.687   1.194  12.001  0.5592  0.2831 -0.3788
 2945SOL    HW220295   0.714   1.055  11.956  1.3894  3.0464 -0.2635
 2946SOL     OW20296   3.188   3.255   7.777  0.2118  0.0685  0.0896
 2946SOL    HW120297   3.148   3.254   7.690 -1.8638  0.2668  1.0506
 2946SOL    HW220298   3.189   3.347   7.802  2.3218  0.5246 -1.6399
 2947SOL     OW20299   0.152   2.310  17.134  0.4899  0.1936 -0.3939
 2947SOL    HW120300   0.074   2.255  17.132  0.8489 -0.3798  2.2558
 2947SOL    HW220301   0.153   2.350  17.047 -0.4505 -1.0482 -0.9769
 2948SOL     OW20302   2.094   3.780   8.296  0.1342 -0.2915  0.0280
 2948SOL    HW120303   2.182   3.807   8.268 -0.5113  1.7889 -0.0300
 2948SOL    HW220304   2.121   3.774   8.388 -0.8133 -0.0460  0.3185
 2949SOL     OW20305   2.871   0.757  15.238  0.4422 -0.0623 -0.0011
 2949SOL    HW120306   2.914   0.675  15.215  0.3434 -0.1898  0.2677
 2949SOL    HW220307   2.822   0.780  15.160 -0.2287 -1.2108  0.0831
 2950SOL     OW20308   3.549   2.068   2.142  0.4202 -0.1157 -0.4960
 2950SOL    HW120309   3.459   2.051   2.116  0.8511 -0.0184 -2.0582
 2950SOL    HW220310   3.554   2.050   2.236  0.0993 -0.2282 -0.5019
 2951SOL     OW20311   0.316   3.196   9.081 -0.1764  0.4069  0.3551
 2951SOL    HW120312   0.361   3.278   9.064  0.1466 -0.3714 -2.5611
 2951SOL    HW220313   0.379   3.149   9.136  1.1593  0.7950 -0.8426
 2952SOL     OW20314   4.632   4.248  16.460 -0.8235  0.2201  0.0930
 2952SOL    HW120315   4.562   4.195  16.421 -0.3340  0.4542 -1.1289
 2952SOL    HW220316   4.574   4.324  16.473 -1.7568 -0.6350  0.8608
 2953SOL     OW20317   4.279   2.662   9.711  0.3138 -0.1807 -0.0601
 2953SOL    HW120318   4.206   2.611   9.748  1.3463 -1.8214 -0.2986
 2953SOL    HW220319   4.259   2.751   9.742  1.9337  0.7807 -1.7977
 2954SOL     OW20320   2.262   3.229   9.722  0.2963  0.0817  0.3188
 2954SOL    HW120321   2.301   3.292   9.783  0.3867  0.7791 -0.4676
 2954SOL    HW220322   2.335   3.171   9.704  1.2641  0.7508  2.0517
 2955SOL     OW20323   4.032   3.121  12.282  0.2356  0.1491 -0.2444
 2955SOL    HW120324   4.102   3.164  12.332 -1.1691  1.8194  0.3029
 2955SOL    HW220325   4.019   3.179  12.208  1.3859  0.1391 -0.4657
 2956SOL     OW20326   3.368   4.013   1.990  0.2780  0.4967 -0.0600
 2956SOL    HW120327   3.369   4.068   1.912 -3.4914  2.7227  1.4642
 2956SOL    HW220328   3.367   4.080   2.059 -0.0162 -0.7849  1.1620
 2957SOL     OW20329   1.234   1.441  16.285 -0.1362 -0.5715  0.4697
 2957SOL    HW120330   1.213   1.352  16.312 -1.7435  0.0203  1.1891
 2957SOL    HW220331   1.326   1.447  16.310 -0.1680 -1.6678  0.8341
 2958SOL     OW20332   1.455   0.208  17.004  0.0708  0.2519  0.2538
 2958SOL    HW120333   1.412   0.137  16.957 -2.6042  1.9453  0.1172
 2958SOL    HW220334   1.435   0.190  17.096  1.5184  1.8229  0.8787
 2959SOL     OW20335   1.973   0.746   7.456  0.1742  0.0331 -0.7443
 2959SOL    HW120336   1.985   0.837   7.431  2.1358 -0.3984 -1.3635
 2959SOL    HW220337   2.032   0.748   7.532  0.8268  1.1963 -1.2879
 2960SOL     OW20338   1.976   2.007   2.398  0.1402 -0.0203 -0.5057
 2960SOL    HW120339   2.008   1.931   2.447  1.5733 -0.5488 -2.2571
 2960SOL    HW220340   1.883   1.984   2.398  0.1656 -0.1996 -4.4795
 2961SOL     OW20341   4.454   3.954   4.792  0.8209  1.0123 -0.2063
 2961SOL    HW120342   4.443   3.994   4.705  1.6329  0.4431 -0.5688
 2961SOL    HW220343   4.368   3.970   4.830 -0.0059  2.4291 -2.6494
 2962SOL     OW20344   0.935   3.717   5.489 -0.5685 -0.0497  0.2379
 2962SOL    HW120345   0.843   3.736   5.469 -0.1422  2.1688  0.4175
 2962SOL    HW220346   0.941   3.754   5.577 -0.6394  2.3325 -0.7744
 2963SOL     OW20347   4.390   0.831   2.143 -0.7405 -0.0218  0.4359
 2963SOL    HW120348   4.306   0.788   2.157 -1.8807  2.1334  0.2173
 2963SOL    HW220349   4.414   0.792   2.059 -2.3532  1.9362 -0.9290
 2964SOL     OW20350   3.057   1.526   5.761  0.1662 -0.0632  0.5918
 2964SOL    HW120351   3.143   1.539   5.720  0.4614  0.6121  1.4200
 2964SOL    HW220352   3.086   1.548   5.849  1.3125  0.3360  0.1128
 2965SOL     OW20353   3.625   2.465   8.436 -0.2572 -0.3244  0.1771
 2965SOL    HW120354   3.705   2.423   8.467  0.0964  2.5755  3.1379
 2965SOL    HW220355   3.578   2.390   8.401  0.9094 -1.3748  0.8705
 2966SOL     OW20356   4.034   1.443  13.891 -0.3080  0.6460  0.2150
 2966SOL    HW120357   3.961   1.431  13.952  0.4468  0.1788  1.0295
 2966SOL    HW220358   4.079   1.358  13.895  0.2459  0.9505  0.5219
 2967SOL     OW20359   0.272   0.851   4.171  0.1345  0.3208 -0.2195
 2967SOL    HW120360   0.212   0.776   4.172 -1.0370  1.2860  2.0131
 2967SOL    HW220361   0.221   0.907   4.112 -0.5040 -1.3692 -1.2531
 2968SOL     OW20362   2.301   1.596   4.805 -0.3367 -0.6647  0.6834
 2968SOL    HW120363   2.275   1.511   4.840 -0.6941 -1.3229 -1.1473
 2968SOL    HW220364   2.395   1.597   4.824 -0.2567  1.7982  0.1400
 2969SOL     OW20365   4.436   3.552  14.660  0.1804 -0.0013  0.2210
 2969SOL    HW120366   4.470   3.639  14.636  0.2328 -0.3363 -0.9128
 2969SOL    HW220367   4.503   3.527  14.724 -0.4430  0.2822  0.9783
 2970SOL     OW20368   3.195   3.925  15.227  0.0870  0.0798 -0.1056
 2970SOL    HW120369   3.243   3.956  15.149  1.2509  2.1397  1.4230
 2970SOL    HW220370   3.107   3.948  15.198 -0.3491 -3.4430 -1.6057
 2971SOL     OW20371   3.087   0.247  14.715  0.0243 -0.0909  0.0328
 2971SOL    HW120372   3.104   0.156  14.738  0.6760 -0.3163 -1.3599
 2971SOL    HW220373   3.027   0.234  14.641 -0.1599 -2.1105  0.5546
 2972SOL     OW20374   0.961   0.648   4.805  0.5155 -0.6734 -0.3865
 2972SOL    HW120375   1.009   0.642   4.723  0.9289 -0.2696 -0.1717
 2972SOL    HW220376   0.900   0.574   4.803  1.6674 -1.6273 -0.1377
 2973SOL     OW20377   3.888   0.643   7.825 -0.3152  0.2571 -1.2135
 2973SOL    HW120378   3.976   0.638   7.863 -0.7943 -0.2627 -0.1597
 2973SOL    HW220379   3.857   0.725   7.862 -0.6281 -0.0669 -0.7521
 2974SOL     OW20380   4.380   3.470  12.788 -0.1523  0.1170  0.2084
 2974SOL    HW120381   4.434   3.394  12.765 -2.0047 -1.4209  0.9829
 2974SOL    HW220382   4.363   3.459  12.882 -0.9565 -1.4374 -0.1223
 2975SOL     OW20383   1.644   2.448   5.269  0.1040  0.0012 -0.0049
 2975SOL    HW120384   1.676   2.470   5.182 -0.9796 -1.3181 -0.7231
 2975SOL    HW220385   1.584   2.376   5.251  0.0623  0.5240 -1.9028
 2976SOL     OW20386   2.568   1.713   0.793  0.1072 -0.2240 -0.4320
 2976SOL    HW120387   2.639   1.690   0.734  1.0571  1.0002  0.2443
 2976SOL    HW220388   2.605   1.671   0.871 -1.8219  1.0960  1.2089
 2977SOL     OW20389   4.131   3.214   2.840  0.0928  0.3454 -0.4571
 2977SOL    HW120390   4.127   3.220   2.744  0.3233 -0.9756 -0.5397
 2977SOL    HW220391   4.085   3.132   2.854 -0.0121  0.2937 -1.1267
 2978SOL     OW20392   4.586   0.274  10.457  0.8342  0.6329  0.0196
 2978SOL    HW120393   4.506   0.222  10.444  0.5746 -0.1138  4.6194
 2978SOL    HW220394   4.657   0.209  10.456 -1.9035 -2.3419 -2.9175
 2979SOL     OW20395   4.193   0.013  10.844  0.0342  0.5820 -0.4240
 2979SOL    HW120396   4.252   4.702  10.912  0.9971 -0.3473 -1.7160
 2979SOL    HW220397   4.158   0.076  10.907 -0.0498  0.7960 -0.6891
 2980SOL     OW20398   0.244   3.525   9.966 -0.1313 -0.3283  0.4660
 2980SOL    HW120399   0.166   3.489  10.009 -0.1579 -2.8263 -1.6494
 2980SOL    HW220400   0.224   3.616   9.990 -0.2426 -0.3084  0.2983
 2981SOL     OW20401   4.047   1.097   9.439 -0.5414 -0.6182 -0.1406
 2981SOL    HW120402   4.021   1.025   9.496 -0.9293 -0.7452 -0.4758
 2981SOL    HW220403   4.142   1.096   9.450 -0.6906  0.2019  1.2496
 2982SOL     OW20404   3.712   1.029   3.693  0.2814 -1.0428  0.0270
 2982SOL    HW120405   3.701   1.055   3.602  1.2191 -1.4282 -0.1996
 2982SOL    HW220406   3.794   0.979   3.684  2.0470  2.2121 -1.9625
 2983SOL     OW20407   0.356   4.006   5.643 -0.2609  0.7849  0.0976
 2983SOL    HW120408   0.320   4.049   5.721  2.1867  1.2590  0.9503
 2983SOL    HW220409   0.451   4.013   5.649 -0.0743 -0.6133 -1.0777
 2984SOL     OW20410   0.724   0.579  14.658 -0.0899 -0.1049  0.8538
 2984SOL    HW120411   0.760   0.639  14.723 -3.2495  1.0990  1.4912
 2984SOL    HW220412   0.799   0.559  14.602 -1.1512 -0.3031 -0.4983
 2985SOL     OW20413   2.712   2.585  10.163 -0.2443 -0.2100 -0.5025
 2985SOL    HW120414   2.660   2.543  10.231  2.5360 -0.9155  1.1847
 2985SOL    HW220415   2.777   2.631  10.217 -1.6751 -0.4326  1.3806
 2986SOL     OW20416   3.052   0.791   7.035  0.1517 -0.1044 -0.8171
 2986SOL    HW120417   3.029   0.756   6.949  1.6077 -3.1879  0.0422
 2986SOL    HW220418   2.964   0.808   7.069 -0.2038  0.7205 -2.1342
 2987SOL     OW20419   1.858   0.553   8.301  0.8227 -0.7610  0.4615
 2987SOL    HW120420   1.780   0.592   8.341  1.6004 -0.8643  2.0463
 2987SOL    HW220421   1.907   0.537   8.381 -1.5474 -0.3322  2.0010
 2988SOL     OW20422   1.373   1.719   5.536 -0.3495 -0.1726 -0.0639
 2988SOL    HW120423   1.313   1.737   5.464 -1.4883 -0.4920  0.8052
 2988SOL    HW220424   1.433   1.793   5.525 -1.2754  0.8099  1.4365
 2989SOL     OW20425   2.279   2.717   5.033 -0.8944  0.2890  0.0433
 2989SOL    HW120426   2.374   2.716   5.024 -0.5690 -0.6884  3.5809
 2989SOL    HW220427   2.269   2.683   5.121  0.6538 -1.0124 -0.2861
 2990SOL     OW20428   1.347   3.754   6.118  0.0179 -0.0467 -0.2634
 2990SOL    HW120429   1.335   3.819   6.187  1.4908 -0.3648  0.2700
 2990SOL    HW220430   1.395   3.683   6.159  0.2184  0.5265  0.4901
 2991SOL     OW20431   1.100   1.456  11.446  0.0897 -0.2658  0.7342
 2991SOL    HW120432   1.006   1.438  11.444  0.4548 -2.0694  0.4167
 2991SOL    HW220433   1.125   1.374  11.489  0.5590  0.2951  1.5351
 2992SOL     OW20434   3.180   3.667   5.127 -0.2922  0.0340  0.1729
 2992SOL    HW120435   3.195   3.622   5.044 -0.8493 -0.4613  0.3464
 2992SOL    HW220436   3.109   3.727   5.108 -2.6191 -3.0126 -0.7408
 2993SOL     OW20437   3.951   2.789  16.662  0.3818  0.7127 -0.6432
 2993SOL    HW120438   3.927   2.787  16.569 -0.9227 -0.7922 -0.2700
 2993SOL    HW220439   3.905   2.868  16.688  1.3685  0.9971  0.2374
 2994SOL     OW20440   2.197   2.558  13.282  0.3387  0.0228  0.0696
 2994SOL    HW120441   2.284   2.593  13.299  1.2048 -1.7660 -0.6692
 2994SOL    HW220442   2.141   2.614  13.336 -0.2019 -1.7679  1.3643
 2995SOL     OW20443   4.025   0.396  16.916  0.2546 -0.2931 -0.2040
 2995SOL    HW120444   4.057   0.377  17.004  2.9731 -0.0489 -1.1621
 2995SOL    HW220445   3.938   0.422  16.948  0.8604  0.7313  0.5901
 2996SOL     OW20446   3.120   3.187   2.462 -0.7175  0.6424 -0.4474
 2996SOL    HW120447   3.098   3.203   2.554 -0.0343 -1.0450  0.0083
 2996SOL    HW220448   3.098   3.094   2.464  1.1862  0.1879 -0.4769
 2997SOL     OW20449   3.714   1.492  14.042 -0.0496  0.5459 -0.0825
 2997SOL    HW120450   3.736   1.566  14.099  0.1044  1.8767 -1.8659
 2997SOL    HW220451   3.725   1.417  14.101  1.8929  0.0717 -1.0559
 2998SOL     OW20452   2.384   2.392   8.010 -0.3125 -0.4013 -0.4845
 2998SOL    HW120453   2.395   2.486   8.028  2.2129 -0.7393 -0.2521
 2998SOL    HW220454   2.413   2.359   8.095 -3.7178 -2.4562 -0.1362
 2999SOL     OW20455   1.776   4.621  11.613 -0.0771 -0.3497 -0.0750
 2999SOL    HW120456   1.870   4.615  11.628 -0.1873 -3.0063 -0.4506
 2999SOL    HW220457   1.763   4.711  11.641 -0.3602 -0.0497 -1.1465
 3000SOL     OW20458   2.987   0.865  16.924 -0.0034  0.4686  0.3991
 3000SOL    HW120459   2.927   0.867  16.850  1.9379 -1.5609 -1.2420
 3000SOL    HW220460   3.052   0.926  16.889  0.2326  0.0134  0.0401
 3001SOL     OW20461   4.298   0.783  13.336 -0.0493 -0.0734  0.0090
 3001SOL    HW120462   4.256   0.867  13.317  1.4066  0.8201  0.7340
 3001SOL    HW220463   4.354   0.775  13.259 -1.6131 -0.1975 -1.1065
 3002SOL     OW20464   3.914   4.561   3.490  0.3035  0.0851  0.1031
 3002SOL    HW120465   3.917   4.632   3.425  0.5532  1.3198  1.4507
 3002SOL    HW220466   3.831   4.596   3.521 -0.6174 -0.3335 -1.9063
 3003SOL     OW20467   0.899   3.574  17.593  0.2385  0.3495 -0.2385
 3003SOL    HW120468   0.824   3.628  17.616  0.8281  0.2761  1.9120
 3003SOL    HW220469   0.933   3.600  17.508  0.5499 -3.1553 -1.1862
 3004SOL     OW20470   2.087   3.532   5.268  0.1607  0.0996  0.0200
 3004SOL    HW120471   2.054   3.536   5.178  3.2022  0.5121 -1.0816
 3004SOL    HW220472   2.159   3.469   5.255  1.1166  1.0862  0.5501
 3005SOL     OW20473   4.043   4.622   8.110  0.3572 -0.1107  0.4963
 3005SOL    HW120474   4.132   4.647   8.084 -0.2022 -1.1905 -2.3781
 3005SOL    HW220475   4.048   4.643   8.204  0.1979 -0.7706  0.6532
 3006SOL     OW20476   4.406   2.874   0.534 -0.4799 -0.2105  0.2243
 3006SOL    HW120477   4.427   2.789   0.495 -0.6977 -0.1727  0.0208
 3006SOL    HW220478   4.326   2.889   0.483 -0.8530 -1.1309  0.5269
 3007SOL     OW20479   2.834   1.561   1.323  0.1107  0.1957 -0.8563
 3007SOL    HW120480   2.799   1.494   1.264 -1.3559 -0.0501  0.2860
 3007SOL    HW220481   2.759   1.620   1.318 -0.7183 -0.9444 -1.9690
 3008SOL     OW20482   4.524   1.794   3.641  0.0918  0.9400 -0.0489
 3008SOL    HW120483   4.543   1.885   3.665 -1.2334  1.1135  0.3388
 3008SOL    HW220484   4.484   1.812   3.556  0.5463 -0.5383 -0.5622
 3009SOL     OW20485   1.411   4.395   5.552  0.3348  0.2941 -0.0089
 3009SOL    HW120486   1.461   4.451   5.611  1.2891  0.4014 -0.9219
 3009SOL    HW220487   1.479   4.336   5.518  1.0497 -0.2288  2.3548
 3010SOL     OW20488   0.183   3.032   2.790  0.2254  0.1857 -0.5287
 3010SOL    HW120489   0.273   3.056   2.765  2.1821 -1.6879  4.6672
 3010SOL    HW220490   0.143   3.038   2.703  0.5892  1.2476 -0.6308
 3011SOL     OW20491   4.362   1.591   7.363 -0.0558 -0.1428 -0.2175
 3011SOL    HW120492   4.406   1.525   7.416 -0.4831 -0.9629 -0.8770
 3011SOL    HW220493   4.327   1.653   7.427 -1.7256  0.7198 -1.9284
 3012SOL     OW20494   4.498   1.991   8.218 -0.2257 -0.4094 -0.1398
 3012SOL    HW120495   4.446   1.950   8.287  1.7090 -0.5390  1.2116
 3012SOL    HW220496   4.556   2.047   8.269 -3.2660  3.1521 -0.5924
 3013SOL     OW20497   0.928   0.725   3.432  0.6098  0.2444  0.0991
 3013SOL    HW120498   0.834   0.726   3.450  0.7255 -1.0941  0.7693
 3013SOL    HW220499   0.972   0.751   3.512  1.2653  0.1337 -0.2250
 3014SOL     OW20500   2.153   0.092   6.414  0.1087  0.2088 -0.2610
 3014SOL    HW120501   2.171   0.093   6.508 -0.7977  1.5437 -0.1052
 3014SOL    HW220502   2.086   0.160   6.407  0.8644  0.8779 -1.0108
 3015SOL     OW20503   2.410   3.811  15.471  0.0863 -0.2020 -0.9940
 3015SOL    HW120504   2.473   3.844  15.407 -0.1059  3.3208  0.6354
 3015SOL    HW220505   2.330   3.822  15.419 -1.1111  1.4147  1.1753
 3016SOL     OW20506   2.759   2.086  10.307  0.2143  0.5934 -0.0143
 3016SOL    HW120507   2.808   2.164  10.281  0.6603  0.8810  1.6725
 3016SOL    HW220508   2.702   2.125  10.375  0.1027  0.9335 -0.3010
 3017SOL     OW20509   0.453   1.122   8.473  0.2748  0.1143  0.1276
 3017SOL    HW120510   0.540   1.093   8.499  0.0971 -1.5735 -1.1042
 3017SOL    HW220511   0.491   1.191   8.419  1.5017 -1.5128 -1.1146
 3018SOL     OW20512   3.613   2.249   7.157  0.3859 -0.4076 -0.3546
 3018SOL    HW120513   3.534   2.268   7.207  0.7943  0.0447  0.1163
 3018SOL    HW220514   3.587   2.171   7.107  0.3345  0.3495 -1.5056
 3019SOL     OW20515   3.204   4.312   7.703  0.2097  0.2844  0.3685
 3019SOL    HW120516   3.267   4.381   7.721 -1.3987  1.7990  0.1289
 3019SOL    HW220517   3.188   4.316   7.609  0.8927 -2.0165  0.1429
 3020SOL     OW20518   3.733   2.176  10.980 -0.0261 -0.3369 -0.1345
 3020SOL    HW120519   3.661   2.207  11.034 -0.6652 -0.1906 -1.0633
 3020SOL    HW220520   3.779   2.118  11.041  1.9439  1.9206  0.5012
 3021SOL     OW20521   3.490   3.996   7.194 -0.2743  0.0705  0.5877
 3021SOL    HW120522   3.458   4.059   7.258  0.3727  1.2948 -0.2739
 3021SOL    HW220523   3.452   3.917   7.232 -0.0538 -0.8685 -1.1322
 3022SOL     OW20524   4.587   3.851   5.925  0.0004  0.3231 -0.6182
 3022SOL    HW120525   4.592   3.947   5.930  3.3717  0.1265 -0.1739
 3022SOL    HW220526   4.586   3.843   5.829  1.3842  0.1817 -0.6198
 3023SOL     OW20527   0.381   2.245   7.052  0.1060  0.6302 -0.0122
 3023SOL    HW120528   0.368   2.192   7.131  1.5270  1.7410  0.9712
 3023SOL    HW220529   0.394   2.180   6.982  1.0674  1.5926 -0.7349
 3024SOL     OW20530   1.308   3.454  12.453 -0.2529 -0.1000 -0.0757
 3024SOL    HW120531   1.239   3.392  12.427 -0.3668  0.5349 -1.2722
 3024SOL    HW220532   1.388   3.421  12.413  0.2324  0.7294  0.2213
 3025SOL     OW20533   1.697   2.532   1.109  0.1348 -0.3379  0.0813
 3025SOL    HW120534   1.634   2.465   1.084  0.1104 -0.3666  0.2200
 3025SOL    HW220535   1.762   2.479   1.155 -1.0952 -2.5872 -0.7729
 3026SOL     OW20536   0.018   2.183   4.267 -0.4216  0.0192 -0.0684
 3026SOL    HW120537   0.040   2.105   4.217  0.8794  0.1323  0.3181
 3026SOL    HW220538   0.101   2.189   4.314 -0.1108  0.5363 -0.6902
 3027SOL     OW20539   1.166   0.032   3.687  0.2159 -0.7614  0.5830
 3027SOL    HW120540   1.178   4.675   3.635 -1.5156 -0.9108  0.4108
 3027SOL    HW220541   1.248   0.073   3.660 -0.2985  0.8930  1.5211
 3028SOL     OW20542   3.705   2.503   1.644 -0.3416  0.5677 -0.2331
 3028SOL    HW120543   3.751   2.514   1.561  0.0136  3.1140  0.2911
 3028SOL    HW220544   3.766   2.521   1.716  0.4745  1.9102 -1.2575
 3029SOL     OW20545   3.216   1.073   2.317 -0.1831  0.0514  0.9375
 3029SOL    HW120546   3.166   1.138   2.268  0.5233  0.1038  0.2863
 3029SOL    HW220547   3.158   1.001   2.294  0.7666 -0.4338  0.0582
 3030SOL     OW20548   0.368   2.486   3.884 -0.0887  0.1564 -0.4087
 3030SOL    HW120549   0.379   2.561   3.942 -2.3789 -0.4134  0.7455
 3030SOL    HW220550   0.360   2.528   3.799  0.0565  1.3438  0.1670
 3031SOL     OW20551   3.980   0.446   6.023  0.3757  0.1635  0.1589
 3031SOL    HW120552   4.019   0.360   6.037 -0.0300  0.3014  2.2354
 3031SOL    HW220553   4.062   0.490   6.000 -0.5040  1.9495  0.4370
 3032SOL     OW20554   2.677   0.011   5.803  0.6363 -0.4210  0.1824
 3032SOL    HW120555   2.629   4.654   5.823 -1.0701 -0.1480 -2.9656
 3032SOL    HW220556   2.742   4.688   5.750 -0.7248 -2.4698  0.2726
 3033SOL     OW20557   2.996   1.196  11.806  0.1807 -0.6444 -0.1346
 3033SOL    HW120558   3.052   1.228  11.735  2.0167 -0.7784  1.2298
 3033SOL    HW220559   2.933   1.145  11.755  1.0007 -0.6367 -1.1672
 3034SOL     OW20560   1.266   4.406   2.680 -0.4914 -0.0026 -0.5306
 3034SOL    HW120561   1.301   4.336   2.735 -1.5595 -0.7552 -0.8203
 3034SOL    HW220562   1.277   4.375   2.590  0.7989  0.6130 -0.5945
 3035SOL     OW20563   2.442   3.727  17.068 -0.4802 -0.3014  0.1452
 3035SOL    HW120564   2.486   3.708  17.151  1.7942  6.0595  0.4270
 3035SOL    HW220565   2.472   3.654  17.014 -1.3879  0.0397 -0.8226
 3036SOL     OW20566   3.018   0.468   2.382  0.7727  0.4067  0.3922
 3036SOL    HW120567   3.099   0.422   2.406  1.8795  0.6846 -2.8888
 3036SOL    HW220568   3.059   0.547   2.347  1.6906  0.9439  2.6711
 3037SOL     OW20569   1.498   0.040   8.369  1.1208  0.7025 -0.4040
 3037SOL    HW120570   1.580   0.084   8.348 -0.0946  2.7740 -0.7568
 3037SOL    HW220571   1.536   4.677   8.346 -0.3228 -0.1570  0.3773
 3038SOL     OW20572   4.170   0.275   6.112 -0.1113 -0.4471 -0.6378
 3038SOL    HW120573   4.258   0.300   6.083  1.1976 -1.6052  2.3295
 3038SOL    HW220574   4.196   0.222   6.188  0.9025  1.2880  0.2341
 3039SOL     OW20575   0.655   4.501   7.649  0.5219  0.0475  0.3892
 3039SOL    HW120576   0.568   4.463   7.642  0.0937  0.8554  1.2663
 3039SOL    HW220577   0.638   4.551   7.729 -2.3195  0.1648 -0.3010
 3040SOL     OW20578   4.512   0.260  16.234 -0.4797 -0.3400 -0.5622
 3040SOL    HW120579   4.492   0.341  16.281  3.6905  0.0015  0.6242
 3040SOL    HW220580   4.424   0.224  16.236 -1.9358  3.1270 -1.6795
 3041SOL     OW20581   1.433   1.764   8.090  0.0985 -0.4271  0.0101
 3041SOL    HW120582   1.436   1.783   8.184 -1.9020  1.1331 -0.2350
 3041SOL    HW220583   1.526   1.782   8.075 -0.1958 -0.2332 -1.5446
 3042SOL     OW20584   1.413   3.102   6.479  0.4362 -0.0137 -0.5924
 3042SOL    HW120585   1.351   3.101   6.552 -1.5480  2.8019 -2.2621
 3042SOL    HW220586   1.358   3.126   6.404 -1.4450  0.2323  0.8991
 3043SOL     OW20587   0.939   2.258   3.743 -0.0323  0.0968 -0.0111
 3043SOL    HW120588   0.999   2.192   3.707  1.7731  0.8834  1.5834
 3043SOL    HW220589   0.953   2.334   3.686 -1.2422 -0.8047 -1.5291
 3044SOL     OW20590   2.227   4.572  10.674  0.6743  0.3742 -0.2360
 3044SOL    HW120591   2.199   4.499  10.619 -0.5015  0.1707  0.6203
 3044SOL    HW220592   2.145   4.620  10.664  1.8359  2.6189  1.0453
 3045SOL     OW20593   2.060   1.675   7.522 -0.2285 -0.2041 -0.1280
 3045SOL    HW120594   2.082   1.630   7.604  0.4768 -0.6971 -0.5926
 3045SOL    HW220595   2.034   1.760   7.558  2.7243  1.2950 -1.5591
 3046SOL     OW20596   4.115   2.652   9.154  0.6839  0.0254 -0.2480
 3046SOL    HW120597   4.082   2.563   9.170  1.3302 -0.6964 -2.8915
 3046SOL    HW220598   4.048   2.711   9.187 -0.0777 -1.7207  1.3012
 3047SOL     OW20599   3.800   1.926  14.510 -0.1755 -0.8931 -0.1753
 3047SOL    HW120600   3.881   1.901  14.466  0.5731 -0.9127  1.2073
 3047SOL    HW220601   3.734   1.928  14.441  0.3486 -0.5310 -0.6596
 3048SOL     OW20602   4.156   0.044   3.413  0.6761 -0.4299 -0.1224
 3048SOL    HW120603   4.063   0.025   3.416  0.4884  0.2026 -2.4472
 3048SOL    HW220604   4.186   4.676   3.406  0.7560 -0.2799 -1.7195
 3049SOL     OW20605   0.594   2.626  15.112 -0.4500 -0.1115 -0.3978
 3049SOL    HW120606   0.679   2.655  15.079 -0.7234 -0.4281 -1.3727
 3049SOL    HW220607   0.549   2.573  15.046 -0.9021  0.3213 -0.4371
 3050SOL     OW20608   1.098   4.458   6.487  0.1527 -0.1151 -0.0147
 3050SOL    HW120609   1.146   4.396   6.431 -1.1507 -0.7466 -0.4494
 3050SOL    HW220610   1.036   4.391   6.519 -0.4158 -0.3014 -1.5077
 3051SOL     OW20611   1.372   0.079   5.723  0.8853  0.1916  0.0252
 3051SOL    HW120612   1.353   0.163   5.766  5.4172  0.5423  1.3332
 3051SOL    HW220613   1.287   0.058   5.685  1.5497  2.0197 -2.4786
 3052SOL     OW20614   3.425   0.927   3.024  0.4816  0.2617  0.0001
 3052SOL    HW120615   3.495   0.869   2.994  0.3073 -0.6763  1.4099
 3052SOL    HW220616   3.355   0.868   3.051  1.6861 -0.2017  2.1095
 3053SOL     OW20617   4.005   2.061   2.947  0.4833  0.3308  0.1533
 3053SOL    HW120618   4.019   2.129   3.013  1.2974  1.1108 -0.8239
 3053SOL    HW220619   3.944   2.096   2.882 -0.4524 -0.1120  0.7929
 3054SOL     OW20620   3.763   3.019  14.672  0.3151 -0.2211 -0.1833
 3054SOL    HW120621   3.828   2.995  14.606 -0.0219 -0.2441 -0.5060
 3054SOL    HW220622   3.824   3.018  14.747  2.2281  0.3318 -1.7335
 3055SOL     OW20623   1.581   2.050  15.745  0.2206 -0.8948  0.4721
 3055SOL    HW120624   1.495   2.069  15.709  0.5963 -0.6980 -0.3045
 3055SOL    HW220625   1.634   2.082  15.672  1.1979 -2.7935  0.3574
 3056SOL     OW20626   3.121   1.454  11.351 -0.5154  0.0210  0.0801
 3056SOL    HW120627   3.080   1.496  11.275  1.8619 -0.3664 -1.4248
 3056SOL    HW220628   3.208   1.446  11.312  0.8563 -0.4728  3.2742
 3057SOL     OW20629   2.024   1.170   5.445 -0.4177  0.2844  0.2394
 3057SOL    HW120630   2.030   1.083   5.406 -0.4036  0.0968  0.6620
 3057SOL    HW220631   2.040   1.136   5.533 -0.8427 -1.6450 -0.4233
 3058SOL     OW20632   3.918   0.022   6.114 -0.7230  0.3215 -0.1703
 3058SOL    HW120633   3.929   0.090   6.181  1.6481 -0.7791  0.5846
 3058SOL    HW220634   3.826   0.003   6.128 -0.6701  0.6394  0.6040
 3059SOL     OW20635   0.492   1.924   7.506 -0.3564 -0.1303 -0.2031
 3059SOL    HW120636   0.427   1.858   7.532 -0.7519  1.0336  1.7443
 3059SOL    HW220637   0.476   1.925   7.412 -0.2164  1.2188 -0.2172
 3060SOL     OW20638   0.110   2.932   6.905  0.2649 -0.6165 -0.2946
 3060SOL    HW120639   0.190   2.943   6.956  0.9909  0.3906 -1.6614
 3060SOL    HW220640   0.124   3.011   6.853 -1.4016  1.1222  1.8938
 3061SOL     OW20641   1.088   3.971   3.999  0.1518  0.2758 -0.1872
 3061SOL    HW120642   1.182   3.972   4.019  0.1684 -1.3175 -0.2049
 3061SOL    HW220643   1.064   4.064   4.001  1.0817  0.5533 -1.4335
 3062SOL     OW20644   0.445   2.322   8.023  0.5811 -0.1741 -0.0281
 3062SOL    HW120645   0.408   2.405   7.992 -0.6985 -0.4248  0.8236
 3062SOL    HW220646   0.421   2.307   8.114 -1.4722  0.2402 -0.4900
 3063SOL     OW20647   0.299   1.805   7.745  0.1926  0.1326 -0.2427
 3063SOL    HW120648   0.381   1.824   7.790 -0.3631  0.6635  0.5460
 3063SOL    HW220649   0.242   1.847   7.809  1.0241  0.2721  0.4122
 3064SOL     OW20650   4.182   3.096   7.357 -0.2592 -0.0467  0.3815
 3064SOL    HW120651   4.112   3.101   7.422  0.5970 -0.3836  1.3231
 3064SOL    HW220652   4.260   3.141   7.387 -0.2803 -0.1222  0.5479
 3065SOL     OW20653   2.955   2.886   6.777 -0.0924  0.4503 -0.1208
 3065SOL    HW120654   2.871   2.930   6.764 -0.0903  0.9757  1.6861
 3065SOL    HW220655   3.010   2.963   6.758  0.1950  0.3589  0.3425
 3066SOL     OW20656   0.221   3.524   6.076  0.1622 -0.1456 -0.4071
 3066SOL    HW120657   0.132   3.489   6.065 -0.1853  0.0866  1.7692
 3066SOL    HW220658   0.262   3.468   6.141  0.7814  0.7874 -0.0004
 3067SOL     OW20659   0.090   0.449   4.425 -0.7437 -0.2419 -0.1286
 3067SOL    HW120660   0.006   0.411   4.451 -1.1427 -0.4900 -1.7709
 3067SOL    HW220661   0.106   0.372   4.371 -0.2790 -0.0240 -0.2946
 3068SOL     OW20662   2.186   1.066   4.047 -0.2070 -0.3420  0.5415
 3068SOL    HW120663   2.127   1.083   4.121  0.8167  2.9902  0.5920
 3068SOL    HW220664   2.254   1.018   4.093  0.5067 -0.2172 -0.3925
 3069SOL     OW20665   2.791   0.468  11.939 -0.3304  0.5259  0.2652
 3069SOL    HW120666   2.750   0.523  11.872 -0.5762 -0.0512 -0.0577
 3069SOL    HW220667   2.867   0.429  11.896 -2.0030 -2.1926 -0.2306
 3070SOL     OW20668   0.898   2.584   6.402  0.5108 -0.3567  0.3508
 3070SOL    HW120669   0.957   2.509   6.390  0.3360 -0.3608 -0.4668
 3070SOL    HW220670   0.822   2.538   6.437 -0.1565  0.1088 -0.4823
 3071SOL     OW20671   1.487   1.556  14.839  0.4357 -0.6516  0.0440
 3071SOL    HW120672   1.557   1.616  14.813 -0.7716  1.2295  1.1455
 3071SOL    HW220673   1.516   1.473  14.801 -1.3866 -0.4917 -1.7133
 3072SOL     OW20674   3.001   2.810  17.478 -0.0775 -0.0954  0.4503
 3072SOL    HW120675   3.000   2.714  17.484  0.8484 -0.2568 -2.2280
 3072SOL    HW220676   2.915   2.833  17.512 -0.5898 -2.0356  0.4815
 3073SOL     OW20677   2.184   0.756   6.162 -0.4511 -0.4125 -0.9906
 3073SOL    HW120678   2.178   0.754   6.258 -0.1885  1.3662 -0.9522
 3073SOL    HW220679   2.237   0.677   6.153 -1.2448 -1.0408 -0.1109
 3074SOL     OW20680   0.764   0.204   5.678 -0.2742 -0.5133  0.1981
 3074SOL    HW120681   0.738   0.280   5.628 -2.5098 -0.8247  0.8873
 3074SOL    HW220682   0.857   0.210   5.658  0.0831  1.9003  2.5027
 3075SOL     OW20683   2.972   1.544   2.460 -0.1763 -0.3037 -0.0333
 3075SOL    HW120684   2.982   1.532   2.555 -3.7520  0.4641  0.4326
 3075SOL    HW220685   2.886   1.507   2.443 -0.4910 -0.8907  2.7602
 3076SOL     OW20686   2.658   0.757   5.811  0.2601  0.2369 -0.4158
 3076SOL    HW120687   2.637   0.849   5.794 -0.5872 -0.1397 -1.4158
 3076SOL    HW220688   2.670   0.764   5.906  0.8395 -3.0327 -0.2449
 3077SOL     OW20689   4.547   1.191   3.061 -0.5803  0.1305  0.3513
 3077SOL    HW120690   4.605   1.126   3.020  1.0295  0.3708  2.2758
 3077SOL    HW220691   4.512   1.231   2.981 -0.5974 -2.6372 -1.0355
 3078SOL     OW20692   4.461   4.660   4.417 -0.7423 -0.4552  0.3320
 3078SOL    HW120693   4.451   4.586   4.357 -1.5106 -1.6450  1.9258
 3078SOL    HW220694   4.374   4.699   4.411  0.6433  1.8943 -4.4916
 3079SOL     OW20695   4.360   1.861   4.656  0.2425  0.3156 -0.0346
 3079SOL    HW120696   4.440   1.840   4.608 -0.3772 -0.5738 -0.6617
 3079SOL    HW220697   4.380   1.955   4.661  0.4302  0.2805 -0.1244
 3080SOL     OW20698   1.083   1.361   2.575 -0.0731  0.3626  0.5100
 3080SOL    HW120699   1.079   1.399   2.662  0.2794  2.6931 -0.4985
 3080SOL    HW220700   1.076   1.438   2.519  0.2213  0.8619  1.1638
 3081SOL     OW20701   0.306   1.238  11.653 -0.0317 -0.6900  0.0493
 3081SOL    HW120702   0.283   1.262  11.742  0.2301  2.6290 -0.7694
 3081SOL    HW220703   0.296   1.320  11.605  1.3603  0.7146  2.2047
 3082SOL     OW20704   0.366   3.784  12.234 -0.3877  0.0581  0.1884
 3082SOL    HW120705   0.354   3.833  12.153 -0.0810  0.2856  0.2792
 3082SOL    HW220706   0.299   3.830  12.285 -0.6094  1.1924 -1.1346
 3083SOL     OW20707   2.154   0.730   2.618 -0.0683  0.3661 -0.1220
 3083SOL    HW120708   2.232   0.690   2.579 -1.0576 -2.2222  0.5245
 3083SOL    HW220709   2.088   0.685   2.563  0.8017 -0.2518 -0.6656
 3084SOL     OW20710   3.915   3.083   1.264  0.5676 -0.4088  0.0641
 3084SOL    HW120711   3.938   3.168   1.226  0.3015 -1.3390 -2.1823
 3084SOL    HW220712   3.979   3.062   1.332  0.3292 -0.0382  0.4025
 3085SOL     OW20713   2.585   0.312   1.217 -0.0191  0.1410  0.2238
 3085SOL    HW120714   2.520   0.362   1.266  0.9257  0.2833  1.3326
 3085SOL    HW220715   2.599   0.239   1.277 -2.2670 -0.3496  0.1510
 3086SOL     OW20716   3.294   3.928   6.729  0.3077 -0.3035 -0.3702
 3086SOL    HW120717   3.228   3.953   6.665  0.3484  0.9578  0.0719
 3086SOL    HW220718   3.311   3.841   6.693  0.4930 -0.6200  0.4770
 3087SOL     OW20719   4.288   1.428   1.605  0.2121 -0.2676 -0.4362
 3087SOL    HW120720   4.204   1.438   1.650  0.3447 -3.4511  0.4668
 3087SOL    HW220721   4.285   1.337   1.576 -0.0624 -0.0358 -1.1223
 3088SOL     OW20722   4.066   0.529   8.767  0.4579  0.0175  0.2559
 3088SOL    HW120723   3.986   0.485   8.797 -0.5290  1.4828 -0.2266
 3088SOL    HW220724   4.124   0.551   8.839  2.5363 -2.4583 -0.6511
 3089SOL     OW20725   4.150   3.860  11.288  0.3744  0.1735 -0.3574
 3089SOL    HW120726   4.238   3.874  11.254  0.9026 -0.4924  0.7422
 3089SOL    HW220727   4.104   3.856  11.204 -0.9633  1.7328  0.2902
 3090SOL     OW20728   2.309   0.741   7.108  0.3931  0.4596 -0.3637
 3090SOL    HW120729   2.240   0.807   7.102  1.1927  1.3228 -0.1049
 3090SOL    HW220730   2.282   0.682   7.178  1.6467  0.7861  0.4076
 3091SOL     OW20731   0.781   2.532   8.934 -0.2004 -0.5818  0.1035
 3091SOL    HW120732   0.875   2.542   8.917 -0.4438 -1.0319 -1.4596
 3091SOL    HW220733   0.776   2.586   9.013  1.6948 -1.5941  0.9184
 3092SOL     OW20734   4.501   2.491   4.661  0.1816  0.4932 -0.1770
 3092SOL    HW120735   4.411   2.465   4.641  0.3683 -0.4305  0.1769
 3092SOL    HW220736   4.548   2.411   4.638  1.3378  0.9442  0.6412
 3093SOL     OW20737   0.193   2.474  11.558  0.1381 -0.6822 -0.1971
 3093SOL    HW120738   0.177   2.387  11.595  2.9176 -0.4758  1.5008
 3093SOL    HW220739   0.133   2.477  11.484  0.1703 -3.1301 -0.3478
 3094SOL     OW20740   4.037   1.955  14.351  0.0581 -0.0472 -0.0876
 3094SOL    HW120741   4.084   2.017  14.408 -1.0699  1.8091 -1.1855
 3094SOL    HW220742   4.052   1.999  14.267 -3.2982 -0.5800 -0.9591
 3095SOL     OW20743   2.103   3.578   3.122  0.3093  0.1306 -0.6506
 3095SOL    HW120744   2.184   3.605   3.079  0.3012 -0.4837 -1.0506
 3095SOL    HW220745   2.130   3.582   3.214 -0.1353  0.5267 -0.5358
 3096SOL     OW20746   3.335   0.227  11.708 -0.4287 -0.4247  0.7237
 3096SOL    HW120747   3.365   0.318  11.703  0.2338 -0.6451  0.6896
 3096SOL    HW220748   3.373   0.187  11.631 -3.9467 -1.5216 -0.4288
 3097SOL     OW20749   2.909   1.035   2.936 -0.0133  0.2545  0.0292
 3097SOL    HW120750   2.892   0.954   2.984  0.8666 -1.6894 -2.8838
 3097SOL    HW220751   2.914   1.006   2.844 -0.2439  1.3677 -0.3335
 3098SOL     OW20752   4.569   3.873  15.195  0.0987  0.6619 -0.3502
 3098SOL    HW120753   4.643   3.934  15.203 -0.0864  1.0723 -1.9293
 3098SOL    HW220754   4.547   3.860  15.288  0.6353 -0.7970 -0.4231
 3099SOL     OW20755   0.035   4.639   3.769 -0.9956  0.5063  0.1789
 3099SOL    HW120756   4.680   4.620   3.716 -0.2138 -1.5606 -0.2074
 3099SOL    HW220757   0.095   4.657   3.697 -0.0633 -0.8900  0.5962
 3100SOL     OW20758   2.528   0.889  16.962 -0.3944 -0.1130  0.4329
 3100SOL    HW120759   2.518   0.794  16.955  1.6773 -0.4045  1.4111
 3100SOL    HW220760   2.585   0.915  16.890 -0.9938 -0.3100 -0.1074
 3101SOL     OW20761   0.416   2.872   4.252  0.5398  0.0505  0.0214
 3101SOL    HW120762   0.352   2.943   4.244  1.3687  0.6909 -0.8829
 3101SOL    HW220763   0.483   2.906   4.312  1.9887 -0.1474 -1.4871
 3102SOL     OW20764   4.421   2.767   2.088 -0.3927  0.2182 -0.2275
 3102SOL    HW120765   4.452   2.701   2.150  0.7803  0.7121 -0.2783
 3102SOL    HW220766   4.358   2.812   2.144  0.3481  2.1846 -0.9488
 3103SOL     OW20767   2.107   3.025  13.577  0.2026  0.0284  0.3524
 3103SOL    HW120768   2.123   2.950  13.634  3.6188  0.2329 -0.3434
 3103SOL    HW220769   2.042   2.996  13.513  0.9157  0.1152 -0.4051
 3104SOL     OW20770   0.364   3.944   3.912 -0.0252  0.3421  0.1576
 3104SOL    HW120771   0.303   3.912   3.846 -0.6048  0.6958  0.5131
 3104SOL    HW220772   0.362   4.037   3.890  1.6524  0.3333 -0.0073
 3105SOL     OW20773   3.911   0.458   9.490  0.5504  0.1885 -0.3270
 3105SOL    HW120774   3.942   0.533   9.540  1.6746  0.5863 -1.6057
 3105SOL    HW220775   3.876   0.403   9.560 -0.0651  0.3238 -0.5254
 3106SOL     OW20776   1.152   3.485  17.644 -0.2077  0.0845  0.3188
 3106SOL    HW120777   1.143   3.402  17.689  2.4994 -0.2609  0.2677
 3106SOL    HW220778   1.064   3.522  17.636 -0.7537 -1.0478  1.2970
 3107SOL     OW20779   4.329   4.684   8.025 -0.4525  0.1307  0.3399
 3107SOL    HW120780   4.393   0.019   8.066  1.8517 -1.0358 -1.5948
 3107SOL    HW220781   4.385   4.608   8.012  0.0366  0.4909  0.3652
 3108SOL     OW20782   1.068   3.230   5.842 -0.2278 -0.2048  0.6070
 3108SOL    HW120783   1.156   3.233   5.879  0.0497  1.2894 -0.1819
 3108SOL    HW220784   1.020   3.294   5.895  0.0270  1.0753 -0.6975
 3109SOL     OW20785   4.241   3.999   8.329 -0.2430 -0.0602 -0.8503
 3109SOL    HW120786   4.273   4.055   8.400  1.3520 -0.6673 -1.0958
 3109SOL    HW220787   4.149   4.022   8.340  0.4421  2.1980  0.1699
 3110SOL     OW20788   4.052   1.330  11.510 -0.2817 -0.0368  0.0653
 3110SOL    HW120789   3.960   1.304  11.509 -1.0255  2.5962  0.4142
 3110SOL    HW220790   4.085   1.319  11.421 -0.3620  1.3686 -0.1413
 3111SOL     OW20791   2.040   2.558   7.445  0.1442 -0.5932  0.2284
 3111SOL    HW120792   2.028   2.652   7.431 -1.8217 -0.5729  2.1080
 3111SOL    HW220793   2.018   2.549   7.537 -1.8825 -1.4522 -0.3398
 3112SOL     OW20794   0.713   3.371   6.186 -0.3328  0.3799  0.3801
 3112SOL    HW120795   0.672   3.437   6.130 -0.2008  1.4260  1.5228
 3112SOL    HW220796   0.721   3.424   6.265  1.4461 -1.6322  1.5606
 3113SOL     OW20797   2.319   0.208  17.247  0.0030 -0.0574  0.0780
 3113SOL    HW120798   2.297   0.289  17.292 -1.7191 -0.2609 -0.4101
 3113SOL    HW220799   2.257   0.145  17.284  1.0073 -0.9294  0.2840
 3114SOL     OW20800   3.078   1.285   2.220  0.3266 -0.2547 -0.2822
 3114SOL    HW120801   3.133   1.363   2.220 -2.7765  1.8977  1.9103
 3114SOL    HW220802   3.007   1.320   2.167 -0.1414  0.5540  0.8844
 3115SOL     OW20803   2.419   1.889   8.758  0.3016  0.2377 -0.5077
 3115SOL    HW120804   2.340   1.839   8.735 -0.2714  1.0125 -0.2333
 3115SOL    HW220805   2.397   1.922   8.845  2.0593  0.8716 -0.3129
 3116SOL     OW20806   1.933   1.578   4.226 -0.3827  0.1555 -0.0337
 3116SOL    HW120807   1.850   1.619   4.251  0.6861  2.1750  0.1997
 3116SOL    HW220808   1.955   1.628   4.148  0.8448  0.2417  0.3745
 3117SOL     OW20809   3.712   4.623  14.461  0.4784 -0.5347 -0.7289
 3117SOL    HW120810   3.782   4.659  14.407  0.4311  0.7646  0.0782
 3117SOL    HW220811   3.627   4.657  14.433 -0.7781 -3.1310 -0.1349
 3118SOL     OW20812   3.532   2.436   4.030 -0.0576  0.2693 -0.0336
 3118SOL    HW120813   3.453   2.467   3.984 -0.6734  0.4609  1.1637
 3118SOL    HW220814   3.490   2.369   4.083 -3.5304  2.4754  0.0051
 3119SOL     OW20815   0.300   1.776  14.267  0.0626  0.0732 -0.3952
 3119SOL    HW120816   0.248   1.808  14.341 -0.6669 -0.3809 -0.7162
 3119SOL    HW220817   0.363   1.730  14.323 -0.1702  1.7247  1.2397
 3120SOL     OW20818   0.201   0.234   2.235  0.2553 -0.1629 -0.1836
 3120SOL    HW120819   0.216   0.188   2.317 -2.1375  1.3922  1.1401
 3120SOL    HW220820   0.156   0.312   2.269 -1.6913 -0.5142 -1.9172
 3121SOL     OW20821   2.993   4.283   1.616  0.0523 -0.1104  0.3710
 3121SOL    HW120822   2.947   4.225   1.676 -0.1069 -1.1160 -0.7080
 3121SOL    HW220823   2.935   4.359   1.618 -1.2867 -1.1628  1.4579
 3122SOL     OW20824   2.766   0.492   3.811 -0.5005  0.0485  0.2828
 3122SOL    HW120825   2.759   0.573   3.861  1.4226  0.0605  0.5092
 3122SOL    HW220826   2.720   0.520   3.732 -1.6627 -5.9314 -1.1876
 3123SOL     OW20827   3.408   1.810   1.521  0.1984  0.2324 -0.0037
 3123SOL    HW120828   3.466   1.886   1.524 -0.4556  0.8470 -3.1276
 3123SOL    HW220829   3.322   1.846   1.499 -0.4360 -3.5977 -3.7128
 3124SOL     OW20830   1.317   2.710   1.026 -0.4530  0.0089  0.5444
 3124SOL    HW120831   1.304   2.804   1.018  2.3438  0.4129  0.7677
 3124SOL    HW220832   1.408   2.701   1.056 -0.7041 -0.1006  1.2550
 3125SOL     OW20833   1.261   1.737   4.624  0.2151  0.5727  0.2560
 3125SOL    HW120834   1.183   1.792   4.619 -0.2299  0.0685  1.7968
 3125SOL    HW220835   1.302   1.739   4.537 -1.1983  0.0410 -0.4180
 3126SOL     OW20836   1.129   0.604  15.826  0.4894 -0.2027  0.1689
 3126SOL    HW120837   1.053   0.548  15.844  0.3986 -0.6031 -1.4509
 3126SOL    HW220838   1.200   0.569  15.880  0.6446  1.4138  1.0335
 3127SOL     OW20839   2.924   1.334  16.068 -0.2985 -0.3911  0.2844
 3127SOL    HW120840   2.863   1.261  16.051 -1.1602  0.6265 -1.0759
 3127SOL    HW220841   2.962   1.352  15.982 -1.0455 -0.1951 -0.0048
 3128SOL     OW20842   2.417   4.337  10.750  0.3085  0.1157  0.8438
 3128SOL    HW120843   2.463   4.253  10.758  1.0168  0.5156  0.8877
 3128SOL    HW220844   2.336   4.319  10.701  1.7441 -0.3395 -1.3590
 3129SOL     OW20845   0.702   0.607   5.821  0.0436  0.0744  0.3468
 3129SOL    HW120846   0.619   0.562   5.840  0.9477 -1.1387  1.4123
 3129SOL    HW220847   0.691   0.691   5.864 -0.7201 -0.1426  0.5926
 3130SOL     OW20848   2.583   1.224   3.771  0.1875  0.3914 -0.6116
 3130SOL    HW120849   2.643   1.294   3.745  1.4451  0.0080  1.3093
 3130SOL    HW220850   2.617   1.139   3.742  1.2234  0.8952 -0.8875
 3131SOL     OW20851   3.909   4.707   1.099 -0.2030  0.5473  0.2208
 3131SOL    HW120852   3.864   0.069   1.101  0.3288  0.8328  0.0171
 3131SOL    HW220853   3.860   4.639   1.145  0.8767 -0.9647 -0.8646
 3132SOL     OW20854   0.973   2.851   0.641  0.4816  0.3990 -0.3461
 3132SOL    HW120855   0.993   2.826   0.732 -1.4948 -0.1695 -0.0739
 3132SOL    HW220856   0.880   2.871   0.643  0.8361  1.9595  0.7730
 3133SOL     OW20857   3.867   2.702   7.014  0.0512  0.0918  0.2251
 3133SOL    HW120858   3.852   2.611   7.037 -0.1045 -0.1794 -0.9595
 3133SOL    HW220859   3.785   2.740   6.982 -0.2421 -0.6690  0.0747
 3134SOL     OW20860   0.499   3.129   6.048 -0.2873 -0.3303 -0.0928
 3134SOL    HW120861   0.576   3.102   5.998 -0.0361  0.6344 -0.2296
 3134SOL    HW220862   0.487   3.220   6.022 -3.3340 -1.1785 -1.6803
 3135SOL     OW20863   4.229   0.538   9.283 -0.1695 -0.3876 -0.2496
 3135SOL    HW120864   4.319   0.543   9.316  0.1312  0.7062 -1.2316
 3135SOL    HW220865   4.204   0.613   9.336 -1.1236 -0.5174 -0.5125
 3136SOL     OW20866   3.577   3.470   1.942 -0.1447 -0.1334  0.3948
 3136SOL    HW120867   3.549   3.467   2.033  1.7241  1.2223  1.0081
 3136SOL    HW220868   3.672   3.472   1.954 -0.2738  0.5323  1.3016
 3137SOL     OW20869   2.963   3.414   9.439  0.2002 -0.3083  0.3342
 3137SOL    HW120870   3.012   3.363   9.375 -1.7777 -0.9764 -0.6301
 3137SOL    HW220871   3.020   3.406   9.516  0.9592 -1.1263 -0.3116
 3138SOL     OW20872   3.585   3.748   3.697  0.1661 -0.1245 -0.3677
 3138SOL    HW120873   3.509   3.789   3.657  0.6327  0.2788 -0.8481
 3138SOL    HW220874   3.593   3.811   3.770 -0.4389 -0.4813  0.0002
 3139SOL     OW20875   2.301   0.613   5.404 -0.3699  0.1878  0.5457
 3139SOL    HW120876   2.337   0.663   5.477  1.1715  1.4565 -1.0873
 3139SOL    HW220877   2.225   0.670   5.390  0.4140  1.1367  0.1620
 3140SOL     OW20878   4.223   4.255   3.420  0.2719 -0.6749 -0.3319
 3140SOL    HW120879   4.141   4.253   3.468  0.1857  0.4477 -0.4336
 3140SOL    HW220880   4.195   4.220   3.335  1.0322  0.8904 -1.2370
 3141SOL     OW20881   2.800   4.358   6.650  0.1406 -0.1500  0.0488
 3141SOL    HW120882   2.801   4.400   6.736  0.0110  0.0400 -0.0411
 3141SOL    HW220883   2.739   4.285   6.652 -1.6961  1.3352 -1.9708
 3142SOL     OW20884   0.261   1.093   5.409 -0.3947 -0.3234 -0.4066
 3142SOL    HW120885   0.191   1.038   5.442  0.5517 -1.2573  0.0454
 3142SOL    HW220886   0.267   1.159   5.478  1.2614 -0.8750 -0.0062
 3143SOL     OW20887   3.177   0.049  13.358  0.2158 -0.1617 -0.2470
 3143SOL    HW120888   3.089   0.082  13.339 -0.1799  0.0651  1.9733
 3143SOL    HW220889   3.148   4.695  13.407 -1.0383 -0.2477 -1.1135
 3144SOL     OW20890   4.577   1.448   5.480 -0.1180 -0.3724 -0.3921
 3144SOL    HW120891   4.585   1.446   5.575  0.9749 -2.1412 -0.5214
 3144SOL    HW220892   4.588   1.542   5.463  1.2720 -0.5769 -0.6134
 3145SOL     OW20893   3.618   3.359   2.628  0.0756  0.0015  0.2437
 3145SOL    HW120894   3.528   3.392   2.621  0.2014 -0.1431 -1.8502
 3145SOL    HW220895   3.613   3.290   2.695 -2.2882  0.7546  0.8637
 3146SOL     OW20896   3.654   4.495  17.513 -0.6503  0.2071 -0.1222
 3146SOL    HW120897   3.711   4.524  17.441 -0.7714 -0.4781 -0.4925
 3146SOL    HW220898   3.717   4.487  17.584 -0.4924  3.7771  0.1473
 3147SOL     OW20899   1.274   3.282  11.772  0.0394  0.8891  0.3484
 3147SOL    HW120900   1.316   3.207  11.730 -1.6603 -0.9078  1.8265
 3147SOL    HW220901   1.247   3.243  11.856  0.1850 -1.1757 -0.5628
 3148SOL     OW20902   0.885   0.609   6.350 -0.2248  0.5747  0.2240
 3148SOL    HW120903   0.837   0.690   6.336 -1.7235 -0.4950 -0.7987
 3148SOL    HW220904   0.851   0.546   6.287  0.3959  0.9077 -0.4485
 3149SOL     OW20905   3.257   1.465   0.752  0.0166 -0.2297 -0.8384
 3149SOL    HW120906   3.272   1.411   0.829  2.2080  1.1510 -0.2961
 3149SOL    HW220907   3.161   1.471   0.751  0.0776  0.8352 -0.2394
 3150SOL     OW20908   2.063   3.082   9.971 -0.0400  0.0583  0.2770
 3150SOL    HW120909   2.111   3.060   9.891 -2.7918  1.3928 -1.7316
 3150SOL    HW220910   1.971   3.080   9.944  0.0593 -0.5085 -0.0257
 3151SOL     OW20911   3.048   4.708   0.422  0.3776  0.2819 -0.5343
 3151SOL    HW120912   3.110   4.642   0.390  1.3862  0.6558  0.6763
 3151SOL    HW220913   3.074   0.062   0.371  1.0869 -0.9309 -1.9999
 3152SOL     OW20914   3.942   2.234   5.928 -0.8948  0.0594  0.5581
 3152SOL    HW120915   3.933   2.267   5.838  1.2503  0.1953  0.3877
 3152SOL    HW220916   3.899   2.302   5.980 -0.6228  1.4165 -0.9671
 3153SOL     OW20917   4.544   3.070  12.132 -0.2952 -0.2551 -0.4041
 3153SOL    HW120918   4.494   3.042  12.208 -2.0903  0.4425 -1.3327
 3153SOL    HW220919   4.500   3.026  12.059  0.4141  0.6115 -1.3531
 3154SOL     OW20920   4.691   1.222  10.115 -0.4653 -0.1553  0.4944
 3154SOL    HW120921   0.059   1.199  10.096 -0.8720 -1.8352  0.5733
 3154SOL    HW220922   4.644   1.196  10.035  0.8948 -0.2145 -0.2839
 3155SOL     OW20923   3.714   1.054  13.241 -0.1316 -0.1399  0.1075
 3155SOL    HW120924   3.717   0.959  13.235  1.0542 -0.0984 -0.0233
 3155SOL    HW220925   3.696   1.076  13.150 -0.9785  0.8156  0.5027
 3156SOL     OW20926   2.208   3.711  16.888 -0.0235 -0.1246 -0.4101
 3156SOL    HW120927   2.300   3.721  16.913 -0.0292 -1.1867  0.0200
 3156SOL    HW220928   2.170   3.764  16.958  0.5531 -0.3963  0.1089
 3157SOL     OW20929   1.857   1.228   7.276 -0.0823 -0.3650  0.6654
 3157SOL    HW120930   1.809   1.197   7.199 -0.7767  3.0947 -0.3038
 3157SOL    HW220931   1.824   1.317   7.283 -3.1139 -1.3360 -1.5613
 3158SOL     OW20932   2.900   0.352   3.998  0.0884 -0.3730 -0.6323
 3158SOL    HW120933   2.813   0.328   4.030  1.8099 -3.0410  2.0810
 3158SOL    HW220934   2.864   0.376   3.913 -1.1597  1.8341  0.5261
 3159SOL     OW20935   2.047   0.709   8.993 -0.1208 -0.5692  0.5850
 3159SOL    HW120936   2.028   0.665   9.076 -2.2187 -0.6456  0.0409
 3159SOL    HW220937   2.138   0.690   8.970  0.2404 -0.5953  2.0080
 3160SOL     OW20938   1.760   0.961   5.239 -0.5505  0.0636 -0.0087
 3160SOL    HW120939   1.753   0.903   5.164  1.7501 -0.4567  0.2111
 3160SOL    HW220940   1.761   1.046   5.195 -0.5443 -1.1386 -2.2771
 3161SOL     OW20941   2.448   4.384   3.121 -0.4965  0.4999  0.2634
 3161SOL    HW120942   2.437   4.345   3.207  1.2950 -0.1905  0.1963
 3161SOL    HW220943   2.398   4.466   3.122 -0.4358  0.5262  0.9549
 3162SOL     OW20944   1.201   2.381   8.491 -1.0612 -0.0216 -0.6131
 3162SOL    HW120945   1.259   2.336   8.551 -1.5073  1.4717  0.9501
 3162SOL    HW220946   1.255   2.445   8.444  0.4718 -0.6808  0.2648
 3163SOL     OW20947   1.063   4.338   9.028  0.6876 -0.1718 -0.4848
 3163SOL    HW120948   1.022   4.389   9.098  0.3681  0.3974 -1.0860
 3163SOL    HW220949   1.000   4.267   9.017 -0.3146  0.8071 -1.0489
 3164SOL     OW20950   3.065   3.253   7.542 -0.0905 -0.2466 -0.6012
 3164SOL    HW120951   3.120   3.295   7.476  1.6084 -0.1454  0.8814
 3164SOL    HW220952   2.976   3.276   7.513 -0.9258 -0.0895  2.0674
 3165SOL     OW20953   1.648   2.037  17.308 -0.9550  0.3068  0.2928
 3165SOL    HW120954   1.704   2.114  17.309 -1.1364  0.4264  1.0272
 3165SOL    HW220955   1.610   2.044  17.395 -0.9335  0.7575  0.2657
 3166SOL     OW20956   0.030   4.541   6.188  0.0230 -0.3212  0.3737
 3166SOL    HW120957   0.078   4.480   6.243  0.3595 -0.0114  0.4236
 3166SOL    HW220958   0.081   4.619   6.211  0.6129 -0.5470 -0.1887
 3167SOL     OW20959   2.611   4.247   6.026  0.1774 -0.3182 -0.6552
 3167SOL    HW120960   2.577   4.322   6.075  0.2274 -1.3420  0.9171
 3167SOL    HW220961   2.630   4.285   5.940  3.3620 -1.3154 -0.3714
 3168SOL     OW20962   1.893   1.593   5.744 -0.4116  0.0800  0.2600
 3168SOL    HW120963   1.956   1.521   5.745 -0.4349  0.0702  1.3853
 3168SOL    HW220964   1.808   1.550   5.736 -0.0450  0.1608 -3.8323
 3169SOL     OW20965   1.629   0.515   9.068 -0.1147  0.0456  0.3322
 3169SOL    HW120966   1.535   0.528   9.072 -0.0036  1.4445 -1.3073
 3169SOL    HW220967   1.648   0.453   8.998  2.5244 -0.4859  1.5012
 3170SOL     OW20968   2.997   1.759   2.282 -0.4259 -0.3196  0.4916
 3170SOL    HW120969   2.983   1.729   2.192  0.9458  0.5084  0.0090
 3170SOL    HW220970   2.984   1.675   2.327  3.5340 -0.4445  1.4118
 3171SOL     OW20971   3.996   1.462   6.934 -0.0596  0.1148  0.1439
 3171SOL    HW120972   3.925   1.402   6.957  0.8013 -1.0400 -0.2465
 3171SOL    HW220973   3.994   1.522   7.008 -1.1444  0.8597 -0.4758
 3172SOL     OW20974   2.167   4.316   8.176  0.2317  0.0882  0.4718
 3172SOL    HW120975   2.195   4.281   8.261  1.1555  1.5027  0.7606
 3172SOL    HW220976   2.230   4.388   8.179 -0.7557  0.8147  4.3378
 3173SOL     OW20977   4.110   4.342   5.193 -0.1868  0.1515  0.6757
 3173SOL    HW120978   4.053   4.403   5.145  1.1423 -0.1868 -1.3355
 3173SOL    HW220979   4.180   4.302   5.141 -0.6871  2.2942 -1.6957
 3174SOL     OW20980   3.470   2.186   0.970 -0.5401 -0.0165 -1.0171
 3174SOL    HW120981   3.429   2.129   1.035 -0.7927 -0.8842 -1.9322
 3174SOL    HW220982   3.562   2.162   0.963 -0.9110 -1.5376 -0.6472
 3175SOL     OW20983   1.283   1.080   1.997 -0.5218  0.2707  0.1191
 3175SOL    HW120984   1.274   1.003   1.941 -0.4276 -0.0625  0.5521
 3175SOL    HW220985   1.222   1.137   1.951  0.0658  0.3184 -0.5936
 3176SOL     OW20986   3.077   2.467   2.797  0.0112 -0.2385  0.3765
 3176SOL    HW120987   3.000   2.414   2.777  0.6738 -0.4051 -1.7028
 3176SOL    HW220988   3.058   2.482   2.890  0.1037  0.1523  0.3324
 3177SOL     OW20989   2.980   1.295   5.671  0.0186 -0.1569 -0.2668
 3177SOL    HW120990   3.017   1.381   5.695 -0.1907 -0.3122  0.6208
 3177SOL    HW220991   2.955   1.297   5.579 -2.0481 -0.3034  0.2936
 3178SOL     OW20992   2.400   0.460  17.640 -0.4483  0.3334 -0.3997
 3178SOL    HW120993   2.443   0.519   0.010 -0.4158  0.4948 -0.5731
 3178SOL    HW220994   2.481   0.430  17.599 -0.7969 -0.2035 -0.6967
 3179SOL     OW20995   0.835   2.172   4.877  0.0543  0.1996  0.0943
 3179SOL    HW120996   0.780   2.105   4.917  1.9819 -2.2635 -1.3423
 3179SOL    HW220997   0.905   2.126   4.830  2.1700  1.2335  2.1774
 3180SOL     OW20998   1.135   1.600  11.905  0.2802 -0.2437 -0.2166
 3180SOL    HW120999   1.186   1.588  11.825 -0.0206 -0.9470 -0.2981
 3180SOL    HW221000   1.151   1.514  11.943  0.6216 -0.2255 -0.3134
 3181SOL     OW21001   1.215   1.073  12.255  0.4893 -0.9522  0.0131
 3181SOL    HW121002   1.297   1.044  12.215  0.3936 -0.4943 -0.5203
 3181SOL    HW221003   1.244   1.113  12.336 -0.2294 -0.7279  0.1525
 3182SOL     OW21004   1.461   4.307   2.242 -0.1355  0.4932 -0.1828
 3182SOL    HW121005   1.482   4.354   2.161 -1.4031  4.1288  1.5874
 3182SOL    HW221006   1.530   4.241   2.238 -0.8045 -0.3170  1.8071
 3183SOL     OW21007   3.875   1.991   4.575  0.3290 -0.3841  0.2466
 3183SOL    HW121008   3.954   1.938   4.589  0.7174 -0.1186 -0.9383
 3183SOL    HW221009   3.799   1.935   4.588 -0.6642  0.1254 -3.4260
 3184SOL     OW21010   4.570   1.903   1.790 -0.4915  0.3730  0.0821
 3184SOL    HW121011   4.612   1.841   1.731 -0.8630  0.7711 -0.6052
 3184SOL    HW221012   4.536   1.849   1.861  0.2598  1.6452  1.4064
 3185SOL     OW21013   0.827   4.525   1.795  0.6690  0.4383  0.1628
 3185SOL    HW121014   0.850   4.544   1.704 -0.2651 -2.5717 -0.6825
 3185SOL    HW221015   0.893   4.458   1.809  1.4834  1.6019  1.9212
 3186SOL     OW21016   0.149   2.906   1.022 -0.5064  0.2495  0.3738
 3186SOL    HW121017   0.215   2.885   1.089  0.1515  0.7265 -0.1243
 3186SOL    HW221018   0.151   2.829   0.966 -1.7944 -0.4493  1.2807
 3187SOL     OW21019   4.500   0.226   9.508 -0.1927  0.0407 -0.9334
 3187SOL    HW121020   4.482   0.298   9.569 -0.1119 -1.5080  0.9138
 3187SOL    HW221021   4.471   0.147   9.553 -0.7730  1.2110  0.7542
 3188SOL     OW21022   4.576   2.348   2.712  0.0400  0.1041  0.0906
 3188SOL    HW121023   4.670   2.342   2.699  0.4109  1.9079  1.8315
 3188SOL    HW221024   4.560   2.440   2.733  0.4497  0.4931 -1.2887
 3189SOL     OW21025   3.145   0.126   7.155 -0.5376 -0.1105 -0.1548
 3189SOL    HW121026   3.051   0.120   7.172 -0.4176 -2.9055 -0.4739
 3189SOL    HW221027   3.177   0.211   7.186 -0.8607 -0.2476  0.5526
 3190SOL     OW21028   1.541   4.241   9.891  0.2640 -0.5811 -0.2267
 3190SOL    HW121029   1.488   4.188   9.950 -1.1654  0.7417 -0.3091
 3190SOL    HW221030   1.609   4.280   9.945 -0.5188 -0.7102  0.8329
 3191SOL     OW21031   4.517   1.733  11.908 -0.3856  0.4059 -0.4045
 3191SOL    HW121032   4.533   1.694  11.993 -0.7545 -1.8979 -1.3983
 3191SOL    HW221033   4.540   1.826  11.917  1.5099 -0.1131  0.1483
 3192SOL     OW21034   3.730   3.245  15.520 -0.4746 -0.3612  0.3816
 3192SOL    HW121035   3.780   3.174  15.560 -0.8658 -1.1645 -0.5549
 3192SOL    HW221036   3.771   3.243  15.433 -1.8009  0.2133 -0.2636
 3193SOL     OW21037   3.232   4.177   9.358  0.1854  0.1692 -0.0438
 3193SOL    HW121038   3.156   4.234   9.370 -1.0669 -1.4547 -0.2736
 3193SOL    HW221039   3.276   4.224   9.288 -0.6191  0.4187 -0.3832
 3194SOL     OW21040   2.273   1.539   4.512 -0.3573 -0.4591 -0.0343
 3194SOL    HW121041   2.248   1.559   4.602 -0.8205  1.4430 -0.5746
 3194SOL    HW221042   2.343   1.479   4.535 -1.0292 -0.8051  1.0979
 3195SOL     OW21043   0.644   0.434  11.688 -0.0733  0.0377 -0.6755
 3195SOL    HW121044   0.687   0.515  11.660 -0.8210  0.7555  0.2638
 3195SOL    HW221045   0.603   0.451  11.772  1.1829 -0.2450  0.0014
 3196SOL     OW21046   4.586   1.374   1.948 -0.5130  0.3316  0.2501
 3196SOL    HW121047   4.508   1.418   1.912  0.1067  0.8788 -0.4183
 3196SOL    HW221048   4.646   1.430   1.899 -0.5422 -0.5138 -0.7381
 3197SOL     OW21049   3.939   3.926   5.800  0.4335 -0.0587 -0.5759
 3197SOL    HW121050   3.962   3.994   5.736 -2.6249 -0.1150 -1.7753
 3197SOL    HW221051   3.923   3.993   5.866  1.8060 -0.0990 -0.2182
 3198SOL     OW21052   3.133   4.408  12.939  0.2584  0.0345  0.2641
 3198SOL    HW121053   3.196   4.337  12.927  0.0134 -0.5562  2.3812
 3198SOL    HW221054   3.067   4.362  12.992 -1.0893 -1.4787 -2.7197
 3199SOL     OW21055   1.727   0.763   8.686 -0.2212  0.2697  0.5182
 3199SOL    HW121056   1.807   0.761   8.634 -0.6001 -0.8024 -0.0207
 3199SOL    HW221057   1.751   0.698   8.751 -0.2921 -1.4893 -1.2229
 3200SOL     OW21058   3.158   1.730  12.087 -0.5232  0.2938 -0.5792
 3200SOL    HW121059   3.083   1.750  12.143  0.9154  1.1630  1.0380
 3200SOL    HW221060   3.199   1.654  12.129  1.3832  1.0535 -1.0293
 3201SOL     OW21061   1.891   0.471   5.362  0.1092  0.5577 -0.0651
 3201SOL    HW121062   1.940   0.393   5.387 -1.4124 -0.1331  0.7958
 3201SOL    HW221063   1.903   0.471   5.267  0.8235  1.4026  0.0262
 3202SOL     OW21064   3.829   3.097   5.224 -0.3201 -0.5110  0.0501
 3202SOL    HW121065   3.742   3.135   5.238 -0.6538 -1.2685  0.0393
 3202SOL    HW221066   3.814   3.010   5.259  2.9824 -1.1096 -0.0593
 3203SOL     OW21067   1.363   1.272  15.601 -0.6004  0.1788  0.1468
 3203SOL    HW121068   1.302   1.200  15.584  1.5627 -1.5787 -0.0933
 3203SOL    HW221069   1.414   1.230  15.669  0.1481 -0.1849 -0.6421
 3204SOL     OW21070   3.630   2.935   6.914 -0.0197  0.1926  0.3624
 3204SOL    HW121071   3.544   2.896   6.903 -0.5838  0.4660  3.7083
 3204SOL    HW221072   3.672   2.913   6.831 -2.7120  0.6369 -1.0920
 3205SOL     OW21073   1.837   3.661  13.613 -0.3566 -1.1073 -0.3880
 3205SOL    HW121074   1.743   3.644  13.614 -0.9117  2.0782  1.6562
 3205SOL    HW221075   1.881   3.588  13.570  2.5537 -0.7078  1.9227
 3206SOL     OW21076   2.380   1.707   5.114 -0.6377 -0.0979 -0.0352
 3206SOL    HW121077   2.376   1.782   5.172 -2.2232 -0.4377  0.3019
 3206SOL    HW221078   2.426   1.637   5.162  0.8761  1.2704  0.5155
 3207SOL     OW21079   1.248   0.967   1.562  0.2174  0.2585 -0.1241
 3207SOL    HW121080   1.189   0.912   1.511  0.8046 -0.2202 -0.2818
 3207SOL    HW221081   1.207   1.051   1.542 -0.1270  0.1985  0.3168
 3208SOL     OW21082   2.121   4.105   2.805 -0.7262  0.0464 -0.0034
 3208SOL    HW121083   2.108   4.047   2.880 -0.8718 -0.8819 -0.7576
 3208SOL    HW221084   2.153   4.186   2.846 -1.1810 -0.2647  0.9708
 3209SOL     OW21085   2.499   0.113  17.062  0.3593  0.1702  0.6593
 3209SOL    HW121086   2.429   0.141  17.121  1.1610  1.2719  1.0948
 3209SOL    HW221087   2.564   0.183  17.064 -0.9144  1.3370  1.5845
 3210SOL     OW21088   3.389   0.290   7.234 -0.5795 -0.6074  0.4531
 3210SOL    HW121089   3.462   0.325   7.286 -2.0080  0.6054  1.6324
 3210SOL    HW221090   3.432   0.216   7.189  1.1226 -0.4189  1.7930
 3211SOL     OW21091   3.842   3.427   2.787  0.3825 -0.2010  0.0278
 3211SOL    HW121092   3.752   3.445   2.758  0.1340  0.1319  1.0074
 3211SOL    HW221093   3.854   3.340   2.750 -0.3774  0.7338 -2.4522
 3212SOL     OW21094   2.285   1.137  12.578  0.2534 -0.5303  0.0263
 3212SOL    HW121095   2.321   1.058  12.536 -0.1708 -1.0885  0.7136
 3212SOL    HW221096   2.254   1.098  12.660 -0.6658  1.9755  0.8639
 3213SOL     OW21097   0.585   3.133  10.106  0.2912 -0.8694 -0.1127
 3213SOL    HW121098   0.514   3.089  10.152  1.4914 -1.7824  0.8688
 3213SOL    HW221099   0.617   3.197  10.170 -0.4272  0.2371 -0.8538
 3214SOL     OW21100   3.210   4.309  16.814  0.1263  0.5977 -0.2207
 3214SOL    HW121101   3.228   4.249  16.742 -2.0326 -2.1120  1.4693
 3214SOL    HW221102   3.294   4.353  16.811  1.0642 -1.3042 -1.9329
 3215SOL     OW21103   1.440   1.281   5.756  0.6205 -0.1951 -0.2975
 3215SOL    HW121104   1.452   1.356   5.816  2.2356 -0.8235  0.1477
 3215SOL    HW221105   1.413   1.327   5.677 -0.9944  0.2935  0.5226
 3216SOL     OW21106   3.197   1.575   6.704  0.7091 -0.6832 -0.6804
 3216SOL    HW121107   3.290   1.596   6.700  0.3033  1.1348 -0.4671
 3216SOL    HW221108   3.173   1.587   6.796 -0.7172 -0.0619 -1.1449
 3217SOL     OW21109   1.987   3.404  14.800 -0.4231  0.5466 -0.1499
 3217SOL    HW121110   1.899   3.442  14.813 -0.9716  0.0726 -2.5265
 3217SOL    HW221111   1.967   3.331  14.742  0.1769  0.7678 -0.6264
 3218SOL     OW21112   0.351   4.104   6.204  0.5881 -0.0720 -0.2607
 3218SOL    HW121113   0.257   4.090   6.190  0.0143  1.0429  2.5411
 3218SOL    HW221114   0.393   4.042   6.143 -0.5282  0.8077 -1.9269
 3219SOL     OW21115   1.034   1.463   2.255 -0.2040 -0.1308  0.2154
 3219SOL    HW121116   1.059   1.544   2.211  2.0337 -2.1505 -2.2570
 3219SOL    HW221117   1.121   1.434   2.281 -0.9980 -1.8850  0.9204
 3220SOL     OW21118   1.068   2.916   8.800 -0.4799 -0.4838  0.4370
 3220SOL    HW121119   1.053   2.898   8.893 -1.5104 -1.5089  0.0835
 3220SOL    HW221120   0.979   2.908   8.764 -0.9845  1.5432  1.2108
 3221SOL     OW21121   0.089   0.356   8.799 -0.1134  0.1101 -0.5420
 3221SOL    HW121122   0.027   0.399   8.740  0.6187  0.0289 -1.3766
 3221SOL    HW221123   0.052   0.386   8.882  0.4144  1.9263 -0.9539
 3222SOL     OW21124   2.068   4.636  17.636  0.3040  0.4443  0.2927
 3222SOL    HW121125   1.989   4.640  17.583  0.9576 -0.0804 -0.7289
 3222SOL    HW221126   2.122   4.690  17.578  0.5521  1.3338  1.3491
 3223SOL     OW21127   0.303   0.361   5.157  0.7197  0.4281 -0.4789
 3223SOL    HW121128   0.301   0.268   5.138 -1.5122 -0.0793  2.2633
 3223SOL    HW221129   0.232   0.403   5.108  0.1896 -0.7824 -0.7315
 3224SOL     OW21130   4.169   3.067   2.388 -0.2150 -0.3187 -0.2881
 3224SOL    HW121131   4.148   3.083   2.297 -2.4745 -3.9970 -0.4083
 3224SOL    HW221132   4.186   3.157   2.416  1.1170 -0.4966 -0.4851
 3225SOL     OW21133   2.556   4.147   2.307  0.6052 -0.0958  0.0284
 3225SOL    HW121134   2.515   4.226   2.273  2.3025 -0.1795 -2.1970
 3225SOL    HW221135   2.498   4.077   2.276  1.6950 -1.3460  0.7780
 3226SOL     OW21136   3.236   0.881   6.834  0.6665 -0.0084  0.3380
 3226SOL    HW121137   3.199   0.820   6.771  0.4570  0.0363  0.4137
 3226SOL    HW221138   3.251   0.833   6.915  0.4084 -0.1046  0.3289
 3227SOL     OW21139   3.041   3.713   4.747  0.3824 -0.3778 -0.1701
 3227SOL    HW121140   2.978   3.782   4.767  1.3116 -0.0546  1.5993
 3227SOL    HW221141   3.093   3.753   4.678 -0.6064 -1.8306 -1.7611
 3228SOL     OW21142   0.715   2.691   3.435 -0.4530  0.2375 -0.2533
 3228SOL    HW121143   0.651   2.729   3.375 -0.3324  0.0373 -0.5128
 3228SOL    HW221144   0.783   2.652   3.380  1.6407  2.0282  1.0657
 3229SOL     OW21145   4.429   4.144  11.233 -0.3230  0.2618 -0.0858
 3229SOL    HW121146   4.421   4.052  11.206 -0.1737 -0.1068  1.1228
 3229SOL    HW221147   4.422   4.191  11.150  1.3222 -1.0386 -0.9718
 3230SOL     OW21148   3.384   0.554   7.326  0.6728  0.1933  0.4723
 3230SOL    HW121149   3.385   0.634   7.273  2.5992 -0.7862 -0.9880
 3230SOL    HW221150   3.362   0.489   7.259 -3.0087  3.2204 -1.2447
 3231SOL     OW21151   1.389   3.490   5.855  0.2633 -0.5552 -0.4176
 3231SOL    HW121152   1.333   3.526   5.785 -0.3974 -0.0726  0.3587
 3231SOL    HW221153   1.340   3.414   5.885 -0.0208  0.6900  2.2275
 3232SOL     OW21154   4.209   1.707   2.481  0.0874  0.3608  0.0649
 3232SOL    HW121155   4.212   1.611   2.487 -0.7159  0.2232 -1.5936
 3232SOL    HW221156   4.259   1.746   2.552 -0.7458  1.3459  0.1124
 3233SOL     OW21157   2.143   2.178   8.140  0.0469 -0.3004  0.3491
 3233SOL    HW121158   2.147   2.271   8.160 -1.0825 -0.5649  1.7847
 3233SOL    HW221159   2.196   2.151   8.215 -1.8669 -1.1419  1.4108
 3234SOL     OW21160   3.893   2.363   8.449 -0.2236  0.2099 -0.1104
 3234SOL    HW121161   3.911   2.375   8.356 -0.8805 -1.1430 -0.4187
 3234SOL    HW221162   3.980   2.333   8.476 -0.2842  0.1869  0.0584
 3235SOL     OW21163   3.300   4.022   9.581 -0.2671 -0.0275  0.0241
 3235SOL    HW121164   3.325   3.949   9.524 -1.9481 -0.8751  0.3725
 3235SOL    HW221165   3.259   4.073   9.511 -0.8892  0.1815  0.5499
 3236SOL     OW21166   1.517   3.883   5.759  0.1547 -0.3447 -0.0182
 3236SOL    HW121167   1.569   3.830   5.819 -1.3803 -1.6378  0.1631
 3236SOL    HW221168   1.593   3.934   5.730 -0.7431  2.1761  2.1036
 3237SOL     OW21169   2.604   1.052  10.073  0.0079 -0.1667 -0.4604
 3237SOL    HW121170   2.521   1.064  10.118 -0.0022  0.4761 -0.6555
 3237SOL    HW221171   2.650   0.988  10.128 -0.3735 -2.3369 -2.6898
 3238SOL     OW21172   0.440   3.558   4.378 -0.1373  0.7215  0.0790
 3238SOL    HW121173   0.446   3.632   4.318  1.2435 -1.4165 -2.4340
 3238SOL    HW221174   0.399   3.595   4.456 -2.0328 -1.6000  0.1931
 3239SOL     OW21175   1.666   3.582   1.605 -0.0509  0.6483 -0.6153
 3239SOL    HW121176   1.607   3.632   1.662 -1.0852 -0.2008 -0.9498
 3239SOL    HW221177   1.621   3.500   1.624  1.0663 -0.2580 -1.8841
 3240SOL     OW21178   2.153   0.701  10.230 -0.1724 -0.6288  0.0477
 3240SOL    HW121179   2.081   0.765  10.233 -0.9393 -1.3753 -2.6902
 3240SOL    HW221180   2.229   0.749  10.198 -0.9082  0.5126  0.0019
 3241SOL     OW21181   2.930   4.333   2.757  0.2358  0.5499  0.3266
 3241SOL    HW121182   2.854   4.325   2.700  0.5933 -0.4234 -0.0179
 3241SOL    HW221183   2.930   4.428   2.771 -1.3008  0.6851 -0.6205
 3242SOL     OW21184   0.764   1.575   1.345 -0.3414  0.0673  0.0030
 3242SOL    HW121185   0.763   1.649   1.406 -0.6620 -1.1488  1.4754
 3242SOL    HW221186   0.813   1.515   1.402 -1.9737 -2.0600 -0.8151
 3243SOL     OW21187   0.258   0.961   2.603 -0.1705 -0.6779  0.1864
 3243SOL    HW121188   0.298   1.036   2.647  0.9816 -1.2981  0.1970
 3243SOL    HW221189   0.284   0.977   2.513 -1.3792 -0.1638 -0.0704
 3244SOL     OW21190   2.569   4.214  10.164  0.0713  0.7907 -0.1463
 3244SOL    HW121191   2.568   4.163  10.245  0.5307  0.1425 -0.5454
 3244SOL    HW221192   2.663   4.224  10.149  0.1548 -0.4780 -0.4650
 3245SOL     OW21193   3.666   4.435   3.800 -0.3898  0.3646  0.6336
 3245SOL    HW121194   3.747   4.391   3.827  0.4314  1.0150 -0.7976
 3245SOL    HW221195   3.630   4.390   3.724  0.1021  1.5198 -0.2778
 3246SOL     OW21196   0.989   0.213   4.884  0.7264 -0.4529  0.5458
 3246SOL    HW121197   1.017   0.232   4.974  0.9035 -0.0621  0.4102
 3246SOL    HW221198   1.072   0.220   4.837  1.6640  1.9854  2.5379
 3247SOL     OW21199   4.452   3.328  12.263  0.5550  0.5812  0.5929
 3247SOL    HW121200   4.432   3.256  12.323  1.2391 -0.5424 -0.5034
 3247SOL    HW221201   4.436   3.406  12.316 -0.5610  2.0190 -1.8625
 3248SOL     OW21202   1.017   1.887  12.023 -0.2747 -0.1460 -0.4669
 3248SOL    HW121203   1.064   1.924  11.948 -0.6456 -0.3618 -0.8017
 3248SOL    HW221204   1.081   1.907  12.092 -1.9305  1.2589  0.6823
 3249SOL     OW21205   3.500   2.286   5.283 -1.1974 -0.8610 -0.2968
 3249SOL    HW121206   3.545   2.210   5.247  1.4046 -0.0115  1.1565
 3249SOL    HW221207   3.414   2.278   5.241 -1.0288 -1.2700 -0.5666
 3250SOL     OW21208   3.762   3.057   1.908  0.1374  0.0600  0.1923
 3250SOL    HW121209   3.752   2.970   1.870  2.2537 -0.5973  1.1312
 3250SOL    HW221210   3.759   3.106   1.826 -0.7673 -0.4208 -0.0518
 3251SOL     OW21211   0.040   3.295   3.291 -0.1764 -0.9789  0.0413
 3251SOL    HW121212   0.082   3.330   3.213 -2.9574 -2.5421 -2.1560
 3251SOL    HW221213   4.691   3.240   3.259  0.4265 -1.6165 -0.2070
 3252SOL     OW21214   0.809   1.947   6.919  0.1574  0.8315  0.0489
 3252SOL    HW121215   0.827   1.853   6.922  1.2508  1.0684  1.0480
 3252SOL    HW221216   0.869   1.994   6.976  0.7852  3.0048 -2.4019
 3253SOL     OW21217   0.040   4.654  15.505 -0.0115 -0.3961  0.1063
 3253SOL    HW121218   0.042   0.025  15.484 -0.4482 -0.6706 -1.1843
 3253SOL    HW221219   0.134   4.638  15.490  0.0729  0.2835 -0.0944
 3254SOL     OW21220   3.896   2.802   8.513  0.3543  0.1258  0.2116
 3254SOL    HW121221   3.984   2.765   8.525  1.0209  1.4856 -0.3860
 3254SOL    HW221222   3.839   2.742   8.559 -1.0876  2.5540  1.5831
 3255SOL     OW21223   3.028   2.182   8.662 -0.1355  0.0634  0.3703
 3255SOL    HW121224   3.067   2.263   8.628 -1.1646  1.4351  2.4925
 3255SOL    HW221225   3.100   2.124   8.687  0.8638  0.3664 -1.7941
 3256SOL     OW21226   0.653   3.259  11.650  0.0187 -0.2471  0.6266
 3256SOL    HW121227   0.747   3.265  11.666  0.3952  0.7367 -1.9324
 3256SOL    HW221228   0.624   3.207  11.725 -1.8683 -1.0867 -0.6804
 3257SOL     OW21229   4.123   0.328   1.216 -0.2434 -0.3534 -0.1491
 3257SOL    HW121230   4.129   0.326   1.311 -1.5041 -1.3333 -0.0882
 3257SOL    HW221231   4.164   0.249   1.181 -2.5238 -2.0085  0.9035
 3258SOL     OW21232   1.956   0.314   0.469 -0.0531 -0.2592  0.1377
 3258SOL    HW121233   2.049   0.325   0.488  0.1524 -3.1072  0.8485
 3258SOL    HW221234   1.922   0.280   0.551 -1.4167 -0.3364 -0.4653
 3259SOL     OW21235   1.200   1.185  16.398 -0.1115  0.1031 -0.3204
 3259SOL    HW121236   1.179   1.228  16.481  0.1725 -0.1436 -0.1230
 3259SOL    HW221237   1.290   1.156  16.413  0.9948  2.9235 -1.5099
 3260SOL     OW21238   2.324   4.289   4.102 -0.1511 -0.0264 -0.0256
 3260SOL    HW121239   2.280   4.339   4.170 -1.1484 -4.2811  2.4755
 3260SOL    HW221240   2.256   4.225   4.081  2.1827 -1.9831 -1.7222
 3261SOL     OW21241   2.956   4.598   2.825  0.2987  0.4090 -0.1095
 3261SOL    HW121242   3.033   4.608   2.880  1.3985 -1.7988 -1.2538
 3261SOL    HW221243   2.898   4.653   2.877 -0.9111 -1.6435  0.7100
 3262SOL     OW21244   1.724   0.404   3.377 -0.3310  0.5809  0.3251
 3262SOL    HW121245   1.664   0.477   3.362 -0.9578 -0.0879 -0.3794
 3262SOL    HW221246   1.798   0.429   3.322  0.9206 -0.6095  1.4934
 3263SOL     OW21247   2.560   2.548   8.941  0.4006  0.3169 -0.5571
 3263SOL    HW121248   2.487   2.528   8.883 -1.7718  1.0704  1.9305
 3263SOL    HW221249   2.587   2.459   8.962  0.6907  0.3622 -0.7420
 3264SOL     OW21250   0.600   1.040   4.505 -0.0055 -0.2588  0.1356
 3264SOL    HW121251   0.543   1.088   4.446  0.8138 -2.6982 -2.6295
 3264SOL    HW221252   0.548   1.018   4.582 -3.3396  1.6604 -1.6114
 3265SOL     OW21253   2.367   4.670  16.038  0.3848 -0.3352 -0.3543
 3265SOL    HW121254   2.433   4.697  16.102  0.4419  1.6563 -1.2755
 3265SOL    HW221255   2.334   0.030  16.002  1.9481  0.3200 -0.2746
 3266SOL     OW21256   0.326   4.152   7.024 -0.0152  0.4418  0.1695
 3266SOL    HW121257   0.393   4.202   6.977  0.5780  0.1825  0.7458
 3266SOL    HW221258   0.253   4.166   6.963  0.5341  0.6245 -0.4450
 3267SOL     OW21259   2.331   3.747   8.838 -0.2057  0.4102  0.0308
 3267SOL    HW121260   2.285   3.756   8.755 -2.6123  0.3757  1.3739
 3267SOL    HW221261   2.418   3.776   8.809 -0.1753  0.6095  0.3141
 3268SOL     OW21262   1.893   0.557   9.206 -0.0107  0.8748  0.1674
 3268SOL    HW121263   1.800   0.539   9.190  0.2804  0.1435 -0.6789
 3268SOL    HW221264   1.921   0.486   9.264 -0.9092 -0.1262 -0.6123
 3269SOL     OW21265   1.014   4.546   7.611 -0.5443 -0.3797  0.1139
 3269SOL    HW121266   1.088   4.488   7.627  0.4499  1.0529  0.7311
 3269SOL    HW221267   0.945   4.480   7.626 -2.1111  1.8674  2.9128
 3270SOL     OW21268   3.591   1.485   2.050  0.5654 -0.2119 -0.0095
 3270SOL    HW121269   3.585   1.557   1.988  0.7235 -0.2476 -0.0659
 3270SOL    HW221270   3.593   1.408   1.994 -0.5317  0.1142 -0.5035
 3271SOL     OW21271   1.901   3.366   3.735  0.3114 -0.1754 -0.2961
 3271SOL    HW121272   1.851   3.381   3.654  0.1383  0.8442  0.0023
 3271SOL    HW221273   1.842   3.398   3.803 -0.9556 -0.9257 -1.0335
 3272SOL     OW21274   0.890   2.466   0.431  0.2458  0.2412 -0.0662
 3272SOL    HW121275   0.807   2.419   0.424 -0.0150  0.2702  2.6363
 3272SOL    HW221276   0.874   2.522   0.355  1.2072  0.8930  0.2108
 3273SOL     OW21277   0.075   2.701  17.516 -0.3780  0.3255 -0.4526
 3273SOL    HW121278   0.082   2.641  17.590  0.4767 -0.7310 -1.3769
 3273SOL    HW221279   0.148   2.665  17.466  0.1513 -0.6640  1.0300
 3274SOL     OW21280   2.468   1.207   7.722 -0.4152 -0.5853 -0.0800
 3274SOL    HW121281   2.450   1.182   7.813  0.5184  1.4782  0.6742
 3274SOL    HW221282   2.425   1.147   7.662 -0.3189 -0.8290  0.0944
 3275SOL     OW21283   4.338   2.441  14.758  0.5179  0.4245  0.0656
 3275SOL    HW121284   4.420   2.406  14.723  0.3846 -0.8965  1.0777
 3275SOL    HW221285   4.345   2.535  14.746 -2.3798  0.8168  1.3652
 3276SOL     OW21286   2.791   0.888   7.068  0.2689  0.4843 -0.3331
 3276SOL    HW121287   2.755   0.871   6.981 -0.4433 -1.4888  0.3541
 3276SOL    HW221288   2.732   0.960   7.090  1.0014  0.6621  1.0425
 3277SOL     OW21289   4.520   4.183   6.360  0.9526  0.4361  0.0048
 3277SOL    HW121290   4.532   4.276   6.383  2.1856 -0.4051  2.8025
 3277SOL    HW221291   4.516   4.153   6.451  0.7066 -2.3593 -0.9340
 3278SOL     OW21292   2.339   1.826   3.666 -0.1316  0.6090 -0.0276
 3278SOL    HW121293   2.361   1.899   3.608  0.1899 -1.8103 -2.9473
 3278SOL    HW221294   2.244   1.820   3.657 -0.0013  1.9485 -2.0768
 3279SOL     OW21295   3.201   0.277  10.266  0.3097  0.4665  0.4229
 3279SOL    HW121296   3.242   0.344  10.211  1.3702 -0.2485  0.3287
 3279SOL    HW221297   3.247   0.199  10.236  0.3830  0.4465  0.5893
 3280SOL     OW21298   1.588   0.940   8.490  0.1809 -0.4500  0.0646
 3280SOL    HW121299   1.663   0.921   8.433  0.7751  1.7166  0.1277
 3280SOL    HW221300   1.609   0.885   8.566 -1.3334 -0.3968  0.5192
 3281SOL     OW21301   0.186   1.169   7.891  0.0676 -0.2335  0.7441
 3281SOL    HW121302   0.252   1.101   7.895 -1.2806 -1.4092  3.0503
 3281SOL    HW221303   0.125   1.145   7.960 -1.2789 -0.9028 -0.6626
 3282SOL     OW21304   1.278   3.474   4.307  0.0329 -0.4378  0.3346
 3282SOL    HW121305   1.200   3.521   4.279  0.7476  1.3664  1.3585
 3282SOL    HW221306   1.233   3.403   4.353  0.5961 -0.6453  0.5685
 3283SOL     OW21307   1.870   0.498   9.510 -0.5778  0.5236 -0.4437
 3283SOL    HW121308   1.793   0.546   9.541 -0.2971  1.3966 -1.0961
 3283SOL    HW221309   1.842   0.407   9.503  0.6280  0.0601  0.6581
 3284SOL     OW21310   2.458   4.608   1.128  0.3285 -0.2686 -0.0991
 3284SOL    HW121311   2.491   4.672   1.066 -2.0094 -0.1447 -1.2314
 3284SOL    HW221312   2.383   4.579   1.075  0.9055 -1.5768 -0.1970
 3285SOL     OW21313   0.719   2.094   5.644  0.1584  0.1366  0.2884
 3285SOL    HW121314   0.762   2.158   5.702 -0.3648 -0.0569  0.8847
 3285SOL    HW221315   0.740   2.016   5.695 -0.5518 -1.3208 -1.6816
 3286SOL     OW21316   0.196   1.848   7.208 -0.3957  0.2900 -0.2641
 3286SOL    HW121317   0.121   1.907   7.205 -1.2430 -0.8782 -2.0016
 3286SOL    HW221318   0.149   1.767   7.190 -0.9487  0.7341 -0.7986
 3287SOL     OW21319   4.575   3.311   0.317  0.3952 -0.0724 -0.0188
 3287SOL    HW121320   4.653   3.331   0.368  1.6707  0.9192 -2.3205
 3287SOL    HW221321   4.504   3.304   0.380  2.1283 -1.7533  1.7260
 3288SOL     OW21322   4.558   0.827   5.072  0.4514  0.6376  0.2536
 3288SOL    HW121323   4.471   0.792   5.052  1.6865 -1.9188 -0.6763
 3288SOL    HW221324   4.574   0.887   4.999  0.4410  0.0566 -0.2328
 3289SOL     OW21325   0.816   4.565   4.052 -0.1699  0.1867  0.2224
 3289SOL    HW121326   0.853   4.509   4.120  1.5213  2.0822  0.8564
 3289SOL    HW221327   0.814   4.648   4.098  2.3546 -0.5291  1.6472
 3290SOL     OW21328   3.832   4.151   5.549 -0.3709  0.3174  0.1859
 3290SOL    HW121329   3.925   4.143   5.571 -0.1348  2.9479  0.1767
 3290SOL    HW221330   3.837   4.234   5.501 -0.3088  1.7192  2.6042
 3291SOL     OW21331   1.850   0.704   3.448  0.1716 -0.0991 -0.5932
 3291SOL    HW121332   1.934   0.671   3.418  0.8619  0.0897  1.1068
 3291SOL    HW221333   1.833   0.775   3.387 -0.4566  1.1248  1.0062
 3292SOL     OW21334   3.766   2.856   1.730  0.2046  0.5838  0.3338
 3292SOL    HW121335   3.835   2.883   1.669  1.7114 -0.3771  1.6196
 3292SOL    HW221336   3.685   2.891   1.693 -0.9592 -2.0674  0.3610
 3293SOL     OW21337   1.351   1.212  12.484  0.3144 -0.0867 -0.2484
 3293SOL    HW121338   1.439   1.237  12.511 -0.0228 -0.8192  1.5023
 3293SOL    HW221339   1.309   1.206  12.570 -0.4952  0.3120 -0.6169
 3294SOL     OW21340   1.305   1.273   9.458  0.1319 -0.1347 -0.1815
 3294SOL    HW121341   1.388   1.297   9.416  0.3092  0.1441  0.3373
 3294SOL    HW221342   1.276   1.356   9.497 -0.9726 -1.4739  1.8134
 3295SOL     OW21343   3.386   0.488   8.040  0.0249 -0.2381  0.0380
 3295SOL    HW121344   3.427   0.505   7.955  0.5844  3.6814  1.0836
 3295SOL    HW221345   3.470   0.480   8.086  0.3438 -1.9560 -0.8619
 3296SOL     OW21346   4.459   1.138   3.311  0.1736 -0.3249 -0.0679
 3296SOL    HW121347   4.491   1.169   3.226  0.0258 -0.2156 -0.0830
 3296SOL    HW221348   4.506   1.201   3.365 -1.8348 -0.1966  1.5361
 3297SOL     OW21349   4.452   4.086   2.763 -0.1948  0.5375 -0.4755
 3297SOL    HW121350   4.520   4.137   2.720  0.1082  0.1565 -0.4477
 3297SOL    HW221351   4.435   4.143   2.838  2.3576 -1.0663  1.3191
 3298SOL     OW21352   0.759   2.397   7.709 -0.2074 -0.0654 -0.2339
 3298SOL    HW121353   0.745   2.305   7.731  1.3144 -0.0929  0.6457
 3298SOL    HW221354   0.672   2.436   7.711 -0.1445  0.0795 -0.3056
 3299SOL     OW21355   4.075   3.607  12.770  0.8680 -0.3278  0.2270
 3299SOL    HW121356   4.121   3.538  12.817 -1.9125 -2.4057 -0.0774
 3299SOL    HW221357   4.091   3.676  12.835  1.8312  0.9813 -1.4055
 3300SOL     OW21358   2.295   0.438   8.278 -0.5434  0.0950  0.1863
 3300SOL    HW121359   2.240   0.381   8.333 -0.0191 -1.8823 -1.3298
 3300SOL    HW221360   2.344   0.484   8.346  0.7433 -1.9187  0.6177
 3301SOL     OW21361   2.853   3.432   8.582  0.1057 -0.2300  0.0602
 3301SOL    HW121362   2.933   3.413   8.534 -0.5398 -0.8211 -0.7775
 3301SOL    HW221363   2.886   3.511   8.624 -2.1223  0.1602  1.1301
 3302SOL     OW21364   4.080   2.650   2.640 -0.3035  0.6258  0.1623
 3302SOL    HW121365   4.031   2.702   2.576  0.3920 -0.8573 -1.5751
 3302SOL    HW221366   4.107   2.720   2.699  1.1605  0.3219 -0.1494
 3303SOL     OW21367   3.661   4.576   8.664  0.3629  0.0870 -0.2270
 3303SOL    HW121368   3.584   4.633   8.667 -0.4230 -1.0512  1.6794
 3303SOL    HW221369   3.628   4.527   8.739  0.0385  2.5678  1.2617
 3304SOL     OW21370   4.214   3.459   2.205 -0.4050  0.2509  0.0365
 3304SOL    HW121371   4.245   3.411   2.282  0.5386 -1.4854 -1.4199
 3304SOL    HW221372   4.120   3.467   2.219 -0.3545 -1.0633  1.1234
 3305SOL     OW21373   2.790   4.242   4.194  0.1442  0.5137 -0.0741
 3305SOL    HW121374   2.874   4.262   4.235  0.7400  0.1960 -1.1278
 3305SOL    HW221375   2.728   4.251   4.266  0.3946  0.0392  0.2103
 3306SOL     OW21376   2.301   2.407   4.786 -0.1454  0.0067 -0.0775
 3306SOL    HW121377   2.291   2.394   4.881 -0.3389  1.2313  0.0736
 3306SOL    HW221378   2.391   2.378   4.769  0.6059  1.1299  1.9653
 3307SOL     OW21379   2.706   1.390  11.192 -0.4304  0.7288  0.3575
 3307SOL    HW121380   2.770   1.442  11.240 -0.3576  1.1921 -0.2464
 3307SOL    HW221381   2.662   1.464  11.150  0.8988  0.9222 -0.6893
 3308SOL     OW21382   0.491   4.492   2.998  0.2633 -0.1967  0.1492
 3308SOL    HW121383   0.557   4.513   2.931  2.0315 -1.5610  1.4618
 3308SOL    HW221384   0.528   4.513   3.083  0.6093 -0.9940  0.2020
 3309SOL     OW21385   1.959   2.879   7.857  0.1568  0.6394 -0.1764
 3309SOL    HW121386   1.992   2.879   7.767  1.5361  0.1212  0.3184
 3309SOL    HW221387   2.023   2.823   7.902 -0.6479  0.8792  1.2557
 3310SOL     OW21388   1.140   0.016   6.083  0.1967  0.5004  0.1337
 3310SOL    HW121389   1.206   4.710   6.146  0.5471  1.4699  0.2016
 3310SOL    HW221390   1.123   0.107   6.108  1.4111  0.7885 -0.0751
 3311SOL     OW21391   4.275   3.342   9.698  0.3474 -0.1671  0.1778
 3311SOL    HW121392   4.195   3.344   9.750  2.2026  0.7925  2.9848
 3311SOL    HW221393   4.295   3.251   9.675 -0.7604 -0.4994  0.5039
 3312SOL     OW21394   1.157   0.433   2.483 -0.2751 -0.2172  0.0141
 3312SOL    HW121395   1.244   0.456   2.516 -0.2374  0.2971 -0.4400
 3312SOL    HW221396   1.179   0.376   2.409  1.1850  0.3101  0.0193
 3313SOL     OW21397   3.960   2.881  14.453  0.1410 -0.3889 -0.2297
 3313SOL    HW121398   3.910   2.819  14.506  1.9189 -0.7737  0.9902
 3313SOL    HW221399   4.034   2.887  14.514  1.5401 -1.5379 -1.7882
 3314SOL     OW21400   4.085   0.200   0.470  0.0873  0.0754  0.3735
 3314SOL    HW121401   4.137   0.128   0.435  2.1586  2.3435 -1.2380
 3314SOL    HW221402   4.046   0.157   0.546 -2.1138  1.5979  0.1193
 3315SOL     OW21403   3.825   1.263   7.715  0.1652  0.3927  0.2903
 3315SOL    HW121404   3.757   1.214   7.668 -0.2223 -0.9173  2.2215
 3315SOL    HW221405   3.777   1.292   7.792  1.1510 -0.0227  1.0646
 3316SOL     OW21406   2.334   2.392   5.302 -0.2640 -0.1466  0.2116
 3316SOL    HW121407   2.328   2.444   5.382 -3.8847 -1.2425  0.6239
 3316SOL    HW221408   2.408   2.423   5.248  0.1618  0.8594  1.3874
 3317SOL     OW21409   2.979   2.459   5.408  0.5123  0.2725  0.0215
 3317SOL    HW121410   2.995   2.544   5.447  0.9197  0.6813 -1.0461
 3317SOL    HW221411   2.955   2.394   5.475  1.0217  1.8304  1.7007
 3318SOL     OW21412   0.376   1.037   0.488 -0.2444 -0.6571 -1.1789
 3318SOL    HW121413   0.454   1.047   0.541 -0.5077  0.8681 -1.0702
 3318SOL    HW221414   0.407   1.024   0.398  0.7306 -1.6668 -0.6770
 3319SOL     OW21415   3.618   2.354   2.204 -0.3547  0.1009  0.2411
 3319SOL    HW121416   3.536   2.305   2.201 -1.0020  1.2080 -0.1673
 3319SOL    HW221417   3.632   2.369   2.111 -0.3839 -3.5777 -0.3459
 3320SOL     OW21418   3.230   3.749  16.504 -0.3435 -0.2203 -0.1215
 3320SOL    HW121419   3.205   3.808  16.575 -1.4199 -2.0603  1.0415
 3320SOL    HW221420   3.158   3.686  16.507 -0.6968  0.1155 -1.3141
 3321SOL     OW21421   0.627   4.176   3.829  0.0880 -0.5160  0.6041
 3321SOL    HW121422   0.653   4.266   3.807 -0.2684 -0.7739 -0.8640
 3321SOL    HW221423   0.673   4.165   3.912  1.0035  1.4471  0.3555
 3322SOL     OW21424   4.405   0.392   2.011 -0.5299  0.5165 -0.1007
 3322SOL    HW121425   4.432   0.451   1.940  0.3967 -1.1471 -1.1368
 3322SOL    HW221426   4.477   0.395   2.073 -0.1216 -1.8190 -0.4390
 3323SOL     OW21427   4.263   2.450   3.276  0.1889  0.1627 -0.1058
 3323SOL    HW121428   4.344   2.410   3.244 -1.0862 -1.8079 -0.7938
 3323SOL    HW221429   4.242   2.510   3.204 -1.2828  1.8270  1.7294
 3324SOL     OW21430   0.297   4.360   5.552  0.2872  0.5744 -0.8715
 3324SOL    HW121431   0.292   4.323   5.464  0.8317  0.9292 -1.0510
 3324SOL    HW221432   0.389   4.388   5.548 -0.1072  1.7176 -2.1778
 3325SOL     OW21433   2.035   0.649   4.723  0.3877  0.2437 -0.2790
 3325SOL    HW121434   2.053   0.560   4.693  2.3032  1.4777 -2.7904
 3325SOL    HW221435   2.120   0.691   4.707  1.1214 -0.3691  2.0763
 3326SOL     OW21436   0.420   3.613   4.977 -0.2600 -0.0333  0.4377
 3326SOL    HW121437   0.388   3.586   5.063 -0.8004  1.6302  0.7574
 3326SOL    HW221438   0.471   3.537   4.952  0.6819  1.3188 -1.7382
 3327SOL     OW21439   4.349   4.235   7.636  0.1326  0.0671  0.3883
 3327SOL    HW121440   4.261   4.201   7.619 -0.2489  1.7811 -0.9969
 3327SOL    HW221441   4.389   4.269   7.556 -1.6079 -0.3403 -0.6818
 3328SOL     OW21442   4.530   3.210   5.377  0.4931  0.1418 -1.0195
 3328SOL    HW121443   4.590   3.136   5.376 -0.5456 -0.7318  2.7333
 3328SOL    HW221444   4.542   3.257   5.460  0.7759  2.0880 -2.1527
 3329SOL     OW21445   0.610   2.920   8.280 -0.1456 -0.2077  0.5942
 3329SOL    HW121446   0.563   2.968   8.213 -0.3937  0.1296  1.0104
 3329SOL    HW221447   0.671   2.877   8.219  1.4159 -0.4256  2.2942
 3330SOL     OW21448   3.696   3.915   6.553  0.1177 -0.3405 -0.0105
 3330SOL    HW121449   3.648   3.981   6.603  1.2547  0.2946  0.2300
 3330SOL    HW221450   3.628   3.869   6.504  0.4766  0.0623 -0.8798
 3331SOL     OW21451   0.928   0.271   9.005  0.6970  0.5610 -0.5140
 3331SOL    HW121452   0.845   0.235   8.974  1.1001  1.0488 -2.1480
 3331SOL    HW221453   0.912   0.297   9.096  1.2087 -0.9999  0.0258
 3332SOL     OW21454   2.432   4.058   5.388 -0.1052 -0.4586  0.0886
 3332SOL    HW121455   2.380   4.112   5.329  2.6907 -0.0831 -2.0618
 3332SOL    HW221456   2.435   3.974   5.343 -4.2145  0.5227 -2.0318
 3333SOL     OW21457   3.819   1.588   0.506 -0.4929 -0.0827  0.1786
 3333SOL    HW121458   3.832   1.583   0.412  1.3371 -1.2948  0.4838
 3333SOL    HW221459   3.900   1.638   0.515 -0.7158  0.2971  0.0591
 3334SOL     OW21460   3.197   0.526  17.586 -0.0587  0.7348 -0.0908
 3334SOL    HW121461   3.198   0.504  17.679 -1.7194  0.3089 -0.1735
 3334SOL    HW221462   3.158   0.613  17.588 -0.4943  0.5265  0.2728
 3335SOL     OW21463   4.028   1.484   7.742 -0.7821 -0.2741 -0.1010
 3335SOL    HW121464   3.961   1.547   7.769 -3.8376 -3.8146  0.3990
 3335SOL    HW221465   3.975   1.428   7.687 -0.3468 -1.4762  0.7042
 3336SOL     OW21466   4.458   1.632   1.645  0.0557 -0.2402 -0.0503
 3336SOL    HW121467   4.383   1.686   1.670 -0.5401 -1.0115 -0.1605
 3336SOL    HW221468   4.409   1.556   1.614 -0.2785  0.7511 -1.9385
 3337SOL     OW21469   0.072   3.641   3.697  0.3068 -0.0855 -0.3501
 3337SOL    HW121470   0.044   3.564   3.747 -1.2571 -0.3245 -1.6066
 3337SOL    HW221471   0.165   3.635   3.720 -0.5617 -0.2349  3.1478
 3338SOL     OW21472   1.093   3.770   2.338  0.3278 -0.3510  0.7496
 3338SOL    HW121473   1.122   3.856   2.367 -1.4404 -0.4744  2.9229
 3338SOL    HW221474   1.165   3.718   2.375 -1.2201 -1.5667  2.0971
 3339SOL     OW21475   4.103   1.576  11.133  0.1698 -0.1975 -0.2565
 3339SOL    HW121476   4.140   1.521  11.063 -1.2280 -1.5931  0.1140
 3339SOL    HW221477   4.135   1.530  11.211  2.8631 -0.1022 -1.2787
 3340SOL     OW21478   0.068   3.355   5.462  0.3134  0.2399 -0.0731
 3340SOL    HW121479   0.011   3.383   5.390  1.3465  0.1082 -0.9340
 3340SOL    HW221480   0.111   3.437   5.484  0.0511  0.1122  0.9367
 3341SOL     OW21481   3.251   0.405   6.900 -0.0887 -0.3566  0.0968
 3341SOL    HW121482   3.339   0.373   6.881 -0.1483 -1.0550  0.9973
 3341SOL    HW221483   3.200   0.328   6.923 -1.1815  0.2200 -0.3825
 3342SOL     OW21484   3.889   3.999   4.815  0.4065 -0.2206  0.6510
 3342SOL    HW121485   3.901   4.076   4.759 -0.8810 -1.3251 -1.1790
 3342SOL    HW221486   3.835   4.032   4.887  0.8511 -2.4532  2.0056
 3343SOL     OW21487   1.433   0.747   3.132 -0.1494  0.2099  0.1759
 3343SOL    HW121488   1.366   0.746   3.200 -1.5823 -0.7780 -1.2652
 3343SOL    HW221489   1.456   0.655   3.121  1.2934  0.2010  3.1364
 3344SOL     OW21490   3.971   0.683   8.195  0.2631 -0.7463  0.9732
 3344SOL    HW121491   4.042   0.721   8.246  0.8291 -1.9626  1.1105
 3344SOL    HW221492   4.033   0.668   8.123  1.5044 -0.9329  2.0897
 3345SOL     OW21493   3.109   0.092   6.709 -0.4698  1.1690  0.4977
 3345SOL    HW121494   3.090   0.128   6.623 -1.0406 -0.2874  0.0197
 3345SOL    HW221495   3.054   0.014   6.697  0.7126  0.2654  0.9205
 3346SOL     OW21496   1.816   1.188   2.404 -0.3086 -0.2121 -0.0593
 3346SOL    HW121497   1.880   1.132   2.361  0.2590  2.1863 -2.3314
 3346SOL    HW221498   1.839   1.182   2.496 -1.7714 -0.4086  0.2981
 3347SOL     OW21499   3.349   4.561   2.238  0.5156  0.4289  0.2084
 3347SOL    HW121500   3.270   4.581   2.188  1.1228  1.7721 -0.2246
 3347SOL    HW221501   3.397   4.514   2.170 -0.7369  0.0656 -0.4286
 3348SOL     OW21502   4.183   0.053   6.585  0.2547  0.5824 -0.3994
 3348SOL    HW121503   4.224   0.036   6.670 -0.7825  0.0573 -0.0043
 3348SOL    HW221504   4.178   0.149   6.584 -0.7138  0.5957  4.8426
 3349SOL     OW21505   0.624   1.159  11.650 -0.4702 -0.7607  0.0117
 3349SOL    HW121506   0.712   1.190  11.674  0.0085 -0.7491 -1.8153
 3349SOL    HW221507   0.641   1.102  11.576  0.6222  1.2697 -1.2999
 3350SOL     OW21508   4.099   0.167   8.569  0.0248  0.0128  0.0524
 3350SOL    HW121509   4.171   0.136   8.514  0.5204  0.8734  0.2171
 3350SOL    HW221510   4.055   0.089   8.602  1.7677 -2.4594 -3.5009
 3351SOL     OW21511   0.578   2.503   5.207  0.0689 -0.2404 -0.2896
 3351SOL    HW121512   0.556   2.501   5.300 -0.4026 -0.8707 -0.4145
 3351SOL    HW221513   0.672   2.522   5.204 -0.6224  2.9032 -1.6491
 3352SOL     OW21514   2.867   0.083   2.200 -0.2455 -0.2176  0.2229
 3352SOL    HW121515   2.772   0.075   2.194 -0.2477 -0.3208  0.3849
 3352SOL    HW221516   2.893   0.174   2.190 -1.2800  0.0136 -0.4076
 3353SOL     OW21517   0.025   1.579   6.603  0.4801  0.0572  0.2177
 3353SOL    HW121518   0.034   1.628   6.521  3.2248  0.2057  0.6167
 3353SOL    HW221519   0.040   1.487   6.579  0.9316 -0.1993  1.4972
 3354SOL     OW21520   1.356   2.655  14.198 -0.5512 -0.3446 -0.3216
 3354SOL    HW121521   1.350   2.581  14.260  1.5677 -0.3398 -0.1014
 3354SOL    HW221522   1.446   2.678  14.221 -1.3829 -0.1848  2.7418
 3355SOL     OW21523   2.727   2.147   7.223  0.7765 -0.1704  0.0146
 3355SOL    HW121524   2.725   2.220   7.162 -2.0242  0.4490  0.8579
 3355SOL    HW221525   2.736   2.077   7.159 -0.4272  0.8897 -1.3096
 3356SOL     OW21526   3.336   1.125   7.582  0.2205 -0.3875 -0.1775
 3356SOL    HW121527   3.413   1.176   7.606  0.3990 -0.5512 -0.4022
 3356SOL    HW221528   3.368   1.046   7.540 -0.8805 -1.2506  0.6229
 3357SOL     OW21529   4.386   1.242   1.323  0.0839  0.1240  0.0033
 3357SOL    HW121530   4.302   1.224   1.365 -0.9030  0.5814 -1.7731
 3357SOL    HW221531   4.433   1.159   1.320  1.0070  0.6609 -0.6706
 3358SOL     OW21532   1.970   3.512   8.652 -0.0850 -0.3936 -0.3383
 3358SOL    HW121533   1.959   3.418   8.668 -0.0229 -0.3178  0.1417
 3358SOL    HW221534   1.913   3.521   8.575 -0.0838 -0.9872 -0.4086
 3359SOL     OW21535   4.400   0.031  11.038  0.0298  0.1188  0.0938
 3359SOL    HW121536   4.379   4.674  11.087  2.2427  1.0478  2.5260
 3359SOL    HW221537   4.372   0.087  11.110 -1.9295 -2.7073  1.5789
 3360SOL     OW21538   3.709   2.341   3.033 -0.2294 -0.1890  0.5255
 3360SOL    HW121539   3.793   2.385   3.016 -0.0972 -0.9111 -0.6851
 3360SOL    HW221540   3.668   2.371   2.951 -1.4375  2.7143  2.2106
 3361SOL     OW21541   2.541   0.329  16.374  0.2764  0.0822  0.0530
 3361SOL    HW121542   2.516   0.240  16.399  0.2687 -0.8334 -3.1711
 3361SOL    HW221543   2.503   0.345  16.288 -1.5651 -0.5820  0.7507
 3362SOL     OW21544   2.478   2.835   5.285  0.1460  0.9408  0.8883
 3362SOL    HW121545   2.403   2.795   5.329  1.6313 -1.7825  0.9664
 3362SOL    HW221546   2.501   2.903   5.348  1.3624  1.8586 -0.5371
 3363SOL     OW21547   4.533   2.772  17.396 -0.3330  0.3903 -0.5371
 3363SOL    HW121548   4.552   2.716  17.321  2.0578 -0.6050  0.8158
 3363SOL    HW221549   4.624   2.792  17.418 -1.2529  1.2005  2.5406
 3364SOL     OW21550   0.653   1.727   3.195  0.4379  0.3911 -0.0927
 3364SOL    HW121551   0.704   1.806   3.176 -1.6756  1.9814  0.9209
 3364SOL    HW221552   0.709   1.658   3.158 -0.1032  0.4345 -1.0070
 3365SOL     OW21553   1.941   2.866  14.568 -0.2545 -0.7547  0.3901
 3365SOL    HW121554   1.994   2.849  14.647  1.7365  0.4765 -0.6825
 3365SOL    HW221555   1.880   2.794  14.583 -0.7918 -0.5917 -1.1091
 3366SOL     OW21556   4.475   4.004   7.279  0.0744 -0.7619  0.3567
 3366SOL    HW121557   4.496   4.097   7.287 -2.0661 -0.0379 -2.5770
 3366SOL    HW221558   4.388   4.006   7.319  0.4232 -0.1002  1.0928
 3367SOL     OW21559   2.332   0.743   3.337 -0.2035  0.3127 -0.6566
 3367SOL    HW121560   2.347   0.821   3.283  0.7633  2.0575  2.0878
 3367SOL    HW221561   2.299   0.785   3.417 -0.2433  0.7086 -0.8822
 3368SOL     OW21562   3.204   3.062   8.940 -0.7875 -0.6617 -0.2271
 3368SOL    HW121563   3.163   2.990   8.987 -1.5326 -0.0784  0.0107
 3368SOL    HW221564   3.142   3.132   8.960  0.7973  0.9581 -0.9710
 3369SOL     OW21565   0.324   3.474   1.334 -0.1382 -0.1544  0.3744
 3369SOL    HW121566   0.266   3.533   1.383  1.3428 -1.2223  3.4551
 3369SOL    HW221567   0.249   3.428   1.296 -0.7949  0.9342  0.3622
 3370SOL     OW21568   3.589   1.284   6.598 -0.0566  0.1701  0.7360
 3370SOL    HW121569   3.498   1.301   6.624  0.5936  1.1530  2.3459
 3370SOL    HW221570   3.586   1.230   6.519  4.3134  2.2112 -0.8165
 3371SOL     OW21571   4.333   4.207  15.386  0.6651  0.6121 -0.3121
 3371SOL    HW121572   4.241   4.226  15.403  0.2588 -0.5902 -1.1116
 3371SOL    HW221573   4.371   4.215  15.473 -0.7508  1.8843  0.1677
 3372SOL     OW21574   4.340   0.887  16.797 -0.3304  0.3737 -0.2695
 3372SOL    HW121575   4.396   0.861  16.724 -1.9213 -1.8295 -0.7012
 3372SOL    HW221576   4.362   0.980  16.805  3.3415 -0.3723 -1.5235
 3373SOL     OW21577   1.765   0.727  15.309 -0.0796  0.7067 -0.2352
 3373SOL    HW121578   1.709   0.714  15.233  0.8479 -0.1319 -0.7782
 3373SOL    HW221579   1.710   0.775  15.371 -0.8609  1.8254 -1.7871
 3374SOL     OW21580   4.368   3.453   6.600 -0.1259  0.0549  0.1334
 3374SOL    HW121581   4.321   3.408   6.529  1.6880 -0.8443 -0.4891
 3374SOL    HW221582   4.294   3.494   6.646 -0.4365  2.8345 -2.8494
 3375SOL     OW21583   0.733   1.034  16.517  0.6282  0.4164 -0.1692
 3375SOL    HW121584   0.779   1.063  16.438  1.6585 -2.5105 -0.6620
 3375SOL    HW221585   0.671   0.968  16.485  2.1330 -0.7706 -0.6902
 3376SOL     OW21586   0.751   0.830   2.697  0.1422  0.1099 -0.0124
 3376SOL    HW121587   0.710   0.839   2.611 -0.6534 -1.4606  0.2102
 3376SOL    HW221588   0.828   0.778   2.676  1.1253  2.4659 -2.3701
 3377SOL     OW21589   2.346   2.674   4.737  0.4780  0.2204  0.3632
 3377SOL    HW121590   2.385   2.689   4.823 -2.4842 -0.0582  1.7302
 3377SOL    HW221591   2.341   2.579   4.730  0.0797  0.2344  0.4333
 3378SOL     OW21592   2.801   1.024   7.597  0.2706  0.1539  0.0750
 3378SOL    HW121593   2.825   1.116   7.610 -1.8320  0.7985 -0.5086
 3378SOL    HW221594   2.754   1.005   7.678 -1.2611  2.6752 -0.2269
 3379SOL     OW21595   3.215   0.271   7.466 -0.6391 -0.0775  0.3025
 3379SOL    HW121596   3.174   0.353   7.439  1.2090  1.0145  0.8143
 3379SOL    HW221597   3.274   0.248   7.393 -1.3646  1.6679 -0.8225
 3380SOL     OW21598   3.359   3.503   2.703  0.6933 -0.6034  0.2097
 3380SOL    HW121599   3.285   3.521   2.761 -1.4088 -1.9019 -2.0805
 3380SOL    HW221600   3.395   3.591   2.692 -0.8250 -0.0031  0.0684
 3381SOL     OW21601   4.056   4.553   4.583 -0.1098  0.2892  0.1928
 3381SOL    HW121602   4.123   4.601   4.535  1.0250 -0.9513  0.5534
 3381SOL    HW221603   3.976   4.578   4.536  0.2395 -0.0768 -0.5992
 3382SOL     OW21604   1.225   1.673   6.085 -0.0398  0.1747  0.0346
 3382SOL    HW121605   1.287   1.689   6.013 -1.5300 -3.7794 -2.1354
 3382SOL    HW221606   1.143   1.697   6.041 -0.6118 -0.9334  0.4784
 3383SOL     OW21607   3.298   4.367   3.359 -0.2395 -0.3774 -0.3700
 3383SOL    HW121608   3.272   4.349   3.269  0.6826  1.2929 -0.9840
 3383SOL    HW221609   3.270   4.284   3.398 -0.1392  0.0021  0.5169
 3384SOL     OW21610   3.823   0.317  12.317  0.5024  0.8074 -0.7683
 3384SOL    HW121611   3.745   0.367  12.341 -0.9455 -1.9231  0.1908
 3384SOL    HW221612   3.862   0.370  12.248  0.1547  0.1812 -1.4452
 3385SOL     OW21613   4.350   2.388  14.323  0.6775 -0.1428  0.4030
 3385SOL    HW121614   4.321   2.469  14.280 -2.4117 -0.9832  0.8512
 3385SOL    HW221615   4.364   2.420  14.411 -2.5095 -0.0294  0.8939
 3386SOL     OW21616   0.729   0.797   3.117 -0.1167  0.5461 -0.8105
 3386SOL    HW121617   0.680   0.859   3.064 -2.3723 -0.1101  0.4905
 3386SOL    HW221618   0.658   0.755   3.166  2.1116  0.8487  2.7063
 3387SOL     OW21619   2.679   1.396  15.966  0.1967  0.1058 -0.5545
 3387SOL    HW121620   2.752   1.401  15.904  0.4126 -0.0251 -0.3078
 3387SOL    HW221621   2.664   1.488  15.988 -1.8566 -0.2732 -0.3733
 3388SOL     OW21622   3.514   1.799   8.198  0.4300 -0.5200 -0.2453
 3388SOL    HW121623   3.419   1.805   8.209  0.6516  0.0220  1.3268
 3388SOL    HW221624   3.537   1.883   8.158  3.2225 -1.2514 -0.1564
 3389SOL     OW21625   1.005   2.668   2.523  0.5376  0.2704 -0.1545
 3389SOL    HW121626   1.003   2.763   2.533 -0.5050  0.4093 -1.5225
 3389SOL    HW221627   1.090   2.661   2.480  1.1555  0.7453  0.9928
 3390SOL     OW21628   3.665   1.565   6.337 -0.0360  0.1373  0.5914
 3390SOL    HW121629   3.597   1.632   6.346 -1.6965 -1.5090  0.2681
 3390SOL    HW221630   3.714   1.596   6.261  1.3536 -0.5692  1.2079
 3391SOL     OW21631   3.748   0.137   4.251  0.4935 -0.3104  0.1677
 3391SOL    HW121632   3.740   0.233   4.251 -0.5282 -0.3993  0.8265
 3391SOL    HW221633   3.709   0.134   4.164  1.2785 -1.7536 -0.1329
 3392SOL     OW21634   3.173   2.033  10.012 -0.1108 -0.2333  0.2349
 3392SOL    HW121635   3.178   1.965  10.080  1.4395 -1.2583 -0.9039
 3392SOL    HW221636   3.079   2.030   9.996 -0.3242  0.7344  1.3048
 3393SOL     OW21637   3.272   1.188   3.407  0.6810 -0.0271 -0.2907
 3393SOL    HW121638   3.260   1.101   3.369  1.3551 -0.4611  0.4832
 3393SOL    HW221639   3.265   1.240   3.326 -3.6268 -0.4581 -0.1717
 3394SOL     OW21640   3.248   3.128  11.778  0.5088 -0.8087 -0.1087
 3394SOL    HW121641   3.210   3.084  11.854  1.8454  1.8990  2.0995
 3394SOL    HW221642   3.177   3.186  11.751  2.7153  2.5544  1.3813
 3395SOL     OW21643   0.838   3.640   2.329  0.5607 -0.1374 -0.4110
 3395SOL    HW121644   0.930   3.664   2.320  0.3492  1.4051  1.4540
 3395SOL    HW221645   0.807   3.635   2.238  2.6355  0.2999 -1.1364
 3396SOL     OW21646   2.036   1.182   7.597  0.2223  0.8897 -0.3209
 3396SOL    HW121647   1.945   1.181   7.627  0.9353 -0.3761  1.8286
 3396SOL    HW221648   2.079   1.210   7.678  0.1651 -0.4196  0.1673
 3397SOL     OW21649   2.792   3.738   3.345 -0.0230 -0.3150 -0.0151
 3397SOL    HW121650   2.750   3.693   3.418 -1.6529  1.2624  0.0164
 3397SOL    HW221651   2.719   3.781   3.299  2.0985 -0.7340 -3.8338
 3398SOL     OW21652   3.103   3.797   2.823 -0.6332 -0.2549 -0.2932
 3398SOL    HW121653   3.054   3.825   2.901 -2.3907  1.3906 -1.9960
 3398SOL    HW221654   3.141   3.719   2.864 -2.5020 -0.9583  0.0999
 3399SOL     OW21655   1.662   0.482   4.476  0.2760 -0.1188  0.2309
 3399SOL    HW121656   1.716   0.427   4.419 -0.3409  1.6370 -2.0548
 3399SOL    HW221657   1.578   0.463   4.434 -0.8501  0.3768  2.2486
 3400SOL     OW21658   3.130   3.029   7.182  0.1282 -0.3691 -0.4582
 3400SOL    HW121659   3.040   3.059   7.177 -0.0968 -1.0738 -0.6176
 3400SOL    HW221660   3.141   2.996   7.271  1.0050  0.3337 -0.3021
 3401SOL     OW21661   1.565   3.154  16.365  1.1076 -0.2443 -0.4502
 3401SOL    HW121662   1.570   3.063  16.334  0.3008 -0.4183 -0.0692
 3401SOL    HW221663   1.656   3.182  16.352  0.6793  1.1142 -0.4991
 3402SOL     OW21664   1.341   2.545  10.763  0.1473  0.0318 -0.1536
 3402SOL    HW121665   1.433   2.520  10.763 -0.7770 -3.4176 -0.1307
 3402SOL    HW221666   1.333   2.622  10.706 -2.8984 -0.1982 -0.0589
 3403SOL     OW21667   3.259   1.395   4.922  0.3998 -0.1192 -0.1845
 3403SOL    HW121668   3.265   1.306   4.889  0.6159  0.1566 -0.8915
 3403SOL    HW221669   3.279   1.391   5.016  0.6564 -0.8252 -0.2741
 3404SOL     OW21670   2.961   3.548   5.764  0.0210 -0.3839 -0.0136
 3404SOL    HW121671   2.960   3.592   5.679 -0.6400  1.8692  1.1806
 3404SOL    HW221672   2.996   3.623   5.811 -0.2271 -0.5391  0.4097
 3405SOL     OW21673   3.056   4.243   8.766 -0.0924  0.0809  0.4257
 3405SOL    HW121674   2.984   4.295   8.803  0.6493  0.8291  0.8201
 3405SOL    HW221675   3.015   4.215   8.685  0.6070 -1.6769  0.6863
 3406SOL     OW21676   4.646   4.459   7.791 -0.0289  0.0493  0.5666
 3406SOL    HW121677   4.570   4.500   7.833 -0.0310  0.0611  0.5513
 3406SOL    HW221678   4.637   4.374   7.834  0.1272 -1.0159 -1.4932
 3407SOL     OW21679   4.279   3.194  12.067  0.1918  0.3035  0.2077
 3407SOL    HW121680   4.239   3.114  12.101 -1.9240  1.8564  1.3157
 3407SOL    HW221681   4.373   3.182  12.084 -0.2002 -1.5449  1.0462
 3408SOL     OW21682   4.590   2.075   3.686 -0.0113  0.2530 -0.4517
 3408SOL    HW121683   4.560   2.159   3.650 -1.6777  0.6634  1.9182
 3408SOL    HW221684   4.675   2.074   3.640 -0.7826 -2.8007 -1.7996
 3409SOL     OW21685   2.592   0.853   6.419  0.8055  0.4397  0.8569
 3409SOL    HW121686   2.657   0.785   6.438  1.7247  0.9874 -0.2724
 3409SOL    HW221687   2.524   0.838   6.484  1.8563  0.3269  1.9282
 3410SOL     OW21688   4.537   4.367   5.304  0.0414  0.1019 -0.0749
 3410SOL    HW121689   4.449   4.394   5.329 -0.6280 -3.4981  1.4236
 3410SOL    HW221690   4.574   4.326   5.383  1.3936 -0.5542 -1.0490
 3411SOL     OW21691   0.783   1.032   5.615  0.2065  0.1020 -0.9968
 3411SOL    HW121692   0.756   1.115   5.575  1.0543  0.8464 -0.0217
 3411SOL    HW221693   0.706   1.000   5.663  0.9683 -0.4637 -0.1619
 3412SOL     OW21694   1.686   1.380   4.738 -0.1934 -0.0519  0.0419
 3412SOL    HW121695   1.738   1.353   4.662  0.4074 -0.5248  0.6147
 3412SOL    HW221696   1.642   1.458   4.707  1.0280 -0.2401 -2.1385
 3413SOL     OW21697   2.999   3.533   3.303  0.4469 -0.1740 -0.3878
 3413SOL    HW121698   2.929   3.580   3.257 -0.2490  1.2420  2.1593
 3413SOL    HW221699   2.957   3.450   3.328  1.0423 -0.8926 -1.7495
 3414SOL     OW21700   0.055   0.609   9.228 -0.1943  0.9140  0.2759
 3414SOL    HW121701   4.683   0.623   9.227 -0.3300 -0.0029  1.1142
 3414SOL    HW221702   0.056   0.562   9.311  1.4446  1.7974  0.7660
 3415SOL     OW21703   2.011   3.258  12.591  0.8914 -0.0864  0.4222
 3415SOL    HW121704   2.054   3.272  12.507 -1.5587  0.1393 -0.7905
 3415SOL    HW221705   2.079   3.278  12.656  0.9742 -0.6566  0.5120
 3416SOL     OW21706   4.162   4.024   8.605 -0.9544  0.0020 -0.3002
 3416SOL    HW121707   4.142   4.012   8.698  2.5640 -0.0194  0.4818
 3416SOL    HW221708   4.118   4.104   8.578 -1.6843 -1.0932 -2.2931
 3417SOL     OW21709   2.263   2.969   4.383 -0.0296 -0.0233 -0.1774
 3417SOL    HW121710   2.225   2.918   4.312 -0.5663 -1.4417  1.1256
 3417SOL    HW221711   2.275   3.058   4.351  1.0340 -0.2694 -0.4609
 3418SOL     OW21712   4.071   4.643   0.866  0.0417  0.0548  0.3479
 3418SOL    HW121713   4.108   4.557   0.890  0.3615  0.3538  0.9406
 3418SOL    HW221714   3.997   4.654   0.926  0.1426  1.9837  0.1160
 3419SOL     OW21715   3.881   2.271   6.867  0.4396  0.0840  0.4108
 3419SOL    HW121716   3.960   2.226   6.897 -0.5122 -1.4420  0.6123
 3419SOL    HW221717   3.828   2.192   6.856  1.8685 -0.9583  0.9344
 3420SOL     OW21718   2.341   3.412   5.195 -0.1884 -0.4052 -0.0491
 3420SOL    HW121719   2.364   3.328   5.235  0.0956 -0.3363 -0.0703
 3420SOL    HW221720   2.378   3.399   5.108  0.2875  1.2493 -0.0859
 3421SOL     OW21721   3.810   0.395   2.435  0.0577 -0.3852 -0.8220
 3421SOL    HW121722   3.859   0.469   2.398 -0.9820  0.0223 -1.3825
 3421SOL    HW221723   3.869   0.323   2.414 -0.5065 -0.3104 -2.6692
 3422SOL     OW21724   0.932   0.920   9.207 -0.2055 -0.1785  0.0681
 3422SOL    HW121725   0.939   1.012   9.181 -1.5487  0.0080  0.3531
 3422SOL    HW221726   0.974   0.916   9.293  1.6595 -0.1128 -0.8498
 3423SOL     OW21727   3.497   0.235   2.938 -0.1414  0.6973  0.3539
 3423SOL    HW121728   3.575   0.226   2.994  0.1964  2.0493  0.1145
 3423SOL    HW221729   3.528   0.196   2.857  0.2574  1.5293  0.1048
 3424SOL     OW21730   4.088   1.140   7.658 -0.4921 -0.2710 -0.2621
 3424SOL    HW121731   4.019   1.202   7.682 -0.2161 -1.0468  2.5350
 3424SOL    HW221732   4.126   1.183   7.581 -1.2882 -0.2652 -0.6483
 3425SOL     OW21733   2.100   1.588   5.124  0.5056  0.1154 -0.1729
 3425SOL    HW121734   2.185   1.625   5.100  0.5826 -0.3390 -0.5902
 3425SOL    HW221735   2.116   1.496   5.104 -0.3473  0.3191 -1.7507
 3426SOL     OW21736   3.961   0.738   3.502  0.1013 -0.1174 -0.1626
 3426SOL    HW121737   3.976   0.806   3.568 -0.5684  0.0181 -0.1583
 3426SOL    HW221738   4.000   0.790   3.432  0.5665 -0.2190  0.0166
 3427SOL     OW21739   0.220   2.510   7.696 -0.1539 -0.4674  0.3830
 3427SOL    HW121740   0.167   2.537   7.771  4.1373 -1.6157  3.8101
 3427SOL    HW221741   0.174   2.542   7.618  2.7788 -0.5293 -1.3851
 3428SOL     OW21742   2.272   1.804  14.670  0.0332  0.3650 -0.4772
 3428SOL    HW121743   2.275   1.853  14.753 -0.2347 -0.7977  0.2095
 3428SOL    HW221744   2.185   1.766  14.676 -0.1500  0.8240 -0.1664
 3429SOL     OW21745   1.966   2.083  14.576 -0.1331  0.4137 -0.2676
 3429SOL    HW121746   2.018   2.059  14.499  0.1534  0.1649  0.0039
 3429SOL    HW221747   1.969   2.001  14.626  2.0227 -0.3206 -1.5709
 3430SOL     OW21748   1.002   1.359  17.016  0.1422 -0.5841  0.6602
 3430SOL    HW121749   1.040   1.397  17.095  0.2512 -0.4147  0.5248
 3430SOL    HW221750   0.912   1.335  17.040 -0.8006 -0.1959 -2.5057
 3431SOL     OW21751   0.784   4.136   4.050  0.6586  0.0551 -0.3336
 3431SOL    HW121752   0.868   4.168   4.018 -0.6438  2.1404 -1.6649
 3431SOL    HW221753   0.791   4.157   4.143  0.7178 -0.9469 -0.1098
 3432SOL     OW21754   2.215   1.514   3.238 -0.6579  0.1043  0.3879
 3432SOL    HW121755   2.164   1.596   3.244 -0.4854  0.4771 -2.9166
 3432SOL    HW221756   2.297   1.548   3.274 -1.0747  1.5034  0.0190
 3433SOL     OW21757   3.392   4.585   6.519 -0.4345 -0.1150  0.7186
 3433SOL    HW121758   3.431   4.509   6.562 -2.3980 -1.1883  0.5962
 3433SOL    HW221759   3.300   4.559   6.508  0.3217 -1.9808 -1.2087
 3434SOL     OW21760   3.614   2.371   5.746 -0.4533  0.4279  0.2727
 3434SOL    HW121761   3.549   2.365   5.815  0.4927 -0.2206  1.0967
 3434SOL    HW221762   3.555   2.384   5.671  1.2187  1.1356 -0.9316
 3435SOL     OW21763   1.338   2.646   3.497 -0.4526  0.4985 -0.1650
 3435SOL    HW121764   1.257   2.662   3.545  0.5618  0.2191  1.6424
 3435SOL    HW221765   1.359   2.556   3.525 -0.1677 -0.4179 -3.3282
 3436SOL     OW21766   2.064   0.165   4.300 -0.3194  0.1054  0.0493
 3436SOL    HW121767   2.057   0.082   4.347  0.2249  1.3220  2.2833
 3436SOL    HW221768   2.066   0.132   4.210  0.4298 -0.8426  0.4135
 3437SOL     OW21769   0.161   1.109  15.084 -0.6449  0.1546  0.0083
 3437SOL    HW121770   0.213   1.189  15.082 -0.3119 -0.0859 -0.7511
 3437SOL    HW221771   0.164   1.083  15.176 -2.7258 -1.6913 -0.4659
 3438SOL     OW21772   0.747   4.283   5.690 -0.0211 -0.2515  0.5353
 3438SOL    HW121773   0.692   4.250   5.762 -1.2110 -0.1379 -0.3251
 3438SOL    HW221774   0.716   4.370   5.667 -1.0213 -0.8959 -0.5413
 3439SOL     OW21775   1.121   2.432   3.916 -0.1252  0.7999 -0.2902
 3439SOL    HW121776   1.063   2.379   3.863  0.9539 -1.0785  0.4134
 3439SOL    HW221777   1.100   2.411   4.007 -1.7052  1.9482 -0.3945
 3440SOL     OW21778   3.013   4.195   8.360 -0.3082  0.2164 -0.3891
 3440SOL    HW121779   2.935   4.243   8.387 -1.2496 -0.4182 -1.9634
 3440SOL    HW221780   2.985   4.147   8.282  0.9994  0.8959 -1.2807
 3441SOL     OW21781   2.082   0.911   3.816  0.1026  0.4474  1.1719
 3441SOL    HW121782   2.139   0.962   3.873 -0.6435  0.0481  2.2809
 3441SOL    HW221783   2.019   0.871   3.876 -2.4201  1.3639 -0.8663
 3442SOL     OW21784   3.745   3.283   0.458  0.3752 -0.3711 -0.5869
 3442SOL    HW121785   3.665   3.253   0.501  0.8215  1.9419  1.7871
 3442SOL    HW221786   3.701   3.348   0.403  0.2577  0.3465  0.3548
 3443SOL     OW21787   1.796   0.979   7.816  0.0720 -0.1873  0.9953
 3443SOL    HW121788   1.746   0.999   7.895  0.4634 -1.1910  1.4941
 3443SOL    HW221789   1.791   1.061   7.766 -3.3288 -1.1016 -0.1572
 3444SOL     OW21790   1.371   1.575  10.868  0.3550  0.6156 -0.5826
 3444SOL    HW121791   1.403   1.487  10.886 -3.7962 -0.8315 -0.3331
 3444SOL    HW221792   1.444   1.628  10.902  0.4241 -0.0620  0.3188
 3445SOL     OW21793   4.386   3.240   1.989 -0.0129  0.9308 -0.2343
 3445SOL    HW121794   4.325   3.292   1.938  1.2273  0.2525 -2.4258
 3445SOL    HW221795   4.327   3.200   2.053 -0.2159 -1.7042 -2.0672
 3446SOL     OW21796   1.652   1.719   9.802  0.3022  0.0318 -0.1607
 3446SOL    HW121797   1.571   1.669   9.795 -0.1091  0.7497 -0.5208
 3446SOL    HW221798   1.653   1.754   9.713 -1.1732  0.8120  0.1252
 3447SOL     OW21799   3.842   3.359   6.138  0.3617 -0.3246 -0.8302
 3447SOL    HW121800   3.909   3.381   6.074  1.7394  0.3441  0.8347
 3447SOL    HW221801   3.775   3.319   6.082 -0.7154 -1.3790  1.2090
 3448SOL     OW21802   0.599   2.110  11.752 -0.3483  0.5524 -0.2469
 3448SOL    HW121803   0.662   2.042  11.727 -1.3887 -0.2086 -0.7992
 3448SOL    HW221804   0.570   2.076  11.836  0.8442  1.8558  0.6919
 3449SOL     OW21805   0.468   3.336  10.346 -0.3172  0.4881 -0.2849
 3449SOL    HW121806   0.465   3.241  10.351  1.1258  0.4868  0.5160
 3449SOL    HW221807   0.381   3.369  10.369 -0.4401 -0.6329  0.8247
 3450SOL     OW21808   3.676   0.133   3.146  0.0773 -0.2089  0.2462
 3450SOL    HW121809   3.696   0.054   3.096  0.6443 -1.0709  1.8227
 3450SOL    HW221810   3.607   0.097   3.202  0.2252  0.2151  0.7042
 3451SOL     OW21811   4.391   3.441   4.621 -0.3226  0.2540 -0.3681
 3451SOL    HW121812   4.346   3.511   4.667 -0.3708 -0.3163  0.4525
 3451SOL    HW221813   4.318   3.386   4.593  0.0931 -0.9211  0.8400
 3452SOL     OW21814   2.944   2.175   7.366  1.0474  0.0087  0.1644
 3452SOL    HW121815   2.910   2.119   7.436  2.4607 -0.5855  0.3861
 3452SOL    HW221816   2.866   2.173   7.311  0.0642 -1.5357  1.5991
 3453SOL     OW21817   0.843   3.131  13.977 -0.1696 -0.2536 -0.1071
 3453SOL    HW121818   0.935   3.156  13.972  0.0892 -1.2504 -0.3453
 3453SOL    HW221819   0.801   3.217  13.973  0.7430  0.1521 -1.0662
 3454SOL     OW21820   3.450   4.427   4.833  0.3850 -0.5901  0.4490
 3454SOL    HW121821   3.362   4.403   4.803  0.7415 -0.8339 -0.3835
 3454SOL    HW221822   3.503   4.453   4.758 -0.1429  2.2078  1.0483
 3455SOL     OW21823   3.672   2.821  10.398 -0.4785 -0.3375  0.1611
 3455SOL    HW121824   3.591   2.771  10.408 -0.6799 -0.2124 -0.8995
 3455SOL    HW221825   3.733   2.771  10.453  0.3804 -0.4665 -0.9092
 3456SOL     OW21826   2.724   0.312   4.872 -0.2862  0.1652  0.3231
 3456SOL    HW121827   2.629   0.301   4.880  0.1309 -2.9455  0.7319
 3456SOL    HW221828   2.745   0.368   4.948 -0.8603  1.7676 -0.7052
 3457SOL     OW21829   2.757   2.207   3.807  0.1331  0.6375 -0.3549
 3457SOL    HW121830   2.826   2.256   3.851 -1.8214  0.5818  2.7811
 3457SOL    HW221831   2.756   2.247   3.720  0.2770 -0.6528 -0.9541
 3458SOL     OW21832   2.115   0.195   8.679  0.3637  0.0113 -0.2010
 3458SOL    HW121833   2.059   0.245   8.738  1.2179 -1.7922  2.1353
 3458SOL    HW221834   2.093   0.106   8.705  0.5014  0.0507  0.0448
 3459SOL     OW21835   0.335   3.978   4.350 -0.1502  0.3172  0.2046
 3459SOL    HW121836   0.421   4.019   4.345  0.4376 -1.2857 -2.8811
 3459SOL    HW221837   0.278   4.052   4.326  0.0308 -0.3163 -2.2115
 3460SOL     OW21838   3.375   0.382   5.386 -0.3424 -0.1002 -0.2467
 3460SOL    HW121839   3.296   0.421   5.349 -0.4732 -0.6257 -0.5363
 3460SOL    HW221840   3.338   0.311   5.439  3.1550 -0.6364  1.4428
 3461SOL     OW21841   4.526   4.227   8.482  0.2688 -0.1854  0.0615
 3461SOL    HW121842   4.581   4.161   8.524  0.5638 -1.7538 -2.8031
 3461SOL    HW221843   4.505   4.292   8.549 -0.1744  0.4878 -0.7142
 3462SOL     OW21844   0.899   2.117  17.586  0.1276 -0.0100 -0.2392
 3462SOL    HW121845   0.897   2.105  17.491 -0.6495 -1.3837 -0.0474
 3462SOL    HW221846   0.850   2.039  17.613 -1.5472  0.7610 -1.0936
 3463SOL     OW21847   2.014   0.695   5.450  0.5519  0.3590 -0.0949
 3463SOL    HW121848   1.970   0.620   5.410  0.1259  0.4096  0.2662
 3463SOL    HW221849   2.051   0.649   5.525  0.5281  0.1550 -0.2092
 3464SOL     OW21850   0.148   4.356   8.484  0.2677 -0.2625 -0.4928
 3464SOL    HW121851   0.197   4.385   8.561  0.1428  0.2484 -0.6049
 3464SOL    HW221852   0.210   4.292   8.449 -0.5284 -0.7965 -0.9252
 3465SOL     OW21853   0.519   3.121  16.711  0.3154 -0.0841  0.0365
 3465SOL    HW121854   0.539   3.058  16.779  0.2250 -0.1886 -0.0339
 3465SOL    HW221855   0.530   3.070  16.630  1.6029  1.0673 -0.5245
 3466SOL     OW21856   1.436   2.731   5.091  0.7943 -0.5657 -0.8213
 3466SOL    HW121857   1.374   2.800   5.113  1.4696 -0.3676  0.4469
 3466SOL    HW221858   1.518   2.774   5.116  1.6530 -1.3687 -2.2552
 3467SOL     OW21859   4.549   3.729   7.372  0.1613  0.4501  0.2183
 3467SOL    HW121860   4.633   3.720   7.418  0.3793 -0.3822 -0.3557
 3467SOL    HW221861   4.549   3.821   7.345 -0.2590 -0.0352 -1.4115
 3468SOL     OW21862   3.774   2.834  12.590  0.7721 -1.0355 -0.4537
 3468SOL    HW121863   3.801   2.837  12.498  1.4501 -1.1931 -0.2572
 3468SOL    HW221864   3.777   2.739  12.597  1.7705 -0.9337  0.4395
 3469SOL     OW21865   1.403   0.432   5.553  0.8550  0.1226  1.0814
 3469SOL    HW121866   1.388   0.523   5.526  0.8785  0.3411  1.7958
 3469SOL    HW221867   1.498   0.437   5.565  0.8929 -0.3884  0.9822
 3470SOL     OW21868   1.531   1.024   5.860  0.1793 -0.2129 -0.2862
 3470SOL    HW121869   1.512   1.107   5.816 -0.5692 -0.7057 -0.8874
 3470SOL    HW221870   1.482   0.968   5.801  1.0472  0.4262 -1.6038
 3471SOL     OW21871   3.687   1.173  14.499  0.5589 -0.3547 -0.2118
 3471SOL    HW121872   3.674   1.083  14.527  0.8747 -0.3506 -0.0486
 3471SOL    HW221873   3.597   1.204  14.511  0.8921  1.1897 -1.6043
 3472SOL     OW21874   0.216   2.369  14.467 -0.1166 -0.7861  0.3543
 3472SOL    HW121875   0.261   2.422  14.533  1.8375 -2.4179  0.3077
 3472SOL    HW221876   0.182   2.432  14.403 -1.2325 -2.0986 -0.3320
 3473SOL     OW21877   2.422   0.482   3.235  0.1242 -0.5973 -0.2080
 3473SOL    HW121878   2.445   0.574   3.253  0.0036 -0.1999 -2.0192
 3473SOL    HW221879   2.371   0.462   3.313  0.0968 -3.3888 -0.9511
 3474SOL     OW21880   1.391   4.061   3.322  0.4299  0.3238 -0.3146
 3474SOL    HW121881   1.472   4.070   3.272  0.1412  1.3466 -0.6045
 3474SOL    HW221882   1.354   3.998   3.260 -1.6896 -0.3207  1.5751
 3475SOL     OW21883   1.735   2.967   6.185  0.1660  0.0929  0.2554
 3475SOL    HW121884   1.679   2.951   6.261  2.2439 -0.3002  1.7170
 3475SOL    HW221885   1.760   3.058   6.201  3.6239 -1.3845  3.3903
 3476SOL     OW21886   1.045   3.650   9.266  0.4171 -0.0715  0.1854
 3476SOL    HW121887   1.032   3.652   9.171 -0.7027  2.6295  0.3786
 3476SOL    HW221888   1.028   3.743   9.283 -1.2227  0.2691 -3.3351
 3477SOL     OW21889   3.706   2.349   2.654  0.3909 -0.3766 -0.0225
 3477SOL    HW121890   3.723   2.404   2.578 -0.2256 -0.9458 -0.5722
 3477SOL    HW221891   3.624   2.385   2.686  0.3726  0.2248 -0.7427
 3478SOL     OW21892   2.165   4.112   4.524 -0.0440 -0.0873 -0.0111
 3478SOL    HW121893   2.152   4.017   4.521  2.3329 -0.4762  1.5500
 3478SOL    HW221894   2.109   4.143   4.453  0.1586  0.1244 -0.0798
 3479SOL     OW21895   3.990   1.442   1.981 -0.1112  0.2800 -0.3603
 3479SOL    HW121896   3.984   1.348   1.999 -0.4454  0.5067  0.7460
 3479SOL    HW221897   4.027   1.480   2.061  1.2495 -2.2381  0.1831
 3480SOL     OW21898   2.027   4.216  17.433  0.2070 -0.3541 -0.2556
 3480SOL    HW121899   2.102   4.204  17.375  1.5710 -1.3047  1.6787
 3480SOL    HW221900   2.071   4.239  17.515  1.2622 -1.0587 -0.6155
 3481SOL     OW21901   2.903   2.190   4.426 -0.4956 -0.6160 -0.5837
 3481SOL    HW121902   2.963   2.187   4.351  0.3830  1.0042  0.0599
 3481SOL    HW221903   2.941   2.122   4.481  0.6163  0.3243 -0.1987
 3482SOL     OW21904   3.780   2.196   9.959  0.2778  0.4244 -0.2424
 3482SOL    HW121905   3.686   2.214   9.963  0.3001  0.5110 -0.1140
 3482SOL    HW221906   3.796   2.143   9.881  2.6167 -1.6502  1.6961
 3483SOL     OW21907   0.809   1.512   5.786 -0.0150 -0.2508 -0.1510
 3483SOL    HW121908   0.855   1.430   5.806 -0.3367 -0.1516  1.0006
 3483SOL    HW221909   0.739   1.513   5.852 -0.3380 -0.2388 -0.4927
 3484SOL     OW21910   4.583   1.202   0.008 -0.0800 -0.2936 -0.2702
 3484SOL    HW121911   4.546   1.114  17.691  1.6841 -1.1107  0.3760
 3484SOL    HW221912   4.677   1.187  17.688  0.1743  2.0289 -1.1402
 3485SOL     OW21913   4.664   1.140   9.206  0.1097  0.0959 -0.0601
 3485SOL    HW121914   0.028   1.171   9.179  0.5762 -1.5707 -0.4724
 3485SOL    HW221915   4.608   1.216   9.194 -0.7904 -0.4886  0.4386
 3486SOL     OW21916   4.490   0.439   7.303 -0.6445 -0.7572 -0.0476
 3486SOL    HW121917   4.455   0.464   7.217  2.9299  1.7379 -0.7275
 3486SOL    HW221918   4.410   0.403   7.343 -1.4071 -0.3609 -1.2001
 3487SOL     OW21919   0.428   3.836  15.512  0.2947  0.2070  0.6548
 3487SOL    HW121920   0.353   3.849  15.453  0.5604 -0.9321  0.0450
 3487SOL    HW221921   0.488   3.781  15.460  0.4975  1.6685 -0.6677
 3488SOL     OW21922   3.582   2.372   7.863  0.3411  0.2205  0.1223
 3488SOL    HW121923   3.572   2.343   7.773  0.1795 -1.7929  0.7916
 3488SOL    HW221924   3.542   2.300   7.911 -1.7412  0.9346 -0.5830
 3489SOL     OW21925   1.794   0.162   5.410  0.4702 -0.2734 -0.0430
 3489SOL    HW121926   1.792   0.086   5.352 -1.4573 -0.0053 -0.3214
 3489SOL    HW221927   1.716   0.148   5.463  0.8572  1.6952  1.0495
 3490SOL     OW21928   1.603   3.209   6.041  0.4638 -0.4734 -0.2881
 3490SOL    HW121929   1.655   3.241   6.115  2.5089  2.3144 -2.9374
 3490SOL    HW221930   1.518   3.227   6.081  0.9783  2.3472 -0.4850
 3491SOL     OW21931   3.928   3.201  14.513 -0.2374 -0.1560 -0.2662
 3491SOL    HW121932   3.933   3.288  14.474  1.9631 -0.8368 -1.4913
 3491SOL    HW221933   3.832   3.197  14.524 -0.6276 -0.6650 -4.0661
 3492SOL     OW21934   0.072   0.137  11.238  0.3351 -0.2448  0.0819
 3492SOL    HW121935   0.012   0.096  11.176 -0.0412 -0.1601  0.3892
 3492SOL    HW221936   0.154   0.088  11.233  0.1543 -0.2409 -2.8484
 3493SOL     OW21937   1.118   2.634  17.293 -0.3130 -0.0203  0.6879
 3493SOL    HW121938   1.114   2.539  17.282 -0.4136  0.0022  0.5354
 3493SOL    HW221939   1.128   2.659  17.201 -1.9766  1.5977  0.9430
 3494SOL     OW21940   2.222   0.412   3.937 -0.0237  0.7234 -0.0230
 3494SOL    HW121941   2.298   0.448   3.892  1.6026 -1.9045  0.5857
 3494SOL    HW221942   2.263   0.346   3.993 -1.2372 -3.2770 -3.8590
 3495SOL     OW21943   2.215   2.499  10.738  0.1190 -0.3541 -0.3883
 3495SOL    HW121944   2.157   2.499  10.815  0.2082  0.5173 -0.3239
 3495SOL    HW221945   2.170   2.555  10.676 -2.6076  2.7329  4.3463
 3496SOL     OW21946   1.672   2.236   1.764  0.7581  0.1917 -0.3658
 3496SOL    HW121947   1.580   2.249   1.783  0.9743  1.8317 -0.4866
 3496SOL    HW221948   1.701   2.325   1.784 -1.6480  0.5472  1.5482
 3497SOL     OW21949   3.790   3.832  16.297 -0.3815 -0.3467  0.5116
 3497SOL    HW121950   3.773   3.857  16.206 -1.5013  1.3927  1.1965
 3497SOL    HW221951   3.810   3.741  16.277 -2.8634 -0.7167 -0.1837
 3498SOL     OW21952   2.939   3.596  13.453  0.5227  0.3091  0.2145
 3498SOL    HW121953   3.025   3.636  13.469  1.3716 -1.0081 -1.0072
 3498SOL    HW221954   2.982   3.525  13.405 -1.7874  0.7836 -2.5619
 3499SOL     OW21955   3.985   0.587  13.042  0.4054 -0.0745 -0.4050
 3499SOL    HW121956   3.940   0.655  13.093 -0.1059 -0.9383  0.2975
 3499SOL    HW221957   3.998   0.636  12.961 -1.0621 -0.5302 -0.9141
 3500SOL     OW21958   1.865   4.577  12.446 -0.3006  0.1916 -0.3481
 3500SOL    HW121959   1.772   4.598  12.439 -0.6537 -1.4713 -0.5516
 3500SOL    HW221960   1.879   4.600  12.538 -0.2775  1.3840 -0.6443
 3501SOL     OW21961   2.563   1.097  16.097 -0.3253 -0.3312 -0.2613
 3501SOL    HW121962   2.623   1.146  16.154  0.7874 -0.7916 -1.0317
 3501SOL    HW221963   2.592   1.138  16.015 -0.3507 -0.9615 -0.5805
 3502SOL     OW21964   4.529   1.896   2.574 -0.1690 -0.2408  0.1568
 3502SOL    HW121965   4.468   1.959   2.535  1.2651  1.6905  1.0419
 3502SOL    HW221966   4.618   1.922   2.551  0.1889 -3.4542 -2.0449
 3503SOL     OW21967   2.413   1.614   5.891  0.0017 -0.3401  0.0163
 3503SOL    HW121968   2.332   1.666   5.899  1.2553  1.2828  2.3115
 3503SOL    HW221969   2.454   1.631   5.976 -0.3501 -0.4137  0.2023
 3504SOL     OW21970   4.288   0.091   6.313 -0.4661 -0.1071 -0.0714
 3504SOL    HW121971   4.372   0.110   6.355 -0.7573  0.4752  0.2438
 3504SOL    HW221972   4.232   0.080   6.390 -1.8022 -0.7514 -1.1353
 3505SOL     OW21973   1.367   0.141   6.438 -0.3485  0.1354 -0.1157
 3505SOL    HW121974   1.383   0.094   6.357 -0.1367 -0.5830  0.3407
 3505SOL    HW221975   1.363   0.069   6.502  0.5682 -0.1684 -0.4015
 3506SOL     OW21976   0.190   3.296   8.234 -0.6061 -0.0882  0.4528
 3506SOL    HW121977   0.285   3.307   8.241 -0.5598  0.3668 -0.9705
 3506SOL    HW221978   0.160   3.386   8.246 -0.4344  0.3245 -2.1895
 3507SOL     OW21979   2.497   4.176   7.685  0.3772 -0.1019  0.4244
 3507SOL    HW121980   2.586   4.204   7.663  0.5394 -0.5304  0.5359
 3507SOL    HW221981   2.463   4.169   7.596  0.8105 -0.7338  0.3051
 3508SOL     OW21982   1.096   3.125  15.908  0.4051 -0.5206 -0.3653
 3508SOL    HW121983   1.005   3.125  15.935  0.1301 -1.7152 -1.2663
 3508SOL    HW221984   1.149   3.093  15.982 -1.3073 -2.0135  0.2100
 3509SOL     OW21985   3.448   0.465   5.046 -0.1559 -0.0488  0.1430
 3509SOL    HW121986   3.465   0.431   5.134 -0.4926 -0.5886  0.0039
 3509SOL    HW221987   3.394   0.542   5.064 -0.1897 -0.7702  3.0561
 3510SOL     OW21988   3.447   0.080   2.326  0.3345  0.0068 -0.1229
 3510SOL    HW121989   3.404   4.719   2.308  0.1639 -0.0841  0.7018
 3510SOL    HW221990   3.434   0.123   2.241 -2.2407 -1.5664 -0.5215
 3511SOL     OW21991   4.021   0.089   9.402  0.2166 -0.6937 -0.0797
 3511SOL    HW121992   4.022   0.173   9.355 -3.4956  1.1392  3.1078
 3511SOL    HW221993   3.930   0.061   9.401 -0.5695  1.7437  1.8534
 3512SOL     OW21994   3.062   4.023   5.391 -0.4486 -0.3626  0.7348
 3512SOL    HW121995   3.131   4.071   5.437 -0.6819  0.1761  0.5245
 3512SOL    HW221996   3.037   4.088   5.325  1.8661 -0.5210 -0.2789
 3513SOL     OW21997   1.741   2.556   0.165  0.5548 -0.3398  0.5585
 3513SOL    HW121998   1.807   2.592   0.225 -0.1772  0.0397  1.1364
 3513SOL    HW221999   1.796   2.557   0.087 -1.0733 -0.7508 -0.5760
 3514SOL     OW22000   1.261   0.722   3.347  0.2152  0.7457 -0.6831
 3514SOL    HW122001   1.167   0.720   3.360  0.2761  3.9401  0.3198
 3514SOL    HW222002   1.298   0.755   3.429 -0.8291 -0.2439  0.1791
 3515SOL     OW22003   2.525   1.714   6.127 -0.0991  0.4867  0.1710
 3515SOL    HW122004   2.515   1.686   6.218  0.9750 -1.4366 -0.3111
 3515SOL    HW222005   2.614   1.747   6.136  0.4617 -1.6951  2.8731
 3516SOL     OW22006   0.264   0.049   0.186  0.2899 -0.7030 -0.5061
 3516SOL    HW122007   0.348   0.046   0.234  0.7885  0.1205 -1.3249
 3516SOL    HW222008   0.219   0.126   0.222 -0.8227 -0.6196 -2.1013
 3517SOL     OW22009   1.974   2.414   9.567  0.2107 -0.2630 -0.0510
 3517SOL    HW122010   1.920   2.457   9.634 -0.6802  0.0363 -0.9542
 3517SOL    HW222011   1.915   2.373   9.503 -0.0796 -0.4095  0.3043
 3518SOL     OW22012   0.905   1.847   9.246  0.5694  0.0265 -0.1399
 3518SOL    HW122013   0.902   1.843   9.151 -2.4708 -0.1617 -0.0352
 3518SOL    HW222014   0.914   1.753   9.261  1.5727  0.3132  1.0322
 3519SOL     OW22015   1.335   1.019  15.187  0.0779 -0.7867 -0.3581
 3519SOL    HW122016   1.367   1.034  15.098  1.0001  2.1312  0.4732
 3519SOL    HW222017   1.245   0.990  15.174 -0.7883  2.0036 -0.4686
 3520SOL     OW22018   4.580   3.123   3.877  0.4503 -0.3051  0.1109
 3520SOL    HW122019   4.488   3.096   3.878  0.1660  0.5505 -2.1876
 3520SOL    HW222020   4.592   3.138   3.971 -1.7067 -0.6934  0.4543
 3521SOL     OW22021   1.215   1.070   5.718 -0.3353  0.4328  0.2109
 3521SOL    HW122022   1.278   0.998   5.724 -0.0526  0.7900  1.3994
 3521SOL    HW222023   1.225   1.124   5.795  1.0138 -1.3124  1.2580
 3522SOL     OW22024   3.126   2.805   5.813 -0.1052 -0.2248  0.0031
 3522SOL    HW122025   3.063   2.733   5.812 -0.1924 -0.1437 -0.3689
 3522SOL    HW222026   3.106   2.847   5.896  0.1722 -0.2841  0.1010
 3523SOL     OW22027   0.711   3.245  10.738 -0.2880 -0.0409  0.0618
 3523SOL    HW122028   0.723   3.332  10.701  0.3002 -0.4548 -0.7344
 3523SOL    HW222029   0.617   3.252  10.754 -0.3042 -0.0935 -0.0083
 3524SOL     OW22030   3.675   2.240  13.227 -0.3475 -0.5179 -0.1715
 3524SOL    HW122031   3.726   2.200  13.157  1.5991 -0.9815  1.4983
 3524SOL    HW222032   3.595   2.261  13.181  0.1718  1.4407 -0.1540
 3525SOL     OW22033   1.730   4.287   6.930  0.2642 -0.1128  0.1985
 3525SOL    HW122034   1.670   4.213   6.930  0.7078 -0.4682  0.9520
 3525SOL    HW222035   1.715   4.328   7.015 -1.5950  1.4886 -0.8980
 3526SOL     OW22036   3.262   2.823   3.998 -0.3120 -0.1707 -0.9024
 3526SOL    HW122037   3.240   2.811   3.905 -1.3184 -3.0260 -0.2764
 3526SOL    HW222038   3.188   2.880   4.017  0.3202  0.9179 -1.6890
 3527SOL     OW22039   0.872   4.337   7.730  0.0733 -0.0314  0.2203
 3527SOL    HW122040   0.835   4.262   7.683 -1.0752 -1.4510  3.4598
 3527SOL    HW222041   0.793   4.390   7.740 -0.1628 -0.4200  0.4133
 3528SOL     OW22042   3.767   0.334   8.811 -0.3840  0.4464  0.4060
 3528SOL    HW122043   3.773   0.310   8.719  0.8647 -0.4288  0.7042
 3528SOL    HW222044   3.798   0.257   8.859 -0.9742 -0.5424 -0.8012
 3529SOL     OW22045   1.838   2.712   3.172  0.0833  0.2950 -0.3640
 3529SOL    HW122046   1.897   2.787   3.181  1.1427 -0.6287  0.3859
 3529SOL    HW222047   1.805   2.701   3.262 -1.4590  0.2097 -0.9386
 3530SOL     OW22048   1.040   3.130   2.023  0.3258  0.2928 -0.0340
 3530SOL    HW122049   0.961   3.102   1.978  2.3942 -2.1220 -2.1093
 3530SOL    HW222050   1.048   3.225   2.011  1.3726 -0.0309 -1.8288
 3531SOL     OW22051   3.722   0.452  13.301 -0.1136 -0.6507 -0.0446
 3531SOL    HW122052   3.710   0.370  13.253 -0.2384 -1.3366  1.1723
 3531SOL    HW222053   3.630   0.467  13.321 -0.3341  1.0212 -2.2919
 3532SOL     OW22054   0.331   0.398   7.800 -0.0435  0.2593  0.1227
 3532SOL    HW122055   0.337   0.329   7.866 -0.5391 -0.5735 -0.7121
 3532SOL    HW222056   0.239   0.423   7.814 -0.3948 -0.4334 -0.9778
 3533SOL     OW22057   1.170   2.456   2.981  0.0998  0.0564  0.2436
 3533SOL    HW122058   1.099   2.503   2.938 -0.5090 -0.8401  0.2784
 3533SOL    HW222059   1.176   2.369   2.942  1.1690  0.9976 -1.6735
 3534SOL     OW22060   1.901   3.522   0.067 -0.4832  0.4261 -0.2986
 3534SOL    HW122061   1.987   3.512   0.108 -1.2251 -1.6420  0.7248
 3534SOL    HW222062   1.892   3.613   0.039  0.6617  1.2993  2.1869
 3535SOL     OW22063   0.173   0.245   5.899  0.0460  0.6294 -0.2258
 3535SOL    HW122064   0.139   0.284   5.818 -1.1617  1.8219  0.8549
 3535SOL    HW222065   0.161   0.152   5.882 -1.1982  0.7305  0.1069
 3536SOL     OW22066   3.984   0.109   0.686 -0.1020 -0.0877 -0.0274
 3536SOL    HW122067   4.025   0.034   0.728 -1.5811 -0.6707  0.3986
 3536SOL    HW222068   3.957   0.159   0.763 -3.5193 -0.6661 -0.8490
 3537SOL     OW22069   2.257   0.460   4.818  0.4268  0.0905  0.0476
 3537SOL    HW122070   2.238   0.385   4.875 -2.7383  1.1386  0.4070
 3537SOL    HW222071   2.338   0.501   4.846  1.1329 -0.6848 -0.8872
 3538SOL     OW22072   0.389   3.970  11.753 -0.0526  0.4351 -0.0238
 3538SOL    HW122073   0.368   3.891  11.704  1.6487  1.1047 -1.8025
 3538SOL    HW222074   0.446   4.014  11.690 -1.8036  0.1612 -1.7967
 3539SOL     OW22075   4.263   3.897   9.066  0.4595  0.0244  0.2368
 3539SOL    HW122076   4.171   3.899   9.090  0.3830 -0.7815  0.0101
 3539SOL    HW222077   4.289   3.968   9.125  1.1273 -1.4817  1.7784
 3540SOL     OW22078   1.599   1.585   3.136  0.2422  0.0228  0.1458
 3540SOL    HW122079   1.547   1.645   3.189  0.3807  1.9958 -1.9857
 3540SOL    HW222080   1.635   1.650   3.077  0.3546  0.4082  0.6421
 3541SOL     OW22081   1.210   0.992   2.811  0.4682 -0.1602  0.3754
 3541SOL    HW122082   1.147   1.043   2.862  1.3809  1.2112  0.1344
 3541SOL    HW222083   1.221   1.043   2.731 -0.8184  3.1487  2.2892
 3542SOL     OW22084   3.903   2.812  13.977  0.0312 -0.4552 -0.6757
 3542SOL    HW122085   3.899   2.907  13.991  3.4507 -0.5366  0.7064
 3542SOL    HW222086   3.905   2.784  14.069 -0.5279  2.3412  0.1918
 3543SOL     OW22087   2.540   3.544  13.363 -0.1388  0.3144 -0.4074
 3543SOL    HW122088   2.577   3.478  13.305  0.0964 -0.6362  0.8475
 3543SOL    HW222089   2.486   3.496  13.427 -0.4256  0.6628 -0.3830
 3544SOL     OW22090   0.960   2.433   1.468  0.7816  0.0891 -0.0139
 3544SOL    HW122091   1.016   2.357   1.452  3.1937  1.7479  0.5236
 3544SOL    HW222092   0.874   2.391   1.464  0.0441  1.4168  2.2846
 3545SOL     OW22093   0.584   0.761   4.956  0.0146  0.2735 -0.2974
 3545SOL    HW122094   0.633   0.794   4.882  1.7683  0.5634  0.9882
 3545SOL    HW222095   0.585   0.666   4.946 -2.8287  0.3042 -1.0143
 3546SOL     OW22096   4.119   2.357   3.492  0.4728 -0.0492 -0.0147
 3546SOL    HW122097   4.167   2.392   3.416 -0.5462 -2.6198 -1.8344
 3546SOL    HW222098   4.084   2.274   3.459 -0.9855  1.0825 -1.2680
 3547SOL     OW22099   4.474   4.060  15.791 -0.1942  0.3340  0.1722
 3547SOL    HW122100   4.493   4.111  15.713 -0.1914  0.6844  0.3985
 3547SOL    HW222101   4.420   3.989  15.756  0.1358  0.0603  0.2170
 3548SOL     OW22102   2.852   1.022   2.145 -0.1975  0.2077  0.4686
 3548SOL    HW122103   2.931   0.976   2.172  1.4056  3.2524  0.9294
 3548SOL    HW222104   2.817   1.031   2.234 -0.4600 -1.2262  0.5090
 3549SOL     OW22105   2.142   2.960   6.482  0.1030  0.1271  0.1760
 3549SOL    HW122106   2.118   2.935   6.571  0.2528 -1.2440 -0.1754
 3549SOL    HW222107   2.185   2.881   6.450 -1.3473 -0.0832 -1.2896
 3550SOL     OW22108   3.217   0.754   4.399  0.2663  0.2158  0.0836
 3550SOL    HW122109   3.175   0.683   4.448  1.5159  0.9282  2.1998
 3550SOL    HW222110   3.271   0.693   4.351 -0.5352  0.7989 -1.5556
 3551SOL     OW22111   1.945   4.660  16.144 -0.2044  0.0838 -0.0534
 3551SOL    HW122112   1.943   4.564  16.148  1.4849  0.0941  1.1375
 3551SOL    HW222113   1.966   4.666  16.051  3.0829  0.2972  0.6973
 3552SOL     OW22114   2.640   2.248  17.090  0.6812 -0.2856 -0.1836
 3552SOL    HW122115   2.586   2.182  17.134  1.2033 -2.0983 -2.2551
 3552SOL    HW222116   2.712   2.255  17.152 -0.5868  0.1568  1.2527
 3553SOL     OW22117   4.664   1.091   6.314 -0.0767 -0.2640 -0.5920
 3553SOL    HW122118   4.721   1.146   6.259 -0.4425 -0.4220 -1.1350
 3553SOL    HW222119   4.581   1.139   6.315 -0.2949 -0.7026  1.4118
 3554SOL     OW22120   1.941   3.992   3.687 -0.0503 -0.1382 -0.5406
 3554SOL    HW122121   1.898   4.076   3.700  1.6228  0.2179  2.7116
 3554SOL    HW222122   1.873   3.926   3.702  0.1836  0.1361  1.6992
 3555SOL     OW22123   3.788   2.301  11.841 -0.6494  0.0376  0.2210
 3555SOL    HW122124   3.848   2.305  11.766 -0.2906 -1.5622  0.4388
 3555SOL    HW222125   3.832   2.233  11.892 -0.0130  0.9416  0.8820
 3556SOL     OW22126   3.415   1.181   2.930  0.1493 -0.0404  0.1523
 3556SOL    HW122127   3.407   1.091   2.963 -0.6870 -0.2206 -0.5294
 3556SOL    HW222128   3.419   1.167   2.835  1.4397  0.6624  0.1030
 3557SOL     OW22129   2.987   1.573  11.125 -0.2864  0.4304  0.1216
 3557SOL    HW122130   2.894   1.590  11.111 -0.0913  3.1671  2.1791
 3557SOL    HW222131   3.033   1.628  11.062  0.4879  0.0445  0.3438
 3558SOL     OW22132   4.174   4.262   4.161 -0.2602 -0.1069  0.1286
 3558SOL    HW122133   4.161   4.330   4.095  1.4154  0.4248  0.3701
 3558SOL    HW222134   4.223   4.197   4.110 -2.2532 -1.1523 -0.4944
 3559SOL     OW22135   4.692   4.646   2.060 -0.4273  0.1972  1.0279
 3559SOL    HW122136   4.680   0.016   2.083 -0.7596 -0.2013  2.5018
 3559SOL    HW222137   0.065   4.646   2.055 -0.3163 -0.1029  2.8479
 3560SOL     OW22138   1.363   2.579   0.746  0.0787 -1.1278 -0.4107
 3560SOL    HW122139   1.438   2.530   0.780  1.2172 -0.3225 -1.8055
 3560SOL    HW222140   1.361   2.647   0.814 -0.7077 -1.5539 -0.0107
 3561SOL     OW22141   0.068   1.560   0.074  0.1736  0.5260  0.0616
 3561SOL    HW122142   0.110   1.530  17.685  0.1948 -1.1627  0.6892
 3561SOL    HW222143   0.142   1.606   0.114 -0.5137 -0.3820  2.3235
 3562SOL     OW22144   2.254   2.726   6.385 -0.4924 -0.1606 -0.0781
 3562SOL    HW122145   2.215   2.640   6.371  2.6109 -1.8581  1.6427
 3562SOL    HW222146   2.315   2.702   6.455 -1.1516 -1.0111  0.2094
 3563SOL     OW22147   1.128   3.201   8.114  0.1181 -0.1779 -0.3715
 3563SOL    HW122148   1.132   3.263   8.042  0.2208  0.1260 -0.1047
 3563SOL    HW222149   1.035   3.199   8.140 -0.0388 -1.6917 -1.0712
 3564SOL     OW22150   2.748   3.421   5.475  0.1159  0.9933  0.4894
 3564SOL    HW122151   2.802   3.498   5.489  1.7934  0.1625 -1.4211
 3564SOL    HW222152   2.666   3.440   5.521  0.0515  0.0149  0.7806
 3565SOL     OW22153   0.003   2.483   6.374 -0.7125 -0.3690  0.1688
 3565SOL    HW122154   4.701   2.414   6.436  5.1279 -0.5419  2.2588
 3565SOL    HW222155   4.681   2.455   6.294 -2.5493 -0.2743  1.1379
 3566SOL     OW22156   0.750   0.430   5.542 -0.1198 -0.1400  0.5719
 3566SOL    HW122157   0.686   0.501   5.542  0.5596  0.4685  0.2718
 3566SOL    HW222158   0.821   0.455   5.601  0.1802  0.1980  0.0633
 3567SOL     OW22159   3.121   2.192   2.232  0.2800 -0.1256  0.3014
 3567SOL    HW122160   3.204   2.231   2.262 -0.1089  0.4696  0.5981
 3567SOL    HW222161   3.053   2.225   2.291  1.1352  0.2711  1.0703
 3568SOL     OW22162   0.204   2.961   4.827 -0.1631 -0.0447 -0.8672
 3568SOL    HW122163   0.141   2.986   4.894 -0.1634  1.6907 -1.5213
 3568SOL    HW222164   0.228   3.040   4.779  1.5123 -1.4287 -2.3244
 3569SOL     OW22165   1.978   1.009   8.170 -0.0071 -0.1873 -0.2165
 3569SOL    HW122166   1.923   1.041   8.099  1.2348  0.3469 -0.9453
 3569SOL    HW222167   2.008   1.093   8.205 -0.7105 -0.3404  0.7310
 3570SOL     OW22168   3.173   3.303  17.441  0.9899 -0.4578 -0.3696
 3570SOL    HW122169   3.107   3.367  17.468  0.5167 -1.0149 -0.2134
 3570SOL    HW222170   3.170   3.306  17.345  0.8988  0.0826 -0.3513
 3571SOL     OW22171   2.186   0.967   3.377  0.2750  0.0798  0.1639
 3571SOL    HW122172   2.110   0.933   3.331  0.4102 -1.5971  1.1910
 3571SOL    HW222173   2.140   1.041   3.417 -0.8531 -0.7670  0.3914
 3572SOL     OW22174   2.386   1.884   8.141 -0.6675 -0.2666  0.3791
 3572SOL    HW122175   2.310   1.925   8.182  0.5954  2.8736 -0.3897
 3572SOL    HW222176   2.456   1.941   8.173 -0.0899 -0.1641 -1.0376
 3573SOL     OW22177   3.660   1.703   1.453 -0.0644 -0.0344 -0.2315
 3573SOL    HW122178   3.580   1.712   1.505  1.0923  1.1725  1.3046
 3573SOL    HW222179   3.655   1.609   1.433 -0.0052  0.0729 -0.7455
 3574SOL     OW22180   0.640   0.380  10.815 -0.6815 -0.0310 -0.4652
 3574SOL    HW122181   0.569   0.316  10.820 -0.1074 -0.8863 -3.1813
 3574SOL    HW222182   0.587   0.452  10.850  2.6495  2.0511  0.3250
 3575SOL     OW22183   2.885   0.817   4.192 -0.0565 -0.1718 -0.1494
 3575SOL    HW122184   2.828   0.890   4.215  0.0132 -0.1197 -0.1429
 3575SOL    HW222185   2.955   0.865   4.149 -1.4969  0.5052 -1.7218
 3576SOL     OW22186   3.874   1.936  10.827  0.0666  0.1004  0.4362
 3576SOL    HW122187   3.871   2.008  10.890 -0.5075 -1.4625  2.1824
 3576SOL    HW222188   3.869   1.856  10.879  1.3624 -1.1801 -1.4381
 3577SOL     OW22189   3.128   0.208  10.504  0.0663  0.3323 -0.1134
 3577SOL    HW122190   3.137   0.227  10.410  1.6364 -0.4712 -0.1352
 3577SOL    HW222191   3.134   0.113  10.514 -0.1554  0.3032 -0.2650
 3578SOL     OW22192   2.697   0.166   5.255  0.5472 -0.1493  0.2841
 3578SOL    HW122193   2.790   0.176   5.237  0.2703  0.0137 -1.1137
 3578SOL    HW222194   2.680   0.079   5.290 -1.4729  0.5570  1.0504
 3579SOL     OW22195   3.944   3.637  11.984 -0.2619 -0.4020  0.1269
 3579SOL    HW122196   4.025   3.684  11.999 -0.8100  0.3474  0.7582
 3579SOL    HW222197   3.909   3.671  12.066 -0.3538 -1.0316  0.3536
 3580SOL     OW22198   3.431   3.089   8.079  0.2715  0.2829 -0.2812
 3580SOL    HW122199   3.506   3.039   8.110  0.6432 -0.6550 -2.7202
 3580SOL    HW222200   3.429   3.166   8.137 -3.0250 -0.5919  0.7275
 3581SOL     OW22201   3.467   4.262   8.504  0.5648 -0.0603  0.4298
 3581SOL    HW122202   3.411   4.244   8.579 -0.9220 -2.3909 -1.2375
 3581SOL    HW222203   3.491   4.351   8.529  0.1451  0.6564 -1.7147
 3582SOL     OW22204   2.216   1.843  11.742  0.5543  0.1128 -0.1439
 3582SOL    HW122205   2.217   1.921  11.686  1.9774  1.7740  2.1812
 3582SOL    HW222206   2.184   1.882  11.823  0.4813  1.5787 -0.8851
 3583SOL     OW22207   4.454   1.440  15.655  0.0827 -0.4496  0.0538
 3583SOL    HW122208   4.408   1.523  15.654 -0.5942 -0.8159  0.6655
 3583SOL    HW222209   4.419   1.394  15.579  1.9687 -1.5909 -0.1356
 3584SOL     OW22210   2.133   0.744  10.799 -0.1351  0.1646  0.8005
 3584SOL    HW122211   2.165   0.764  10.887  3.4558 -1.7310 -0.0803
 3584SOL    HW222212   2.072   0.670  10.810  0.7924 -0.6958  0.1624
 3585SOL     OW22213   1.300   4.298   7.838 -0.4634 -0.4728  0.0770
 3585SOL    HW122214   1.350   4.378   7.822  1.9377 -1.9385  0.1576
 3585SOL    HW222215   1.243   4.343   7.900  0.3450  0.5979  0.0347
 3586SOL     OW22216   2.416   4.229   6.512 -0.3077  0.5191  0.2594
 3586SOL    HW122217   2.353   4.199   6.578 -1.1533  1.8615  0.0617
 3586SOL    HW222218   2.350   4.253   6.447  0.9029 -0.4248 -1.3146
 3587SOL     OW22219   3.606   1.977   8.536  0.2177  0.4973  0.1732
 3587SOL    HW122220   3.607   2.001   8.629 -0.1715  1.0239  0.0451
 3587SOL    HW222221   3.539   1.909   8.527  0.8007  0.0044 -0.4206
 3588SOL     OW22222   0.455   1.190  15.751 -0.3341 -0.1454  0.0492
 3588SOL    HW122223   0.455   1.273  15.800  0.6453 -0.9526  1.4277
 3588SOL    HW222224   0.414   1.219  15.670 -2.1718  1.6759  1.6200
 3589SOL     OW22225   1.216   2.101   6.838 -0.4216  0.2896 -0.8239
 3589SOL    HW122226   1.279   2.091   6.909 -0.2364 -4.2230 -1.6216
 3589SOL    HW222227   1.195   2.010   6.819 -0.9059  0.8504 -2.9820
 3590SOL     OW22228   2.348   3.122   8.194 -0.2750  0.0387  0.4827
 3590SOL    HW122229   2.268   3.088   8.156 -0.3266 -0.0316  0.6571
 3590SOL    HW222230   2.311   3.189   8.252 -1.7079  1.4007 -2.0336
 3591SOL     OW22231   2.851   1.236  11.404  0.0411  0.1125  0.2321
 3591SOL    HW122232   2.818   1.187  11.328 -0.7529  0.3584  0.4190
 3591SOL    HW222233   2.843   1.155  11.455  2.2563 -0.3705 -0.1809
 3592SOL     OW22234   0.905   2.851   9.498 -0.1410 -0.3982  0.0395
 3592SOL    HW122235   0.884   2.761   9.521  1.9576 -1.0956 -0.7548
 3592SOL    HW222236   0.840   2.855   9.427  0.1318  1.2023 -0.1303
 3593SOL     OW22237   3.067   3.647   8.218  0.4992  0.3283 -0.5481
 3593SOL    HW122238   3.138   3.681   8.273 -0.8540 -1.5568  2.3421
 3593SOL    HW222239   3.000   3.644   8.287 -1.0711 -1.1220 -2.1428
 3594SOL     OW22240   2.873   1.916   7.152  0.2553 -0.3780  0.5612
 3594SOL    HW122241   2.813   1.919   7.226 -0.9973 -0.4625 -0.4433
 3594SOL    HW222242   2.888   1.821   7.146  0.7822 -0.2824  0.2868
 3595SOL     OW22243   0.217   2.293   4.051 -0.0228  0.6373  0.0705
 3595SOL    HW122244   0.188   2.239   3.977 -0.5099  0.7885  0.1494
 3595SOL    HW222245   0.288   2.344   4.013  1.3937 -0.0508  1.8057
 3596SOL     OW22246   0.988   0.874   3.214  0.0839  0.1605 -0.0969
 3596SOL    HW122247   0.980   0.829   3.298  0.6071 -1.3614 -0.8582
 3596SOL    HW222248   0.896   0.863   3.188  0.2276 -1.6767  0.1346
 3597SOL     OW22249   0.535   3.557   7.458 -0.2640 -0.4799 -0.0479
 3597SOL    HW122250   0.546   3.465   7.436  1.3747  0.3205 -2.6384
 3597SOL    HW222251   0.554   3.607   7.379  1.4344  1.0650  1.3400
 3598SOL     OW22252   0.041   2.008   3.324 -0.0595  0.1442  0.9250
 3598SOL    HW122253   4.697   1.948   3.290 -1.3171  2.3878 -0.5764
 3598SOL    HW222254   0.110   1.949   3.356  1.5875  1.0141 -1.0201
 3599SOL     OW22255   0.347   4.108   6.704  0.0876 -0.5148  0.3382
 3599SOL    HW122256   0.345   4.023   6.661  0.2295  0.1005 -0.8711
 3599SOL    HW222257   0.270   4.149   6.667  0.2364 -0.2098  0.3698
 3600SOL     OW22258   1.489   2.395   3.153  0.4203 -0.8703  0.5965
 3600SOL    HW122259   1.440   2.435   3.225  0.9642  1.6134 -0.4445
 3600SOL    HW222260   1.421   2.384   3.087 -0.0103  0.8589  0.7571
 3601SOL     OW22261   3.437   3.359  11.440  0.5316 -0.0991  0.3020
 3601SOL    HW122262   3.388   3.420  11.385  0.7645  0.1066  0.3217
 3601SOL    HW222263   3.523   3.369  11.400  0.6448  1.4457  0.9090
 3602SOL     OW22264   2.295   4.552  14.215 -0.0267 -0.1692  0.2906
 3602SOL    HW122265   2.231   4.508  14.271 -0.1466  1.7145  1.6087
 3602SOL    HW222266   2.377   4.525  14.256  0.2139 -2.8990 -1.9936
 3603SOL     OW22267   4.579   1.676   5.279  0.3871  0.4434 -0.1049
 3603SOL    HW122268   4.609   1.757   5.238 -0.2037  0.9531  0.4783
 3603SOL    HW222269   4.634   1.613   5.233  1.5823  0.0812  1.8427
 3604SOL     OW22270   1.731   1.952   3.455 -0.1313  0.2927 -0.4691
 3604SOL    HW122271   1.750   2.019   3.521  0.2497  0.3931 -0.6783
 3604SOL    HW222272   1.776   1.886   3.508  0.7451 -0.9178 -2.7511
 3605SOL     OW22273   2.414   1.046   9.747  0.1670  0.1921 -0.1356
 3605SOL    HW122274   2.334   1.064   9.797  1.2969  2.6672  0.7534
 3605SOL    HW222275   2.406   1.104   9.672  0.8864 -0.5600 -0.7915
 3606SOL     OW22276   2.689   0.214   9.776 -0.6081 -0.4817 -0.4714
 3606SOL    HW122277   2.643   0.153   9.834  1.1616 -1.6685 -0.3119
 3606SOL    HW222278   2.612   0.233   9.723 -1.1476  0.3720  0.6355
 3607SOL     OW22279   3.970   2.912   4.994  0.5445  0.2453  0.3101
 3607SOL    HW122280   3.927   2.963   5.062 -2.8435 -0.1137 -1.5538
 3607SOL    HW222281   3.975   2.979   4.926 -0.7503  0.5797  0.5539
 3608SOL     OW22282   1.652   2.682   4.287  0.2340 -0.2032 -0.4928
 3608SOL    HW122283   1.612   2.766   4.264 -0.9513 -0.3589  0.9881
 3608SOL    HW222284   1.680   2.649   4.202  0.2728  0.8292 -0.8819
 3609SOL     OW22285   2.503   1.240   1.044  0.0057 -0.5634  0.4467
 3609SOL    HW122286   2.449   1.283   0.977  0.2347  0.7675  1.1084
 3609SOL    HW222287   2.433   1.183   1.074 -0.9254  0.3824  0.0586
 3610SOL     OW22288   3.321   0.671   8.343 -0.4419  0.5254 -0.0287
 3610SOL    HW122289   3.381   0.744   8.330  0.4909 -0.6958 -2.4544
 3610SOL    HW222290   3.385   0.600   8.348 -0.1584  0.7142 -1.0733
 3611SOL     OW22291   3.530   2.321   3.239 -0.1538  0.0220 -0.4165
 3611SOL    HW122292   3.503   2.235   3.206 -3.0009 -0.0351  2.0867
 3611SOL    HW222293   3.575   2.362   3.165  2.4781  1.1902  1.8043
 3612SOL     OW22294   1.751   3.011   1.243  0.1759 -0.5146 -0.2662
 3612SOL    HW122295   1.716   2.933   1.200 -0.6674 -0.8307  1.0305
 3612SOL    HW222296   1.674   3.055   1.278 -0.1346 -0.6305 -0.8000
 3613SOL     OW22297   1.854   2.519  17.623 -0.1218  0.0922  0.0125
 3613SOL    HW122298   1.929   2.461  17.610 -0.0105  0.8322 -2.6428
 3613SOL    HW222299   1.784   2.460  17.595 -0.1235 -0.1249  0.4800
 3614SOL     OW22300   2.262   4.467   4.517  0.0014  0.1195  0.0580
 3614SOL    HW122301   2.330   4.534   4.512  3.0008 -2.9739 -0.7238
 3614SOL    HW222302   2.313   4.387   4.513  2.7560  1.8995 -0.2773
 3615SOL     OW22303   0.369   3.311   7.221  0.2222 -0.0616 -0.5953
 3615SOL    HW122304   0.286   3.301   7.267 -0.7432  0.6677 -2.2147
 3615SOL    HW222305   0.361   3.250   7.148  1.5139 -2.0051  0.8636
 3616SOL     OW22306   0.450   2.072   3.768  0.0397  0.1720  0.2786
 3616SOL    HW122307   0.525   2.118   3.806 -0.4253  0.7922  0.4460
 3616SOL    HW222308   0.432   2.139   3.702  1.2526  0.7619  0.5485
 3617SOL     OW22309   2.856   2.042  12.427 -0.2866 -0.0196  0.3370
 3617SOL    HW122310   2.818   2.050  12.339 -1.0751  3.0606  0.9586
 3617SOL    HW222311   2.789   2.057  12.494 -0.7167  0.1093 -0.1240
 3618SOL     OW22312   3.197   1.181   1.923 -0.0864 -0.3026 -0.0163
 3618SOL    HW122313   3.106   1.200   1.944 -0.0424  0.5741 -0.6101
 3618SOL    HW222314   3.201   1.213   1.833  0.9667  1.8923  0.8062
 3619SOL     OW22315   0.931   0.423  15.558 -0.2110  0.0476 -0.0115
 3619SOL    HW122316   1.019   0.446  15.529 -0.8947 -0.8481 -2.8011
 3619SOL    HW222317   0.910   0.506  15.600  0.9482  0.2301  0.1928
 3620SOL     OW22318   2.279   1.319   5.353 -0.4630 -0.1730  0.1411
 3620SOL    HW122319   2.282   1.292   5.262 -0.5362 -2.3425  0.7716
 3620SOL    HW222320   2.203   1.273   5.390  1.2669 -2.8095  0.4620
 3621SOL     OW22321   4.499   3.109   2.795 -0.1907  0.0600 -0.0181
 3621SOL    HW122322   4.560   3.146   2.858  1.1788 -1.5125 -0.4308
 3621SOL    HW222323   4.475   3.195   2.760  1.5709 -0.0573 -1.4957
 3622SOL     OW22324   1.589   3.206  11.949  0.3330  0.0774  0.5481
 3622SOL    HW122325   1.503   3.165  11.948 -0.5524  1.8826  1.3262
 3622SOL    HW222326   1.636   3.151  12.011  0.6199  1.1312  1.2670
 3623SOL     OW22327   2.521   2.432  10.304 -0.3787 -0.2583 -0.2144
 3623SOL    HW122328   2.444   2.488  10.309  0.8423  1.2886  1.0025
 3623SOL    HW222329   2.493   2.342  10.322 -0.6756 -0.4245 -1.5242
 3624SOL     OW22330   1.890   3.270   5.937  0.5154  0.3307  0.2542
 3624SOL    HW122331   1.855   3.356   5.957  0.8963  0.5138  0.1343
 3624SOL    HW222332   1.904   3.273   5.843 -1.3665  1.1184  0.0101
 3625SOL     OW22333   3.026   3.162   4.509 -0.0883 -0.5715  0.9455
 3625SOL    HW122334   2.995   3.143   4.597 -0.0811 -1.5017  0.7395
 3625SOL    HW222335   3.104   3.214   4.530 -1.1631  1.3823  0.1797
 3626SOL     OW22336   2.786   4.453   4.032  0.0650  0.6167  0.1647
 3626SOL    HW122337   2.730   4.384   3.996  2.9946 -1.4574 -0.4490
 3626SOL    HW222338   2.816   4.408   4.111  0.1128  1.6023  0.7101
 3627SOL     OW22339   3.512   4.494   4.562 -0.2239  0.2467 -0.7178
 3627SOL    HW122340   3.491   4.425   4.500  1.1621 -0.5827 -0.2644
 3627SOL    HW222341   3.532   4.555   4.491 -0.5917  1.0091 -0.1730
 3628SOL     OW22342   2.582   0.912   6.862 -0.2977  0.1996  0.0071
 3628SOL    HW122343   2.517   0.979   6.841  0.1739  0.6967  0.1169
 3628SOL    HW222344   2.521   0.869   6.922  2.0829 -3.6802 -0.3486
 3629SOL     OW22345   0.892   2.162   6.427  0.1301  0.7774 -0.4843
 3629SOL    HW122346   0.847   2.244   6.449 -0.7477  0.4802 -1.1959
 3629SOL    HW222347   0.854   2.105   6.494 -1.0455  2.2877  0.1544
 3630SOL     OW22348   0.763   4.371   6.827 -0.5467  0.3793 -0.0866
 3630SOL    HW122349   0.810   4.319   6.893  0.2039 -0.2508 -1.1149
 3630SOL    HW222350   0.809   4.455   6.833  0.1195 -0.1657  2.2933
 3631SOL     OW22351   1.743   1.316   6.967  0.9204 -0.0869 -0.5567
 3631SOL    HW122352   1.708   1.288   6.883 -0.5706  0.0432  0.0293
 3631SOL    HW222353   1.830   1.350   6.943 -0.3115  3.3703 -0.1722
 3632SOL     OW22354   3.475   4.515  14.623 -0.4026 -0.4232 -0.1111
 3632SOL    HW122355   3.472   4.561  14.539  3.9809  1.6987  0.8944
 3632SOL    HW222356   3.559   4.469  14.625 -1.2918 -2.0651 -0.7582
 3633SOL     OW22357   1.504   2.106   8.449 -0.3420 -0.3037  0.5313
 3633SOL    HW122358   1.593   2.140   8.456 -1.0641  1.3148  1.8278
 3633SOL    HW222359   1.493   2.049   8.525  2.2356 -1.7915 -0.2188
 3634SOL     OW22360   2.488   0.309   4.342 -0.0404  0.1341 -0.1474
 3634SOL    HW122361   2.554   0.244   4.367 -0.0556  0.7991  1.6378
 3634SOL    HW222362   2.463   0.332   4.431  1.2302 -0.3721  0.3374
 3635SOL     OW22363   0.882   1.977   0.150  0.3469  0.3732  0.5774
 3635SOL    HW122364   0.819   1.911   0.179  1.2748 -0.3638  0.9380
 3635SOL    HW222365   0.963   1.927   0.138  0.0435  0.4562 -1.6495
 3636SOL     OW22366   4.212   3.283  11.815 -0.1434 -0.1419 -0.4242
 3636SOL    HW122367   4.236   3.236  11.896  0.1653 -2.0340 -1.6102
 3636SOL    HW222368   4.157   3.219  11.770  0.1368  0.1592 -1.1921
 3637SOL     OW22369   3.355   4.148   5.576 -0.0707 -0.1285 -0.1842
 3637SOL    HW122370   3.443   4.135   5.612 -0.4287  0.6456  0.9340
 3637SOL    HW222371   3.371   4.227   5.524 -0.0372 -0.7881 -1.1833
 3638SOL     OW22372   1.871   2.614   8.325 -0.3502  0.2608  0.0142
 3638SOL    HW122373   1.839   2.528   8.297  0.3732  0.3744 -1.1772
 3638SOL    HW222374   1.814   2.675   8.279 -0.7379 -0.4733 -0.4958
 3639SOL     OW22375   2.729   4.579   4.927  0.5953 -0.1318  0.6750
 3639SOL    HW122376   2.804   4.635   4.905 -0.9951  0.8415 -2.3824
 3639SOL    HW222377   2.688   4.563   4.842  2.3855 -2.0183  0.1714
 3640SOL     OW22378   4.389   2.936   2.501 -0.0824 -0.2171  0.3586
 3640SOL    HW122379   4.303   2.962   2.467  0.5778  1.3614 -0.0955
 3640SOL    HW222380   4.387   2.845   2.470  1.0204  0.0465 -0.4848
 3641SOL     OW22381   2.762   1.826   6.210 -0.5867 -0.4260 -0.3218
 3641SOL    HW122382   2.833   1.785   6.260 -0.2374 -0.0805 -0.5329
 3641SOL    HW222383   2.805   1.810   6.126  0.1724 -0.2220  0.0295
 3642SOL     OW22384   0.186   3.914   6.568 -0.0148 -0.1474 -0.6398
 3642SOL    HW122385   0.114   3.891   6.626 -0.4155  0.4679 -0.8937
 3642SOL    HW222386   0.153   4.000   6.544 -1.7284 -0.8979 -0.9665
 3643SOL     OW22387   2.900   1.812   1.036 -0.5235 -0.3266  0.0729
 3643SOL    HW122388   2.877   1.885   0.978  1.2555  1.0393  1.0810
 3643SOL    HW222389   2.844   1.746   0.996 -0.4131  0.3054 -1.1453
 3644SOL     OW22390   3.263   0.769   4.855  0.7776  0.2174  0.0587
 3644SOL    HW122391   3.256   0.675   4.836  0.1421  0.7206 -2.2088
 3644SOL    HW222392   3.357   0.771   4.872  0.7814  0.3363  0.0256
 3645SOL     OW22393   4.208   3.752  12.062 -0.1612 -0.0889 -0.0722
 3645SOL    HW122394   4.191   3.671  12.111  0.5656 -1.0644 -1.4420
 3645SOL    HW222395   4.227   3.806  12.138 -2.2091  0.6376 -0.0942
 3646SOL     OW22396   0.364   3.864   3.327 -0.0726 -0.1134  0.1889
 3646SOL    HW122397   0.288   3.817   3.292  0.3265 -1.5870  1.3344
 3646SOL    HW222398   0.346   3.874   3.420  1.0063 -0.4208  0.4395
 3647SOL     OW22399   0.290   1.746   0.783  0.3126 -0.2297  0.2927
 3647SOL    HW122400   0.354   1.687   0.822  0.1719  0.2592  1.2693
 3647SOL    HW222401   0.213   1.695   0.807  0.6251 -0.7660  0.1516
 3648SOL     OW22402   0.331   1.948  12.931 -0.1540 -0.0179  0.3439
 3648SOL    HW122403   0.254   2.005  12.923 -1.7329 -2.3125 -0.7120
 3648SOL    HW222404   0.375   1.991  13.004 -2.3317  1.5342  0.7437
 3649SOL     OW22405   0.281   0.507  11.029 -0.2266 -0.8068  0.2412
 3649SOL    HW122406   0.325   0.427  11.003  3.0850  1.2904 -0.6088
 3649SOL    HW222407   0.253   0.479  11.117 -1.5308 -1.5321 -0.3973
 3650SOL     OW22408   1.253   2.273   0.205 -0.3258  0.3861 -0.1926
 3650SOL    HW122409   1.226   2.326   0.130 -0.3099  1.6202  0.6678
 3650SOL    HW222410   1.171   2.273   0.255 -1.3260 -1.5523 -1.8576
 3651SOL     OW22411   2.075   0.916   7.164 -0.1149  0.1637  0.4951
 3651SOL    HW122412   2.000   0.863   7.137  1.3911 -0.4974 -2.4614
 3651SOL    HW222413   2.052   0.936   7.255  1.2004  2.0555  0.4100
 3652SOL     OW22414   0.473   3.738   2.167  0.6192  0.1199 -0.4489
 3652SOL    HW122415   0.479   3.827   2.200  0.6051 -0.6333  1.5926
 3652SOL    HW222416   0.484   3.694   2.252  0.0776 -1.3602 -1.1334
 3653SOL     OW22417   4.609   0.586  12.517  0.2676  0.8012  0.8435
 3653SOL    HW122418   4.584   0.505  12.473  1.8561  1.8389 -1.9057
 3653SOL    HW222419   4.549   0.645  12.471 -0.9853 -0.1664  1.2379
 3654SOL     OW22420   1.029   4.642  15.676 -0.1321  0.1837  0.4096
 3654SOL    HW122421   1.116   4.674  15.653 -0.1027 -1.3687 -1.7075
 3654SOL    HW222422   0.982   4.720  15.705  0.4503  0.9001 -0.5621
 3655SOL     OW22423   2.672   3.604   2.460  0.2754 -0.1944 -0.4543
 3655SOL    HW122424   2.651   3.694   2.436  1.6950  0.1400 -0.4068
 3655SOL    HW222425   2.730   3.615   2.535  0.5838  2.0861 -1.0376
 3656SOL     OW22426   0.332   2.119   3.301  0.2713  0.1500 -0.3303
 3656SOL    HW122427   0.244   2.123   3.264  1.0526  1.3974 -2.0621
 3656SOL    HW222428   0.317   2.032   3.340  1.9386  0.7846  1.7770
 3657SOL     OW22429   2.162   2.267   6.917 -0.5440  0.0767 -0.4896
 3657SOL    HW122430   2.075   2.244   6.885  0.1874 -0.0814 -2.3767
 3657SOL    HW222431   2.164   2.238   7.009 -0.1315 -1.5615 -1.0059
 3658SOL     OW22432   0.675   4.618  11.523 -0.0250 -0.0328  0.3546
 3658SOL    HW122433   0.732   4.677  11.573 -0.1323  1.7484 -1.6129
 3658SOL    HW222434   0.745   4.558  11.500 -0.2900 -0.1111 -0.2669
 3659SOL     OW22435   1.268   1.773   6.356  0.6211  0.4619  0.0302
 3659SOL    HW122436   1.226   1.725   6.284 -1.5308  3.6588 -0.8327
 3659SOL    HW222437   1.192   1.806   6.404 -0.8465  2.0531 -3.3872
 3660SOL     OW22438   3.871   1.059   1.580  0.4382 -0.0166  0.2981
 3660SOL    HW122439   3.909   0.976   1.549 -0.2621 -0.3711  0.3903
 3660SOL    HW222440   3.780   1.030   1.580  0.3391  0.2840  2.2501
 3661SOL     OW22441   0.063   4.385  16.819  0.2157 -0.5482 -0.4364
 3661SOL    HW122442   0.048   4.293  16.798  1.4932 -0.9393  0.3479
 3661SOL    HW222443   0.079   4.431  16.737  2.5470 -0.9018 -0.1758
 3662SOL     OW22444   3.234   3.853   4.597 -0.3882 -0.3916  0.4540
 3662SOL    HW122445   3.230   3.938   4.642  4.6269  0.7096 -1.1805
 3662SOL    HW222446   3.321   3.827   4.628  0.2946  1.3708  0.0120
 3663SOL     OW22447   2.537   2.145   3.148 -0.2470 -0.3866  0.0986
 3663SOL    HW122448   2.486   2.103   3.078  2.0805 -0.4852 -1.5366
 3663SOL    HW222449   2.537   2.235   3.116  4.4841 -0.7742 -0.9678
 3664SOL     OW22450   3.226   3.592  13.483  0.4953 -0.1863 -0.0808
 3664SOL    HW122451   3.261   3.513  13.523 -0.9701 -0.4792  0.6236
 3664SOL    HW222452   3.249   3.663  13.544 -1.8585 -1.1018  1.8937
 3665SOL     OW22453   3.833   2.422   9.389 -0.0584  0.5693  0.8258
 3665SOL    HW122454   3.912   2.411   9.337 -0.9431  2.0310 -0.8022
 3665SOL    HW222455   3.780   2.441   9.312 -0.6728 -1.0959  0.8250
 3666SOL     OW22456   1.715   0.003   3.173 -0.2547  0.2876  0.4299
 3666SOL    HW122457   1.794   0.011   3.120  0.4158  0.4264  1.4357
 3666SOL    HW222458   1.716   4.630   3.179  1.8300  0.2646 -0.0841
 3667SOL     OW22459   3.904   3.373  14.055 -0.3384  0.9144  0.6011
 3667SOL    HW122460   3.958   3.362  13.977 -0.0936  1.2151  0.7265
 3667SOL    HW222461   3.947   3.445  14.100  2.1623 -0.7955  0.9602
 3668SOL     OW22462   0.077   2.440  13.500  1.1890 -0.0556  0.1059
 3668SOL    HW122463   0.051   2.491  13.424 -0.5264  1.3130  1.5941
 3668SOL    HW222464   0.029   2.358  13.493  1.9913 -0.5342  0.1382
 3669SOL     OW22465   1.420   0.031   9.232 -0.4806  0.3269 -0.1342
 3669SOL    HW122466   1.477   0.015   9.157  0.4837  0.9192  0.4654
 3669SOL    HW222467   1.333   0.047   9.197 -1.0915 -1.2586  0.6603
 3670SOL     OW22468   2.554   1.250   2.117  0.1578  0.4188 -0.1070
 3670SOL    HW122469   2.573   1.194   2.193  0.2609  3.2041  1.9330
 3670SOL    HW222470   2.513   1.322   2.165 -0.2387 -0.5414  0.9914
 3671SOL     OW22471   3.267   0.157   4.742  0.3134  0.1788 -0.1498
 3671SOL    HW122472   3.354   0.126   4.717  1.0478  1.1247  1.2541
 3671SOL    HW222473   3.208   0.123   4.675 -1.0046 -0.9065  1.5665
 3672SOL     OW22474   4.165   3.659   2.589 -0.3241 -0.0692  0.4179
 3672SOL    HW122475   4.202   3.744   2.614 -1.4525  0.2767  0.9342
 3672SOL    HW222476   4.225   3.605   2.639  1.6351  0.7747 -1.0466
 3673SOL     OW22477   2.786   2.638  14.053  0.3646 -0.1540 -0.2617
 3673SOL    HW122478   2.802   2.667  13.963  1.1553  1.5046  0.3949
 3673SOL    HW222479   2.782   2.722  14.099 -2.5307 -0.8355  0.6965
 3674SOL     OW22480   4.568   4.703  12.566 -0.3467  0.2323 -0.1000
 3674SOL    HW122481   4.510   0.049  12.533 -1.0063  0.2641  1.1013
 3674SOL    HW222482   4.609   4.662  12.490 -0.0486 -2.1175  1.2987
 3675SOL     OW22483   3.517   1.834   4.774  0.0602 -0.2508  0.0764
 3675SOL    HW122484   3.590   1.793   4.821  0.0800 -1.9150 -1.4360
 3675SOL    HW222485   3.444   1.779   4.801 -0.7967  1.3819  1.0679
 3676SOL     OW22486   0.639   1.606   8.862 -0.0586 -0.2336  0.2143
 3676SOL    HW122487   0.636   1.693   8.903 -0.3152  0.0326 -0.3731
 3676SOL    HW222488   0.727   1.580   8.890  0.6277  1.3712 -0.4836
 3677SOL     OW22489   0.685   1.253   5.496 -0.1182 -0.3720  0.0279
 3677SOL    HW122490   0.744   1.327   5.479 -1.8909  1.1033  0.3381
 3677SOL    HW222491   0.604   1.301   5.479  0.7698  1.6186  1.4983
 3678SOL     OW22492   1.828   0.172   8.886  0.2447  0.1471  0.0948
 3678SOL    HW122493   1.816   0.181   8.791  0.9624 -2.5723 -0.2500
 3678SOL    HW222494   1.737   0.181   8.914 -0.4540 -2.4155 -1.3183
 3679SOL     OW22495   2.103   4.648  16.523 -0.3857 -0.1725 -0.2039
 3679SOL    HW122496   2.187   4.604  16.519 -0.5383 -0.7180  2.3573
 3679SOL    HW222497   2.087   4.664  16.616 -2.0279 -0.3902 -0.4511
 3680SOL     OW22498   1.975   1.014   7.395  0.1176 -0.3822  0.5418
 3680SOL    HW122499   1.977   1.062   7.477 -0.6931 -1.8030  1.3840
 3680SOL    HW222500   1.936   1.085   7.344 -1.5768  0.0546  2.4532
 3681SOL     OW22501   0.446   1.148  17.637 -0.0002 -0.0319  0.0509
 3681SOL    HW122502   0.413   1.176  17.552 -2.5147  0.1667  1.0858
 3681SOL    HW222503   0.429   1.053  17.638  2.8076 -0.5429 -1.1039
 3682SOL     OW22504   3.764   4.328   5.144  0.1423  0.1012  0.1684
 3682SOL    HW122505   3.778   4.322   5.239  1.2202  1.2865  0.0819
 3682SOL    HW222506   3.734   4.419   5.143 -0.1111  0.0213  0.4252
 3683SOL     OW22507   0.014   1.997  15.612  0.2102 -0.1298 -0.3723
 3683SOL    HW122508   4.684   1.937  15.559 -1.0868 -0.7751  1.6668
 3683SOL    HW222509   4.687   1.996  15.694 -2.0728  0.1373 -1.7500
 3684SOL     OW22510   3.741   4.017   5.323 -0.3138 -0.0945 -0.0371
 3684SOL    HW122511   3.654   3.981   5.343 -0.8552  1.7068  0.8212
 3684SOL    HW222512   3.742   4.075   5.399  2.0550 -1.9734  1.3641
 3685SOL     OW22513   0.930   0.068   0.303  0.0131  0.1300 -0.1076
 3685SOL    HW122514   0.838   0.052   0.282 -0.1599  0.2554  0.5286
 3685SOL    HW222515   0.930   0.163   0.299 -0.9895  0.0549 -1.5317
 3686SOL     OW22516   0.497   2.504   7.676 -0.1308 -0.0770 -0.5011
 3686SOL    HW122517   0.401   2.496   7.676 -0.0965 -0.4807 -0.8333
 3686SOL    HW222518   0.491   2.558   7.755  0.7549 -2.1220  0.9755
 3687SOL     OW22519   3.371   2.486  11.969  0.3688 -0.6369  0.1196
 3687SOL    HW122520   3.399   2.420  11.905  1.4885  0.8193 -0.9022
 3687SOL    HW222521   3.277   2.484  11.949  0.0727  2.4117  1.2920
 3688SOL     OW22522   1.374   2.407   4.125  0.3566  0.0003  0.3404
 3688SOL    HW122523   1.428   2.411   4.204  0.7692 -1.4846  0.1361
 3688SOL    HW222524   1.313   2.480   4.124  0.4783  0.1133  1.0525
 3689SOL     OW22525   0.470   0.868   6.244  0.3285  0.5885  0.7955
 3689SOL    HW122526   0.470   0.944   6.302  1.6091  0.1077  1.4212
 3689SOL    HW222527   0.378   0.865   6.217  0.9075 -0.4294 -1.0588
 3690SOL     OW22528   1.068   4.568   7.021  0.0767  0.2633 -0.2079
 3690SOL    HW122529   0.992   4.603   6.975  0.2857 -0.6702 -1.2536
 3690SOL    HW222530   1.103   4.504   6.959 -1.3948 -1.5262  0.8116
 3691SOL     OW22531   3.329   0.554   4.675  0.3663 -0.2744  0.1623
 3691SOL    HW122532   3.324   0.628   4.615 -0.2412 -1.1026 -0.7850
 3691SOL    HW222533   3.384   0.495   4.624 -1.3640 -2.2832  0.6161
 3692SOL     OW22534   0.046   2.470   8.734 -0.0448 -0.5091  0.2636
 3692SOL    HW122535   0.001   2.474   8.819 -1.7352 -0.3168 -0.6312
 3692SOL    HW222536   0.133   2.493   8.767  0.0087  0.3675 -0.4680
 3693SOL     OW22537   0.606   2.323   3.549  0.2812 -0.4363  0.7299
 3693SOL    HW122538   0.653   2.247   3.514 -0.0327 -0.1859 -0.2188
 3693SOL    HW222539   0.643   2.339   3.636 -0.3326  1.6695  0.6042
 3694SOL     OW22540   0.497   1.402   4.527 -0.0218 -0.1881  1.0365
 3694SOL    HW122541   0.558   1.467   4.562 -0.6857  1.9720 -1.8768
 3694SOL    HW222542   0.486   1.350   4.607  0.3659 -1.4392  0.2812
 3695SOL     OW22543   3.483   2.913  11.293  0.1842 -0.2312  0.9924
 3695SOL    HW122544   3.429   2.857  11.349  0.5857  0.2892  1.9124
 3695SOL    HW222545   3.469   2.998  11.337  0.9624 -0.1489  1.0797
 3696SOL     OW22546   4.499   2.238   4.367  0.1446  0.4784  0.0575
 3696SOL    HW122547   4.593   2.249   4.353  0.6312 -2.8901  0.8467
 3696SOL    HW222548   4.484   2.172   4.299 -0.6000  0.2000  0.4894
 3697SOL     OW22549   4.448   0.778  13.110  0.6629  0.0562  0.4323
 3697SOL    HW122550   4.417   0.687  13.110  2.0669 -0.4145 -1.5831
 3697SOL    HW222551   4.516   0.785  13.043  0.4680  1.7799  0.4295
 3698SOL     OW22552   4.393   1.285   9.350  0.5757 -0.2153  0.2856
 3698SOL    HW122553   4.438   1.326   9.276 -0.9122 -0.3555 -0.6874
 3698SOL    HW222554   4.425   1.339   9.423 -0.0886  1.6350 -0.8094
 3699SOL     OW22555   0.548   1.731  10.579 -0.7030  0.1730  1.0189
 3699SOL    HW122556   0.584   1.783  10.507  0.5097 -1.0434  0.7708
 3699SOL    HW222557   0.514   1.666  10.518  1.2677  0.2864 -0.1686
 3700SOL     OW22558   0.008   0.398   9.046 -0.1468 -0.3040  0.0725
 3700SOL    HW122559   4.661   0.375   9.108  0.4446 -2.1821  0.0168
 3700SOL    HW222560   0.049   0.464   9.103  0.4534 -0.3019 -0.3709
 3701SOL     OW22561   0.462   0.540   4.713  0.2676  0.1190 -0.3690
 3701SOL    HW122562   0.463   0.518   4.806 -1.6799 -0.6508 -0.5310
 3701SOL    HW222563   0.425   0.458   4.680 -0.0349 -0.4020  1.2519
 3702SOL     OW22564   0.668   4.095   8.534 -0.5725 -0.1617  0.3772
 3702SOL    HW122565   0.615   4.106   8.613 -1.1900  0.1171 -0.0685
 3702SOL    HW222566   0.733   4.030   8.559  0.1400  0.2938 -0.2943
 3703SOL     OW22567   1.351   3.242   1.368  0.0248  0.5003 -0.0256
 3703SOL    HW122568   1.311   3.268   1.285  0.2651  1.3791  0.1319
 3703SOL    HW222569   1.442   3.223   1.345 -0.0217  1.5775 -1.0941
 3704SOL     OW22570   2.225   2.684   5.322  0.0357  0.2490 -0.1372
 3704SOL    HW122571   2.176   2.689   5.403  1.9621 -0.9968  1.0983
 3704SOL    HW222572   2.156   2.650   5.265  0.8307 -1.6485  0.0394
 3705SOL     OW22573   0.838   2.532   2.714  0.1706  0.5981 -0.4685
 3705SOL    HW122574   0.913   2.544   2.656  1.0919 -1.3748  0.3090
 3705SOL    HW222575   0.867   2.602   2.774  2.3015  0.5758 -1.4582
 3706SOL     OW22576   1.725   4.608  15.320 -0.1604 -0.0518 -0.4113
 3706SOL    HW122577   1.673   4.542  15.366 -0.8240 -0.9079 -2.3680
 3706SOL    HW222578   1.741   4.565  15.236 -0.5831 -1.5406  0.2769
 3707SOL     OW22579   1.854   3.966   4.513 -0.2279 -0.2182  0.3530
 3707SOL    HW122580   1.933   3.913   4.503 -0.7944 -0.7178 -1.5624
 3707SOL    HW222581   1.883   4.041   4.462  0.0846 -0.5065  0.1063
 3708SOL     OW22582   0.021   1.093   1.511 -0.0325  0.3972  0.0771
 3708SOL    HW122583   4.716   1.005   1.486  1.3533 -0.3757  1.2554
 3708SOL    HW222584   0.079   1.076   1.585 -0.0178 -0.4278 -0.1231
 3709SOL     OW22585   4.659   4.115   8.696  0.0755 -0.2669 -0.3281
 3709SOL    HW122586   4.689   4.184   8.755 -1.0732 -0.8896  1.0136
 3709SOL    HW222587   4.693   4.035   8.736 -1.4777 -0.6478  0.2643
 3710SOL     OW22588   2.043   2.719   4.923 -0.2673 -0.0656  0.0180
 3710SOL    HW122589   2.046   2.683   4.834 -1.1632  1.4452 -0.6264
 3710SOL    HW222590   2.134   2.739   4.944  0.2942 -1.5467 -0.9680
 3711SOL     OW22591   1.697   3.703   3.440  0.1347  0.1412 -0.3107
 3711SOL    HW122592   1.740   3.779   3.401  1.3194 -0.8146 -0.8855
 3711SOL    HW222593   1.624   3.696   3.379  0.6304 -3.4787 -0.4967
 3712SOL     OW22594   0.516   3.845   6.550 -0.1838 -0.6070  0.2921
 3712SOL    HW122595   0.522   3.910   6.480  0.1995 -0.6361  0.3001
 3712SOL    HW222596   0.425   3.814   6.546  0.0238 -1.2327  0.4353
 3713SOL     OW22597   0.829   2.656  11.630 -0.3582  0.3177 -0.1116
 3713SOL    HW122598   0.768   2.727  11.608 -0.2385 -0.3907 -2.7038
 3713SOL    HW222599   0.882   2.704  11.694 -0.3530 -0.3349  0.3775
 3714SOL     OW22600   3.638   2.300  13.972  0.4336  0.4348 -0.0604
 3714SOL    HW122601   3.698   2.248  14.025  0.2015  1.0565  0.8226
 3714SOL    HW222602   3.568   2.332  14.029 -0.9216  0.3045 -1.6435
 3715SOL     OW22603   0.937   0.480  12.731  0.0219  0.1650  0.0369
 3715SOL    HW122604   0.947   0.507  12.640  0.4293 -0.3704 -0.0771
 3715SOL    HW222605   1.025   0.456  12.761  0.6679  2.6778  0.1937
 3716SOL     OW22606   4.563   3.313   0.743 -0.1586 -0.5327  0.0019
 3716SOL    HW122607   4.471   3.335   0.724 -0.0757 -0.1157  0.0871
 3716SOL    HW222608   4.573   3.219   0.728 -0.3565 -1.2031  4.0079
 3717SOL     OW22609   2.960   4.021   2.597  0.2371 -0.0997 -1.0246
 3717SOL    HW122610   2.896   4.089   2.577  1.3584  1.1310 -0.3952
 3717SOL    HW222611   2.933   4.011   2.688 -0.9054 -1.1528 -1.4729
 3718SOL     OW22612   0.165   1.426   7.502 -0.1558 -0.0943 -0.3264
 3718SOL    HW122613   0.150   1.338   7.535  1.1222  0.1162  0.8221
 3718SOL    HW222614   0.169   1.402   7.410 -1.3773 -1.6422  0.0243
 3719SOL     OW22615   1.264   1.048   8.723 -0.4894 -0.0805 -0.2406
 3719SOL    HW122616   1.300   1.010   8.643 -2.4690 -0.6626 -0.8320
 3719SOL    HW222617   1.177   1.073   8.694  0.5343  1.1217 -2.2562
 3720SOL     OW22618   3.136   1.140  16.319 -0.3196  0.1304  0.0475
 3720SOL    HW122619   3.161   1.131  16.411  0.6643 -1.9385 -0.4263
 3720SOL    HW222620   3.048   1.105  16.310  0.0213 -0.4396 -1.0399
 3721SOL     OW22621   1.712   2.401   8.239  0.3089 -0.2835  0.5152
 3721SOL    HW122622   1.685   2.431   8.152  1.3863 -1.2958 -0.1665
 3721SOL    HW222623   1.668   2.318   8.257 -0.5305  0.5287  2.2354
 3722SOL     OW22624   1.945   3.598   7.734  0.1332 -0.4310 -0.0949
 3722SOL    HW122625   1.920   3.648   7.656 -2.1791  1.4057  1.8063
 3722SOL    HW222626   1.957   3.671   7.795 -0.6363 -2.6067  2.6536
 3723SOL     OW22627   1.946   2.245  10.668  0.1380  0.3667 -0.0676
 3723SOL    HW122628   2.019   2.294  10.706  0.6809  0.1144 -0.7910
 3723SOL    HW222629   1.914   2.320  10.616 -0.2097 -0.5872 -1.2311
 3724SOL     OW22630   1.053   0.779   1.969 -0.2927 -0.6070 -0.0913
 3724SOL    HW122631   1.105   0.699   1.970 -2.7933 -2.2250 -2.6031
 3724SOL    HW222632   1.127   0.839   1.959 -1.1308  0.0236 -2.3844
 3725SOL     OW22633   3.365   0.297   9.325 -0.2065 -0.0647 -0.1305
 3725SOL    HW122634   3.428   0.250   9.270  1.1084  0.5746  0.8283
 3725SOL    HW222635   3.417   0.352   9.384  1.1876 -2.4096  0.8320
 3726SOL     OW22636   1.324   2.039   2.967 -0.2708  0.2504 -0.1821
 3726SOL    HW122637   1.383   2.002   2.900  0.1989  0.7610 -0.0454
 3726SOL    HW222638   1.382   2.069   3.037 -1.0486  0.9322  0.1636
 3727SOL     OW22639   2.092   2.834   6.192 -0.4198 -0.0252 -0.5017
 3727SOL    HW122640   2.148   2.790   6.256 -1.1839  0.0532  0.2234
 3727SOL    HW222641   2.018   2.871   6.240 -0.3037  2.0533 -1.9044
 3728SOL     OW22642   4.275   1.035   3.694  0.1597 -0.5638  0.0895
 3728SOL    HW122643   4.233   1.088   3.627  0.7284  0.2947  0.4151
 3728SOL    HW222644   4.337   1.100   3.728  0.8641 -1.1392 -0.0985
 3729SOL     OW22645   0.805   1.040   7.279 -0.2211 -0.0400 -0.2986
 3729SOL    HW122646   0.898   1.037   7.261 -0.3441 -0.4190 -0.8431
 3729SOL    HW222647   0.774   0.952   7.257  1.0963 -0.5549 -0.0535
 3730SOL     OW22648   0.045   2.584  10.814  0.1010  0.3007  1.0145
 3730SOL    HW122649   0.131   2.575  10.771  0.2735 -0.8162  1.5981
 3730SOL    HW222650   0.043   2.680  10.819 -0.6631  0.3786 -0.6688
 3731SOL     OW22651   0.159   0.702  16.443 -0.5794 -0.2122 -0.4085
 3731SOL    HW122652   0.199   0.628  16.398 -0.5740  0.4974 -1.5710
 3731SOL    HW222653   0.112   0.746  16.372 -0.8628 -0.5682 -0.4393
 3732SOL     OW22654   2.234   0.027   2.742 -0.1422  0.1687 -0.5938
 3732SOL    HW122655   2.297   0.097   2.758  0.4588 -0.4412 -0.2799
 3732SOL    HW222656   2.164   0.080   2.706 -1.3434 -2.0662 -1.5436
 3733SOL     OW22657   1.116   4.522   5.912  0.0519 -0.1223 -0.4778
 3733SOL    HW122658   1.051   4.545   5.846  0.2403 -0.6802 -0.8545
 3733SOL    HW222659   1.105   4.595   5.973 -1.6911  0.5402 -1.5838
 3734SOL     OW22660   0.762   2.349   2.908  0.1413  0.3050 -0.4056
 3734SOL    HW122661   0.697   2.398   2.958  0.1356  1.4659 -1.5710
 3734SOL    HW222662   0.779   2.413   2.839  0.2766  0.0033 -0.6503
 3735SOL     OW22663   3.279   4.714   9.029 -0.8547  0.1874  0.0193
 3735SOL    HW122664   3.254   4.644   8.968 -0.0667  0.7018 -0.8951
 3735SOL    HW222665   3.253   0.062   8.970  0.0035 -0.3739 -1.0425
 3736SOL     OW22666   1.065   3.907   9.111  0.0149  0.4217  0.1102
 3736SOL    HW122667   1.155   3.918   9.139 -0.4806 -1.1221  2.3383
 3736SOL    HW222668   1.062   3.958   9.030 -0.8548  1.4616  0.7952
 3737SOL     OW22669   2.614   0.398  17.498 -0.0257  0.1101 -0.0176
 3737SOL    HW122670   2.588   0.421  17.409  0.1322  1.8190  0.3775
 3737SOL    HW222671   2.707   0.418  17.490  0.0009  0.2445  0.5853
 3738SOL     OW22672   2.847   3.188   0.145  0.2720  0.0017 -0.0333
 3738SOL    HW122673   2.922   3.199   0.204  0.0679 -3.4424  0.9153
 3738SOL    HW222674   2.865   3.256   0.081  0.0954 -1.6569 -1.8624
 3739SOL     OW22675   0.459   1.547   7.669 -0.3413 -0.2646 -0.2140
 3739SOL    HW122676   0.489   1.553   7.759  0.4940  0.2619 -0.5243
 3739SOL    HW222677   0.485   1.458   7.645  1.2357 -0.1807  1.2213
 3740SOL     OW22678   3.855   1.484   5.035 -0.2320 -0.3878  0.6119
 3740SOL    HW122679   3.879   1.395   5.064  1.4208 -0.2139 -0.2254
 3740SOL    HW222680   3.761   1.483   5.053 -0.3674  1.7694  0.0059
 3741SOL     OW22681   0.228   2.927   2.402  0.8408  0.3587 -0.1877
 3741SOL    HW122682   0.300   2.878   2.442  1.2883 -0.2382 -1.7225
 3741SOL    HW222683   0.195   2.856   2.347 -2.1632  1.0921  0.6875
 3742SOL     OW22684   3.765   4.582   7.858  0.1412 -0.3380 -0.2388
 3742SOL    HW122685   3.730   4.623   7.937  1.1516  1.0221 -0.4971
 3742SOL    HW222686   3.849   4.544   7.884 -0.4863 -3.1044 -2.1973
 3743SOL     OW22687   3.532   1.075   6.417  0.0816 -0.1430  0.0139
 3743SOL    HW122688   3.484   1.070   6.335  1.6179  1.8464 -1.0114
 3743SOL    HW222689   3.608   1.019   6.398  0.2791  0.2143 -0.2346
 3744SOL     OW22690   4.713   1.831   8.611 -0.0232 -0.1077 -0.7149
 3744SOL    HW122691   0.019   1.799   8.525  1.3909  0.6190 -0.5140
 3744SOL    HW222692   0.075   1.826   8.655 -1.6168  2.4881  2.5913
 3745SOL     OW22693   4.305   3.118   6.219 -0.1729 -0.0733 -0.7310
 3745SOL    HW122694   4.278   3.027   6.232  2.0429 -0.5503  0.4851
 3745SOL    HW222695   4.243   3.147   6.152 -0.7788  0.5449  0.0997
 3746SOL     OW22696   3.490   3.254   6.842  0.2538 -0.4504 -0.6110
 3746SOL    HW122697   3.412   3.206   6.867  1.0535 -1.8659 -0.8534
 3746SOL    HW222698   3.452   3.330   6.799 -0.7830 -1.0271 -0.6940
 3747SOL     OW22699   4.296   1.603   8.058 -0.7027  0.5628  0.2626
 3747SOL    HW122700   4.210   1.644   8.066 -0.2492  1.5572  0.0769
 3747SOL    HW222701   4.316   1.587   8.151 -1.8994 -2.0387  0.0775
 3748SOL     OW22702   2.132   4.471   9.232  0.1153  0.4197 -0.1505
 3748SOL    HW122703   2.151   4.488   9.324 -0.0950 -0.0386 -0.0239
 3748SOL    HW222704   2.060   4.409   9.241  0.1302  0.5137  0.6203
 3749SOL     OW22705   0.357   2.447   1.666  0.1669  0.5394 -0.8459
 3749SOL    HW122706   0.428   2.441   1.602 -0.0757 -0.3198 -1.0446
 3749SOL    HW222707   0.292   2.394   1.619  0.8101  0.7985 -2.0114
 3750SOL     OW22708   2.109   1.319  11.463  0.4464 -0.4629 -0.4277
 3750SOL    HW122709   2.089   1.353  11.550 -1.4051 -0.1252 -1.0048
 3750SOL    HW222710   2.202   1.344  11.462 -0.0256  1.3278  0.3378
 3751SOL     OW22711   0.617   3.787   3.803 -0.1881  0.0147 -0.1673
 3751SOL    HW122712   0.542   3.829   3.846 -1.6875 -1.7024 -1.1095
 3751SOL    HW222713   0.682   3.824   3.862  0.0840 -0.8096  0.0478
 3752SOL     OW22714   4.296   1.013   0.831  0.2390  0.2220 -0.6711
 3752SOL    HW122715   4.373   0.957   0.822  0.9200  1.3636 -2.0187
 3752SOL    HW222716   4.331   1.094   0.868 -3.0084  1.4917 -0.3588
 3753SOL     OW22717   0.218   3.089   6.103 -0.0348  0.1671  0.8329
 3753SOL    HW122718   0.174   3.097   6.019 -0.5863 -1.2779  0.9897
 3753SOL    HW222719   0.310   3.077   6.077 -0.2563 -0.4996  0.3833
 3754SOL     OW22720   0.128   0.189  15.476 -0.2404  0.3686 -0.1790
 3754SOL    HW122721   0.174   0.218  15.554  0.8608 -1.7741 -0.0295
 3754SOL    HW222722   0.198   0.164  15.416 -1.4934  0.0134 -1.5026
 3755SOL     OW22723   1.610   1.676   7.193 -0.3670 -0.0031  0.2894
 3755SOL    HW122724   1.665   1.685   7.271  0.1704 -0.0782 -0.0800
 3755SOL    HW222725   1.609   1.580   7.194  1.3457 -0.0509 -1.2158
 3756SOL     OW22726   3.645   2.737  17.343  0.0193 -0.5936  0.6112
 3756SOL    HW122727   3.643   2.641  17.348 -0.0766 -0.6860 -1.3271
 3756SOL    HW222728   3.734   2.744  17.379  0.0044 -0.7520  0.6820
 3757SOL     OW22729   1.891   1.917  13.503  0.3662  0.9582 -0.2383
 3757SOL    HW122730   1.954   1.987  13.490  1.6505 -0.3549 -1.0760
 3757SOL    HW222731   1.819   1.933  13.442 -0.1784  1.9805  0.6737
 3758SOL     OW22732   1.473   1.166  10.185  0.2688  0.2360  0.2666
 3758SOL    HW122733   1.387   1.190  10.220 -0.5914 -2.0595 -0.2514
 3758SOL    HW222734   1.453   1.170  10.092  0.1438  0.2128  0.2927
 3759SOL     OW22735   2.478   3.157   3.927  0.4206 -0.0883  0.6971
 3759SOL    HW122736   2.549   3.114   3.879 -0.4859 -2.1962  1.2126
 3759SOL    HW222737   2.505   3.127   4.014 -4.0163 -1.7520  1.5056
 3760SOL     OW22738   1.065   0.227  16.054 -0.2124  0.3532  0.4366
 3760SOL    HW122739   1.024   0.213  15.969  0.6525  0.4812  0.0029
 3760SOL    HW222740   1.054   0.322  16.063  2.1586  0.5807  0.9336
 3761SOL     OW22741   4.032   2.440   8.804  0.2263  0.0899  0.0063
 3761SOL    HW122742   4.011   2.347   8.793  0.2079  0.1952 -0.8117
 3761SOL    HW222743   4.128   2.434   8.806  0.2531  0.7634  0.6936
 3762SOL     OW22744   1.154   2.648   7.079  0.6292  0.4309 -0.2590
 3762SOL    HW122745   1.070   2.612   7.051  0.5154  1.6834 -1.5588
 3762SOL    HW222746   1.143   2.730   7.032  0.5442 -0.0055 -1.0125
 3763SOL     OW22747   4.396   2.979   8.349  0.1037 -0.0770 -0.0175
 3763SOL    HW122748   4.311   2.958   8.311 -0.1191  0.8276 -0.0083
 3763SOL    HW222749   4.414   3.063   8.307 -1.6771  0.9568  1.3071
 3764SOL     OW22750   4.313   2.372   5.414 -0.6180  0.5915  0.0038
 3764SOL    HW122751   4.304   2.373   5.319 -1.6310  2.6888  0.1256
 3764SOL    HW222752   4.344   2.460   5.435  2.1617 -0.9513  2.5151
 3765SOL     OW22753   3.086   4.135   7.882  0.0058 -0.4392 -0.2484
 3765SOL    HW122754   3.115   4.193   7.811 -1.3918 -0.5021 -0.8655
 3765SOL    HW222755   2.991   4.141   7.886  0.0155 -0.3900 -0.1092
 3766SOL     OW22756   1.841   0.588   8.865 -0.4380 -0.0365 -0.2535
 3766SOL    HW122757   1.851   0.497   8.836  2.3395  0.2596 -0.2754
 3766SOL    HW222758   1.929   0.596   8.902 -1.5778  1.6920  2.0937
 3767SOL     OW22759   4.392   2.873  11.128 -0.5131  0.1774  0.6970
 3767SOL    HW122760   4.440   2.940  11.080  0.7211 -0.4170  1.1089
 3767SOL    HW222761   4.468   2.816  11.138 -2.3282 -2.2175  0.8253
 3768SOL     OW22762   2.385   3.331   0.371 -0.3002  0.2374  0.0017
 3768SOL    HW122763   2.417   3.379   0.447 -0.5970 -0.4020  0.5270
 3768SOL    HW222764   2.460   3.278   0.343 -0.4514  0.5924 -1.1001
 3769SOL     OW22765   2.752   1.641   4.084 -0.1944 -0.3756 -0.0649
 3769SOL    HW122766   2.758   1.560   4.033 -1.4584  0.5277 -1.6532
 3769SOL    HW222767   2.705   1.690   4.016 -0.7986 -1.4060 -0.4074
 3770SOL     OW22768   0.415   1.765   4.800 -0.4614 -0.1128 -0.4043
 3770SOL    HW122769   0.365   1.825   4.855  1.6877  0.4705  0.9016
 3770SOL    HW222770   0.467   1.729   4.872  0.5662  0.4725 -0.8509
 3771SOL     OW22771   3.024   1.467  11.917 -0.6177 -0.1381 -0.0165
 3771SOL    HW122772   2.987   1.389  11.876  0.8827 -0.9032  0.0906
 3771SOL    HW222773   2.996   1.457  12.008 -1.4062 -0.1865 -0.2671
 3772SOL     OW22774   2.098   4.692   5.946 -0.0477  0.3096  0.0832
 3772SOL    HW122775   2.140   0.003   5.867 -0.5792 -1.3313 -0.8842
 3772SOL    HW222776   2.020   0.026   5.945 -0.0560  0.3195  0.9470
 3773SOL     OW22777   0.722   2.250   1.647  0.2021  0.1850  0.8455
 3773SOL    HW122778   0.658   2.290   1.706 -0.2815  2.9582 -1.5296
 3773SOL    HW222779   0.749   2.170   1.691  0.7177 -0.5048 -0.7327
 3774SOL     OW22780   0.006   2.309  15.065 -0.0442  0.5291  0.1883
 3774SOL    HW122781   0.070   2.279  15.130 -0.0136 -1.1057 -0.6148
 3774SOL    HW222782   4.648   2.276  15.104  0.2900  0.2265  0.6259
 3775SOL     OW22783   3.942   2.434   2.881  0.2719  0.2277  0.1870
 3775SOL    HW122784   3.946   2.480   2.797 -3.4686 -0.7786 -0.5004
 3775SOL    HW222785   3.918   2.347   2.851 -0.2762  0.5373 -0.2575
 3776SOL     OW22786   2.066   0.812   4.454  1.0288 -0.3318 -0.0909
 3776SOL    HW122787   2.155   0.813   4.419  1.1893  3.1080  0.3832
 3776SOL    HW222788   2.087   0.751   4.524  2.1249  0.5837  0.3698
 3777SOL     OW22789   1.444   3.460   3.584  0.0589 -0.3028  0.1879
 3777SOL    HW122790   1.448   3.446   3.678  1.0857 -1.4899 -0.0296
 3777SOL    HW222791   1.375   3.525   3.573 -1.1651 -1.1195  3.2176
 3778SOL     OW22792   3.026   0.165  11.750  0.3960 -0.0014  0.3905
 3778SOL    HW122793   3.035   0.260  11.756 -0.3155 -0.0319  2.0065
 3778SOL    HW222794   3.064   0.140  11.834  1.3655 -3.0848 -0.9398
 3779SOL     OW22795   2.970   3.210  15.364 -0.3964  0.3441  0.3256
 3779SOL    HW122796   2.976   3.115  15.371  0.7116  0.2766 -1.4321
 3779SOL    HW222797   2.994   3.230  15.454  2.2555  1.4042 -0.6134
 3780SOL     OW22798   2.860   2.826   3.293  0.3102  0.0935 -0.0355
 3780SOL    HW122799   2.796   2.754   3.297 -0.7584  1.0942  0.9908
 3780SOL    HW222800   2.897   2.803   3.208  1.0890 -0.8871  0.5627
 3781SOL     OW22801   0.291   2.525  17.491 -0.5282  0.5296 -0.2222
 3781SOL    HW122802   0.271   2.431  17.493 -0.7186  0.5780  0.3266
 3781SOL    HW222803   0.318   2.527  17.400  1.2279 -0.1502  0.2928
 3782SOL     OW22804   0.337   2.243  11.967  0.1999 -0.4069 -0.1128
 3782SOL    HW122805   0.382   2.292  12.036 -0.0925 -0.9530  0.4589
 3782SOL    HW222806   0.384   2.160  11.973  0.4621 -0.2678 -0.2146
 3783SOL     OW22807   3.418   1.852   1.914 -0.1252 -0.3712  0.3168
 3783SOL    HW122808   3.333   1.892   1.936 -1.9874 -2.9220 -2.1857
 3783SOL    HW222809   3.431   1.808   1.998  0.9316 -0.0831  0.3036
 3784SOL     OW22810   2.212   3.216   7.872  0.5551  0.3262 -0.5876
 3784SOL    HW122811   2.279   3.283   7.858  1.2821 -0.3693 -0.4817
 3784SOL    HW222812   2.170   3.266   7.942  0.8984  0.2573 -0.3273
 3785SOL     OW22813   1.385   4.521   5.942  0.0105 -0.8566  0.0668
 3785SOL    HW122814   1.390   4.583   6.015  1.1633 -1.3318  0.3837
 3785SOL    HW222815   1.290   4.517   5.927  0.0028  3.6730 -1.1214
 3786SOL     OW22816   1.070   3.377   4.537  0.3938 -0.1574  0.0740
 3786SOL    HW122817   1.020   3.324   4.599  1.1832 -1.3452 -0.3108
 3786SOL    HW222818   1.151   3.387   4.588  1.0074  3.3638 -1.5874
 3787SOL     OW22819   2.469   4.021   5.828  0.1239  0.4158  0.1755
 3787SOL    HW122820   2.541   4.074   5.861  1.3867 -2.3334  1.8980
 3787SOL    HW222821   2.503   3.985   5.746  0.6550  1.0760  0.1097
 3788SOL     OW22822   1.312   1.388   7.398  0.1491  0.0414 -0.1046
 3788SOL    HW122823   1.224   1.355   7.379 -0.2198  1.5027 -0.9540
 3788SOL    HW222824   1.345   1.415   7.312 -0.8456 -2.9209 -1.3977
 3789SOL     OW22825   3.163   2.935   7.462 -0.0593  0.3882  0.3399
 3789SOL    HW122826   3.244   2.985   7.452  0.6686 -0.6006  1.2581
 3789SOL    HW222827   3.124   2.972   7.542  1.0204 -0.6054  1.3282
 3790SOL     OW22828   3.629   3.422   9.566  0.0834 -0.1729 -0.2409
 3790SOL    HW122829   3.576   3.351   9.530 -1.4343  0.0902  1.4560
 3790SOL    HW222830   3.669   3.388   9.646 -0.0183 -2.0559 -0.9940
 3791SOL     OW22831   2.044   0.431  13.622  0.1294 -0.2766  0.0609
 3791SOL    HW122832   1.998   0.356  13.661  0.4761 -0.1715  0.6629
 3791SOL    HW222833   2.085   0.382  13.550  0.7114  0.2272  0.0519
 3792SOL     OW22834   1.010   2.306   5.400  0.2680  0.0143 -0.1621
 3792SOL    HW122835   0.951   2.292   5.326  0.1236 -1.5653  0.2461
 3792SOL    HW222836   0.956   2.350   5.466 -1.3021  0.2493 -1.6087
 3793SOL     OW22837   3.157   3.657   2.312 -0.1790  0.1211 -0.0745
 3793SOL    HW122838   3.164   3.744   2.350 -1.2997  0.3685 -0.4565
 3793SOL    HW222839   3.224   3.665   2.244 -1.4818 -1.9692 -1.6055
 3794SOL     OW22840   2.742   2.151   7.901  0.4249 -0.5422 -0.2196
 3794SOL    HW122841   2.751   2.246   7.910  0.5760 -0.5625 -0.1638
 3794SOL    HW222842   2.653   2.146   7.866  0.3219 -2.1661  0.2520
 3795SOL     OW22843   1.308   1.417   2.322 -0.3300  0.8373  0.5712
 3795SOL    HW122844   1.357   1.372   2.391 -0.8610  1.2155  1.1887
 3795SOL    HW222845   1.367   1.402   2.248  1.0201  1.9899  1.4118
 3796SOL     OW22846   2.261   4.468  13.329  0.7450 -0.1699 -0.0034
 3796SOL    HW122847   2.254   4.407  13.402 -2.1491  0.8061  0.5713
 3796SOL    HW222848   2.231   4.411  13.259 -2.7101  1.5487  0.0927
 3797SOL     OW22849   4.555   3.843   0.552 -0.4824  0.3328  0.6360
 3797SOL    HW122850   4.535   3.756   0.517  0.4633  0.5666 -0.4742
 3797SOL    HW222851   4.639   3.879   0.524 -0.6268  0.0993 -0.1043
 3798SOL     OW22852   0.445   0.369   8.473  0.3300 -0.0995  0.4662
 3798SOL    HW122853   0.419   0.333   8.558  1.8069  0.0273  0.9658
 3798SOL    HW222854   0.526   0.414   8.498  0.5913 -0.5336  0.3897
 3799SOL     OW22855   3.803   2.172  10.221  0.4723 -0.7424  0.0166
 3799SOL    HW122856   3.784   2.196  10.130  0.6892  2.6487  0.8526
 3799SOL    HW222857   3.896   2.151  10.215  1.5110  4.1061 -1.2657
 3800SOL     OW22858   4.519   0.510   8.639  0.6502 -0.2850 -0.0586
 3800SOL    HW122859   4.450   0.452   8.671  0.1982  0.5976  0.5449
 3800SOL    HW222860   4.529   0.483   8.547  0.1941 -0.4283 -0.0688
 3801SOL     OW22861   3.916   0.891   1.262  0.1409 -0.1040  0.5705
 3801SOL    HW122862   3.917   0.968   1.206 -1.0444 -0.8989 -0.5321
 3801SOL    HW222863   3.843   0.841   1.227  0.1807  0.1963  0.0619
 3802SOL     OW22864   4.126   0.825   2.905 -0.5631 -0.6418 -0.4160
 3802SOL    HW122865   4.205   0.824   2.959 -1.3621 -1.2277  0.7312
 3802SOL    HW222866   4.091   0.910   2.932 -0.5236 -0.5427 -0.6772
 3803SOL     OW22867   2.849   3.649   8.372  0.2024 -0.7169  0.5025
 3803SOL    HW122868   2.838   3.646   8.467  1.0589 -1.6450  0.5731
 3803SOL    HW222869   2.800   3.729   8.352  2.0429  0.3791  0.3677
 3804SOL     OW22870   2.987   2.526   5.899  0.1332  0.0304  0.5937
 3804SOL    HW122871   2.956   2.517   5.989 -2.6123 -0.2018 -0.3718
 3804SOL    HW222872   2.926   2.469   5.852  2.1977 -0.1062 -1.9409
 3805SOL     OW22873   1.213   1.922   5.713 -0.2165 -0.4047  0.1795
 3805SOL    HW122874   1.207   1.830   5.740  1.4606 -0.3061  0.8824
 3805SOL    HW222875   1.134   1.970   5.738 -0.7368 -0.2153 -1.8735
 3806SOL     OW22876   2.372   0.230  10.021  0.3886  0.2567  0.2658
 3806SOL    HW122877   2.442   0.166  10.004 -0.2007 -0.2935 -0.0837
 3806SOL    HW222878   2.384   0.237  10.116 -2.0366  0.1486  0.5642
 3807SOL     OW22879   0.217   0.137   4.385  0.2693 -0.0374 -0.4205
 3807SOL    HW122880   0.199   0.044   4.396 -1.1296  0.6395  3.1669
 3807SOL    HW222881   0.153   0.164   4.451 -0.5437 -0.4357 -1.0482
 3808SOL     OW22882   2.672   4.411   2.681  0.1571  0.1454  0.2358
 3808SOL    HW122883   2.598   4.397   2.621 -0.5665 -0.2525  1.2124
 3808SOL    HW222884   2.652   4.501   2.707 -0.9046  0.2526 -0.9451
 3809SOL     OW22885   3.392   0.700   9.135  0.6692 -0.0560 -0.7273
 3809SOL    HW122886   3.417   0.736   9.050  0.4990 -0.6957 -1.0536
 3809SOL    HW222887   3.482   0.705   9.166  1.1152 -2.1883 -1.6648
 3810SOL     OW22888   2.004   0.271   3.998 -0.1815  0.1842 -0.6060
 3810SOL    HW122889   2.086   0.319   3.986 -0.6820  0.7021 -1.9094
 3810SOL    HW222890   1.963   0.326   4.065  0.6574 -0.1889  0.2248
 3811SOL     OW22891   3.320   1.119  14.696  0.1352  0.3521 -0.0089
 3811SOL    HW122892   3.258   1.178  14.653 -0.5113 -0.7039 -0.5145
 3811SOL    HW222893   3.377   1.107  14.620  2.1303  2.6154  1.1162
 3812SOL     OW22894   1.828   4.409   9.779 -0.5615  0.4288  0.6577
 3812SOL    HW122895   1.860   4.497   9.796 -1.1559  1.1194 -1.7164
 3812SOL    HW222896   1.800   4.378   9.865 -0.6041  0.0158  0.4929
 3813SOL     OW22897   0.019   3.131   6.632  0.0815 -0.4073  0.0572
 3813SOL    HW122898   4.706   3.105   6.547  0.9093 -1.5434  0.0689
 3813SOL    HW222899   4.659   3.142   6.679 -0.7198  1.0907 -1.6981
 3814SOL     OW22900   3.646   2.987  17.243 -1.0654  0.3011  0.6263
 3814SOL    HW122901   3.552   3.005  17.250 -1.3779 -0.5542 -1.2574
 3814SOL    HW222902   3.655   2.907  17.295  2.7917  1.4147  1.6271
 3815SOL     OW22903   0.581   3.972  11.368  0.0784 -0.5279  0.8626
 3815SOL    HW122904   0.564   4.027  11.444  1.7215  0.2912  0.6366
 3815SOL    HW222905   0.640   3.907  11.406  0.2951 -1.2230 -0.6614
 3816SOL     OW22906   1.513   4.148   0.921 -0.7058  0.5312 -0.1929
 3816SOL    HW122907   1.563   4.201   0.858  3.5743 -2.0864  1.0236
 3816SOL    HW222908   1.587   4.092   0.946  0.4543  1.8654 -0.6175
 3817SOL     OW22909   2.337   1.139   7.173  0.7283  0.2070 -0.0819
 3817SOL    HW122910   2.272   1.191   7.221 -0.6423 -0.1737 -1.5399
 3817SOL    HW222911   2.289   1.091   7.106  2.7417  2.8594 -3.3942
 3818SOL     OW22912   3.835   0.189   8.268  0.1288 -0.1969  0.0153
 3818SOL    HW122913   3.899   0.256   8.290  1.0370 -0.9462 -0.3462
 3818SOL    HW222914   3.826   0.143   8.351  1.5012 -1.7673 -0.7051
 3819SOL     OW22915   4.269   2.412   1.740  0.3104  0.4275 -0.3792
 3819SOL    HW122916   4.355   2.418   1.699 -0.7168 -0.0458 -2.5594
 3819SOL    HW222917   4.283   2.382   1.830 -0.6173  1.1158  0.0003
 3820SOL     OW22918   2.128   3.388   8.051 -0.3600  0.3218  0.3314
 3820SOL    HW122919   2.184   3.412   8.125  0.4910 -0.3854 -0.0931
 3820SOL    HW222920   2.050   3.358   8.097  0.3155  0.3569  1.5090
 3821SOL     OW22921   1.428   1.731   2.156 -0.3848  0.3819  0.2391
 3821SOL    HW122922   1.487   1.657   2.143 -0.0199  0.6169  0.5496
 3821SOL    HW222923   1.404   1.747   2.065 -3.1373  1.5709  1.1728
 3822SOL     OW22924   1.438   1.216  16.534  0.1933 -0.1749  1.0237
 3822SOL    HW122925   1.377   1.231  16.606  0.0808 -1.8009  1.2721
 3822SOL    HW222926   1.428   1.302  16.494 -1.0659 -1.1890 -0.8086
 3823SOL     OW22927   3.618   1.642   1.820 -0.0048 -0.4472 -0.0055
 3823SOL    HW122928   3.564   1.718   1.838  2.9850  1.2823  1.6479
 3823SOL    HW222929   3.706   1.657   1.854 -0.1391 -1.0730  0.6218
 3824SOL     OW22930   0.616   3.016   2.433  0.0649 -0.5351  0.5636
 3824SOL    HW122931   0.563   2.989   2.359  1.4454 -1.3467 -0.1285
 3824SOL    HW222932   0.700   2.988   2.397  0.9972  0.0765  2.2295
 3825SOL     OW22933   1.365   1.275   7.992 -0.0620 -0.3775  0.1801
 3825SOL    HW122934   1.286   1.314   7.957 -0.0619 -1.1341 -0.6595
 3825SOL    HW222935   1.394   1.353   8.040 -0.0479 -0.0867 -0.2978
 3826SOL     OW22936   3.625   3.522   3.854 -0.4383 -0.1069 -0.1543
 3826SOL    HW122937   3.596   3.600   3.806  2.6993  0.6460 -0.8295
 3826SOL    HW222938   3.549   3.490   3.902 -0.7347 -1.4233 -1.4976
 3827SOL     OW22939   4.417   3.647   8.784  0.1010 -0.7266  0.2406
 3827SOL    HW122940   4.372   3.562   8.786 -0.4395 -0.4559 -0.5057
 3827SOL    HW222941   4.502   3.624   8.822  1.3382  2.1547 -0.7738
 3828SOL     OW22942   4.370   0.465   9.903  0.2922  0.5459  0.3537
 3828SOL    HW122943   4.319   0.546   9.901 -1.2803 -0.4554 -0.3436
 3828SOL    HW222944   4.447   0.491   9.953  2.2294 -0.3376 -2.1950
 3829SOL     OW22945   1.389   2.181   2.524  0.1884 -0.6129  0.1766
 3829SOL    HW122946   1.401   2.125   2.600  2.0420  0.1933  0.4981
 3829SOL    HW222947   1.294   2.186   2.520  0.3880  2.1133 -1.6615
 3830SOL     OW22948   0.878   2.851   6.338 -0.0924 -0.3763 -1.0328
 3830SOL    HW122949   0.904   2.760   6.353 -1.8327 -0.9955 -1.8609
 3830SOL    HW222950   0.906   2.864   6.248  0.8953 -0.5906 -0.7656
 3831SOL     OW22951   4.357   2.614   9.412 -0.1486  0.2352 -0.0013
 3831SOL    HW122952   4.299   2.668   9.465 -1.2706  0.0406 -1.0474
 3831SOL    HW222953   4.430   2.597   9.471  0.3020  1.9137 -0.0684
 3832SOL     OW22954   3.700   4.705   8.086 -0.4783 -0.2862  0.3140
 3832SOL    HW122955   3.758   0.042   8.133  0.7045 -1.6978  0.6200
 3832SOL    HW222956   3.614   0.014   8.115 -0.7671  0.3241 -1.2064
 3833SOL     OW22957   4.513   4.556   1.890  0.0067  0.4338 -0.1267
 3833SOL    HW122958   4.482   4.641   1.858 -2.1679 -0.6685 -0.9372
 3833SOL    HW222959   4.562   4.580   1.969  1.8614 -0.3137 -1.0663
 3834SOL     OW22960   3.836   0.735  10.993 -0.5208 -0.0460 -0.7870
 3834SOL    HW122961   3.928   0.756  10.975 -1.0094  2.0794 -0.8612
 3834SOL    HW222962   3.833   0.746  11.088 -0.4795 -2.7517 -0.4859
 3835SOL     OW22963   2.662   3.188   6.313  0.1027 -0.8667 -0.1216
 3835SOL    HW122964   2.596   3.128   6.346  1.3081 -1.3955  1.3444
 3835SOL    HW222965   2.716   3.128   6.263  1.5831 -0.6810  1.2342
 3836SOL     OW22966   3.893   0.692   8.570  0.2444  0.3479 -0.2468
 3836SOL    HW122967   3.967   0.690   8.631 -1.1779 -1.0198  1.4301
 3836SOL    HW222968   3.931   0.722   8.487 -1.8814 -0.2263 -1.4199
 3837SOL     OW22969   0.018   2.075   0.489  0.1333 -0.1982  0.3491
 3837SOL    HW122970   0.089   2.018   0.460  0.8817  0.4044  0.9875
 3837SOL    HW222971   0.059   2.158   0.464  0.4239 -0.9619 -1.6845
 3838SOL     OW22972   3.910   4.684   6.637 -0.4831 -0.1354  0.5934
 3838SOL    HW122973   3.998   4.719   6.622 -0.0654 -1.8902 -1.0454
 3838SOL    HW222974   3.922   4.607   6.581  0.0217  0.6752 -0.4215
 3839SOL     OW22975   2.922   0.341   8.479  0.1625  0.5330  0.4475
 3839SOL    HW122976   2.940   0.250   8.455  0.2737  0.8062 -0.5380
 3839SOL    HW222977   3.007   0.355   8.522  0.3226 -0.8700  0.5859
 3840SOL     OW22978   2.515   4.591  10.668 -0.1536  0.1889  0.2930
 3840SOL    HW122979   2.421   4.603  10.656 -0.2754 -0.4913  0.5322
 3840SOL    HW222980   2.512   4.496  10.679  1.1853  0.1906  0.6990
 3841SOL     OW22981   1.424   3.692  12.567 -0.3135  0.6863  0.0017
 3841SOL    HW122982   1.361   3.634  12.525 -0.5476  0.4864  0.6160
 3841SOL    HW222983   1.490   3.627  12.592  1.2031  1.8107 -1.1012
 3842SOL     OW22984   0.271   1.564  15.441 -0.2708 -0.1645  0.1595
 3842SOL    HW122985   0.342   1.560  15.505 -0.1322 -2.6592 -0.1607
 3842SOL    HW222986   0.217   1.489  15.466 -1.1057  1.0619  2.0325
 3843SOL     OW22987   2.081   1.750  13.607 -0.2092  0.1835  0.6759
 3843SOL    HW122988   2.019   1.818  13.580  1.4527  0.6173 -2.0572
 3843SOL    HW222989   2.035   1.714  13.683 -1.2571 -0.3479 -0.2048
 3844SOL     OW22990   3.750   2.826  13.739 -0.2381  0.2390 -0.2923
 3844SOL    HW122991   3.797   2.909  13.729 -0.1438  0.4399  1.8299
 3844SOL    HW222992   3.800   2.800  13.817  1.0707  2.0213 -0.5310
 3845SOL     OW22993   2.793   0.118   7.396  0.3011 -0.0438  0.3736
 3845SOL    HW122994   2.719   0.137   7.453 -0.0693 -1.1038  0.2460
 3845SOL    HW222995   2.869   0.121   7.454 -0.2290  2.7885  0.9432
 3846SOL     OW22996   4.595   1.903   4.521 -0.0900  0.3127 -0.5710
 3846SOL    HW122997   4.567   1.974   4.464  0.8180  0.2323 -1.1185
 3846SOL    HW222998   4.666   1.947   4.570  0.2131  0.3190 -1.0209
 3847SOL     OW22999   1.049   2.749  11.793  0.5991 -0.0439  0.1285
 3847SOL    HW123000   1.099   2.671  11.769  0.9216  0.4736 -0.8878
 3847SOL    HW223001   1.053   2.750  11.889  0.9278 -0.7765  0.1261
 3848SOL     OW23002   3.878   2.840   5.960  0.5865 -0.1873  0.1693
 3848SOL    HW123003   3.809   2.866   6.021  1.9337  0.4041  1.4442
 3848SOL    HW223004   3.954   2.846   6.018 -0.8125  1.4164  1.8459
 3849SOL     OW23005   0.182   2.805   9.193 -0.2070 -0.1033  1.1961
 3849SOL    HW123006   0.124   2.846   9.257 -3.5079 -0.4011 -1.5967
 3849SOL    HW223007   0.158   2.716   9.218 -0.8138 -0.0650  0.7329
 3850SOL     OW23008   0.830   1.354  15.045  0.0792 -0.1329 -0.5203
 3850SOL    HW123009   0.786   1.374  14.963  1.2584  1.2822 -0.8176
 3850SOL    HW223010   0.831   1.442  15.084 -2.2423 -1.0689  1.6108
 3851SOL     OW23011   2.103   2.132   5.239 -0.0318  0.4582 -0.0649
 3851SOL    HW123012   2.188   2.173   5.253  0.0057  0.7434 -1.1384
 3851SOL    HW223013   2.126   2.056   5.186 -3.3278 -1.1709  0.8043
 3852SOL     OW23014   3.144   4.498   7.119 -0.1239  0.1841  0.4016
 3852SOL    HW123015   3.077   4.537   7.063 -0.2046 -2.1539 -1.1297
 3852SOL    HW223016   3.114   4.408   7.132  0.8736 -0.0784  0.8697
 3853SOL     OW23017   0.567   4.472   4.017  0.3681  0.3431 -0.0531
 3853SOL    HW123018   0.541   4.463   3.925 -0.3635  0.4182  0.1465
 3853SOL    HW223019   0.657   4.504   4.022  0.9399 -0.8974 -2.5033
 3854SOL     OW23020   0.506   1.453   3.830 -0.6894  0.0719  0.2860
 3854SOL    HW123021   0.420   1.471   3.867 -1.0951  1.4968 -1.4086
 3854SOL    HW223022   0.528   1.371   3.876  0.1923  0.6294  0.8520
 3855SOL     OW23023   1.062   4.305   2.265 -0.2307  0.3448 -0.4749
 3855SOL    HW123024   0.967   4.301   2.276 -0.1280  1.7227  0.8475
 3855SOL    HW223025   1.057   4.325   2.171  0.3699  0.2812 -0.5239
 3856SOL     OW23026   3.830   1.692   7.810  0.1211  0.4303  0.1850
 3856SOL    HW123027   3.740   1.661   7.810  0.2853 -0.0572  1.1002
 3856SOL    HW223028   3.822   1.777   7.767 -0.8760  0.4813  0.4844
 3857SOL     OW23029   0.395   1.260   6.789  0.1934 -0.4681  0.3661
 3857SOL    HW123030   0.455   1.229   6.856  0.2188 -0.6347  0.2651
 3857SOL    HW223031   0.331   1.303   6.846  1.1499  0.8601  0.4480
 3858SOL     OW23032   1.350   3.869   2.631  0.1991  0.1819  0.2545
 3858SOL    HW123033   1.272   3.919   2.608 -0.2909 -1.3465 -1.3725
 3858SOL    HW223034   1.342   3.793   2.574  1.3354  0.1376  0.1713
 3859SOL     OW23035   2.331   4.535   3.396  0.0853 -0.0729 -0.0789
 3859SOL    HW123036   2.416   4.579   3.401  0.1455 -0.3073  0.9721
 3859SOL    HW223037   2.291   4.566   3.315 -0.1587 -0.8319 -0.2476
 3860SOL     OW23038   1.840   3.900   8.355  0.4858 -0.0855 -0.0047
 3860SOL    HW123039   1.765   3.843   8.373 -1.1496  2.4160  1.0917
 3860SOL    HW223040   1.895   3.836   8.311 -1.1575 -1.5099  0.0141
 3861SOL     OW23041   1.084   0.793   3.659 -0.3415 -0.2636  0.2074
 3861SOL    HW123042   1.139   0.718   3.639  0.8962  0.8348 -0.4790
 3861SOL    HW223043   1.136   0.851   3.715 -0.0421 -1.2359  0.9306
 3862SOL     OW23044   2.367   0.821  14.664  0.5423 -0.1031  0.0079
 3862SOL    HW123045   2.401   0.910  14.654  1.7351 -0.6688 -0.8685
 3862SOL    HW223046   2.283   0.830  14.620  0.4331  1.8633  0.6264
 3863SOL     OW23047   2.616   1.939   7.006 -0.0809  0.2589  0.5327
 3863SOL    HW123048   2.625   1.945   7.101 -0.4485  0.9127  0.5275
 3863SOL    HW223049   2.672   1.864   6.987  1.1022  0.8314  1.7633
 3864SOL     OW23050   1.175   2.999   0.515 -0.5805  0.2606  0.2968
 3864SOL    HW123051   1.192   2.987   0.422  1.8134 -0.1577  0.7943
 3864SOL    HW223052   1.087   2.961   0.524  0.0226 -2.1792 -4.1769
 3865SOL     OW23053   0.358   0.351   8.740 -0.7834  0.1472 -0.4552
 3865SOL    HW123054   0.269   0.377   8.764 -0.9016 -0.9056  0.2506
 3865SOL    HW223055   0.406   0.390   8.813 -3.2455  0.0801  1.2044
 3866SOL     OW23056   0.509   4.524   2.174  0.2659  0.2398 -0.1173
 3866SOL    HW123057   0.469   4.465   2.111  1.8277 -0.0702 -0.8355
 3866SOL    HW223058   0.598   4.530   2.138 -0.8601  3.8658 -2.2505
 3867SOL     OW23059   3.263   1.966  12.015  0.2383 -0.5469 -0.3928
 3867SOL    HW123060   3.242   1.875  11.995  1.4609 -1.4377  2.4070
 3867SOL    HW223061   3.288   1.967  12.107  0.4309 -0.0917 -0.4486
 3868SOL     OW23062   0.428   1.036   0.218  0.0736  0.3935  0.0219
 3868SOL    HW123063   0.409   1.112   0.164  0.2057  0.6589  0.3479
 3868SOL    HW223064   0.479   0.972   0.169  1.0210 -0.1777  1.7245
 3869SOL     OW23065   0.728   2.221  13.746 -0.4299 -0.2122  0.3809
 3869SOL    HW123066   0.665   2.184  13.807 -0.5846  0.8686  0.8833
 3869SOL    HW223067   0.786   2.266  13.807 -0.5190 -0.6087  0.7533
 3870SOL     OW23068   4.629   3.722  12.229 -0.0304  0.2124 -0.0048
 3870SOL    HW123069   4.709   3.676  12.257 -0.5749  0.7407  2.3992
 3870SOL    HW223070   4.573   3.682  12.296 -0.7917  1.0113 -0.1731
 3871SOL     OW23071   1.159   4.099  17.168 -0.3166  0.0956 -0.0706
 3871SOL    HW123072   1.175   4.025  17.109 -1.6345 -0.8144  0.7125
 3871SOL    HW223073   1.225   4.089  17.236 -0.6520  2.3095  0.5844
 3872SOL     OW23074   0.731   4.574   3.521  0.4601  0.0718  0.3711
 3872SOL    HW123075   0.765   4.663   3.511 -0.2857  0.3128  0.0126
 3872SOL    HW223076   0.816   4.528   3.528 -0.6413 -2.2289 -1.2281
 3873SOL     OW23077   2.395   4.247   4.546 -0.0336  0.4787  0.4029
 3873SOL    HW123078   2.311   4.204   4.531  0.8472 -0.7319 -1.0673
 3873SOL    HW223079   2.418   4.200   4.627  0.0288 -1.5982 -0.8205
 3874SOL     OW23080   0.630   0.855  15.070 -0.5111 -0.5357 -0.4995
 3874SOL    HW123081   0.542   0.890  15.062 -0.2926 -0.1910 -1.4356
 3874SOL    HW223082   0.677   0.930  15.034 -1.9534 -0.4744 -2.2293
 3875SOL     OW23083   0.204   0.341   2.913  0.4194  0.2025  0.3879
 3875SOL    HW123084   0.186   0.434   2.926 -2.1031 -0.5797  2.7165
 3875SOL    HW223085   0.294   0.332   2.944  0.6043  0.4410 -0.0837
 3876SOL     OW23086   4.443   3.804   1.962  0.7850  0.0166  0.3391
 3876SOL    HW123087   4.473   3.824   2.051 -2.9031  0.4737  1.4734
 3876SOL    HW223088   4.366   3.750   1.976  1.7018 -2.0822 -2.8109
 3877SOL     OW23089   4.260   1.081  11.178  0.6594 -0.1583  0.4175
 3877SOL    HW123090   4.186   1.060  11.122 -1.6170  0.8939  3.0557
 3877SOL    HW223091   4.310   1.135  11.116  1.5219  0.6787  1.8331
 3878SOL     OW23092   0.371   2.126   0.014  0.1723 -0.1121  0.2271
 3878SOL    HW123093   0.438   2.161  17.648 -0.4465  1.8133  0.6676
 3878SOL    HW223094   0.400   2.036   0.030 -1.5842 -1.0838 -2.1168
 3879SOL     OW23095   1.475   2.353  14.654  0.3810  0.3018  0.2190
 3879SOL    HW123096   1.569   2.334  14.663  0.7634  2.3055  0.4197
 3879SOL    HW223097   1.457   2.409  14.730  1.7543 -0.1642  0.8929
 3880SOL     OW23098   0.349   3.133   0.501  0.6198  0.1033 -0.1100
 3880SOL    HW123099   0.421   3.113   0.441 -1.3762 -1.9794 -1.8191
 3880SOL    HW223100   0.304   3.048   0.503 -2.4048  1.7360  0.9380
 3881SOL     OW23101   2.407   3.675   9.438  0.1473  0.0709  0.0835
 3881SOL    HW123102   2.381   3.632   9.356 -0.2749  2.1606 -0.8617
 3881SOL    HW223103   2.424   3.593   9.485  1.6451 -0.6164 -1.6510
 3882SOL     OW23104   0.206   1.866   4.979  0.4470 -0.3074  0.2366
 3882SOL    HW123105   0.196   1.960   4.994 -0.2836 -0.2009 -0.8626
 3882SOL    HW223106   0.230   1.831   5.065  1.0477 -1.3223 -0.3494
 3883SOL     OW23107   2.174   1.811   4.914 -0.0327  0.0010  0.4472
 3883SOL    HW123108   2.201   1.727   4.877  0.5237  0.0640  0.7216
 3883SOL    HW223109   2.256   1.830   4.960  1.5211 -2.1703 -1.4479
 3884SOL     OW23110   3.915   0.725   5.017 -0.6964 -0.3445  0.1598
 3884SOL    HW123111   3.850   0.677   4.966 -1.1961  0.0339  0.4399
 3884SOL    HW223112   3.949   0.780   4.947  0.5446  1.1866  1.9580
 3885SOL     OW23113   0.581   2.520  11.399  0.0069 -0.0308 -0.1824
 3885SOL    HW123114   0.647   2.452  11.412  0.3741  0.0170 -1.8295
 3885SOL    HW223115   0.626   2.602  11.421  0.1677 -0.5570  1.4616
 3886SOL     OW23116   3.888   0.801  13.143 -0.1524  0.5635 -0.1901
 3886SOL    HW123117   3.873   0.833  13.054  2.1156  1.2431 -0.3175
 3886SOL    HW223118   3.939   0.873  13.180  1.9989 -0.2664 -1.5137
 3887SOL     OW23119   2.131   0.072  16.284  0.2778 -0.1895  0.3453
 3887SOL    HW123120   2.106   0.016  16.358  1.7270 -0.0038  0.9643
 3887SOL    HW223121   2.043   0.057  16.250 -0.4388  1.1795  1.5444
 3888SOL     OW23122   0.065   0.543  11.938  0.2225  0.4712 -0.2427
 3888SOL    HW123123   0.020   0.577  12.016 -0.5367 -1.8331  0.3189
 3888SOL    HW223124   0.122   0.472  11.967  0.9775  1.7293  1.3830
 3889SOL     OW23125   4.285   1.033   5.500 -0.4120  0.1490  0.3505
 3889SOL    HW123126   4.256   1.124   5.494  0.5203  0.4356  0.2380
 3889SOL    HW223127   4.244   1.002   5.420 -0.0883 -1.9052  0.9588
 3890SOL     OW23128   0.653   1.033   5.307 -0.4601  0.5257 -0.3302
 3890SOL    HW123129   0.558   1.041   5.312 -1.0234 -5.1631 -2.8945
 3890SOL    HW223130   0.673   1.126   5.320 -0.4679  0.5448 -0.4555
 3891SOL     OW23131   2.060   1.140   9.353  0.4356  0.6030 -0.2520
 3891SOL    HW123132   1.999   1.203   9.391 -0.7910 -1.3760  1.1000
 3891SOL    HW223133   2.006   1.061   9.356 -1.3599  1.9200  1.8071
 3892SOL     OW23134   2.050   2.889   6.747  0.0599  0.0847  0.1325
 3892SOL    HW123135   1.973   2.842   6.716 -1.2557  1.4599  1.3551
 3892SOL    HW223136   2.024   2.935   6.826  1.2252 -0.0871  0.6195
 3893SOL     OW23137   2.638   2.290   8.999  0.3791 -0.1914  0.1304
 3893SOL    HW123138   2.597   2.248   9.075 -0.3085 -1.2883 -0.8390
 3893SOL    HW223139   2.649   2.216   8.939 -0.6923 -0.5948  0.4282
 3894SOL     OW23140   1.939   2.795   7.395  0.2259 -0.3129 -0.0906
 3894SOL    HW123141   1.913   2.841   7.315 -3.6808 -2.0070  0.2339
 3894SOL    HW223142   1.853   2.782   7.434 -0.1035  2.0612 -0.0792
 3895SOL     OW23143   1.290   0.425   6.891 -0.4793  0.3447 -0.2308
 3895SOL    HW123144   1.330   0.371   6.823 -0.5006  0.3232 -0.2261
 3895SOL    HW223145   1.297   0.364   6.965 -0.8108 -0.0557 -0.5349
 3896SOL     OW23146   2.627   1.624   8.279  0.0241  0.8275  0.1375
 3896SOL    HW123147   2.587   1.563   8.341 -0.7519  1.0205 -0.1732
 3896SOL    HW223148   2.553   1.666   8.235  1.8588  1.3630 -2.4020
 3897SOL     OW23149   0.779   0.864  15.488  0.4524  0.1540  0.5478
 3897SOL    HW123150   0.754   0.822  15.406 -0.5011 -0.3336  1.0796
 3897SOL    HW223151   0.695   0.859  15.535  0.6217  0.0664  0.8416
 3898SOL     OW23152   4.275   2.193  17.667  0.0520 -0.4568  0.4293
 3898SOL    HW123153   4.233   2.273   0.006  2.6738  1.0166  0.1662
 3898SOL    HW223154   4.202   2.138   0.002  0.6958 -1.3804  0.2889
 3899SOL     OW23155   0.681   0.729   0.243  0.6428 -0.0275  0.1026
 3899SOL    HW123156   0.752   0.676   0.280  1.0662 -1.5849 -2.9696
 3899SOL    HW223157   0.623   0.730   0.319  0.5010 -2.3428  0.0041
 3900SOL     OW23158   1.665   4.300   5.227  0.1154 -0.0812  0.5591
 3900SOL    HW123159   1.647   4.276   5.318  1.1654 -0.8392  0.5719
 3900SOL    HW223160   1.637   4.391   5.217  2.6707  0.7736  1.2517
 3901SOL     OW23161   0.716   3.534  13.482  1.3779  0.3492  0.3387
 3901SOL    HW123162   0.702   3.617  13.435 -0.5894 -0.6210 -0.7951
 3901SOL    HW223163   0.625   3.506  13.491  1.3216  1.1934  2.4549
 3902SOL     OW23164   0.205   0.393  11.291  0.2387  0.2331 -0.4607
 3902SOL    HW123165   0.122   0.439  11.301  0.7254  1.0342 -0.1806
 3902SOL    HW223166   0.173   0.303  11.279  0.6446  0.0830 -0.4268
 3903SOL     OW23167   2.643   0.973   8.961  0.5690  0.1338  0.2072
 3903SOL    HW123168   2.579   0.902   8.967  0.1615  0.4418 -0.4154
 3903SOL    HW223169   2.722   0.923   8.982 -0.4271 -0.9193  1.4388
 3904SOL     OW23170   3.209   3.403   8.194  0.0189 -0.0483  0.5897
 3904SOL    HW123171   3.158   3.484   8.191 -3.2851 -2.1232  0.1298
 3904SOL    HW223172   3.159   3.350   8.132 -0.2802  0.0473  0.7469
 3905SOL     OW23173   1.914   4.608   0.192  0.0088  0.1103  0.4924
 3905SOL    HW123174   1.918   4.699   0.222  0.1434  0.3750 -0.3212
 3905SOL    HW223175   1.964   4.616   0.110 -1.1850 -1.4182 -0.3871
 3906SOL     OW23176   3.432   0.597   4.307 -0.1686  0.7768  0.2158
 3906SOL    HW123177   3.523   0.572   4.323 -0.4456 -1.5165 -1.9203
 3906SOL    HW223178   3.403   0.516   4.265  2.2660  0.3993 -0.7272
 3907SOL     OW23179   3.717   4.251   9.252  0.6141 -0.2943 -0.1791
 3907SOL    HW123180   3.765   4.237   9.171  0.5664 -0.8575 -0.1112
 3907SOL    HW223181   3.747   4.176   9.302  1.0533  0.8303  1.2545
 3908SOL     OW23182   2.015   2.905   3.202  0.4547  1.0548 -0.1254
 3908SOL    HW123183   2.104   2.923   3.234  0.0350  0.8741  1.1406
 3908SOL    HW223184   1.977   2.991   3.219  0.9986  0.9235  1.8463
 3909SOL     OW23185   1.990   0.840   1.614  0.7268 -0.3042 -0.4314
 3909SOL    HW123186   1.895   0.839   1.600  0.2402 -1.7607  2.9757
 3909SOL    HW223187   2.021   0.866   1.527 -0.9024 -0.0060 -0.9260
 3910SOL     OW23188   4.687   1.193  15.583 -0.2040 -0.4475 -0.1158
 3910SOL    HW123189   4.664   1.172  15.673 -0.4918  0.0145 -0.0807
 3910SOL    HW223190   4.601   1.199  15.541 -0.5835 -1.2082  0.5468
 3911SOL     OW23191   0.786   3.146   6.068 -0.2272 -0.5198 -0.5300
 3911SOL    HW123192   0.744   3.207   6.128  0.7842  2.1355 -2.5088
 3911SOL    HW223193   0.878   3.171   6.076 -1.4320  3.4503  0.4868
 3912SOL     OW23194   1.918   3.255   7.298  0.3549 -0.3108  0.7221
 3912SOL    HW123195   1.943   3.341   7.263  0.1459  0.1557  1.6943
 3912SOL    HW223196   1.915   3.265   7.394  2.0333 -0.4001  0.7885
 3913SOL     OW23197   3.762   1.905   0.733  0.0689 -0.2465 -0.1011
 3913SOL    HW123198   3.700   1.951   0.676  0.1911  2.0643  1.6202
 3913SOL    HW223199   3.723   1.820   0.751 -1.8066  0.4073 -1.1255
 3914SOL     OW23200   0.608   0.361   6.894 -0.1524  1.1832  0.3191
 3914SOL    HW123201   0.661   0.394   6.966 -1.2434  4.0564 -0.1859
 3914SOL    HW223202   0.570   0.288   6.943  2.0338  0.3593  0.7841
 3915SOL     OW23203   1.417   0.399   0.873 -0.0895 -0.3983 -0.0106
 3915SOL    HW123204   1.370   0.408   0.955 -2.5854  0.6654 -1.5706
 3915SOL    HW223205   1.362   0.328   0.841  2.3276 -2.0898 -0.4075
 3916SOL     OW23206   0.917   1.050   4.283 -0.1993 -0.0193 -0.2417
 3916SOL    HW123207   0.984   1.077   4.346  0.1806 -4.1580  1.1465
 3916SOL    HW223208   0.871   1.134   4.283 -0.8211 -0.3487  1.9357
 3917SOL     OW23209   0.580   4.061  16.046 -0.3413  0.6768  0.4939
 3917SOL    HW123210   0.612   4.133  16.100 -1.1009  1.2958  0.1213
 3917SOL    HW223211   0.489   4.061  16.077 -1.5384  0.1346 -2.9432
 3918SOL     OW23212   3.548   4.532  12.907  0.3774  0.3774 -0.5518
 3918SOL    HW123213   3.525   4.504  12.819 -1.4784  1.6347 -0.4699
 3918SOL    HW223214   3.641   4.553  12.910 -0.0994  2.1421  1.9198
 3919SOL     OW23215   4.485   4.532  15.702  0.6756  0.0515 -0.0224
 3919SOL    HW123216   4.572   4.496  15.685  0.9841 -0.8026  3.4386
 3919SOL    HW223217   4.499   4.626  15.691 -0.1583 -0.1865 -3.1793
 3920SOL     OW23218   4.390   1.411   0.307 -0.2115 -0.5022 -1.0057
 3920SOL    HW123219   4.365   1.394   0.216 -1.2064 -0.3705 -0.7585
 3920SOL    HW223220   4.439   1.492   0.295  0.8839 -0.5304  3.4156
 3921SOL     OW23221   4.331   0.039   6.821  0.3651 -0.2142  0.1045
 3921SOL    HW123222   4.421   0.050   6.791  0.9059  0.4233  1.9639
 3921SOL    HW223223   4.347   4.697   6.890 -1.6825 -1.4871 -0.6037
 3922SOL     OW23224   3.695   3.621  13.277 -0.2167 -0.2004 -0.0423
 3922SOL    HW123225   3.600   3.622  13.280 -0.2116  1.5644 -0.4384
 3922SOL    HW223226   3.717   3.713  13.262 -3.6895  0.5329 -0.5624
 3923SOL     OW23227   3.524   3.506   0.634 -0.4532  0.4482  0.2869
 3923SOL    HW123228   3.510   3.508   0.728  0.2482 -0.0542  0.4067
 3923SOL    HW223229   3.503   3.414   0.618 -0.8406  0.7150 -0.8023
 3924SOL     OW23230   1.094   1.286   5.431 -0.5034 -0.2014 -0.0945
 3924SOL    HW123231   1.056   1.199   5.442 -1.2575  0.1098 -0.2193
 3924SOL    HW223232   1.129   1.305   5.518  0.5554  1.1641 -0.8204
 3925SOL     OW23233   0.343   2.709   4.052 -0.2837  0.7130 -0.3492
 3925SOL    HW123234   0.375   2.748   4.133  1.5095  2.6089 -1.9611
 3925SOL    HW223235   0.358   2.783   3.993  0.6157  0.1134 -0.8939
 3926SOL     OW23236   0.944   3.066  14.585  0.3441  0.3334  0.7162
 3926SOL    HW123237   1.018   3.126  14.593  0.8254 -0.6288  3.5576
 3926SOL    HW223238   0.918   3.044  14.675 -1.5411  1.0263  0.3373
 3927SOL     OW23239   0.596   1.538  16.758 -0.1822 -0.4880 -0.0267
 3927SOL    HW123240   0.578   1.460  16.706  0.0654 -2.0145  2.1971
 3927SOL    HW223241   0.691   1.536  16.745 -0.2618 -2.0755 -0.3076
 3928SOL     OW23242   4.158   2.606   7.571 -0.6644 -0.5913  0.7107
 3928SOL    HW123243   4.104   2.645   7.503  0.4560  0.8888  0.6544
 3928SOL    HW223244   4.171   2.524   7.525 -1.3392 -1.1056  1.4260
 3929SOL     OW23245   1.996   3.574  12.068 -0.0289 -0.1528  0.0938
 3929SOL    HW123246   2.071   3.613  12.024  0.1593  0.3023  0.8218
 3929SOL    HW223247   1.919   3.629  12.052 -1.3278 -2.1723 -0.5155
 3930SOL     OW23248   0.075   2.250   5.996 -0.5085 -0.3867  0.4535
 3930SOL    HW123249   0.055   2.337   6.029  1.4726  0.5765 -0.8662
 3930SOL    HW223250   0.129   2.223   6.071  1.6803 -3.1090 -2.0838
 3931SOL     OW23251   3.090   3.794   5.822  0.0398  0.0969 -0.4549
 3931SOL    HW123252   3.053   3.878   5.794  0.3430  0.6929  0.9261
 3931SOL    HW223253   3.162   3.811   5.883 -0.6028 -0.4381  0.4532
 3932SOL     OW23254   1.571   1.190   9.336 -0.0941 -0.3107  0.4401
 3932SOL    HW123255   1.583   1.112   9.390  0.3938 -0.8378 -0.4487
 3932SOL    HW223256   1.518   1.150   9.267  1.1771 -0.7081 -0.2919
 3933SOL     OW23257   2.860   3.691   2.630 -0.4567  0.1951  0.1482
 3933SOL    HW123258   2.817   3.750   2.692  1.5259  1.0061  0.7461
 3933SOL    HW223259   2.946   3.701   2.670  0.3090 -0.4161 -1.3224
 3934SOL     OW23260   2.109   1.805  10.090 -0.7461 -0.1768 -0.4049
 3934SOL    HW123261   2.055   1.798  10.011  0.6133  0.1805 -1.3590
 3934SOL    HW223262   2.191   1.835  10.052 -1.4167  0.4207 -1.3693
 3935SOL     OW23263   2.017   1.026   8.732 -0.6120  0.4580  0.1272
 3935SOL    HW123264   2.105   1.061   8.724 -0.4827  0.3247  0.9729
 3935SOL    HW223265   2.008   1.045   8.825 -1.5050  0.4324  0.0513
 3936SOL     OW23266   4.423   1.199  11.003 -0.2712  0.0261 -0.2166
 3936SOL    HW123267   4.452   1.178  10.915  1.5389 -2.3523  0.9446
 3936SOL    HW223268   4.477   1.275  11.026 -0.7562  0.4207 -0.4002
 3937SOL     OW23269   3.686   1.247   1.891 -0.6524 -0.4397  0.2478
 3937SOL    HW123270   3.613   1.186   1.890 -0.1615 -1.0166 -2.5882
 3937SOL    HW223271   3.759   1.189   1.910 -0.6643 -0.1427  1.1926
 3938SOL     OW23272   3.903   2.014   1.794 -0.1063 -0.1579  0.0876
 3938SOL    HW123273   3.816   2.037   1.760  1.6544  2.7681 -2.4209
 3938SOL    HW223274   3.908   1.923   1.765 -3.3203 -1.0305  2.1285
 3939SOL     OW23275   2.953   4.664  15.316  0.7264  0.0662 -0.0596
 3939SOL    HW123276   3.028   4.718  15.339  0.4576  1.2400 -1.9605
 3939SOL    HW223277   2.939   4.615  15.398  1.8780 -1.5475 -0.8304
 3940SOL     OW23278   3.926   1.676   5.256 -0.4072  0.3384  0.2926
 3940SOL    HW123279   3.991   1.743   5.235  0.2911 -0.4289  0.0035
 3940SOL    HW223280   3.917   1.624   5.176 -1.0986  0.8677  0.0348
 3941SOL     OW23281   4.036   2.915  13.280  0.5907 -0.2297 -0.0791
 3941SOL    HW123282   3.979   2.889  13.208 -0.0524  0.1493  0.2953
 3941SOL    HW223283   4.039   3.011  13.278  0.3784 -0.2113  0.7256
 3942SOL     OW23284   3.523   4.413  15.575 -0.2176  1.2637  0.3300
 3942SOL    HW123285   3.515   4.321  15.600  1.5097  0.3542 -2.5507
 3942SOL    HW223286   3.479   4.462  15.645 -0.8728  1.5707 -0.2982
 3943SOL     OW23287   4.512   3.888  13.288 -0.1623  0.4562 -0.2419
 3943SOL    HW123288   4.480   3.837  13.362 -1.0691 -1.4504 -1.9540
 3943SOL    HW223289   4.452   3.868  13.216 -0.1469  0.0319 -0.1375
 3944SOL     OW23290   3.501   3.931   5.387 -0.3453  0.0873 -0.2946
 3944SOL    HW123291   3.440   3.974   5.328  0.0966 -1.3913 -1.8079
 3944SOL    HW223292   3.466   3.960   5.471  1.7339  1.1119  0.2168
 3945SOL     OW23293   1.727   1.037   5.679  0.5837  0.7358  0.1123
 3945SOL    HW123294   1.714   1.081   5.763  3.0437  1.5740  0.0375
 3945SOL    HW223295   1.717   1.111   5.619  1.2193  0.2515 -0.5954
 3946SOL     OW23296   0.162   3.155   9.904 -0.2281  0.2939 -1.0533
 3946SOL    HW123297   0.220   3.101   9.851 -1.5931  0.1534 -2.3977
 3946SOL    HW223298   0.202   3.242   9.903 -0.5183  0.4547  0.9932
 3947SOL     OW23299   1.616   3.926   7.148 -0.0522 -0.0439  0.0994
 3947SOL    HW123300   1.615   3.850   7.207  0.7514 -0.1186  0.0157
 3947SOL    HW223301   1.636   3.999   7.208 -1.8656  1.6397 -1.3659
 3948SOL     OW23302   2.411   4.520   7.495 -0.2359  0.4410 -0.3617
 3948SOL    HW123303   2.396   4.603   7.450  0.0197  0.3363 -0.6359
 3948SOL    HW223304   2.466   4.550   7.568 -2.7837 -0.2381  1.8527
 3949SOL     OW23305   0.630   4.003  11.107 -0.1498  0.4929  0.3030
 3949SOL    HW123306   0.722   3.978  11.120 -0.5420  0.1169  2.4658
 3949SOL    HW223307   0.603   3.985  11.197  2.3782 -2.0467  0.5653
 3950SOL     OW23308   2.877   0.651   9.119 -0.5414 -0.6002 -0.1665
 3950SOL    HW123309   2.791   0.621   9.147 -0.6030  1.0859  1.4439
 3950SOL    HW223310   2.933   0.595   9.173  0.2266  0.5474  0.2258
 3951SOL     OW23311   4.280   3.816   3.297  0.7100 -0.6330  0.1979
 3951SOL    HW123312   4.188   3.807   3.321  1.0389 -1.4105  1.1172
 3951SOL    HW223313   4.270   3.740   3.240 -1.5276 -1.0300  1.1361
 3952SOL     OW23314   4.491   0.147   8.146  0.7070  0.3588  0.2665
 3952SOL    HW123315   4.552   0.147   8.220  2.6511 -0.2188 -1.3004
 3952SOL    HW223316   4.523   0.220   8.092  1.3847 -0.0607  0.0900
 3953SOL     OW23317   0.315   2.266   4.330  0.4782 -0.0131 -0.0874
 3953SOL    HW123318   0.319   2.314   4.248 -4.0526  0.1209 -0.1928
 3953SOL    HW223319   0.317   2.175   4.299 -2.3739 -0.4954  1.1272
 3954SOL     OW23320   0.878   1.153   8.943  0.1210 -0.1646 -0.2767
 3954SOL    HW123321   0.808   1.088   8.943 -0.7818  0.8380  1.6339
 3954SOL    HW223322   0.827   1.232   8.924  1.4852  0.6937 -0.4290
 3955SOL     OW23323   2.722   3.793   5.746 -0.0100  0.3840 -0.2203
 3955SOL    HW123324   2.643   3.817   5.697 -0.1369  1.0736  0.3203
 3955SOL    HW223325   2.703   3.702   5.770  2.1980 -0.6083 -2.2768
 3956SOL     OW23326   4.565   2.886   0.169 -0.3060 -0.3612  0.3492
 3956SOL    HW123327   4.622   2.924   0.235 -1.0431 -0.6709  1.1767
 3956SOL    HW223328   4.550   2.953   0.103  0.8400 -1.3762 -0.9459
 3957SOL     OW23329   3.914   2.712  14.227  0.9002  0.6412  0.3999
 3957SOL    HW123330   3.964   2.761  14.292  1.1294 -0.9718  1.4483
 3957SOL    HW223331   3.982   2.679  14.168 -0.0837 -2.3807  0.9588
 3958SOL     OW23332   4.557   3.724   3.870  0.1387  0.0096 -0.1071
 3958SOL    HW123333   4.621   3.668   3.913  1.3352  1.9779  0.6879
 3958SOL    HW223334   4.500   3.653   3.843 -1.5451  0.8132  1.3929
 3959SOL     OW23335   2.683   3.882   4.881  0.2266 -0.3280 -0.3250
 3959SOL    HW123336   2.679   3.787   4.892 -2.6907  0.0629  2.0143
 3959SOL    HW223337   2.680   3.890   4.976 -3.1873 -0.4214 -0.4165
 3960SOL     OW23338   2.102   1.619  11.639 -0.4881 -0.0515  0.2319
 3960SOL    HW123339   2.108   1.657  11.551  0.7737  0.2280  0.4518
 3960SOL    HW223340   2.135   1.689  11.695  0.3878 -0.7063  0.5238
 3961SOL     OW23341   3.568   2.889   6.513 -0.0500  0.0862  0.3403
 3961SOL    HW123342   3.567   2.815   6.574  0.5565  0.0658  0.3290
 3961SOL    HW223343   3.645   2.934   6.550 -0.5915  0.7762  0.6362
 3962SOL     OW23344   0.990   0.888  13.181 -0.1854  0.5263  0.7410
 3962SOL    HW123345   0.952   0.964  13.225 -1.8155  0.1230  0.0438
 3962SOL    HW223346   1.064   0.857  13.233  1.3037  1.8106 -0.6215
 3963SOL     OW23347   0.771   3.771  15.573  0.6482  0.3598  0.4565
 3963SOL    HW123348   0.721   3.781  15.654 -0.4152 -0.9333 -0.0417
 3963SOL    HW223349   0.703   3.788  15.508  2.4614 -0.8579 -1.7212
 3964SOL     OW23350   2.698   2.652   6.749  0.3309 -0.5063 -0.4216
 3964SOL    HW123351   2.628   2.708   6.716  0.5192 -0.7844 -1.2867
 3964SOL    HW223352   2.717   2.691   6.834 -0.3010 -2.2385  0.5305
 3965SOL     OW23353   3.808   0.222   6.550 -0.3917  0.5909 -0.5463
 3965SOL    HW123354   3.723   0.199   6.511 -0.6703  0.5577  0.0828
 3965SOL    HW223355   3.817   0.150   6.612 -4.2628 -1.9053 -2.8549
 3966SOL     OW23356   4.004   3.841   5.237 -0.0750 -0.5955 -0.2015
 3966SOL    HW123357   4.045   3.800   5.313 -0.3845 -3.1317 -1.4066
 3966SOL    HW223358   3.952   3.914   5.270 -2.2979 -3.5815  2.8829
 3967SOL     OW23359   0.857   3.291  17.590 -0.3569  0.2989  0.7486
 3967SOL    HW123360   0.948   3.261  17.589 -0.8661 -1.2266  0.9819
 3967SOL    HW223361   0.861   3.386  17.581  1.3445  0.1484 -0.1421
 3968SOL     OW23362   4.228   1.283   3.018  0.1318 -0.7643 -0.1486
 3968SOL    HW123363   4.321   1.282   2.997 -0.2024 -0.2858 -1.6488
 3968SOL    HW223364   4.213   1.352   3.083  1.9329 -1.2895  0.8359
 3969SOL     OW23365   2.524   2.581   3.920 -0.1155  0.4435 -0.5428
 3969SOL    HW123366   2.600   2.634   3.895 -1.4349  1.4837 -2.3620
 3969SOL    HW223367   2.491   2.571   3.831  1.0381  0.1508 -0.9422
 3970SOL     OW23368   0.495   4.567   4.319  0.0888 -0.3582  0.2512
 3970SOL    HW123369   0.497   4.490   4.263 -1.5910 -0.7159  0.7036
 3970SOL    HW223370   0.583   4.569   4.357  0.7465  2.4723 -1.3690
 3971SOL     OW23371   2.154   0.918   5.896 -0.2531  0.0138 -0.2955
 3971SOL    HW123372   2.169   0.825   5.911  0.4125  0.3287  0.9651
 3971SOL    HW223373   2.065   0.923   5.931 -0.2711 -0.9334 -0.2018
 3972SOL     OW23374   0.531   1.301   5.075 -0.1753 -0.0938  0.0902
 3972SOL    HW123375   0.621   1.275   5.097  0.2409 -1.5767 -3.3859
 3972SOL    HW223376   0.478   1.230   5.110  0.0426  0.1696  0.9507
 3973SOL     OW23377   3.985   2.417  12.356 -0.4040 -0.3474  0.2813
 3973SOL    HW123378   4.009   2.333  12.393 -2.8376 -1.6076 -1.0409
 3973SOL    HW223379   4.031   2.415  12.271 -0.4380 -0.0577  0.2534
 3974SOL     OW23380   4.126   0.532  13.617  0.1588  0.2507 -0.8875
 3974SOL    HW123381   4.066   0.539  13.543  1.0512  3.9168 -1.2883
 3974SOL    HW223382   4.108   0.439  13.629 -0.9244  0.8131  1.7710
 3975SOL     OW23383   3.846   4.284   3.341 -0.1696  0.1522 -0.4485
 3975SOL    HW123384   3.861   4.359   3.400 -2.3861 -0.6146  1.1186
 3975SOL    HW223385   3.852   4.218   3.410 -3.4597 -0.7513 -1.0300
 3976SOL     OW23386   0.265   4.702   2.057 -0.0819 -0.2649  0.7219
 3976SOL    HW123387   0.226   0.050   2.109 -0.6047  0.1993 -0.3067
 3976SOL    HW223388   0.333   0.031   2.013  0.1198 -0.3538  0.9270
 3977SOL     OW23389   1.861   0.281  13.055 -0.3318  0.4928 -0.2671
 3977SOL    HW123390   1.866   0.213  13.122  0.5647 -0.9338 -1.7875
 3977SOL    HW223391   1.862   0.361  13.107  0.6592  0.4188 -0.1638
 3978SOL     OW23392   4.466   1.984   5.948  0.4953 -0.3461 -0.3443
 3978SOL    HW123393   4.473   2.045   5.874 -0.5774 -2.5726 -2.2805
 3978SOL    HW223394   4.375   1.957   5.935  0.3264  0.6357 -1.1435
 3979SOL     OW23395   0.529   2.988   2.172  0.4022 -0.4016 -0.0329
 3979SOL    HW123396   0.525   3.083   2.170  0.3688 -0.4494 -2.8418
 3979SOL    HW223397   0.456   2.964   2.115 -0.0778  1.6387 -0.2676
 3980SOL     OW23398   3.518   3.263   2.859 -0.4819  0.1521 -0.3245
 3980SOL    HW123399   3.546   3.175   2.888  1.4915  2.0783  3.6864
 3980SOL    HW223400   3.477   3.304   2.935 -1.1110  2.4477 -1.9201
 3981SOL     OW23401   1.835   1.636   9.542 -0.1381  0.7244 -0.6421
 3981SOL    HW123402   1.927   1.660   9.533 -0.0776 -0.1865 -2.3741
 3981SOL    HW223403   1.836   1.563   9.603  1.1357 -0.0630 -1.5970
 3982SOL     OW23404   1.574   0.428   8.180  0.4603  0.2023 -0.6013
 3982SOL    HW123405   1.593   0.492   8.248  2.4333  1.1607 -2.0612
 3982SOL    HW223406   1.644   0.366   8.202  1.4888  1.5459 -0.0707
 3983SOL     OW23407   1.759   2.622   5.952  0.7090  0.2662  0.4511
 3983SOL    HW123408   1.747   2.650   5.862 -0.8259 -1.5889  0.0807
 3983SOL    HW223409   1.789   2.708   5.979 -0.8656  1.8058 -2.7203
 3984SOL     OW23410   3.359   2.941  11.032 -0.4542  0.0501 -0.6620
 3984SOL    HW123411   3.413   2.920  11.109  0.4772 -0.5672 -1.4841
 3984SOL    HW223412   3.375   2.866  10.974  0.9132  0.3988 -0.7384
 3985SOL     OW23413   4.255   2.664  17.339 -0.3502 -0.6719 -0.2663
 3985SOL    HW123414   4.208   2.742  17.309 -2.0384 -1.3549  0.6115
 3985SOL    HW223415   4.331   2.697  17.388  0.2254 -1.5611 -0.5609
 3986SOL     OW23416   1.195   0.025   7.769  0.1065 -1.2501  0.3247
 3986SOL    HW123417   1.186   0.086   7.842  2.4840 -0.8660  0.3103
 3986SOL    HW223418   1.108   4.709   7.760  0.3130 -1.5120 -0.6174
 3987SOL     OW23419   0.583   2.969   0.767  0.2730  0.2984 -0.2910
 3987SOL    HW123420   0.522   3.038   0.740  0.7651  1.3668  1.4045
 3987SOL    HW223421   0.642   2.959   0.692 -1.4455 -1.1795 -1.4471
 3988SOL     OW23422   3.097   3.339  11.613 -0.1441 -0.1958  0.0082
 3988SOL    HW123423   3.100   3.427  11.575  0.2075 -2.0180 -4.1574
 3988SOL    HW223424   3.106   3.277  11.540 -0.0954  0.6138 -0.6809
 3989SOL     OW23425   4.017   2.259  14.322  0.2042  0.2976 -0.3864
 3989SOL    HW123426   4.027   2.342  14.369 -2.2571 -0.3942  1.3580
 3989SOL    HW223427   4.096   2.213  14.351 -2.3233 -3.0392  1.2747
 3990SOL     OW23428   1.682   2.165   3.637 -0.1883  0.0288  0.0149
 3990SOL    HW123429   1.586   2.163   3.638 -0.0975 -3.2230  1.4924
 3990SOL    HW223430   1.702   2.162   3.730 -0.6501 -1.6790  0.0662
 3991SOL     OW23431   2.764   0.286   6.646  0.3310  0.1923 -0.3146
 3991SOL    HW123432   2.678   0.296   6.686  0.0581  0.1690 -0.9106
 3991SOL    HW223433   2.727   0.224   6.583  0.1684 -0.8036  0.7634
 3992SOL     OW23434   0.945   3.854   5.971  0.4580 -0.5383  0.6586
 3992SOL    HW123435   0.886   3.929   5.961 -0.4046 -1.4323 -0.9074
 3992SOL    HW223436   1.004   3.874   5.899  0.4683 -2.2689  0.1770
 3993SOL     OW23437   3.127   3.251  15.584 -0.0648  0.1127 -0.0139
 3993SOL    HW123438   3.060   3.273  15.649 -2.7979 -4.5810 -1.2477
 3993SOL    HW223439   3.163   3.338  15.567 -1.7308  1.0932  1.5013
 3994SOL     OW23440   1.262   0.945   6.257 -0.0829 -0.0783  0.9714
 3994SOL    HW123441   1.331   1.008   6.279  0.0002 -0.6027  2.2064
 3994SOL    HW223442   1.276   0.874   6.320  2.0069 -0.3973  0.1178
 3995SOL     OW23443   3.468   1.073   1.891 -0.7295 -0.1770  0.5212
 3995SOL    HW123444   3.374   1.084   1.876 -0.1087  2.3965 -1.3703
 3995SOL    HW223445   3.475   1.131   1.967 -0.2450 -1.9497  1.8308
 3996SOL     OW23446   1.639   0.480   6.903  0.4610 -0.2762  0.0562
 3996SOL    HW123447   1.602   0.534   6.973  0.5872  2.0794 -1.6633
 3996SOL    HW223448   1.588   0.399   6.901  0.6697 -0.3461 -2.4520
 3997SOL     OW23449   1.619   4.355   4.617  0.0487  0.5205  0.5635
 3997SOL    HW123450   1.626   4.260   4.627  1.3340  0.6746  1.1279
 3997SOL    HW223451   1.636   4.378   4.708  4.3410 -0.9419  0.1176
 3998SOL     OW23452   1.834   3.635   1.853 -0.2373 -0.7611  0.3183
 3998SOL    HW123453   1.845   3.725   1.823 -0.3714 -0.3123  1.6243
 3998SOL    HW223454   1.849   3.592   1.769 -2.4414 -0.0796 -0.4473
 3999SOL     OW23455   2.780   3.708   7.164 -0.1281 -0.3824 -0.3837
 3999SOL    HW123456   2.826   3.631   7.130  3.8852  1.3643  1.0895
 3999SOL    HW223457   2.702   3.694   7.111 -1.0947 -0.2276  1.0040
 4000SOL     OW23458   2.240   1.559   5.507  0.3451  0.4949 -0.0587
 4000SOL    HW123459   2.254   1.512   5.589  1.7001  2.0632  0.6222
 4000SOL    HW223460   2.244   1.476   5.459 -0.6366  0.9849 -0.9989
 4001SOL     OW23461   1.730   2.080   5.031 -0.1288 -0.2518 -0.0450
 4001SOL    HW123462   1.700   2.171   5.033 -0.6261 -0.4724  2.1251
 4001SOL    HW223463   1.736   2.070   5.126 -0.0210  1.1008  0.0898
 4002SOL     OW23464   0.437   0.511  11.900  0.3557  0.5555 -0.8449
 4002SOL    HW123465   0.367   0.449  11.918  0.3200  0.6973 -0.5083
 4002SOL    HW223466   0.445   0.566  11.977  0.3703 -2.6340  1.4339
 4003SOL     OW23467   0.329   4.648   4.800  0.5071  0.0087 -0.0863
 4003SOL    HW123468   0.407   4.702   4.814 -0.6234  2.0410 -1.7783
 4003SOL    HW223469   0.368   4.568   4.763 -0.0549 -0.9044  1.2651
 4004SOL     OW23470   1.110   3.191   7.083  0.2326  0.0159 -0.1273
 4004SOL    HW123471   1.191   3.240   7.076 -0.3654  0.8618 -1.1808
 4004SOL    HW223472   1.091   3.174   6.990 -1.3362 -0.2867  0.2450
 4005SOL     OW23473   4.197   1.492  15.522  0.1307  0.2281 -0.0749
 4005SOL    HW123474   4.166   1.420  15.468 -0.1008  0.1305  0.1896
 4005SOL    HW223475   4.125   1.553  15.505  0.3260  0.6050  0.4209
 4006SOL     OW23476   0.661   0.871   9.176  0.4610  0.2412 -0.3688
 4006SOL    HW123477   0.634   0.932   9.244  0.1864  1.1348 -1.2871
 4006SOL    HW223478   0.753   0.894   9.193  0.2948  0.2515  0.5098
 4007SOL     OW23479   3.125   3.093   8.617 -0.0657 -0.2740 -0.2350
 4007SOL    HW123480   3.043   3.083   8.569 -0.3114 -0.6451  0.2628
 4007SOL    HW223481   3.104   3.036   8.690 -0.5680 -0.6427 -0.6692
 4008SOL     OW23482   0.603   4.135  14.642 -0.3527  0.2813 -0.3187
 4008SOL    HW123483   0.588   4.105  14.552 -0.4503  1.5669 -0.7331
 4008SOL    HW223484   0.613   4.228  14.624  1.3711  0.1784  0.1292
 4009SOL     OW23485   3.152   3.291   1.921 -0.0698  0.6670  0.4093
 4009SOL    HW123486   3.195   3.291   2.007  2.4337 -2.7996 -0.8463
 4009SOL    HW223487   3.081   3.228   1.929  0.3286  0.2389  0.5490
 4010SOL     OW23488   0.579   3.469   0.607  0.4431 -0.2582  0.1729
 4010SOL    HW123489   0.610   3.558   0.627  2.4222 -0.2254 -3.1004
 4010SOL    HW223490   0.644   3.445   0.541  0.7824  0.7397  0.1398
 4011SOL     OW23491   4.185   4.105   2.967  0.3772  0.0426 -0.6148
 4011SOL    HW123492   4.235   4.183   2.942  1.6830 -1.1986 -1.8198
 4011SOL    HW223493   4.165   4.138   3.054 -0.5548 -0.2751 -0.7117
 4012SOL     OW23494   3.771   1.481   6.592 -0.7262 -0.3303 -0.0392
 4012SOL    HW123495   3.765   1.506   6.500  0.2424 -1.4842 -0.4189
 4012SOL    HW223496   3.703   1.415   6.593 -2.1284  1.1065 -0.4061
 4013SOL     OW23497   0.771   0.636   1.885 -0.2774 -0.1406 -0.2062
 4013SOL    HW123498   0.853   0.593   1.906  0.7280  2.5767  1.3747
 4013SOL    HW223499   0.744   0.587   1.807 -0.2801  0.4334 -0.5740
 4014SOL     OW23500   0.890   3.257   4.730  0.0429  0.2928  0.3936
 4014SOL    HW123501   0.855   3.346   4.735 -1.3956 -0.3493  1.8255
 4014SOL    HW223502   0.914   3.235   4.820  0.9539  1.5259  0.4519
 4015SOL     OW23503   0.118   0.330   6.481  0.1051  0.0022  0.0413
 4015SOL    HW123504   0.184   0.344   6.548  0.6602 -0.0537 -0.4928
 4015SOL    HW223505   0.151   0.390   6.414  0.5136 -0.5218 -0.2238
 4016SOL     OW23506   1.811   0.360   3.833  0.5408 -0.3087  0.3569
 4016SOL    HW123507   1.832   0.372   3.740 -0.0608  0.4698  0.3181
 4016SOL    HW223508   1.884   0.307   3.865 -2.3221 -4.6956 -0.3296
 4017SOL     OW23509   3.558   2.285  15.671 -0.1777  0.3585 -0.0236
 4017SOL    HW123510   3.544   2.331  15.754 -0.2161  1.8530 -0.8701
 4017SOL    HW223511   3.630   2.335  15.632 -0.6793  0.2495 -1.0869
 4018SOL     OW23512   1.843   2.198  16.833 -0.2349  0.1274 -0.0787
 4018SOL    HW123513   1.758   2.156  16.841 -0.0206 -0.3304 -0.1988
 4018SOL    HW223514   1.841   2.272  16.895  0.0825 -0.5915  0.7989
 4019SOL     OW23515   2.158   3.813  16.654  0.0435  0.8290  0.1933
 4019SOL    HW123516   2.183   3.763  16.732 -0.2995 -1.5858 -1.2427
 4019SOL    HW223517   2.072   3.775  16.637  0.7606 -0.0854 -1.3921
 4020SOL     OW23518   3.494   2.814  13.748 -0.6251 -0.1713  0.3650
 4020SOL    HW123519   3.587   2.793  13.738  0.0304  1.6608  2.6013
 4020SOL    HW223520   3.468   2.722  13.754 -1.4890 -0.0428 -1.4154
 4021SOL     OW23521   0.938   1.993   7.447  0.3292 -0.5901 -0.1012
 4021SOL    HW123522   0.865   2.040   7.487 -0.3966 -0.2435 -1.8323
 4021SOL    HW223523   1.003   1.983   7.516  0.5562  0.4172 -0.1751
 4022SOL     OW23524   0.980   3.300  11.958  0.3046 -0.1572 -0.1357
 4022SOL    HW123525   0.969   3.218  12.005  1.4081  0.3366  0.9798
 4022SOL    HW223526   1.067   3.325  11.988 -0.2854 -0.8148  2.0995
 4023SOL     OW23527   3.538   2.000   7.072 -0.4719  0.1443  0.1946
 4023SOL    HW123528   3.455   1.996   7.025 -2.1986 -0.2227  3.2790
 4023SOL    HW223529   3.600   1.982   7.001 -0.0670  1.3403  0.2551
 4024SOL     OW23530   4.073   1.115   4.414 -0.1332 -0.0236 -0.2235
 4024SOL    HW123531   4.142   1.128   4.348 -2.0174 -2.0933 -2.5829
 4024SOL    HW223532   4.087   1.174   4.488 -2.3423  1.0074 -0.6365
 4025SOL     OW23533   1.972   3.391  11.318 -0.1112  0.3088  0.1103
 4025SOL    HW123534   2.059   3.430  11.325 -1.1129  1.9214  3.5549
 4025SOL    HW223535   1.975   3.354  11.407  1.4635  0.1154 -0.0357
 4026SOL     OW23536   2.866   0.859   5.200  0.4379 -0.4831  0.2415
 4026SOL    HW123537   2.892   0.881   5.289 -0.4461  1.3590  0.0546
 4026SOL    HW223538   2.803   0.790   5.220 -0.9134  0.8927  0.7198
 4027SOL     OW23539   4.699   4.020   2.987  0.4755 -0.2948  0.4386
 4027SOL    HW123540   4.715   4.115   2.989  1.2444 -0.3887 -1.2849
 4027SOL    HW223541   4.650   4.000   2.907  0.6731  0.7832  0.0455
 4028SOL     OW23542   1.791   4.482   3.490  0.0751 -0.9230 -0.3584
 4028SOL    HW123543   1.829   4.535   3.560 -2.2806  0.2514  0.0211
 4028SOL    HW223544   1.866   4.484   3.430  1.2927 -0.1252  1.1828
 4029SOL     OW23545   4.088   3.380  13.806 -0.1058 -0.0082  0.0675
 4029SOL    HW123546   4.036   3.382  13.726  0.7308  2.6941 -0.3988
 4029SOL    HW223547   4.172   3.405  13.768 -0.2850  1.5576  0.6921
 4030SOL     OW23548   3.760   2.753   8.777  0.5855  0.3060  0.8042
 4030SOL    HW123549   3.700   2.679   8.792 -0.1954  0.8263  0.2469
 4030SOL    HW223550   3.696   2.817   8.744 -1.0663 -2.4645 -1.4476
 4031SOL     OW23551   2.939   2.367   9.203  0.6636  0.7918 -0.0140
 4031SOL    HW123552   2.881   2.411   9.264 -1.7208  1.9181 -3.1019
 4031SOL    HW223553   2.896   2.414   9.132  0.7769  0.6599 -0.1703
 4032SOL     OW23554   2.558   2.168   1.086  0.4932  0.0682  0.2246
 4032SOL    HW123555   2.536   2.089   1.036 -2.4816 -0.3096  2.1672
 4032SOL    HW223556   2.592   2.128   1.166 -1.8848 -3.9978 -0.7844
 4033SOL     OW23557   3.985   0.078  16.060 -0.2915  0.0587  0.7905
 4033SOL    HW123558   4.055   0.015  16.046 -0.1573  0.4102 -0.1114
 4033SOL    HW223559   4.036   0.154  16.031 -1.9136 -0.0288 -2.2836
 4034SOL     OW23560   4.521   4.228  13.297  0.1389 -0.4501 -0.1506
 4034SOL    HW123561   4.489   4.140  13.280 -1.0079 -0.1849  0.6238
 4034SOL    HW223562   4.538   4.236  13.391  0.7936 -1.8060 -0.1586
 4035SOL     OW23563   0.704   3.133  14.213 -0.0157 -0.4801  0.1027
 4035SOL    HW123564   0.756   3.063  14.252  1.3985  0.5526  0.0755
 4035SOL    HW223565   0.711   3.130  14.118  0.5069  1.2327  0.0843
 4036SOL     OW23566   4.073   3.087  11.737  0.4057  0.2845 -0.3005
 4036SOL    HW123567   4.016   3.078  11.814  1.7626  0.7923  0.7590
 4036SOL    HW223568   4.096   2.996  11.719  0.8832  0.2321  0.5666
 4037SOL     OW23569   4.019   0.823   9.529 -0.1779 -0.3977 -0.1905
 4037SOL    HW123570   4.101   0.786   9.497 -1.6174  0.0645 -4.4586
 4037SOL    HW223571   4.018   0.766   9.605 -0.5750 -2.2472 -1.5719
 4038SOL     OW23572   2.118   2.941   9.200  0.3104 -0.7163 -0.6648
 4038SOL    HW123573   2.141   2.941   9.293 -0.0517 -0.6519 -0.5748
 4038SOL    HW223574   2.121   3.036   9.187  0.0170 -0.5869  0.2493
 4039SOL     OW23575   0.734   2.761   4.327  0.5834  0.1845  0.5377
 4039SOL    HW123576   0.670   2.694   4.302  0.3161  0.7585 -0.3481
 4039SOL    HW223577   0.785   2.763   4.246 -2.5800  0.4480 -1.4709
 4040SOL     OW23578   2.288   0.872   5.277  1.0041 -0.4723  0.3607
 4040SOL    HW123579   2.197   0.899   5.292  1.0449 -1.7520  3.0754
 4040SOL    HW223580   2.285   0.847   5.185 -1.3787  2.7109 -0.4188
 4041SOL     OW23581   3.739   3.678   5.063 -0.6557  0.7479 -0.1255
 4041SOL    HW123582   3.751   3.767   5.032 -0.9422  0.5624 -0.7599
 4041SOL    HW223583   3.775   3.625   4.993  0.9511 -0.0955  1.3364
 4042SOL     OW23584   4.299   1.050   9.785 -0.1115 -0.1291 -0.2911
 4042SOL    HW123585   4.308   1.062   9.691 -4.1904  0.9689 -0.5276
 4042SOL    HW223586   4.207   1.026   9.780 -0.2850  0.6246 -0.6908
 4043SOL     OW23587   1.716   2.553  15.151 -0.2674  0.1806 -0.1055
 4043SOL    HW123588   1.683   2.491  15.085  1.8010 -1.4432  0.3893
 4043SOL    HW223589   1.798   2.513  15.178 -0.7283 -2.3037 -2.3409
 4044SOL     OW23590   2.820   2.614  11.336 -0.0312 -0.2551 -0.0420
 4044SOL    HW123591   2.764   2.686  11.306  1.2811  0.8656  0.1683
 4044SOL    HW223592   2.882   2.616  11.263 -1.9236  0.3429 -1.6479
 4045SOL     OW23593   4.709   1.829  17.250 -0.5408 -0.5666 -0.1889
 4045SOL    HW123594   4.680   1.882  17.176  0.0739 -0.4303 -0.3307
 4045SOL    HW223595   0.025   1.753  17.206  0.1383 -0.8465  0.8925
 4046SOL     OW23596   4.300   0.220  11.253 -0.3760 -0.2695 -0.3358
 4046SOL    HW123597   4.395   0.217  11.269 -0.5267  1.8607  1.0032
 4046SOL    HW223598   4.289   0.315  11.245  0.1183 -0.1296  0.6411
 4047SOL     OW23599   1.956   2.781   0.978 -1.0058 -0.3655 -0.2269
 4047SOL    HW123600   2.002   2.776   0.894  1.0898  0.0589  0.8869
 4047SOL    HW223601   1.879   2.726   0.962 -1.1212 -0.4678  0.7366
 4048SOL     OW23602   2.111   3.532   4.348 -0.6003 -0.3735 -0.2950
 4048SOL    HW123603   2.026   3.548   4.389 -0.2375  0.5119  0.1092
 4048SOL    HW223604   2.077   3.495   4.267 -1.1871 -2.1161  0.7240
 4049SOL     OW23605   3.833   0.587   5.551 -0.1753 -0.4489  0.4110
 4049SOL    HW123606   3.908   0.632   5.588  1.1456 -1.4830 -1.0123
 4049SOL    HW223607   3.788   0.555   5.630 -1.3104  2.6398  1.0126
 4050SOL     OW23608   3.598   1.872   3.708 -0.6361 -0.3692  0.0423
 4050SOL    HW123609   3.548   1.936   3.657  0.4740  0.5108  0.0638
 4050SOL    HW223610   3.538   1.864   3.782 -1.2630  0.8206 -0.3373
 4051SOL     OW23611   0.319   3.571   5.221  0.1103  0.4223  0.3937
 4051SOL    HW123612   0.238   3.564   5.172 -0.2674 -0.8678  1.2182
 4051SOL    HW223613   0.304   3.528   5.305  1.6355  0.0807  0.4882
 4052SOL     OW23614   2.004   2.688   8.537 -0.0280 -0.0285 -0.3377
 4052SOL    HW123615   1.931   2.647   8.489 -2.1313  3.2830  0.0378
 4052SOL    HW223616   2.051   2.725   8.462  1.6951 -2.0522 -0.2489
 4053SOL     OW23617   1.360   1.884   3.760 -0.4587 -0.4482  0.2513
 4053SOL    HW123618   1.420   1.842   3.822  2.3102  0.0924 -2.0627
 4053SOL    HW223619   1.360   1.822   3.687  1.1653 -1.2513  0.9461
 4054SOL     OW23620   1.932   3.571   4.614 -0.3011 -0.3049  0.2767
 4054SOL    HW123621   2.018   3.611   4.629 -0.5928  0.5174 -0.3009
 4054SOL    HW223622   1.968   3.483   4.600  0.2148 -0.2768  1.4033
 4055SOL     OW23623   2.839   0.398   2.611 -0.0771  0.1086 -0.5155
 4055SOL    HW123624   2.864   0.323   2.665  2.0717  0.5314 -0.9297
 4055SOL    HW223625   2.887   0.377   2.530  0.6616 -1.3868  0.3052
 4056SOL     OW23626   3.665   3.458  10.128 -0.1552 -0.3781  0.0910
 4056SOL    HW123627   3.721   3.530  10.098  1.9714 -2.4578 -0.8380
 4056SOL    HW223628   3.731   3.403  10.169 -0.2374  1.7679  3.1399
 4057SOL     OW23629   4.721   1.432   4.903  0.0225  0.4520 -0.0166
 4057SOL    HW123630   4.667   1.501   4.864 -1.8166 -0.3626  1.1133
 4057SOL    HW223631   4.652   1.366   4.906  0.1813  0.1002 -3.9000
 4058SOL     OW23632   4.056   0.722   5.632  0.3272 -0.3372 -0.0961
 4058SOL    HW123633   4.117   0.689   5.698 -1.3490 -1.2032  1.0036
 4058SOL    HW223634   4.062   0.816   5.648  0.3293 -0.4282  0.4306
 4059SOL     OW23635   3.892   3.872   2.581 -0.4009  0.7703 -0.2466
 4059SOL    HW123636   3.814   3.913   2.545 -0.3524  0.2441 -0.9532
 4059SOL    HW223637   3.933   3.929   2.647  1.2973 -0.0942 -0.5512
 4060SOL     OW23638   4.502   0.842   0.818 -0.3163  0.0027  0.1599
 4060SOL    HW123639   4.447   0.811   0.889 -0.9335  0.2278 -0.2249
 4060SOL    HW223640   4.554   0.907   0.864  1.8030 -1.2632 -0.4230
 4061SOL     OW23641   2.417   3.262   0.050  0.4078 -0.0096 -0.0104
 4061SOL    HW123642   2.495   3.271  17.687  2.5036 -2.7827  2.4979
 4061SOL    HW223643   2.365   3.331   0.007  0.6105  0.1345 -0.0284
 4062SOL     OW23644   1.179   2.382   0.550 -0.3181  0.1388  0.0838
 4062SOL    HW123645   1.089   2.403   0.524 -0.3561  1.1143  1.0034
 4062SOL    HW223646   1.162   2.333   0.630  2.4297 -0.0318  0.5487
 4063SOL     OW23647   0.217   3.663  17.304 -0.0151  0.0085  0.6331
 4063SOL    HW123648   0.164   3.682  17.226 -0.0051 -2.8850 -0.0431
 4063SOL    HW223649   0.237   3.754  17.329  1.5711 -0.2763  0.4049
 4064SOL     OW23650   4.719   1.422  16.961  0.1490  0.3679  0.6004
 4064SOL    HW123651   0.009   1.332  16.992  0.1161  0.9582  2.3225
 4064SOL    HW223652   0.063   1.423  16.893  0.6988 -2.1428  1.0692
 4065SOL     OW23653   3.334   3.430   1.643 -0.4243  0.0285  0.1618
 4065SOL    HW123654   3.334   3.472   1.557  0.5493 -0.3849 -0.0346
 4065SOL    HW223655   3.246   3.392   1.641 -1.0089  1.5097 -1.8810
 4066SOL     OW23656   3.642   2.016  10.391 -0.3614 -0.4751  0.2763
 4066SOL    HW123657   3.624   1.953  10.321 -0.3360  1.5386 -1.5515
 4066SOL    HW223658   3.710   2.062  10.341 -0.0656 -2.6182 -1.2894
 4067SOL     OW23659   2.676   3.303  13.224  0.0880  0.4390 -0.5001
 4067SOL    HW123660   2.704   3.223  13.268  0.4073  0.9904  0.2954
 4067SOL    HW223661   2.600   3.274  13.173 -0.3060  0.8273 -0.1342
 4068SOL     OW23662   2.786   3.354   5.173  0.5570  0.4958 -0.6318
 4068SOL    HW123663   2.783   3.390   5.262  0.7772 -0.0788 -0.3904
 4068SOL    HW223664   2.757   3.429   5.122 -0.1592 -0.5943 -1.8083
 4069SOL     OW23665   2.127   0.814  14.203  0.4620 -0.4814 -0.1433
 4069SOL    HW123666   2.044   0.767  14.213  1.0155 -1.0913  1.4451
 4069SOL    HW223667   2.113   0.892  14.257 -1.2949 -0.6975 -0.2908
 4070SOL     OW23668   0.957   0.976   8.445 -0.4171  0.5373  0.2622
 4070SOL    HW123669   1.000   0.936   8.521  0.7689 -1.6024 -1.5222
 4070SOL    HW223670   1.018   1.045   8.420 -1.7637  0.9591 -1.8492
 4071SOL     OW23671   4.030   3.277   7.209  0.4543 -0.7656 -0.3484
 4071SOL    HW123672   3.965   3.236   7.153  1.0230  0.1238 -1.6552
 4071SOL    HW223673   4.078   3.209   7.257  0.4874  0.6202  1.5760
 4072SOL     OW23674   1.817   3.570   6.552  0.5941  0.5172  0.4563
 4072SOL    HW123675   1.782   3.519   6.479 -0.9927  0.2614  1.3880
 4072SOL    HW223676   1.891   3.517   6.582 -0.0881  0.4279  1.9913
 4073SOL     OW23677   4.683   0.226   4.451 -0.0581  0.3410  0.3398
 4073SOL    HW123678   4.669   0.181   4.534  1.7547  0.8779  0.9353
 4073SOL    HW223679   4.612   0.182   4.405 -1.0326  1.4666  0.7884
 4074SOL     OW23680   1.919   3.582   4.927 -0.7733  0.3664 -0.5080
 4074SOL    HW123681   1.986   3.520   4.898 -1.2970 -0.1368 -0.6552
 4074SOL    HW223682   1.963   3.666   4.915 -0.0890  0.1614  0.5335
 4075SOL     OW23683   1.058   1.919   0.391 -0.1583 -0.2257  0.8574
 4075SOL    HW123684   1.051   1.864   0.468 -0.2780  2.8424  3.0503
 4075SOL    HW223685   0.999   1.988   0.423 -2.9173 -1.6995 -0.9796
 4076SOL     OW23686   1.104   1.094   7.921 -0.4141  0.0847  0.5453
 4076SOL    HW123687   1.074   1.174   7.965  0.5958 -0.8109  2.8192
 4076SOL    HW223688   1.192   1.119   7.892 -1.9139  2.1970 -2.2618
 4077SOL     OW23689   2.852   4.226   4.520  0.2950 -0.1275  0.0105
 4077SOL    HW123690   2.894   4.153   4.475 -0.3390 -1.3330  1.3984
 4077SOL    HW223691   2.764   4.217   4.483  0.2198  0.7495 -0.0349
 4078SOL     OW23692   3.499   0.171   5.974 -0.1769 -0.5079  0.3941
 4078SOL    HW123693   3.531   0.215   6.053  1.4686  0.8243 -1.0176
 4078SOL    HW223694   3.422   0.226   5.958 -0.5058 -1.4044 -1.1350
 4079SOL     OW23695   3.293   2.099   5.928 -0.0741  0.4577 -0.2957
 4079SOL    HW123696   3.322   2.189   5.913  3.3348 -0.4288  0.8144
 4079SOL    HW223697   3.199   2.115   5.917 -0.9687 -2.5753  2.9779
 4080SOL     OW23698   0.136   4.690  12.905  0.0203  0.6725 -0.0218
 4080SOL    HW123699   0.202   4.677  12.837 -0.6165  0.0139 -0.5283
 4080SOL    HW223700   0.137   0.059  12.931 -0.0047  0.3906  0.9665
 4081SOL     OW23701   0.082   4.045   6.234  0.5302 -0.1285 -0.3543
 4081SOL    HW123702   0.034   4.128   6.230  0.1816 -0.1664  2.8055
 4081SOL    HW223703   0.011   3.981   6.238  1.7955 -1.5400 -0.7067
 4082SOL     OW23704   4.134   3.649  13.226 -0.8357 -0.3636  0.2823
 4082SOL    HW123705   4.070   3.633  13.157 -1.2714 -0.3091  0.6701
 4082SOL    HW223706   4.187   3.723  13.196  0.3926 -2.1258 -1.8728
 4083SOL     OW23707   1.421   4.490  14.391  0.3714 -0.1902 -0.2956
 4083SOL    HW123708   1.419   4.552  14.464 -1.2945 -0.3375 -0.2180
 4083SOL    HW223709   1.402   4.543  14.313 -0.7474  1.4697  1.1152
 4084SOL     OW23710   1.544   4.617   5.187  0.2710 -0.1208 -0.2122
 4084SOL    HW123711   1.484   4.689   5.166  0.2749 -0.4012 -1.2158
 4084SOL    HW223712   1.479   4.551   5.210 -0.4983  0.7823  0.1857
 4085SOL     OW23713   4.214   1.283   5.528  0.1891  0.1151 -0.2769
 4085SOL    HW123714   4.225   1.369   5.568 -0.7330 -0.3110  0.8837
 4085SOL    HW223715   4.185   1.308   5.440  0.0250 -0.2633 -0.3308
 4086SOL     OW23716   3.815   4.533   2.444 -0.5185 -0.2908  0.4535
 4086SOL    HW123717   3.778   4.480   2.373  1.2969 -0.5217 -0.3380
 4086SOL    HW223718   3.860   4.464   2.493  1.3165 -0.0209 -0.8525
 4087SOL     OW23719   2.527   0.113   2.948 -0.4954 -0.6587 -0.9816
 4087SOL    HW123720   2.528   0.194   2.897  1.2790 -0.5677 -0.8052
 4087SOL    HW223721   2.582   0.129   3.025 -3.8166  0.2807  1.1827
 4088SOL     OW23722   4.256   0.908   2.360  0.0290 -0.5925 -0.2679
 4088SOL    HW123723   4.299   0.900   2.274  0.5976  0.1654 -0.0497
 4088SOL    HW223724   4.311   0.846   2.408  0.0101  0.3469  0.9480
 4089SOL     OW23725   2.237   0.388  11.068 -0.5682 -0.2455  0.1604
 4089SOL    HW123726   2.210   0.364  10.979 -1.3896 -0.1167  0.3757
 4089SOL    HW223727   2.200   0.477  11.076  1.2425  0.8234 -3.4454
 4090SOL     OW23728   0.723   2.310   5.830  0.3832  0.3052  0.8352
 4090SOL    HW123729   0.730   2.391   5.880  1.6109 -0.6027  2.1428
 4090SOL    HW223730   0.638   2.321   5.786  1.5432  1.5335 -1.0843
 4091SOL     OW23731   2.478   3.533   1.108  0.1646  0.3797 -0.3045
 4091SOL    HW123732   2.459   3.440   1.092  1.0115  0.0377  0.6620
 4091SOL    HW223733   2.482   3.532   1.203  1.1601 -0.3445 -0.3418
 4092SOL     OW23734   2.392   4.455   5.013  0.8326 -0.0842  0.1532
 4092SOL    HW123735   2.464   4.451   5.076  1.3159  2.2277 -0.2442
 4092SOL    HW223736   2.399   4.546   4.983 -2.7763 -0.1104 -0.7275
 4093SOL     OW23737   2.549   3.970   7.850  0.1435  0.1693  0.7174
 4093SOL    HW123738   2.528   4.044   7.793 -2.5492 -0.7458  0.5094
 4093SOL    HW223739   2.478   3.989   7.911 -1.0373 -0.8475 -0.3310
 4094SOL     OW23740   3.131   3.220   0.020 -0.0818 -0.0980  0.0853
 4094SOL    HW123741   3.049   3.262  17.687 -0.1241 -0.4452 -0.3540
 4094SOL    HW223742   3.176   3.209  17.628  0.6108  0.6516  0.3578
 4095SOL     OW23743   4.628   2.486  14.677 -0.3227 -0.1632  0.3455
 4095SOL    HW123744   4.586   2.504  14.593 -0.6555  4.2815  1.4795
 4095SOL    HW223745   4.658   2.575  14.693  2.0214 -0.5991 -1.5794
 4096SOL     OW23746   0.200   4.418   2.371 -0.3697  0.2417 -0.3974
 4096SOL    HW123747   0.197   4.386   2.281 -1.5489  1.3150 -0.7391
 4096SOL    HW223748   0.156   4.503   2.361  1.4356  1.1070 -1.1559
 4097SOL     OW23749   3.241   1.696  12.966 -0.2224  0.2502 -0.4574
 4097SOL    HW123750   3.227   1.758  13.037  2.1268  1.4521 -1.0508
 4097SOL    HW223751   3.219   1.609  13.000 -1.0334  1.0250  1.0021
 4098SOL     OW23752   1.487   3.408  14.416  0.3627  0.1487  0.1426
 4098SOL    HW123753   1.522   3.375  14.332 -0.0024 -1.1900  0.5070
 4098SOL    HW223754   1.556   3.390  14.480  0.0678 -0.9773  0.1438
 4099SOL     OW23755   4.701   3.210   7.651 -0.2072 -0.1134 -0.3077
 4099SOL    HW123756   4.652   3.280   7.608 -0.7180  1.0967  2.2723
 4099SOL    HW223757   0.012   3.254   7.729  1.0679  0.0053 -0.9302
 4100SOL     OW23758   1.851   1.536  11.748 -0.2154  0.6393 -0.1217
 4100SOL    HW123759   1.944   1.559  11.737 -0.3289  0.8983 -0.5455
 4100SOL    HW223760   1.866   1.443  11.733  0.4893  1.1568 -2.6402
 4101SOL     OW23761   3.570   1.241   8.455 -0.4040  0.2021  0.1155
 4101SOL    HW123762   3.576   1.218   8.548  1.3833  2.5762  0.5910
 4101SOL    HW223763   3.664   1.230   8.435 -0.6718 -0.9895 -0.5306
 4102SOL     OW23764   4.308   2.848   6.298 -0.7941 -0.2690  0.6512
 4102SOL    HW123765   4.400   2.852   6.272 -0.4385  0.4674  1.9995
 4102SOL    HW223766   4.307   2.808   6.386  2.3036  0.0121  0.8006
 4103SOL     OW23767   0.189   2.894  17.029 -0.1568 -0.1663  0.0742
 4103SOL    HW123768   0.122   2.835  16.995 -0.7817  1.1541 -0.9688
 4103SOL    HW223769   0.160   2.982  17.007 -0.7086 -0.2449  0.5022
 4104SOL     OW23770   4.047   1.531   5.505  0.4822 -0.3078  0.5132
 4104SOL    HW123771   4.120   1.580   5.543  1.4609 -1.1707 -0.2652
 4104SOL    HW223772   4.051   1.550   5.411  0.1361  0.2743  0.6143
 4105SOL     OW23773   4.617   0.669   3.304 -0.5202 -0.4171  0.0658
 4105SOL    HW123774   4.562   0.649   3.228 -0.2802 -0.9575  0.0292
 4105SOL    HW223775   4.679   0.597   3.318 -0.1773 -0.6843 -2.7328
 4106SOL     OW23776   2.055   1.450   4.707 -0.2013 -0.0230 -0.3335
 4106SOL    HW123777   2.063   1.433   4.613  0.3620 -0.5781 -0.1877
 4106SOL    HW223778   2.042   1.361   4.739 -1.2329  0.0297 -0.6027
 4107SOL     OW23779   1.555   0.182   8.992  0.0493 -0.2668  0.4893
 4107SOL    HW123780   1.508   0.115   8.942  0.1643 -0.0269  0.0573
 4107SOL    HW223781   1.501   0.254   8.958  0.6687 -1.3633 -2.8183
 4108SOL     OW23782   1.126   2.991   6.477  0.4900 -0.2129 -0.4018
 4108SOL    HW123783   1.055   2.929   6.460  1.1062 -0.7546 -1.0266
 4108SOL    HW223784   1.143   2.964   6.567 -0.5351 -0.1755 -0.2016
 4109SOL     OW23785   2.408   2.405   8.456  0.0752  0.3570 -0.0380
 4109SOL    HW123786   2.454   2.467   8.512  0.5943 -0.6787  0.6749
 4109SOL    HW223787   2.460   2.423   8.378  1.1225  0.8349  0.7798
 4110SOL     OW23788   3.834   2.140  14.661 -0.4125  0.2088 -0.2948
 4110SOL    HW123789   3.827   2.104  14.750 -1.9190  3.3601  0.8721
 4110SOL    HW223790   3.820   2.063  14.606  3.7517  0.5402 -1.7992
 4111SOL     OW23791   4.647   1.087   4.556 -0.6042  0.2468 -0.3671
 4111SOL    HW123792   4.691   1.003   4.546  0.3796  0.5057  1.8466
 4111SOL    HW223793   4.720   1.147   4.543  0.5374 -1.5859 -2.3190
 4112SOL     OW23794   0.988   1.935  16.220 -0.3594  0.0019  0.7827
 4112SOL    HW123795   1.070   1.934  16.269  1.3236 -0.5611 -2.0428
 4112SOL    HW223796   1.014   1.934  16.128 -1.1688  1.6443  0.5440
 4113SOL     OW23797   4.621   3.764   3.502  0.2032 -0.1371  0.1659
 4113SOL    HW123798   4.680   3.724   3.566  0.1537  1.6973  1.3518
 4113SOL    HW223799   4.554   3.699   3.478  0.6109  0.1273 -1.6627
 4114SOL     OW23800   3.196   3.893   8.824  0.2346  0.1572  0.3230
 4114SOL    HW123801   3.112   3.898   8.870 -0.1425 -2.1182 -0.1031
 4114SOL    HW223802   3.173   3.871   8.733  1.7157  0.9820 -0.2491
 4115SOL     OW23803   4.710   0.630  12.208 -0.0121 -0.0320  0.3298
 4115SOL    HW123804   0.031   0.646  12.291 -1.4507  0.3098  1.0079
 4115SOL    HW223805   4.652   0.706  12.205  0.1647  0.0902 -0.0293
 4116SOL     OW23806   3.406   2.675   8.866 -0.7197 -0.2509  0.6267
 4116SOL    HW123807   3.333   2.692   8.806 -0.0551 -2.3726 -0.7898
 4116SOL    HW223808   3.472   2.630   8.813 -0.5288  2.3012 -1.3096
 4117SOL     OW23809   0.593   0.275  11.488 -0.3260  0.1535 -0.0860
 4117SOL    HW123810   0.599   0.191  11.533  1.6772  0.0780 -0.5013
 4117SOL    HW223811   0.629   0.333  11.554  2.3275 -1.0344 -0.4775
 4118SOL     OW23812   3.938   0.509   5.204  0.5240 -0.6933 -0.6672
 4118SOL    HW123813   3.933   0.588   5.149 -1.8198 -0.8452 -0.6653
 4118SOL    HW223814   3.850   0.514   5.240  1.6794 -0.7272  2.1161
 4119SOL     OW23815   1.562   2.147   6.509  0.7096  0.1280 -0.0765
 4119SOL    HW123816   1.635   2.185   6.460  0.2442 -1.4874 -2.0331
 4119SOL    HW223817   1.604   2.127   6.593  1.1044  1.1885 -0.0192
 4120SOL     OW23818   2.857   3.323   5.874 -0.5072 -0.0257 -0.7577
 4120SOL    HW123819   2.923   3.391   5.866  0.8006 -1.3014 -0.6832
 4120SOL    HW223820   2.854   3.284   5.787 -0.7215 -1.8991  0.0720
 4121SOL     OW23821   3.610   2.266  11.554 -0.3610 -0.4876 -0.1537
 4121SOL    HW123822   3.562   2.190  11.522 -1.3472 -0.7327  1.8875
 4121SOL    HW223823   3.696   2.226  11.571 -1.4066 -2.8146 -0.4576
 4122SOL     OW23824   0.531   0.498   4.972  0.3776  0.0005  0.4848
 4122SOL    HW123825   0.580   0.419   4.949  1.4569  0.6473  0.5757
 4122SOL    HW223826   0.507   0.475   5.061  1.7319  2.1733  1.4201
 4123SOL     OW23827   1.239   0.789   2.490  0.5000  0.1679 -0.4623
 4123SOL    HW123828   1.222   0.872   2.445 -0.9113 -0.5235 -1.1778
 4123SOL    HW223829   1.202   0.723   2.432  1.2582 -1.4554  0.8938
 4124SOL     OW23830   0.043   2.050   2.944 -0.0236 -0.1459  0.3895
 4124SOL    HW123831   0.054   1.979   3.007  0.5794 -2.0482 -1.8591
 4124SOL    HW223832   0.012   1.995   2.873  0.9024  1.2445 -1.0806
 4125SOL     OW23833   4.626   4.223  11.653 -0.1170 -0.3127 -0.0408
 4125SOL    HW123834   4.638   4.170  11.574  3.7343  1.5596 -0.6641
 4125SOL    HW223835   4.714   4.233  11.688  0.6559  1.1380 -2.4035
 4126SOL     OW23836   2.451   3.411   7.575 -0.6621 -0.3828  0.7541
 4126SOL    HW123837   2.366   3.420   7.533  0.4068  1.2533 -1.0728
 4126SOL    HW223838   2.507   3.382   7.503 -0.0095  1.0519  0.6825
 4127SOL     OW23839   4.633   3.637   3.165  0.0846 -0.1079  0.5172
 4127SOL    HW123840   4.704   3.572   3.166 -2.0468 -2.4236  1.0085
 4127SOL    HW223841   4.565   3.579   3.200  0.0561 -0.0089  0.6258
 4128SOL     OW23842   4.248   0.456   3.376 -0.1061  0.0273 -0.2212
 4128SOL    HW123843   4.183   0.462   3.306 -0.0246  1.2257 -0.1880
 4128SOL    HW223844   4.184   0.427   3.442 -1.1492  1.1321 -0.7640
 4129SOL     OW23845   2.307   2.851   6.878  0.3766 -0.3040 -0.0394
 4129SOL    HW123846   2.226   2.836   6.830  0.4683 -0.5541 -0.1200
 4129SOL    HW223847   2.265   2.849   6.964 -0.0924 -1.1521 -0.2900
 4130SOL     OW23848   2.524   3.874  10.864  0.2157 -0.8397 -0.0137
 4130SOL    HW123849   2.571   3.798  10.830  1.9557  0.7712 -1.2333
 4130SOL    HW223850   2.479   3.842  10.942 -0.5013 -0.7385 -0.3805
 4131SOL     OW23851   1.293   0.596   5.888 -0.7725 -0.1179 -0.5701
 4131SOL    HW123852   1.370   0.572   5.939 -3.3679 -3.2923  1.8239
 4131SOL    HW223853   1.229   0.613   5.957  0.5460 -0.5812  0.7459
 4132SOL     OW23854   2.113   2.285  10.906  0.1835  0.2552  0.0126
 4132SOL    HW123855   2.149   2.321  10.987 -1.3303  0.5123  0.5686
 4132SOL    HW223856   2.183   2.227  10.876  1.7152  1.5002  1.2203
 4133SOL     OW23857   0.842   1.468   5.388 -0.3794  0.3803 -0.5343
 4133SOL    HW123858   0.864   1.560   5.402  1.3544  0.1119 -1.4714
 4133SOL    HW223859   0.923   1.428   5.419 -1.1584 -1.3206 -0.6650
 4134SOL     OW23860   1.668   2.654   4.028 -0.4514 -0.5190  0.2750
 4134SOL    HW123861   1.623   2.598   3.965 -1.3042  0.8703 -0.3651
 4134SOL    HW223862   1.611   2.729   4.013  1.2204  0.2678 -2.2080
 4135SOL     OW23863   1.557   3.506   1.283 -0.2883 -0.5129  0.3655
 4135SOL    HW123864   1.518   3.524   1.197 -0.0142 -0.2671  0.2929
 4135SOL    HW223865   1.478   3.524   1.333 -0.1446  0.1222  0.3609
 4136SOL     OW23866   3.055   0.524   7.412 -0.2452  0.2734 -0.2982
 4136SOL    HW123867   3.061   0.552   7.320  0.8276 -1.0709 -0.6171
 4136SOL    HW223868   2.962   0.546   7.419 -0.0698  0.6747  0.7381
 4137SOL     OW23869   4.003   2.489  15.439 -0.0795  0.6136  0.0359
 4137SOL    HW123870   4.047   2.463  15.359  0.4264  0.2296  0.4391
 4137SOL    HW223871   4.081   2.477  15.493 -0.3307 -2.0755 -0.1944
 4138SOL     OW23872   4.664   1.439   6.187 -0.2772 -0.4695 -0.5668
 4138SOL    HW123873   4.610   1.406   6.259 -3.2838 -0.1789 -2.6900
 4138SOL    HW223874   4.682   1.523   6.228 -1.0217 -0.8869  0.5853
 4139SOL     OW23875   4.579   1.892   7.945  0.0282  0.0589  0.3490
 4139SOL    HW123876   4.650   1.939   7.902 -0.3079  0.0789 -0.1733
 4139SOL    HW223877   4.593   1.908   8.039 -2.1398 -2.0672  1.0320
 4140SOL     OW23878   0.487   2.369   8.682 -0.0321 -0.2876 -0.1638
 4140SOL    HW123879   0.550   2.362   8.610  2.1565  0.4348  1.6588
 4140SOL    HW223880   0.473   2.275   8.695 -1.7636  0.0510  0.4174
 4141SOL     OW23881   0.548   0.098   7.815  0.0610 -0.8416 -0.1791
 4141SOL    HW123882   0.531   0.011   7.852  1.0942 -0.0630  2.1478
 4141SOL    HW223883   0.489   0.149   7.871 -0.1803  0.9537 -2.1203
 4142SOL     OW23884   1.263   3.829   5.639  0.4577  0.2375  0.0479
 4142SOL    HW123885   1.290   3.890   5.570  0.1716 -0.0537 -0.3237
 4142SOL    HW223886   1.342   3.841   5.691 -1.0856  0.5905  2.2840
 4143SOL     OW23887   4.574   2.389   7.480 -0.3586 -0.8492 -0.1376
 4143SOL    HW123888   4.544   2.399   7.570  0.0904 -1.5754  0.0932
 4143SOL    HW223889   4.496   2.343   7.448  0.5629 -1.5509 -1.3926
 4144SOL     OW23890   4.285   4.585   2.766 -0.1425  0.2897  0.2729
 4144SOL    HW123891   4.365   4.637   2.757 -0.4825  0.8033  0.2249
 4144SOL    HW223892   4.225   4.640   2.815 -0.8545 -0.9930  0.8407
 4145SOL     OW23893   4.717   0.828   4.558 -0.0251 -0.0391 -0.2133
 4145SOL    HW123894   4.658   0.754   4.566  1.1912 -1.0082 -0.1372
 4145SOL    HW223895   0.077   0.789   4.588 -1.0029 -0.7548  1.5725
 4146SOL     OW23896   3.530   0.555   3.095 -0.0044  0.3865 -0.1609
 4146SOL    HW123897   3.520   0.633   3.040  0.1039  0.4543 -0.0866
 4146SOL    HW223898   3.538   0.587   3.185  2.5243 -1.0700  0.1518
 4147SOL     OW23899   1.787   3.946  17.663  0.2201  0.1464  0.0265
 4147SOL    HW123900   1.877   3.943   0.003  0.8247 -1.2741 -1.8345
 4147SOL    HW223901   1.749   3.919   0.055 -0.1192 -1.4123 -0.6131
 4148SOL     OW23902   4.374   0.075   7.602  0.6209  0.1019  0.3616
 4148SOL    HW123903   4.428   0.022   7.544 -0.5879 -0.0179 -0.6627
 4148SOL    HW223904   4.298   0.087   7.545  2.5425 -0.9335 -2.4235
 4149SOL     OW23905   0.749   3.151   1.412  0.1233  0.0956  0.0924
 4149SOL    HW123906   0.700   3.187   1.486 -0.1394  0.6315 -0.3410
 4149SOL    HW223907   0.744   3.221   1.346 -1.3801  0.5885  0.7385
 4150SOL     OW23908   2.540   0.446   6.442 -0.1690  0.5930 -0.3956
 4150SOL    HW123909   2.522   0.454   6.536 -0.0210 -0.6400 -0.2681
 4150SOL    HW223910   2.620   0.495   6.426  1.7512 -2.5728 -0.4032
 4151SOL     OW23911   0.706   2.768  11.361 -0.1345  0.6168 -0.6748
 4151SOL    HW123912   0.796   2.798  11.353 -0.4745  1.3776 -1.6466
 4151SOL    HW223913   0.658   2.850  11.370 -0.6631  0.2451 -0.0675
 4152SOL     OW23914   1.035   1.764   0.625 -0.2314 -0.1893 -0.0304
 4152SOL    HW123915   0.953   1.727   0.656 -1.1798  2.5801  0.6912
 4152SOL    HW223916   1.081   1.758   0.708 -1.8262 -0.1984  0.8418
 4153SOL     OW23917   2.335   3.233   6.842  0.4357 -0.1969  0.4170
 4153SOL    HW123918   2.374   3.255   6.927 -0.1132 -1.7314  1.0705
 4153SOL    HW223919   2.357   3.313   6.795  2.0766  0.2695  1.9766
 4154SOL     OW23920   2.104   2.378   4.611  0.1140  0.6531 -0.4139
 4154SOL    HW123921   2.165   2.400   4.682  0.1902  2.7834 -1.1402
 4154SOL    HW223922   2.170   2.343   4.551  1.3110  3.6459 -0.8465
 4155SOL     OW23923   3.222   2.188  11.886 -0.6799 -0.4304 -0.2159
 4155SOL    HW123924   3.229   2.109  11.939 -0.2972 -0.1130  0.1975
 4155SOL    HW223925   3.316   2.206  11.888 -0.7156 -0.3007  0.1909
 4156SOL     OW23926   3.724   3.585  10.448 -0.2151  0.6760 -0.0665
 4156SOL    HW123927   3.726   3.536  10.530  0.5906 -0.1766 -0.6020
 4156SOL    HW223928   3.791   3.544  10.393 -1.3126 -0.7170 -0.3509
 4157SOL     OW23929   3.854   0.798   2.692  0.5380  0.7956  0.6022
 4157SOL    HW123930   3.930   0.800   2.633 -0.2036 -3.4626 -0.4961
 4157SOL    HW223931   3.790   0.836   2.631  2.1859  1.1725 -0.9033
 4158SOL     OW23932   1.149   0.898   0.251 -0.5313  0.7752 -0.3430
 4158SOL    HW123933   1.245   0.892   0.252 -0.5592  0.1663 -0.7800
 4158SOL    HW223934   1.133   0.805   0.234  0.8425  0.5269 -0.3117
 4159SOL     OW23935   4.029   0.211  11.654  0.0028  0.7931 -0.0670
 4159SOL    HW123936   4.062   0.299  11.674 -1.1737  1.1797  0.1805
 4159SOL    HW223937   4.089   0.174  11.589 -0.3465 -2.1337  1.2951
 4160SOL     OW23938   3.146   3.745   5.452  0.5805 -0.0495 -0.2012
 4160SOL    HW123939   3.193   3.794   5.519 -0.9476  0.1285  0.7197
 4160SOL    HW223940   3.147   3.806   5.378  0.7808 -0.0602 -0.2087
 4161SOL     OW23941   0.044   4.093   9.893  0.2373 -0.7639 -0.1234
 4161SOL    HW123942   0.070   4.012   9.850 -4.1993 -1.1767 -2.0478
 4161SOL    HW223943   0.054   4.084   9.988  2.3528  0.5233 -0.2125
 4162SOL     OW23944   1.450   2.359   4.576 -0.8253 -0.5841 -0.0216
 4162SOL    HW123945   1.386   2.422   4.607  0.2215  0.1872  0.5903
 4162SOL    HW223946   1.449   2.288   4.639  0.9695  0.8149  1.5849
 4163SOL     OW23947   1.849   0.960  13.558  0.2725  0.0440 -0.2301
 4163SOL    HW123948   1.890   0.959  13.471 -0.1445  1.2019 -0.4381
 4163SOL    HW223949   1.887   0.879  13.592  1.2588  0.2836 -0.7375
 4164SOL     OW23950   2.243   4.253   6.298 -0.1982  0.3807  0.0057
 4164SOL    HW123951   2.244   4.289   6.209 -1.2205  2.1032  0.7037
 4164SOL    HW223952   2.156   4.277   6.329 -0.2388  1.0428 -0.6244
 4165SOL     OW23953   4.195   4.699   8.342 -0.2830 -0.3471 -0.8701
 4165SOL    HW123954   4.235   0.063   8.329 -0.2619 -0.1793  0.3979
 4165SOL    HW223955   4.264   4.638   8.367 -2.7347 -2.7866 -0.1113
 4166SOL     OW23956   0.039   0.208  13.245 -0.2328  0.2683 -0.6777
 4166SOL    HW123957   0.065   0.223  13.154  1.6003  0.5829 -0.0833
 4166SOL    HW223958   0.059   0.292  13.285 -1.8621  0.8608 -1.0836
 4167SOL     OW23959   2.081   3.858   4.410  0.1101 -0.5288 -0.0770
 4167SOL    HW123960   2.156   3.798   4.409  1.5692  1.2758  1.4382
 4167SOL    HW223961   2.043   3.843   4.324 -0.0352  0.1683 -0.1340
 4168SOL     OW23962   0.808   4.136   8.872  0.5116  0.5254 -0.2912
 4168SOL    HW123963   0.722   4.172   8.893  1.6813  1.2056  3.2576
 4168SOL    HW223964   0.804   4.107   8.781 -2.4100 -1.8502  0.5927
 4169SOL     OW23965   2.857   1.058   6.538  0.1890 -0.6809 -0.0215
 4169SOL    HW123966   2.935   1.054   6.483  0.2353  1.6942 -0.1235
 4169SOL    HW223967   2.855   0.980   6.594 -3.1688  0.4683  1.4298
 4170SOL     OW23968   0.478   0.681   7.075 -0.2405  0.1092  0.0976
 4170SOL    HW123969   0.565   0.647   7.099 -0.7634 -1.9622 -0.9809
 4170SOL    HW223970   0.427   0.632   7.140  2.5201 -1.3372  1.1765
 4171SOL     OW23971   4.304   4.549   1.214 -0.2640 -0.0128 -0.5115
 4171SOL    HW123972   4.301   4.541   1.310  1.8871 -1.6687 -0.5730
 4171SOL    HW223973   4.397   4.529   1.198 -0.1772 -0.4417  0.4763
 4172SOL     OW23974   0.471   3.925   2.664 -0.7507  0.6846 -0.1715
 4172SOL    HW123975   0.512   3.983   2.729  0.6721 -1.4688  0.8252
 4172SOL    HW223976   0.481   3.976   2.583 -0.5795 -0.4404 -0.8481
 4173SOL     OW23977   1.405   2.846   3.008  0.4009  0.4253 -0.3919
 4173SOL    HW123978   1.386   2.798   2.927  1.2727  4.9280 -3.2816
 4173SOL    HW223979   1.452   2.926   2.984  0.5114  0.3750 -0.3421
 4174SOL     OW23980   1.046   1.167  16.845  0.4600  0.2398 -0.6470
 4174SOL    HW123981   1.128   1.123  16.869  0.4514  1.9286  2.4736
 4174SOL    HW223982   1.032   1.226  16.919  0.0510 -0.0073 -0.5263
 4175SOL     OW23983   2.215   1.867   2.764  0.0824 -0.2100  0.4417
 4175SOL    HW123984   2.264   1.928   2.709 -0.9730  0.5906  0.3895
 4175SOL    HW223985   2.271   1.790   2.760  1.4663  0.8579 -1.1224
 4176SOL     OW23986   2.234   3.907   5.802 -0.5065 -0.2636  0.1286
 4176SOL    HW123987   2.324   3.940   5.799 -1.4589  2.3837  0.6333
 4176SOL    HW223988   2.225   3.911   5.897  0.2614  2.6166  0.0778
 4177SOL     OW23989   0.972   4.151   7.374 -0.0891 -0.2397 -0.2555
 4177SOL    HW123990   0.879   4.160   7.353 -0.8976 -1.3999  2.7788
 4177SOL    HW223991   1.014   4.230   7.341  2.4574 -2.1139 -1.4493
 4178SOL     OW23992   1.683   0.713  11.994 -0.4665 -0.0676  0.5559
 4178SOL    HW123993   1.775   0.738  11.999 -0.5746  0.7820 -1.8665
 4178SOL    HW223994   1.638   0.797  11.988  0.9724  0.7068  0.8169
 4179SOL     OW23995   1.415   2.540  17.663 -0.3142  0.6089 -0.4814
 4179SOL    HW123996   1.399   2.633  17.646 -2.9103  0.6954  2.4081
 4179SOL    HW223997   1.329   2.521   0.009 -0.1272  0.7062  0.0014
 4180SOL     OW23998   2.804   2.525   8.201 -0.1210  0.4507  0.1234
 4180SOL    HW123999   2.832   2.588   8.134 -0.0498  0.8909  0.5644
 4180SOL    HW224000   2.854   2.562   8.274  0.4304 -0.7062  0.3282
 4181SOL     OW24001   2.083   4.018  16.440 -0.0628 -0.5560 -0.5917
 4181SOL    HW124002   2.009   3.989  16.493 -0.3886  0.0812 -0.6853
 4181SOL    HW224003   2.145   3.950  16.464 -0.2130 -0.7082 -0.6374
 4182SOL     OW24004   4.060   1.297   2.799 -0.0746  0.1901 -0.1511
 4182SOL    HW124005   4.117   1.234   2.755  0.2458  0.8889 -0.7530
 4182SOL    HW224006   4.108   1.315   2.880  2.5962 -1.3542 -1.3979
 4183SOL     OW24007   4.520   3.719   0.281  0.3527  0.0792 -0.3768
 4183SOL    HW124008   4.546   3.627   0.277  3.0754  0.7640  2.0620
 4183SOL    HW224009   4.428   3.705   0.304  0.1294 -2.1492 -2.6418
 4184SOL     OW24010   1.576   3.326   1.657 -0.2434  0.0067 -0.0857
 4184SOL    HW124011   1.585   3.295   1.567 -0.8098 -1.2654  0.3011
 4184SOL    HW224012   1.481   3.317   1.663  0.1067 -2.7124  1.3055
 4185SOL     OW24013   4.267   0.734   9.468  0.2175  0.3016 -0.1998
 4185SOL    HW124014   4.307   0.685   9.540  0.6534  2.0098  0.7186
 4185SOL    HW224015   4.342   0.792   9.452 -0.0381  0.3701 -1.1241
 4186SOL     OW24016   1.576   2.561   2.279 -0.1104  0.5865 -0.2646
 4186SOL    HW124017   1.622   2.549   2.363  1.0990 -2.3118 -1.3535
 4186SOL    HW224018   1.510   2.493   2.293 -0.3321  0.9999  0.7445
 4187SOL     OW24019   1.907   2.155   5.770  0.4600  0.2135 -0.5326
 4187SOL    HW124020   1.831   2.122   5.818  0.0453  1.6145 -0.2201
 4187SOL    HW224021   1.947   2.217   5.831  1.8607  0.0017 -1.2487
 4188SOL     OW24022   1.638   4.472   3.910  0.1328 -0.2619  0.1022
 4188SOL    HW124023   1.577   4.443   3.841 -0.8277  0.5579  0.6150
 4188SOL    HW224024   1.575   4.514   3.968  1.5968 -0.8254  2.1024
 4189SOL     OW24025   2.618   4.534   6.159 -1.1029 -0.1899  0.2224
 4189SOL    HW124026   2.664   4.590   6.096 -1.2663 -1.7501 -1.3201
 4189SOL    HW224027   2.659   4.562   6.240  1.7594  2.3632 -2.1212
 4190SOL     OW24028   2.286   3.719   7.656 -0.2762  0.2230 -0.9973
 4190SOL    HW124029   2.379   3.697   7.650 -0.3007 -1.0619  2.7673
 4190SOL    HW224030   2.268   3.697   7.748 -0.8317 -0.6619 -1.3243
 4191SOL     OW24031   1.662   3.720  11.695 -0.2463 -0.0772  0.1970
 4191SOL    HW124032   1.726   3.789  11.681  0.4496 -0.2266  2.6617
 4191SOL    HW224033   1.593   3.780  11.724 -0.7920 -0.4232 -0.3678
 4192SOL     OW24034   0.881   1.676   8.322  0.3493 -0.2613  0.5595
 4192SOL    HW124035   0.885   1.714   8.410 -0.2181  1.4178 -0.1350
 4192SOL    HW224036   0.973   1.669   8.297  0.0522 -1.5254 -0.1468
 4193SOL     OW24037   0.297   3.145  17.615  0.1313  0.0256  0.0728
 4193SOL    HW124038   0.381   3.190  17.622  0.2164 -0.2195  0.6087
 4193SOL    HW224039   0.289   3.107   0.010  0.6584  0.0784  0.1465
 4194SOL     OW24040   1.577   0.159   3.345 -0.0263  0.0062 -0.0243
 4194SOL    HW124041   1.649   0.218   3.367 -0.8202  0.3097  1.7188
 4194SOL    HW224042   1.632   0.092   3.305  2.3873  1.0862  1.4974
 4195SOL     OW24043   1.412   4.221   8.134  0.2497 -0.3809  0.2155
 4195SOL    HW124044   1.501   4.250   8.117  0.5473 -2.4203 -1.7210
 4195SOL    HW224045   1.352   4.285   8.097 -1.4776 -2.4615 -0.6302
 4196SOL     OW24046   4.351   2.869   2.802 -0.3834  0.4108  0.1117
 4196SOL    HW124047   4.402   2.948   2.784 -0.7911  0.6443 -0.0039
 4196SOL    HW224048   4.416   2.806   2.770 -1.1231  0.1143 -0.8137
 4197SOL     OW24049   1.143   2.320   3.231 -0.0596  0.2677  0.3886
 4197SOL    HW124050   1.155   2.392   3.168 -1.0228 -1.0683 -1.3269
 4197SOL    HW224051   1.089   2.260   3.180  2.5814 -0.1926 -1.8500
 4198SOL     OW24052   0.034   0.323   8.076 -0.2856 -0.6362 -0.3131
 4198SOL    HW124053   0.054   0.393   8.138  3.0401 -0.9680 -1.0221
 4198SOL    HW224054   0.062   0.350   7.989 -1.8920  0.1584 -0.5967
 4199SOL     OW24055   3.118   2.688   3.385  0.4057  0.5998 -0.2797
 4199SOL    HW124056   3.077   2.774   3.377 -0.9271  0.1627  1.6651
 4199SOL    HW224057   3.078   2.649   3.308  2.3740 -1.1165 -0.4477
 4200SOL     OW24058   3.481   2.194  11.046 -0.0652 -0.5741 -0.1451
 4200SOL    HW124059   3.409   2.218  11.105 -0.2404  0.7800 -0.9124
 4200SOL    HW224060   3.465   2.100  11.040  0.4767 -0.5635 -1.7656
 4201SOL     OW24061   1.136   2.063   3.615 -0.2242  0.1189  0.3052
 4201SOL    HW124062   1.221   2.030   3.645 -0.7985 -1.7608 -0.1020
 4201SOL    HW224063   1.145   2.053   3.520 -1.9518 -1.3193  0.3032
 4202SOL     OW24064   1.689   1.574   3.780 -0.1189  0.2851 -0.2324
 4202SOL    HW124065   1.625   1.509   3.752  1.3920 -1.6674  0.7925
 4202SOL    HW224066   1.638   1.628   3.840  0.0911 -0.5225  0.6786
 4203SOL     OW24067   4.234   1.351  11.262  0.1040  0.3579  0.8036
 4203SOL    HW124068   4.238   1.256  11.247  1.6332  0.5443 -0.0373
 4203SOL    HW224069   4.322   1.384  11.245  0.2175 -0.5399 -0.3848
 4204SOL     OW24070   3.719   1.486  10.414  0.1360 -0.2983  0.0462
 4204SOL    HW124071   3.716   1.531  10.499  1.3230  0.3382 -0.2434
 4204SOL    HW224072   3.783   1.537  10.364  1.4238 -2.3274 -0.3835
 4205SOL     OW24073   3.265   2.953   8.420 -0.3031  0.4701 -0.1427
 4205SOL    HW124074   3.208   3.015   8.465 -0.1677  1.3906 -1.2398
 4205SOL    HW224075   3.223   2.948   8.335 -0.1836  0.0876 -0.1808
 4206SOL     OW24076   0.571   4.201  10.335  0.2749 -0.0213 -0.6215
 4206SOL    HW124077   0.497   4.215  10.394  1.2699 -1.5480  1.0164
 4206SOL    HW224078   0.551   4.120  10.289  0.4705 -0.6970  0.4745
 4207SOL     OW24079   2.419   3.085   3.449  0.2224 -0.0273 -0.0580
 4207SOL    HW124080   2.427   3.178   3.472  0.1208 -0.2365  0.8170
 4207SOL    HW224081   2.389   3.053   3.534 -0.0218 -0.3655 -0.2728
 4208SOL     OW24082   0.457   2.371   3.228 -0.7490 -0.0167 -0.9627
 4208SOL    HW124083   0.477   2.405   3.315 -0.9373 -0.0726 -0.8979
 4208SOL    HW224084   0.431   2.283   3.254  0.6528 -0.7789 -2.1119
 4209SOL     OW24085   4.274   3.483   7.012  0.2962 -0.2440  0.8690
 4209SOL    HW124086   4.262   3.577   7.023 -2.9856 -0.3743 -1.5639
 4209SOL    HW224087   4.182   3.469   6.988  0.4570  0.1930 -0.0074
 4210SOL     OW24088   1.376   0.268   2.834  1.0630  0.1419 -0.4941
 4210SOL    HW124089   1.326   0.200   2.879  1.7590 -0.0052  0.0546
 4210SOL    HW224090   1.454   0.214   2.830  0.0805 -1.5382  2.8655
 4211SOL     OW24091   3.526   0.208   7.813 -0.2957 -0.2106  0.0236
 4211SOL    HW124092   3.490   0.296   7.825  0.4181 -0.1502  1.7220
 4211SOL    HW224093   3.580   0.201   7.892  1.4491 -0.7613 -1.2037
 4212SOL     OW24094   0.357   1.274  14.668  0.5108  0.2024  0.3805
 4212SOL    HW124095   0.318   1.352  14.627  0.2577  0.8290  1.8297
 4212SOL    HW224096   0.290   1.209  14.645 -0.4820  2.1552 -2.3200
 4213SOL     OW24097   4.570   1.225   8.278 -0.4367  0.0094 -0.2807
 4213SOL    HW124098   4.593   1.290   8.213  0.2903 -0.8804 -0.9075
 4213SOL    HW224099   4.536   1.290   8.339 -0.1297 -1.6269  1.6590
 4214SOL     OW24100   1.562   1.664  12.975 -0.3503 -0.0910  0.5032
 4214SOL    HW124101   1.600   1.582  13.008  2.1162  0.3812 -1.1906
 4214SOL    HW224102   1.635   1.723  12.956  0.2182 -1.1989 -0.6907
 4215SOL     OW24103   3.239   1.601   3.573 -0.2511 -0.2035 -0.0240
 4215SOL    HW124104   3.207   1.604   3.483  2.8177  0.7241 -1.0867
 4215SOL    HW224105   3.331   1.580   3.561  0.1499  1.3058  0.3847
 4216SOL     OW24106   3.613   3.052  10.491 -0.1787  0.7894  0.0954
 4216SOL    HW124107   3.659   2.992  10.433 -0.1074  0.8500  0.0891
 4216SOL    HW224108   3.680   3.079  10.555 -0.3902  2.1187 -0.2392
 4217SOL     OW24109   1.198   1.433   7.845  0.4474  0.0690  0.2789
 4217SOL    HW124110   1.134   1.486   7.892  0.2354 -0.1987  0.2918
 4217SOL    HW224111   1.227   1.482   7.768  1.2389  0.2522  0.6930
 4218SOL     OW24112   1.030   1.037   5.518 -0.1018  0.1007  0.7122
 4218SOL    HW124113   1.091   1.052   5.591  1.0020  0.5231 -0.2894
 4218SOL    HW224114   0.946   1.018   5.558 -0.7231 -0.1813 -0.7358
 4219SOL     OW24115   0.679   4.206   3.374  0.0053 -0.1118 -0.6583
 4219SOL    HW124116   0.700   4.127   3.323 -1.1357 -1.5635  1.1363
 4219SOL    HW224117   0.760   4.253   3.392  0.0150  0.6455 -2.6814
 4220SOL     OW24118   0.941   0.635   2.633 -0.5614 -0.4059  0.2296
 4220SOL    HW124119   0.895   0.564   2.589 -2.0537  0.0506  1.0545
 4220SOL    HW224120   0.991   0.583   2.696  0.4603 -0.7814 -0.8976
 4221SOL     OW24121   0.294   4.586   8.257 -0.2263  0.2775  0.0801
 4221SOL    HW124122   0.352   4.522   8.299  0.3220  0.5256 -0.2963
 4221SOL    HW224123   0.293   4.655   8.324 -0.8838  0.0890  0.2596
 4222SOL     OW24124   3.748   3.918  12.878  0.2075 -0.1100 -0.1045
 4222SOL    HW124125   3.738   3.930  12.783 -0.5303 -0.9654 -0.1342
 4222SOL    HW224126   3.777   4.000  12.919  1.4055 -0.6632  0.1540
 4223SOL     OW24127   1.007   2.009   4.768 -1.0118  0.8364 -0.4824
 4223SOL    HW124128   1.033   1.956   4.843 -0.4820  2.0821  0.2108
 4223SOL    HW224129   0.984   1.939   4.706  0.5485 -0.2160  0.1256
 4224SOL     OW24130   4.136   3.901  11.569 -0.1742 -0.4412 -0.0933
 4224SOL    HW124131   4.136   3.871  11.478  2.0319  0.7323 -0.4656
 4224SOL    HW224132   4.076   3.837  11.609 -0.1320 -0.7642 -0.5460
 4225SOL     OW24133   1.985   0.367  17.421  0.3040 -0.4606 -0.2034
 4225SOL    HW124134   1.949   0.455  17.422  1.2302 -0.1244  2.1099
 4225SOL    HW224135   2.076   0.379  17.395 -0.1279  1.3815 -0.8516
 4226SOL     OW24136   4.081   2.634  14.789 -0.1076 -0.3421  0.6400
 4226SOL    HW124137   4.014   2.629  14.721  0.9967 -1.4442 -0.3710
 4226SOL    HW224138   4.051   2.710  14.838  2.7148  1.2187 -0.0248
 4227SOL     OW24139   4.586   2.992  12.597  0.3520  1.0195  0.2259
 4227SOL    HW124140   4.677   3.012  12.574 -0.0912  0.8235 -1.6568
 4227SOL    HW224141   4.604   2.952  12.683 -1.1075 -2.0277 -0.8932
 4228SOL     OW24142   4.383   0.793   1.062  0.0474 -0.5717 -0.2944
 4228SOL    HW124143   4.385   0.720   1.124 -1.9044  1.1841  1.8555
 4228SOL    HW224144   4.289   0.806   1.049  0.0252 -0.8742 -0.4152
 4229SOL     OW24145   0.267   3.173   8.708  0.4325  0.3841 -0.0774
 4229SOL    HW124146   0.179   3.207   8.724  0.5157  1.5450 -2.0626
 4229SOL    HW224147   0.270   3.083   8.742  1.4793 -0.6630 -2.8970
 4230SOL     OW24148   4.476   2.999   4.969 -0.1270 -0.0056 -0.3820
 4230SOL    HW124149   4.417   2.987   5.043 -2.4498  0.5515 -2.1231
 4230SOL    HW224150   4.474   3.095   4.977  4.4554  0.0313  0.2473
 4231SOL     OW24151   1.600   2.703   5.394  0.3288 -0.2002 -0.5688
 4231SOL    HW124152   1.619   2.617   5.357 -0.9411 -0.7131 -0.0439
 4231SOL    HW224153   1.513   2.687   5.431  0.1017  1.1838 -0.5098
 4232SOL     OW24154   0.203   4.412   2.084 -0.2039  0.2544  0.0667
 4232SOL    HW124155   0.146   4.403   2.007  1.8569 -2.6660 -1.1055
 4232SOL    HW224156   0.247   4.495   2.069 -1.2813  1.2024  2.1594
 4233SOL     OW24157   0.020   0.011  13.532 -0.2220 -0.3459  0.1666
 4233SOL    HW124158   0.112   4.707  13.520 -0.3090 -1.1669  1.2253
 4233SOL    HW224159   4.691   4.662  13.494  0.9505 -0.6221 -0.9191
 4234SOL     OW24160   1.695   4.184   9.359  0.2873  0.3765 -0.0982
 4234SOL    HW124161   1.638   4.230   9.420  0.9064  2.1751 -0.8720
 4234SOL    HW224162   1.631   4.156   9.294  0.3025  1.9664 -0.7870
 4235SOL     OW24163   2.977   2.640   6.526  0.0641 -0.4157  0.4371
 4235SOL    HW124164   2.943   2.592   6.450 -0.1211  0.8596 -0.2808
 4235SOL    HW224165   3.071   2.625   6.514  0.0817  0.2841 -0.2683
 4236SOL     OW24166   2.729   4.066   3.320  0.4348 -0.3453  0.4729
 4236SOL    HW124167   2.702   4.139   3.375  1.7884 -1.1322  2.1926
 4236SOL    HW224168   2.678   4.084   3.241  2.2406 -0.2484 -0.6673
 4237SOL     OW24169   4.407   4.055  11.988 -0.6087 -0.0769  0.1698
 4237SOL    HW124170   4.369   3.974  12.022 -0.1142 -0.5343 -0.3749
 4237SOL    HW224171   4.342   4.085  11.923 -0.8000 -0.2263  0.2920
 4238SOL     OW24172   0.946   1.754   3.471  0.0005  0.2956  0.4682
 4238SOL    HW124173   0.857   1.733   3.498  0.5235 -0.0052  1.9847
 4238SOL    HW224174   0.997   1.738   3.551 -0.3326  1.7033  0.9584
 4239SOL     OW24175   2.602   3.640   3.925 -0.3072 -0.0698  0.2904
 4239SOL    HW124176   2.557   3.708   3.875  2.3825  0.4991 -1.3522
 4239SOL    HW224177   2.630   3.582   3.854  1.1925 -1.0911  1.7361
 4240SOL     OW24178   3.358   3.656  17.475  0.4652  0.5961  0.0212
 4240SOL    HW124179   3.359   3.689  17.564  0.0782  1.1614 -0.1830
 4240SOL    HW224180   3.429   3.710  17.440  2.6636 -1.7133  0.9237
 4241SOL     OW24181   4.717   4.073  11.407  0.4370 -0.1150 -0.3980
 4241SOL    HW124182   0.074   4.020  11.409  1.1937  1.0211 -0.6249
 4241SOL    HW224183   4.660   4.006  11.369  1.2388 -0.9826 -0.0858
 4242SOL     OW24184   1.088   0.615   4.560  0.1073  0.4953  0.0137
 4242SOL    HW124185   1.055   0.596   4.472  0.5979 -0.4465  0.0292
 4242SOL    HW224186   1.096   0.710   4.568 -1.2783  0.7504 -1.5757
 4243SOL     OW24187   3.097   3.504   4.374  0.6416 -0.0462 -0.7773
 4243SOL    HW124188   3.182   3.475   4.342 -0.7160 -4.1536 -0.5929
 4243SOL    HW224189   3.102   3.600   4.368  0.0916  0.1016  1.1822
 4244SOL     OW24190   2.066   0.925  12.461 -0.7033  0.1571 -0.4255
 4244SOL    HW124191   2.130   0.865  12.500 -1.1239  0.6950  1.0790
 4244SOL    HW224192   2.061   0.884  12.375  0.4981  0.7286 -0.7576
 4245SOL     OW24193   0.949   1.113  15.689  0.4230  0.2842 -0.2948
 4245SOL    HW124194   0.998   1.067  15.621 -1.1762 -0.7790 -0.7288
 4245SOL    HW224195   0.889   1.044  15.719 -0.6962  1.9415  1.2478
 4246SOL     OW24196   4.270   3.757   7.036  0.0944  0.8721  1.0661
 4246SOL    HW124197   4.175   3.758   7.023  0.3482 -0.0727 -0.7901
 4246SOL    HW224198   4.286   3.850   7.057  2.3296  0.5969  0.6081
 4247SOL     OW24199   0.325   1.776   2.645 -0.4814 -0.1848  0.2136
 4247SOL    HW124200   0.287   1.703   2.693 -0.9856  1.1074  1.7771
 4247SOL    HW224201   0.309   1.826   2.725  1.1284  0.2319  0.2614
 4248SOL     OW24202   1.487   2.129   3.315 -0.4837  0.0505 -0.0154
 4248SOL    HW124203   1.524   2.209   3.279  0.5213  0.4981  2.0087
 4248SOL    HW224204   1.556   2.093   3.371 -2.1817 -1.2493  1.2468
 4249SOL     OW24205   4.484   1.470  10.707  0.0611  0.0718  0.1305
 4249SOL    HW124206   4.547   1.409  10.670 -0.0212  0.2147 -0.2525
 4249SOL    HW224207   4.430   1.492  10.631 -0.3154 -0.3444  0.2750
 4250SOL     OW24208   1.852   2.088   5.324  0.4103  0.5833  0.1053
 4250SOL    HW124209   1.941   2.110   5.293 -0.2376  0.1798 -2.0604
 4250SOL    HW224210   1.856   1.994   5.338 -0.8005  0.4279 -0.6061
 4251SOL     OW24211   2.000   0.281   3.011  0.2351  0.4373  0.0894
 4251SOL    HW124212   1.969   0.369   3.035 -0.2006 -0.1927  1.8313
 4251SOL    HW224213   2.015   0.289   2.917 -0.1877  0.4129  0.0210
 4252SOL     OW24214   4.518   2.780  11.493 -0.5169  0.7107 -0.3072
 4252SOL    HW124215   4.604   2.785  11.452 -2.1790  0.7546 -3.7732
 4252SOL    HW224216   4.458   2.767  11.420  1.4020 -2.2404 -1.3458
 4253SOL     OW24217   0.306   1.837   9.136 -0.7130 -0.2373 -0.0718
 4253SOL    HW124218   0.365   1.850   9.209 -0.1500 -0.1815 -0.5395
 4253SOL    HW224219   0.328   1.749   9.106  2.2760  0.2582  0.6878
 4254SOL     OW24220   3.166   0.403   4.832  0.0215 -0.0786 -0.0423
 4254SOL    HW124221   3.214   0.466   4.779  2.8608 -1.2756  1.0671
 4254SOL    HW224222   3.216   0.321   4.827 -0.9768 -0.7136  0.2678
 4255SOL     OW24223   2.831   2.094   6.600 -0.3590 -0.1533  0.0911
 4255SOL    HW124224   2.834   2.167   6.663 -1.2153  2.3652 -2.8056
 4255SOL    HW224225   2.749   2.048   6.619 -0.3483 -0.4654 -0.6373
 4256SOL     OW24226   4.107   3.126   5.332 -0.5054  0.2965  0.2805
 4256SOL    HW124227   4.072   3.154   5.417  0.8311  1.7154  0.3604
 4256SOL    HW224228   4.035   3.155   5.275 -0.6937 -1.8538 -0.6053
 4257SOL     OW24229   3.249   3.459   5.839  0.6896  0.4077 -0.5763
 4257SOL    HW124230   3.205   3.542   5.821  0.1389  0.9245  3.1891
 4257SOL    HW224231   3.226   3.408   5.761 -1.8526 -1.7722  1.5911
 4258SOL     OW24232   4.142   4.236  15.586 -0.0539 -0.4383  0.0294
 4258SOL    HW124233   4.181   4.294  15.651 -1.1995 -0.5381  0.7981
 4258SOL    HW224234   4.053   4.273  15.583 -0.4540 -1.4024  0.0756
 4259SOL     OW24235   0.242   0.477   6.283  0.7315  0.5696 -0.5883
 4259SOL    HW124236   0.329   0.438   6.294 -0.6913 -2.6160 -0.8157
 4259SOL    HW224237   0.254   0.482   6.189  0.5837 -0.0065 -0.6327
 4260SOL     OW24238   0.898   2.701   3.221  0.4229  0.2201  0.4086
 4260SOL    HW124239   0.988   2.673   3.203  0.5699  1.6404 -1.1785
 4260SOL    HW224240   0.900   2.795   3.237 -0.5595  0.2951  0.0984
 4261SOL     OW24241   2.358   3.831   6.457 -0.3684 -0.0012 -0.4577
 4261SOL    HW124242   2.387   3.899   6.397  0.9738 -1.2993 -1.2933
 4261SOL    HW224243   2.276   3.806   6.414 -1.0349 -1.3080  1.5232
 4262SOL     OW24244   3.280   1.624  12.343 -0.5563 -0.3778  0.2572
 4262SOL    HW124245   3.263   1.688  12.412 -1.0727 -0.7340  0.4655
 4262SOL    HW224246   3.375   1.635  12.339 -0.7056  0.8684  0.1901
 4263SOL     OW24247   3.589   1.737  16.249 -0.9152 -0.2984  0.5033
 4263SOL    HW124248   3.565   1.646  16.233 -1.4174 -0.4618  2.1641
 4263SOL    HW224249   3.572   1.777  16.164 -0.5075 -1.9361 -0.3317
 4264SOL     OW24250   1.825   2.069   3.231 -0.2055  0.8748  0.1507
 4264SOL    HW124251   1.882   2.010   3.182  0.6602 -0.2564  2.5020
 4264SOL    HW224252   1.785   2.009   3.293 -1.8219 -0.8169 -2.5579
 4265SOL     OW24253   4.250   1.084   2.747 -0.0144  0.0676 -0.5053
 4265SOL    HW124254   4.311   1.056   2.679  1.8358  1.1065  0.7124
 4265SOL    HW224255   4.185   1.014   2.743 -0.9453  0.7541  2.2524
 4266SOL     OW24256   4.682   1.980   7.195 -0.2478  0.0129  0.8350
 4266SOL    HW124257   4.674   2.075   7.202 -3.0008 -0.0832 -0.9754
 4266SOL    HW224258   4.591   1.958   7.175 -0.1744  0.5825 -0.1416
 4267SOL     OW24259   0.212   1.992  11.828 -0.5295 -0.0340 -0.0961
 4267SOL    HW124260   0.257   1.945  11.757  0.7940  1.8341 -0.4824
 4267SOL    HW224261   0.285   2.045  11.858  0.6242 -1.9395  0.4896
 4268SOL     OW24262   4.422   3.285  10.924 -0.3714 -0.0889 -0.1056
 4268SOL    HW124263   4.353   3.350  10.934  0.9104  1.1347  0.7694
 4268SOL    HW224264   4.498   3.340  10.943 -1.7828  1.7695  0.1320
 4269SOL     OW24265   0.338   1.256   6.525  0.0605  0.1490 -0.1208
 4269SOL    HW124266   0.382   1.176   6.495  2.0038  1.0286  0.4223
 4269SOL    HW224267   0.348   1.253   6.620  0.1671 -1.7153 -0.1782
 4270SOL     OW24268   0.423   3.231  10.761  0.0118  0.5915 -0.4406
 4270SOL    HW124269   0.353   3.265  10.817 -0.3861  1.3841 -1.4239
 4270SOL    HW224270   0.389   3.158  10.710  1.5225  0.4590 -1.2566
 4271SOL     OW24271   2.203   3.288  10.434  0.1667  0.3239 -0.3594
 4271SOL    HW124272   2.247   3.371  10.451  0.5532  0.2469 -0.9927
 4271SOL    HW224273   2.206   3.286  10.339  0.8349  1.2055 -0.3554
 4272SOL     OW24274   3.234   0.532   6.483 -0.3684 -0.3558  0.2168
 4272SOL    HW124275   3.229   0.592   6.557  1.0280  0.6619 -0.5180
 4272SOL    HW224276   3.266   0.585   6.410 -0.1694 -0.7218  0.0342
 4273SOL     OW24277   3.891   1.816   2.865 -0.0740  0.1587  0.7147
 4273SOL    HW124278   3.976   1.775   2.851 -0.8641 -1.6696  1.2042
 4273SOL    HW224279   3.912   1.903   2.898  0.1940  0.0014  0.9566
 4274SOL     OW24280   1.740   0.341  16.887  0.2276 -0.6587  0.6048
 4274SOL    HW124281   1.811   0.398  16.858 -1.8839  0.4702 -2.4330
 4274SOL    HW224282   1.721   0.299  16.803  2.0553  0.5673 -0.4311
 4275SOL     OW24283   1.563   2.294   7.103  0.6288 -0.0981 -0.0905
 4275SOL    HW124284   1.580   2.353   7.176  0.4001  0.5327 -0.5538
 4275SOL    HW224285   1.503   2.346   7.051 -0.3215 -0.5408  0.5562
 4276SOL     OW24286   3.806   2.932   6.663  0.4974 -0.8911 -0.1966
 4276SOL    HW124287   3.817   2.840   6.686 -0.7364 -1.1472 -0.6355
 4276SOL    HW224288   3.883   2.940   6.607  0.2101  1.5883 -0.2358
 4277SOL     OW24289   2.995   2.259  15.563 -0.1946 -0.0314  0.7933
 4277SOL    HW124290   2.996   2.329  15.628  1.4446  0.6121  0.0694
 4277SOL    HW224291   3.082   2.270  15.524 -0.1187 -1.2566  0.6348
 4278SOL     OW24292   2.957   3.242   9.037 -0.1305 -0.4180  0.5042
 4278SOL    HW124293   2.877   3.214   9.081 -0.4986 -1.1144 -0.5889
 4278SOL    HW224294   2.918   3.281   8.959 -0.2126  0.5622  1.0421
 4279SOL     OW24295   1.291   4.173  14.287 -0.2243 -0.4302 -0.1054
 4279SOL    HW124296   1.284   4.078  14.297 -0.7539 -0.5642 -1.8313
 4279SOL    HW224297   1.278   4.183  14.193  0.0589  3.6462  0.2811
 4280SOL     OW24298   2.656   1.926  16.995 -0.2129 -0.1249 -0.2025
 4280SOL    HW124299   2.744   1.947  17.028 -0.0417 -0.9554 -0.1432
 4280SOL    HW224300   2.595   1.970  17.054 -1.7185 -0.5213 -1.4837
 4281SOL     OW24301   3.462   0.891  11.355  0.2115  0.5759 -0.3963
 4281SOL    HW124302   3.375   0.923  11.377 -0.0037 -0.5632  0.4434
 4281SOL    HW224303   3.515   0.970  11.364  1.5529 -0.1007 -2.2821
 4282SOL     OW24304   4.085   2.510   1.411 -0.3800  1.0283 -0.1754
 4282SOL    HW124305   4.102   2.457   1.333  1.2209 -1.1569  1.6723
 4282SOL    HW224306   3.992   2.528   1.398 -0.5143  1.1555  0.9600
 4283SOL     OW24307   1.198   2.609   4.182  0.2708  0.3472 -0.1557
 4283SOL    HW124308   1.109   2.587   4.207  0.6521  1.8355  2.4977
 4283SOL    HW224309   1.229   2.625   4.271  1.3685  1.0178 -0.6536
 4284SOL     OW24310   2.919   2.928   0.714  0.1682  0.3286 -0.0006
 4284SOL    HW124311   2.829   2.958   0.727 -0.8640 -2.7516 -0.0848
 4284SOL    HW224312   2.939   2.890   0.800 -1.1031 -0.0063  0.1476
 4285SOL     OW24313   2.075   1.645  14.943  0.2099 -0.4120  0.0953
 4285SOL    HW124314   2.086   1.631  14.849 -1.9901  2.0455 -0.5377
 4285SOL    HW224315   2.012   1.576  14.964  1.6578 -1.2430  1.7493
 4286SOL     OW24316   3.827   2.266   3.422  0.1836 -0.4415 -0.0493
 4286SOL    HW124317   3.781   2.263   3.506 -0.1501  0.7658 -0.1861
 4286SOL    HW224318   3.862   2.355   3.421 -3.0739  0.7891 -3.3300
 4287SOL     OW24319   2.167   2.049   1.200 -0.2560  0.2315  0.4019
 4287SOL    HW124320   2.226   2.019   1.269 -0.0732 -1.3844 -0.4673
 4287SOL    HW224321   2.085   2.005   1.223  0.2787 -1.8992 -1.8584
 4288SOL     OW24322   4.147   3.187   8.456 -0.0709  0.1699  0.6538
 4288SOL    HW124323   4.140   3.121   8.525 -0.6602 -1.6181 -1.1328
 4288SOL    HW224324   4.214   3.249   8.485 -1.7461  1.1012  2.6168
 4289SOL     OW24325   3.043   2.725  12.019 -0.2481  0.2239  0.0338
 4289SOL    HW124326   3.056   2.632  12.000  0.7270  0.2697  0.4494
 4289SOL    HW224327   3.056   2.759  11.931  0.2593 -0.8868 -0.3114
 4290SOL     OW24328   2.197   1.008  13.450 -0.2192  0.0701 -0.0434
 4290SOL    HW124329   2.180   1.101  13.433  0.3107 -0.0954 -1.5128
 4290SOL    HW224330   2.274   1.002  13.507  0.0809 -2.6530 -0.7623
 4291SOL     OW24331   3.769   2.448   7.076 -0.0309 -0.1647 -0.0138
 4291SOL    HW124332   3.829   2.417   7.009 -1.4597 -1.1497 -0.8350
 4291SOL    HW224333   3.715   2.369   7.086 -1.0604  0.5430  0.0933
 4292SOL     OW24334   2.699   1.377   1.187 -0.2697 -0.4248 -0.1108
 4292SOL    HW124335   2.645   1.331   1.123 -2.1054  0.8637  0.5082
 4292SOL    HW224336   2.693   1.308   1.252  0.5870 -0.2459  0.1555
 4293SOL     OW24337   3.842   1.696   1.969 -0.1384  0.2591 -0.1868
 4293SOL    HW124338   3.837   1.758   2.041 -0.3506 -1.0542  0.9419
 4293SOL    HW224339   3.895   1.622   2.001  0.8848  1.0236 -0.1253
 4294SOL     OW24340   3.897   1.185   9.213  0.8677  0.4843 -0.0738
 4294SOL    HW124341   3.965   1.176   9.280  2.2384 -0.0732 -1.5348
 4294SOL    HW224342   3.819   1.155   9.259  0.6246  0.4095 -0.5372
 4295SOL     OW24343   4.551   3.904   6.283  0.1646 -0.8354 -0.5124
 4295SOL    HW124344   4.478   3.859   6.326  0.8778 -3.0742 -1.6455
 4295SOL    HW224345   4.556   3.987   6.331  0.8445 -0.8642 -0.5312
 4296SOL     OW24346   4.325   3.546   7.325 -0.1111  0.1034 -0.0969
 4296SOL    HW124347   4.353   3.635   7.304  1.1052  0.1337  1.5902
 4296SOL    HW224348   4.254   3.546   7.261 -0.3807 -0.2248  0.2007
 4297SOL     OW24349   0.066   2.554   1.635 -0.2095  0.2383  0.2334
 4297SOL    HW124350   0.141   2.614   1.632  1.8581 -2.2719  1.3549
 4297SOL    HW224351   0.112   2.471   1.643 -1.0711 -0.2727 -0.1355
 4298SOL     OW24352   2.054   2.473  11.998  0.2984 -0.5997 -0.0585
 4298SOL    HW124353   2.097   2.521  11.927  1.8501 -1.4366  0.3080
 4298SOL    HW224354   2.039   2.548  12.057  1.7868  1.0709 -1.7789
 4299SOL     OW24355   3.617   0.926   6.696  0.1550  0.4801  0.0786
 4299SOL    HW124356   3.564   0.947   6.619  0.9309 -2.3450 -1.2451
 4299SOL    HW224357   3.669   0.852   6.665  0.8720  0.4920  1.2798
 4300SOL     OW24358   1.342   4.436   5.231  0.0834 -0.0985  0.1296
 4300SOL    HW124359   1.252   4.458   5.255  0.6537  2.1391  0.2560
 4300SOL    HW224360   1.330   4.352   5.188  1.2572 -0.6276  0.8264
 4301SOL     OW24361   0.265   3.406   3.703  0.2142  0.9601 -0.7179
 4301SOL    HW124362   0.268   3.322   3.657  1.6447  0.6122 -0.0086
 4301SOL    HW224363   0.317   3.461   3.644  0.0311  0.8769 -0.9560
 4302SOL     OW24364   1.315   0.471  15.961 -0.1662  0.5478 -0.2118
 4302SOL    HW124365   1.283   0.457  16.050  1.3660  1.7827  0.5467
 4302SOL    HW224366   1.396   0.420  15.964 -0.1406  0.7967  3.5765
 4303SOL     OW24367   0.029   0.165   7.207  0.1497 -0.2051  0.0751
 4303SOL    HW124368   0.095   0.101   7.180 -0.8049 -0.2287 -2.1973
 4303SOL    HW224369   4.673   0.125   7.169 -0.9743  1.3848  0.7049
 4304SOL     OW24370   3.374   4.502  15.788 -1.3760 -0.2656  0.0110
 4304SOL    HW124371   3.421   4.446  15.850 -0.2917 -0.5785 -1.1068
 4304SOL    HW224372   3.401   4.590  15.813  0.8992 -1.3004  1.2616
 4305SOL     OW24373   0.884   2.097   2.275  0.1118  0.6710  0.2663
 4305SOL    HW124374   0.944   2.041   2.325 -1.0175 -0.9069 -0.1533
 4305SOL    HW224375   0.859   2.162   2.340 -2.7560 -1.3458  1.1579
 4306SOL     OW24376   2.303   0.297  11.902 -0.1449 -0.0829  0.4771
 4306SOL    HW124377   2.337   0.320  11.816 -0.3644 -1.1994  0.0853
 4306SOL    HW224378   2.383   0.300  11.955 -0.6308 -1.2655  1.2928
 4307SOL     OW24379   3.172   0.391   8.936 -0.3752 -0.4197 -0.1130
 4307SOL    HW124380   3.172   0.482   8.906 -1.9234 -0.4501 -0.2151
 4307SOL    HW224381   3.185   0.399   9.030 -0.1956 -2.2980  0.0203
 4308SOL     OW24382   1.547   2.418   4.326 -0.0107  0.0153  0.2241
 4308SOL    HW124383   1.590   2.503   4.318 -0.3870  0.0826 -1.1887
 4308SOL    HW224384   1.504   2.432   4.410 -2.5043  0.7117 -1.1794
 4309SOL     OW24385   2.871   1.957   0.314 -0.2088  0.3816 -0.5138
 4309SOL    HW124386   2.869   1.975   0.220 -0.2664  0.8050 -0.4278
 4309SOL    HW224387   2.782   1.925   0.331  0.4668 -2.2472 -1.9444
 4310SOL     OW24388   3.925   3.456  12.580 -0.4173  0.1140  0.1456
 4310SOL    HW124389   3.941   3.519  12.650 -2.2230  0.5651  0.1467
 4310SOL    HW224390   3.856   3.396  12.610  1.2582 -1.6336  0.5168
 4311SOL     OW24391   4.045   1.750   8.015  0.1685 -0.0881 -0.1533
 4311SOL    HW124392   3.987   1.720   7.945 -0.1228  4.8850 -2.0178
 4311SOL    HW224393   3.990   1.823   8.042  0.6412  0.4247 -0.5880
 4312SOL     OW24394   3.442   4.311   9.188 -0.3485 -0.1016 -0.8199
 4312SOL    HW124395   3.525   4.272   9.214 -0.2850  0.5045 -0.1100
 4312SOL    HW224396   3.442   4.304   9.093 -2.6886 -0.7699 -0.7679
 4313SOL     OW24397   2.929   3.052   0.409 -0.0233  0.4137  0.1804
 4313SOL    HW124398   2.907   3.008   0.491 -0.5303  0.7263  0.2142
 4313SOL    HW224399   2.926   3.145   0.428 -0.4609 -0.0541  2.4175
 4314SOL     OW24400   3.720   1.952  15.122  0.4328 -0.1404 -0.1478
 4314SOL    HW124401   3.766   2.022  15.078 -2.0849  1.7314  0.1863
 4314SOL    HW224402   3.695   1.996  15.204 -0.2802  0.0649 -0.4794
 4315SOL     OW24403   3.194   0.243   0.345 -0.6188  0.3483  0.4701
 4315SOL    HW124404   3.174   0.280   0.259 -3.1222 -0.2572  0.7813
 4315SOL    HW224405   3.265   0.301   0.374  1.1847 -1.4725 -0.3315
 4316SOL     OW24406   0.888   0.012  14.495 -0.5835 -0.2586  0.7345
 4316SOL    HW124407   0.964   0.049  14.449 -1.0151 -0.9575 -0.5275
 4316SOL    HW224408   0.883   4.647  14.456  0.9296 -0.3760  0.7914
 4317SOL     OW24409   0.697   2.213   3.827  0.4510 -0.0265 -0.5317
 4317SOL    HW124410   0.707   2.121   3.849  0.3833  0.3143  0.9266
 4317SOL    HW224411   0.780   2.235   3.784 -0.3756  0.6292 -1.7983
 4318SOL     OW24412   0.115   2.608   2.875  0.4629  0.3325 -0.1784
 4318SOL    HW124413   0.135   2.648   2.791 -0.1610 -1.0626 -1.0087
 4318SOL    HW224414   0.203   2.600   2.912  0.6273 -0.4972 -0.7353
 4319SOL     OW24415   2.194   3.492   7.510 -0.0643 -0.2821  0.0087
 4319SOL    HW124416   2.228   3.572   7.551 -0.0816  1.6907 -3.7916
 4319SOL    HW224417   2.104   3.514   7.489 -0.9982 -2.4891  1.7038
 4320SOL     OW24418   3.523   3.684  12.097 -0.3913 -0.1408 -0.0932
 4320SOL    HW124419   3.474   3.713  12.174  0.8847 -1.6410  1.2604
 4320SOL    HW224420   3.614   3.689  12.126 -0.5307  2.3155 -0.0781
 4321SOL     OW24421   2.149   3.184   4.021 -0.0980 -0.0545 -0.3020
 4321SOL    HW124422   2.152   3.187   3.925  0.4946 -0.7491 -0.3066
 4321SOL    HW224423   2.160   3.089   4.029 -0.8799 -0.0461  0.8174
 4322SOL     OW24424   0.622   3.812   3.427 -0.3689  0.3591  0.1192
 4322SOL    HW124425   0.536   3.829   3.387 -0.5210  1.2421  0.8353
 4322SOL    HW224426   0.684   3.862   3.375 -0.9918  1.0574  0.0449
 4323SOL     OW24427   0.231   2.389   8.354  0.4190 -0.1449  0.4028
 4323SOL    HW124428   0.147   2.365   8.393  0.5794 -0.3294  0.6380
 4323SOL    HW224429   0.239   2.482   8.371 -2.4616  0.6221 -2.4812
 4324SOL     OW24430   0.308   1.975   6.999  0.2106  0.5086  0.2338
 4324SOL    HW124431   0.241   1.998   6.935  1.7853 -3.5987 -2.9039
 4324SOL    HW224432   0.275   1.911   7.063 -0.4556 -0.0447 -0.6808
 4325SOL     OW24433   1.692   4.527   7.098 -1.2405  0.1200 -0.0988
 4325SOL    HW124434   1.674   4.613   7.061 -1.1222  0.6735  1.1179
 4325SOL    HW224435   1.699   4.566   7.185  1.8631  0.1844 -0.3878
 4326SOL     OW24436   4.101   2.190   8.480 -0.0680 -0.7540  0.2092
 4326SOL    HW124437   4.020   2.145   8.454 -2.5796  1.5826  4.0919
 4326SOL    HW224438   4.165   2.123   8.455  0.9983 -0.0158  1.0096
 4327SOL     OW24439   2.447   1.407   6.383  0.1173  0.1199  0.1715
 4327SOL    HW124440   2.354   1.428   6.387  0.6632  2.2817  1.3940
 4327SOL    HW224441   2.434   1.324   6.338 -2.1804 -2.2085  5.0528
 4328SOL     OW24442   1.505   2.465  14.345  0.1319 -0.5101  0.0302
 4328SOL    HW124443   1.511   2.371  14.334 -3.6449 -0.5343 -1.8806
 4328SOL    HW224444   1.452   2.469  14.425  1.4292  1.0606  0.8250
 4329SOL     OW24445   3.074   3.489  11.847  0.3591  0.0036 -0.1973
 4329SOL    HW124446   3.073   3.433  11.770 -2.8524 -0.6563  0.3228
 4329SOL    HW224447   3.086   3.422  11.915 -0.1598  1.4149  1.3021
 4330SOL     OW24448   1.867   2.243   9.339  0.4050  0.2832  0.7013
 4330SOL    HW124449   1.838   2.155   9.361  0.7306 -0.4205 -1.6882
 4330SOL    HW224450   1.915   2.202   9.266  0.4417  1.5042  0.0322
 4331SOL     OW24451   0.317   4.564  16.786  0.0015 -0.0717 -0.1594
 4331SOL    HW124452   0.285   4.552  16.876  0.0930 -1.1399 -0.2723
 4331SOL    HW224453   0.240   4.584  16.733  0.1830 -2.1244 -1.2129
 4332SOL     OW24454   0.006   1.025   7.339 -0.2342 -0.3929  0.3340
 4332SOL    HW124455   0.094   0.995   7.318  1.0963  1.4289  3.3342
 4332SOL    HW224456   0.003   0.990   7.428  0.4831 -1.2028  0.0375
 4333SOL     OW24457   1.550   3.929   8.707 -0.3453  0.3769 -0.5928
 4333SOL    HW124458   1.610   3.903   8.776  0.4857 -1.9873 -2.1974
 4333SOL    HW224459   1.465   3.902   8.743 -1.1918  1.6895 -1.6031
 4334SOL     OW24460   4.655   3.766   4.909  0.5877  0.2616  0.1272
 4334SOL    HW124461   4.589   3.830   4.882 -0.4847 -1.4926 -1.4050
 4334SOL    HW224462   4.636   3.727   4.994 -0.9875 -0.6981 -0.6645
 4335SOL     OW24463   4.512   1.379   9.594 -0.2268  0.2062  0.2611
 4335SOL    HW124464   4.487   1.466   9.625 -1.9810 -0.2971  0.2151
 4335SOL    HW224465   4.508   1.329   9.675  1.9041  1.0098  0.8852
 4336SOL     OW24466   0.272   0.837   8.200  0.2790  0.0121 -0.2998
 4336SOL    HW124467   0.301   0.820   8.289  0.8325  0.2934 -0.4318
 4336SOL    HW224468   0.223   0.919   8.210 -1.5162 -0.8196 -2.0906
 4337SOL     OW24469   4.440   1.235   8.623  0.7036 -0.0636  0.2054
 4337SOL    HW124470   4.469   1.144   8.628 -1.1952 -0.6054  1.3921
 4337SOL    HW224471   4.406   1.250   8.712  2.2485  2.7211  0.3294
 4338SOL     OW24472   0.200   1.691  17.485 -0.3166  0.2181 -0.2688
 4338SOL    HW124473   0.280   1.716  17.439 -1.0342  0.2891 -1.4894
 4338SOL    HW224474   0.145   1.702  17.407 -0.4637  0.4088 -0.1399
 4339SOL     OW24475   0.154   0.818   9.056  0.4164  0.2988 -0.2056
 4339SOL    HW124476   0.146   0.736   9.104 -1.1035  0.0187 -0.9545
 4339SOL    HW224477   0.107   0.805   8.974 -0.8797 -0.5868  0.6806
 4340SOL     OW24478   2.614   0.233   3.834 -0.2147  0.4664 -0.3384
 4340SOL    HW124479   2.621   0.246   3.928  2.1870 -0.7320 -0.3426
 4340SOL    HW224480   2.620   0.325   3.808  4.2841  0.8992  2.2045
 4341SOL     OW24481   1.476   3.586   0.232  0.1740 -0.0073 -0.6850
 4341SOL    HW124482   1.496   3.544   0.148 -1.7883  3.1638 -2.7495
 4341SOL    HW224483   1.544   3.542   0.282 -0.2708  0.8422  0.6828
 4342SOL     OW24484   1.874   2.210  16.558  0.2074 -0.3463 -0.7576
 4342SOL    HW124485   1.876   2.211  16.653  1.3266  1.2597 -0.7970
 4342SOL    HW224486   1.968   2.209  16.539  0.1350  0.7215 -1.1821
 4343SOL     OW24487   1.942   1.674   1.412  0.5123  0.2527 -0.2604
 4343SOL    HW124488   1.951   1.723   1.493 -0.8233  0.0106  0.0392
 4343SOL    HW224489   1.892   1.598   1.443  1.7511 -0.7942 -0.8161
 4344SOL     OW24490   4.238   4.352   5.690  0.0117 -0.1326  0.4966
 4344SOL    HW124491   4.270   4.342   5.780  1.6872  1.6936  0.0984
 4344SOL    HW224492   4.229   4.444   5.668 -0.8404 -0.6462 -1.2974
 4345SOL     OW24493   2.808   2.016   2.845  0.2381 -0.1053  0.1395
 4345SOL    HW124494   2.838   2.008   2.754 -3.0332 -0.3974 -0.9003
 4345SOL    HW224495   2.782   2.108   2.855  1.6449  0.7060 -3.7765
 4346SOL     OW24496   1.838   2.336   3.216 -0.3212  0.3655  0.4838
 4346SOL    HW124497   1.762   2.346   3.160 -0.2151 -1.1806  0.0828
 4346SOL    HW224498   1.839   2.242   3.235 -0.8283 -0.0094 -1.3904
 4347SOL     OW24499   3.828   4.194   6.433 -0.4660  0.0840 -0.1510
 4347SOL    HW124500   3.760   4.261   6.435 -0.2470  0.3110 -0.3301
 4347SOL    HW224501   3.775   4.116   6.416  1.8348 -1.8077  1.2079
 4348SOL     OW24502   3.855   0.048   2.633  0.1184  0.4476  0.0343
 4348SOL    HW124503   3.925   0.108   2.658  0.1457  1.3590 -2.3098
 4348SOL    HW224504   3.884   4.696   2.685  0.8503  0.8282  0.1744
 4349SOL     OW24505   3.019   3.565  16.554  0.0451  0.2000  0.0181
 4349SOL    HW124506   2.958   3.546  16.625 -2.3378 -2.8985 -2.8899
 4349SOL    HW224507   2.958   3.544  16.483  0.1475  1.5053 -0.4508
 4350SOL     OW24508   0.708   0.092   2.552  0.7381  0.6485  0.2826
 4350SOL    HW124509   0.707   0.164   2.615  2.5180  0.4612  0.5145
 4350SOL    HW224510   0.785   0.038   2.569 -2.8628 -5.1449 -1.5289
 4351SOL     OW24511   4.639   0.522  10.488  0.4934 -0.0251 -0.7742
 4351SOL    HW124512   4.618   0.560  10.403 -0.4961 -0.5258 -0.7569
 4351SOL    HW224513   4.625   0.429  10.474 -1.3599  0.3201 -1.2774
 4352SOL     OW24514   2.838   0.444   5.107 -0.3704 -0.0782 -0.4266
 4352SOL    HW124515   2.870   0.355   5.124  2.2332  0.6651 -1.4804
 4352SOL    HW224516   2.832   0.477   5.196 -0.1624  1.0589 -0.8408
 4353SOL     OW24517   0.216   0.488  10.750 -0.1284  0.1345 -0.0399
 4353SOL    HW124518   0.240   0.396  10.756 -1.1631 -0.1726 -0.6283
 4353SOL    HW224519   0.238   0.521  10.837  1.6406  0.0498 -0.4562
 4354SOL     OW24520   0.297   0.609   5.404  0.1237 -0.3909  0.0047
 4354SOL    HW124521   0.329   0.615   5.314 -0.8436 -1.6714 -0.4185
 4354SOL    HW224522   0.211   0.566   5.405 -0.7339  1.2902 -0.3226
 4355SOL     OW24523   4.299   3.124   6.551 -0.0485  0.2930  0.2737
 4355SOL    HW124524   4.285   3.205   6.502  1.5811  0.4407  0.0339
 4355SOL    HW224525   4.374   3.155   6.602 -0.9003  1.0637  1.0558
 4356SOL     OW24526   1.520   1.735   7.704 -0.0607  0.2160 -0.7060
 4356SOL    HW124527   1.590   1.772   7.757  1.4778 -1.0155 -1.8716
 4356SOL    HW224528   1.532   1.786   7.624  0.4039 -1.5614 -1.7667
 4357SOL     OW24529   0.274   1.215  16.954  0.0096 -0.1488  0.3586
 4357SOL    HW124530   0.289   1.142  16.894  3.0900  0.5252  0.3059
 4357SOL    HW224531   0.282   1.295  16.901  0.6334 -1.4584 -1.5245
 4358SOL     OW24532   2.716   4.238  15.235 -0.3050 -0.2422 -0.2307
 4358SOL    HW124533   2.620   4.233  15.234 -0.3840  1.1214 -0.3311
 4358SOL    HW224534   2.738   4.188  15.157 -1.8063 -1.1504 -0.0624
 4359SOL     OW24535   3.922   2.860   0.925  0.3616  0.7345 -0.2434
 4359SOL    HW124536   3.993   2.828   0.869 -1.5564  0.7826 -2.6918
 4359SOL    HW224537   3.943   2.952   0.911  0.6942  0.6516 -0.2762
 4360SOL     OW24538   3.709   0.653   9.777 -0.1838  0.4661 -0.1677
 4360SOL    HW124539   3.640   0.634   9.840 -0.6263 -0.9676 -1.0921
 4360SOL    HW224540   3.787   0.634   9.828 -0.0147  0.7298 -0.3263
 4361SOL     OW24541   0.153   1.114   1.082  0.3533 -0.1695  0.2316
 4361SOL    HW124542   0.164   1.152   1.170 -3.9295  2.3715 -0.3149
 4361SOL    HW224543   0.178   1.024   1.102 -0.3981 -0.1583  1.2262
 4362SOL     OW24544   1.971   4.140   5.413 -0.3341 -0.2086 -0.2043
 4362SOL    HW124545   2.022   4.066   5.445 -2.3167 -1.4018  0.1342
 4362SOL    HW224546   2.010   4.223   5.443  0.1544 -0.0935 -1.1509
 4363SOL     OW24547   4.640   1.420   7.167 -0.2229  0.1912 -0.1237
 4363SOL    HW124548   4.583   1.380   7.101 -2.6052  0.3506  1.8231
 4363SOL    HW224549   4.607   1.368   7.241  1.5244 -1.7626 -0.7322
 4364SOL     OW24550   1.742   0.219   4.608  0.4862  0.5301 -0.1531
 4364SOL    HW124551   1.709   0.278   4.676 -2.0696  0.5413 -1.4131
 4364SOL    HW224552   1.671   0.225   4.543  2.3845  3.5999 -1.9376
 4365SOL     OW24553   0.364   4.260  10.475 -0.1635  0.4375 -0.1555
 4365SOL    HW124554   0.318   4.208  10.541  0.1413  0.2552 -0.0868
 4365SOL    HW224555   0.346   4.350  10.501 -2.2405 -0.3552  1.1003
 4366SOL     OW24556   0.252   4.109   5.103  0.4492  0.0037  0.6327
 4366SOL    HW124557   0.170   4.089   5.057  0.2543  0.4706  0.7754
 4366SOL    HW224558   0.294   4.024   5.118  2.1257  0.5422 -1.0927
 4367SOL     OW24559   0.411   2.609   7.942 -0.4586  0.5001 -0.3875
 4367SOL    HW124560   0.444   2.598   8.032  1.2462  0.2429 -1.0370
 4367SOL    HW224561   0.406   2.703   7.927 -0.7738  0.7480  1.2945
 4368SOL     OW24562   0.528   1.852   3.642 -0.0814  0.6176  0.3592
 4368SOL    HW124563   0.488   1.925   3.689 -1.7387 -0.3035  0.3544
 4368SOL    HW224564   0.574   1.812   3.715 -0.5296 -1.2657 -0.3948
 4369SOL     OW24565   0.239   1.442  15.814  0.4180 -0.1730  0.0849
 4369SOL    HW124566   0.171   1.469  15.752  1.1219 -1.0354 -1.0600
 4369SOL    HW224567   0.203   1.358  15.844  2.8257 -1.6488 -1.1727
 4370SOL     OW24568   1.872   3.432  16.479  0.0531  0.0782 -0.3872
 4370SOL    HW124569   1.957   3.387  16.487 -0.3470 -0.6665 -0.3536
 4370SOL    HW224570   1.842   3.395  16.396  0.8513 -0.3043 -0.5117
 4371SOL     OW24571   2.362   1.831   0.647 -0.1513  0.3678 -0.1082
 4371SOL    HW124572   2.423   1.789   0.708 -0.4575 -0.1698 -0.1787
 4371SOL    HW224573   2.298   1.868   0.707 -0.3221  2.1559 -1.4023
 4372SOL     OW24574   2.397   0.938   4.215 -0.1950  0.1248  0.2784
 4372SOL    HW124575   2.400   0.858   4.267  0.1226  0.2502  0.4512
 4372SOL    HW224576   2.417   1.004   4.281 -0.3364 -1.0922  1.5402
 4373SOL     OW24577   0.888   4.482  11.500  0.3568  0.3454  0.2259
 4373SOL    HW124578   0.894   4.404  11.555 -0.5259  1.0290  1.2878
 4373SOL    HW224579   0.947   4.452  11.431 -2.6666 -3.8852 -0.5283
 4374SOL     OW24580   3.644   0.723   1.876 -0.1327  0.2178  0.6864
 4374SOL    HW124581   3.652   0.671   1.795 -0.8463 -1.4035  1.6457
 4374SOL    HW224582   3.684   0.657   1.933 -2.0032 -2.3779 -0.9936
 4375SOL     OW24583   2.530   1.538  16.327 -0.0708  0.4830  0.0181
 4375SOL    HW124584   2.481   1.556  16.247  1.4279  2.1223 -0.5306
 4375SOL    HW224585   2.499   1.604  16.389  1.0379  1.1114 -0.0764
 4376SOL     OW24586   4.305   1.697   5.341  0.6123 -0.2623  0.1274
 4376SOL    HW124587   4.277   1.777   5.296 -3.5956 -1.7554  0.1032
 4376SOL    HW224588   4.392   1.686   5.304  1.7474 -0.6854  2.8982
 4377SOL     OW24589   0.349   0.696   5.160 -0.1940 -0.4079 -0.1667
 4377SOL    HW124590   0.438   0.728   5.152 -0.7189  1.1016  0.0721
 4377SOL    HW224591   0.325   0.684   5.068 -1.0023  1.3669 -0.1947
 4378SOL     OW24592   0.865   1.336   1.538  0.2587 -0.0193 -0.1154
 4378SOL    HW124593   0.810   1.379   1.603  1.8212  1.0634  0.4949
 4378SOL    HW224594   0.821   1.251   1.531  0.3610 -0.1288  0.5334
 4379SOL     OW24595   0.469   0.103   9.478 -0.2156  0.2420 -0.5550
 4379SOL    HW124596   0.483   0.059   9.394  0.7134 -0.3680 -0.0894
 4379SOL    HW224597   0.561   0.110   9.503 -0.6880  1.0531  0.9547
 4380SOL     OW24598   0.986   4.422   8.211 -0.2373  0.5200 -0.1419
 4380SOL    HW124599   0.928   4.346   8.220 -2.3585  2.2823  1.3397
 4380SOL    HW224600   1.018   4.432   8.300  0.1593  1.6507 -0.4064
 4381SOL     OW24601   1.384   2.941   1.455 -0.8311 -0.1296  0.0236
 4381SOL    HW124602   1.400   2.965   1.364  0.2641  0.5219  0.3923
 4381SOL    HW224603   1.376   2.846   1.450 -0.2349 -0.0334 -2.8472
 4382SOL     OW24604   0.413   3.039  10.324  0.0450  0.0653  0.0245
 4382SOL    HW124605   0.339   3.072  10.376 -0.0809  0.9342 -0.7042
 4382SOL    HW224606   0.397   2.945  10.329 -3.1025  0.6304  0.7988
 4383SOL     OW24607   0.736   3.507  10.642  0.0118  0.2851 -0.5362
 4383SOL    HW124608   0.813   3.549  10.681 -1.9269  2.1396  1.2974
 4383SOL    HW224609   0.658   3.545  10.683 -0.2169 -0.4793 -0.2595
 4384SOL     OW24610   1.447   4.441   9.026  0.2488 -0.0037 -0.0296
 4384SOL    HW124611   1.392   4.366   9.001  1.1209 -0.8667  0.6548
 4384SOL    HW224612   1.449   4.501   8.951 -2.0751  0.1252  0.0165
 4385SOL     OW24613   2.408   1.907  17.394 -0.3781 -0.1620  0.0356
 4385SOL    HW124614   2.406   2.000  17.415 -1.3700 -0.1046 -0.2908
 4385SOL    HW224615   2.407   1.875  17.484  0.9108 -1.2734 -0.3407
 4386SOL     OW24616   3.877   2.722  17.470  0.5072  0.3937  0.3878
 4386SOL    HW124617   3.910   2.811  17.477 -2.7270  1.5517  0.7837
 4386SOL    HW224618   3.926   2.669  17.533  0.0836  0.1242  0.4945
 4387SOL     OW24619   3.937   2.399   7.352  0.0179 -0.2052 -1.1575
 4387SOL    HW124620   3.903   2.310   7.357 -0.6947  0.0440 -1.6642
 4387SOL    HW224621   3.873   2.432   7.290 -0.5909  2.8847  1.1358
 4388SOL     OW24622   4.384   0.149   2.581 -0.4791 -0.3571 -0.6237
 4388SOL    HW124623   4.325   0.223   2.595  0.7636  0.5580 -0.1627
 4388SOL    HW224624   4.352   0.099   2.506  1.8391 -1.7057 -0.7136
 4389SOL     OW24625   2.691   0.425  12.688 -0.2447  0.7381  0.0390
 4389SOL    HW124626   2.607   0.403  12.649 -0.4612  1.2208  0.2416
 4389SOL    HW224627   2.750   0.368  12.638 -0.4420 -0.1608  0.8170
 4390SOL     OW24628   0.002   4.223   7.934 -0.1313 -0.2921  0.4645
 4390SOL    HW124629   0.044   4.195   8.015 -3.1528 -0.3097  2.0192
 4390SOL    HW224630   4.651   4.163   7.924  1.4016 -1.7792 -2.2001
 4391SOL     OW24631   0.623   3.343   4.457 -0.2207 -0.2934 -0.5131
 4391SOL    HW124632   0.556   3.302   4.402  0.2305 -2.0413  0.2352
 4391SOL    HW224633   0.638   3.429   4.419  0.5148  0.0037  0.4455
 4392SOL     OW24634   2.946   2.660   6.990 -0.1501  0.4750  0.2795
 4392SOL    HW124635   2.974   2.583   7.039 -4.1948 -0.3110  1.3021
 4392SOL    HW224636   2.909   2.718   7.056 -0.6857 -2.3977  2.4778
 4393SOL     OW24637   3.199   3.654   6.850 -0.1643  0.5134 -0.6797
 4393SOL    HW124638   3.257   3.650   6.926  0.3228 -0.4964 -1.0973
 4393SOL    HW224639   3.259   3.655   6.776  1.9467 -3.5071  0.9207
 4394SOL     OW24640   0.424   4.040  12.642  0.0037 -0.1550  0.4710
 4394SOL    HW124641   0.475   4.029  12.723  0.0887 -0.5117  0.3687
 4394SOL    HW224642   0.478   4.107  12.601  0.4568 -2.4096 -2.6244
 4395SOL     OW24643   4.398   4.703   6.060 -0.8300 -0.1455  0.1876
 4395SOL    HW124644   4.421   0.007   6.150 -0.5870  0.5634 -0.0844
 4395SOL    HW224645   4.303   4.714   6.070 -0.8700 -0.9641  0.7012
 4396SOL     OW24646   0.224   1.306  15.553  0.1838 -0.0759  0.2365
 4396SOL    HW124647   0.219   1.284  15.460 -1.0359 -2.6074  0.9042
 4396SOL    HW224648   0.139   1.270  15.579  0.7322 -2.2579 -0.9433
 4397SOL     OW24649   1.455   3.401   7.996  0.1260 -0.2674  0.2016
 4397SOL    HW124650   1.473   3.349   7.918  3.2008 -0.0581  0.7954
 4397SOL    HW224651   1.499   3.485   7.983  1.9433 -0.6334  3.8971
 4398SOL     OW24652   3.635   1.289  16.783  0.6298  0.0792 -0.4708
 4398SOL    HW124653   3.587   1.346  16.843 -0.4060 -1.3796  0.1023
 4398SOL    HW224654   3.716   1.282  16.834  0.9081 -1.9998 -1.1842
 4399SOL     OW24655   2.806   0.756   2.079 -0.0034  0.2498 -0.5948
 4399SOL    HW124656   2.717   0.753   2.116  0.3504 -2.9223  0.0333
 4399SOL    HW224657   2.832   0.846   2.062  3.9984 -1.2365 -2.3537
 4400SOL     OW24658   0.020   3.063   0.332  0.4600  0.1287  0.0136
 4400SOL    HW124659   0.083   3.077   0.403  0.8816 -0.6577 -0.2023
 4400SOL    HW224660   4.715   3.147   0.294  0.8329 -0.5444 -1.7426
 4401SOL     OW24661   2.653   4.614  14.568 -0.1202 -0.4111 -0.2017
 4401SOL    HW124662   2.670   4.706  14.547  0.2078 -0.1148  1.4163
 4401SOL    HW224663   2.586   4.621  14.635 -1.0145  1.1019 -1.2408
 4402SOL     OW24664   4.540   4.579  12.787  0.4440  0.1344 -0.0039
 4402SOL    HW124665   4.551   4.637  12.711 -0.5122 -0.6010 -0.6998
 4402SOL    HW224666   4.448   4.553  12.780 -0.0314  2.5282 -2.9231
 4403SOL     OW24667   2.589   1.219   4.446  0.3486 -0.3738 -0.3481
 4403SOL    HW124668   2.514   1.159   4.441 -1.2490  1.6653 -0.7506
 4403SOL    HW224669   2.557   1.291   4.393  3.3174  1.1344 -0.0392
 4404SOL     OW24670   3.335   2.364   5.833 -0.0870  0.1811  0.0159
 4404SOL    HW124671   3.336   2.412   5.916  1.2879 -0.6118  0.4612
 4404SOL    HW224672   3.302   2.431   5.773  1.2079 -0.9416 -1.9543
 4405SOL     OW24673   4.137   0.668   6.553 -0.1044 -0.2468 -0.0623
 4405SOL    HW124674   4.207   0.677   6.618  0.1156  1.4152 -0.5420
 4405SOL    HW224675   4.075   0.606   6.593 -1.9777  2.4012  1.1343
 4406SOL     OW24676   1.788   1.723   8.264 -0.2579 -0.5812  0.6417
 4406SOL    HW124677   1.819   1.783   8.332 -0.8827 -1.4957  1.7278
 4406SOL    HW224678   1.757   1.777   8.192  2.0692 -0.0805  0.0324
 4407SOL     OW24679   4.225   1.740  13.408  0.1320 -0.2106  0.1061
 4407SOL    HW124680   4.313   1.749  13.445  0.7888 -1.4183 -1.1459
 4407SOL    HW224681   4.202   1.647  13.417  1.1944 -0.5093 -0.3128
 4408SOL     OW24682   0.362   1.446  17.093 -0.2100 -0.4545 -0.2314
 4408SOL    HW124683   0.340   1.356  17.070  0.2902 -1.3439  2.6864
 4408SOL    HW224684   0.439   1.437  17.150 -0.4700  1.2332  0.3899
 4409SOL     OW24685   1.400   0.296   3.169 -0.4791  0.1060 -0.0229
 4409SOL    HW124686   1.445   0.340   3.097 -0.3071  0.2723  0.1864
 4409SOL    HW224687   1.466   0.262   3.229 -0.3908 -0.9296 -0.7244
 4410SOL     OW24688   0.052   2.362   3.011  0.1264  0.1969  0.0745
 4410SOL    HW124689   0.078   2.277   2.975 -0.8746  0.0385 -0.2603
 4410SOL    HW224690   0.078   2.424   2.943 -0.3745  0.7551  0.3855
 4411SOL     OW24691   0.812   4.526  14.968 -0.3658 -0.0806  0.4596
 4411SOL    HW124692   0.815   4.613  15.007 -0.1156  0.9106 -1.7444
 4411SOL    HW224693   0.832   4.545  14.876  0.0463  0.1118  0.5891
 4412SOL     OW24694   2.278   0.678   4.376 -0.6587 -0.0896  0.1729
 4412SOL    HW124695   2.226   0.598   4.363 -1.8158  0.7335 -0.2506
 4412SOL    HW224696   2.363   0.642   4.400 -0.5467  0.7509  1.0540
 4413SOL     OW24697   3.769   0.423   5.823  0.3386  0.2825 -0.1731
 4413SOL    HW124698   3.766   0.505   5.873  0.9006 -0.4974  1.1382
 4413SOL    HW224699   3.845   0.382   5.863  0.6388 -0.4442 -1.4979
 4414SOL     OW24700   4.604   4.329  15.274  0.0912  0.1587  0.0848
 4414SOL    HW124701   4.515   4.295  15.263  1.0443 -2.7517  1.3284
 4414SOL    HW224702   4.664   4.257  15.256  0.3057  0.6170 -1.0295
 4415SOL     OW24703   4.528   4.304   4.304 -0.1617 -0.1853 -0.2333
 4415SOL    HW124704   4.563   4.274   4.220  1.2593 -0.8051  0.5665
 4415SOL    HW224705   4.606   4.286   4.357 -0.0590 -1.0979 -0.6964
 4416SOL     OW24706   1.963   4.597   8.247 -0.2274  0.4548  0.2544
 4416SOL    HW124707   1.988   4.687   8.266  0.5994  0.9348 -3.0298
 4416SOL    HW224708   1.872   4.620   8.232  0.2576  1.0685 -1.7680
 4417SOL     OW24709   4.386   1.676  10.910  0.3176  0.4897 -0.4698
 4417SOL    HW124710   4.364   1.583  10.923  0.3928  0.6806  1.0410
 4417SOL    HW224711   4.329   1.704  10.838  1.1522  0.9608 -0.9504
 4418SOL     OW24712   4.048   2.055   0.112 -0.0803 -0.2365  0.1273
 4418SOL    HW124713   3.977   2.008   0.069  0.3923 -0.1344 -0.7672
 4418SOL    HW224714   4.099   1.982   0.146  1.1492  1.2325  1.4783
 4419SOL     OW24715   2.913   0.589  12.676  0.0317 -0.0855 -0.0575
 4419SOL    HW124716   2.986   0.535  12.705  0.2166  0.9514  1.4341
 4419SOL    HW224717   2.828   0.551  12.696 -0.5467  0.2632 -1.8715
 4420SOL     OW24718   4.444   3.801   7.751 -0.3090  0.3230  0.7324
 4420SOL    HW124719   4.469   3.892   7.735 -0.9848  0.6232  1.3902
 4420SOL    HW224720   4.367   3.797   7.694 -0.1016  1.9298  0.3398
 4421SOL     OW24721   2.095   4.229  12.629  0.1218  0.2635 -0.1696
 4421SOL    HW124722   2.022   4.201  12.684 -0.4802  0.6778 -0.7510
 4421SOL    HW224723   2.174   4.230  12.682  0.0610  1.5122 -0.0828
 4422SOL     OW24724   4.430   2.202   4.656  0.4491 -0.5209 -0.3430
 4422SOL    HW124725   4.338   2.224   4.666  0.5265  0.1790 -1.1776
 4422SOL    HW224726   4.434   2.228   4.564 -0.0542 -0.8933 -0.4659
 4423SOL     OW24727   4.459   2.266   1.320  0.0242 -0.4197  0.4436
 4423SOL    HW124728   4.441   2.194   1.381 -0.8728 -0.0263  0.6453
 4423SOL    HW224729   4.448   2.340   1.380 -2.0378 -0.6608  0.3583
 4424SOL     OW24730   3.753   4.207  12.738  0.0661 -0.1579 -0.5159
 4424SOL    HW124731   3.686   4.139  12.742  1.4483 -1.4522  0.9425
 4424SOL    HW224732   3.710   4.264  12.674  0.2999 -1.9159 -2.2455
 4425SOL     OW24733   4.435   1.272   2.843  0.3424 -0.2559 -0.3849
 4425SOL    HW124734   4.411   1.327   2.768 -0.9862  0.2005  0.3700
 4425SOL    HW224735   4.378   1.200   2.817 -2.9482  1.4784  1.9886
 4426SOL     OW24736   3.145   2.181  10.368  0.0452  1.0427  0.1610
 4426SOL    HW124737   3.240   2.185  10.382 -0.0857  0.0559  1.3235
 4426SOL    HW224738   3.122   2.096  10.406 -0.3625  0.1769 -2.0080
 4427SOL     OW24739   1.269   2.045   5.010  0.2004  0.0889 -0.2729
 4427SOL    HW124740   1.242   1.953   5.006  0.3834  0.0921 -1.6143
 4427SOL    HW224741   1.250   2.068   5.101 -1.3562  0.2680 -0.6362
 4428SOL     OW24742   0.361   0.205   7.976 -0.0957 -0.3963 -0.3232
 4428SOL    HW124743   0.274   0.167   7.968 -0.8749  1.4490 -0.7371
 4428SOL    HW224744   0.376   0.185   8.069 -3.0788  1.2173  0.5160
 4429SOL     OW24745   0.914   4.675   2.651  0.2157 -0.2299 -0.5181
 4429SOL    HW124746   0.945   4.587   2.631 -1.1372 -0.6407 -0.7858
 4429SOL    HW224747   1.001   4.706   2.677  0.0569  1.6317 -2.1613
 4430SOL     OW24748   0.508   4.110   8.787 -0.2722  0.4753  0.1746
 4430SOL    HW124749   0.501   4.024   8.826  4.1842  1.8285  3.9486
 4430SOL    HW224750   0.454   4.157   8.851 -3.4121 -2.5284 -0.2787
 4431SOL     OW24751   4.541   2.806   3.451  0.4901  0.3174  0.0222
 4431SOL    HW124752   4.574   2.719   3.472  0.9975  0.6313  0.5415
 4431SOL    HW224753   4.624   2.853   3.459  1.1395 -0.7325 -0.6010
 4432SOL     OW24754   0.801   3.624   3.557 -0.7873  0.4401 -0.5196
 4432SOL    HW124755   0.757   3.581   3.631 -1.3477 -2.2753 -2.4259
 4432SOL    HW224756   0.734   3.685   3.526 -1.4714 -0.2516 -0.4242
 4433SOL     OW24757   2.387   3.224   6.521  0.3950 -0.0762 -0.4265
 4433SOL    HW124758   2.303   3.223   6.476 -0.0685  0.2989  0.4344
 4433SOL    HW224759   2.375   3.298   6.581 -0.5408  0.2460 -1.0092
 4434SOL     OW24760   1.213   3.901  16.723 -0.0242 -0.1218  0.0057
 4434SOL    HW124761   1.221   3.889  16.628  0.4984 -0.3382  0.0757
 4434SOL    HW224762   1.196   3.811  16.749 -1.2036  0.0529 -0.1802
 4435SOL     OW24763   0.272   0.504   2.040 -0.1699 -0.0439 -0.0049
 4435SOL    HW124764   0.305   0.465   1.959 -1.0419 -3.3532  1.2194
 4435SOL    HW224765   0.270   0.426   2.096 -1.8589  0.9049  1.2616
 4436SOL     OW24766   2.687   2.069  13.369 -0.3961  0.2813  0.2267
 4436SOL    HW124767   2.637   1.992  13.398 -0.9539 -0.0019 -1.4567
 4436SOL    HW224768   2.629   2.137  13.401  0.2370  0.5989  0.6840
 4437SOL     OW24769   2.131   3.345  12.357 -0.0464 -0.7482  0.1733
 4437SOL    HW124770   2.216   3.303  12.367 -0.3093 -0.8852  1.7794
 4437SOL    HW224771   2.158   3.436  12.351 -1.8560 -0.2168  0.1254
 4438SOL     OW24772   0.796   2.713   6.703  0.0286  0.4216  0.7422
 4438SOL    HW124773   0.733   2.769   6.659  0.7104  0.2912 -0.4041
 4438SOL    HW224774   0.746   2.632   6.711  2.0885 -0.7167  2.0482
 4439SOL     OW24775   2.215   2.397  13.824 -0.5307  0.1567  0.3568
 4439SOL    HW124776   2.184   2.436  13.743  1.4086  0.1091 -0.4007
 4439SOL    HW224777   2.185   2.306  13.826 -0.5212  0.1455 -0.1132
 4440SOL     OW24778   2.369   4.193   2.008  0.2016 -0.3207 -0.3749
 4440SOL    HW124779   2.281   4.197   1.970  0.0583  2.6665  0.2646
 4440SOL    HW224780   2.380   4.099   2.020  2.3117  0.3630  3.0008
 4441SOL     OW24781   2.603   2.002   5.620  0.3755 -0.1528  0.3449
 4441SOL    HW124782   2.592   1.922   5.569  0.6621 -0.2835  0.4816
 4441SOL    HW224783   2.537   1.988   5.687  0.2749 -0.4779  0.1786
 4442SOL     OW24784   3.053   2.895   2.979 -0.2415 -0.1617  0.5020
 4442SOL    HW124785   3.097   2.928   2.901 -0.1748 -0.6486  0.3390
 4442SOL    HW224786   2.981   2.849   2.938 -2.1742  3.6119 -0.3678
 4443SOL     OW24787   3.464   4.117   7.666  0.0293  0.1727 -0.0467
 4443SOL    HW124788   3.527   4.111   7.737  0.4764  1.4261 -0.3534
 4443SOL    HW224789   3.388   4.141   7.719 -1.1980  2.4990 -2.8517
 4444SOL     OW24790   2.997   3.211   4.840 -0.1873 -0.0014 -0.0844
 4444SOL    HW124791   3.041   3.142   4.889  0.7757  0.8489  0.2354
 4444SOL    HW224792   2.927   3.154   4.809 -1.0708  0.3138  1.3176
 4445SOL     OW24793   1.675   0.049   8.014  0.6083 -0.2158 -0.2015
 4445SOL    HW124794   1.715   0.107   8.079 -1.6801  0.6568  0.4369
 4445SOL    HW224795   1.583   0.074   8.020  0.1133 -1.8546 -0.7429
 4446SOL     OW24796   0.674   0.585  15.909  0.3266  0.0324 -0.2196
 4446SOL    HW124797   0.700   0.616  15.822 -0.9777 -2.9506 -1.6845
 4446SOL    HW224798   0.648   0.666  15.952 -0.4433 -0.0946 -0.4423
 4447SOL     OW24799   1.485   1.834   2.486 -0.2724  0.1065 -0.0549
 4447SOL    HW124800   1.516   1.744   2.491  1.4658  0.7702  1.0942
 4447SOL    HW224801   1.399   1.808   2.453 -0.2442  0.9076 -0.7898
 4448SOL     OW24802   3.820   4.242   4.669 -0.2208  0.1227  0.2759
 4448SOL    HW124803   3.764   4.271   4.741  2.0776 -1.7022  2.7746
 4448SOL    HW224804   3.909   4.271   4.689 -0.3470 -0.8918  2.2452
 4449SOL     OW24805   0.088   2.954   3.031  0.3952  0.1055  0.4341
 4449SOL    HW124806   0.117   2.965   2.940 -0.4793  2.2039  0.4018
 4449SOL    HW224807   0.152   3.002   3.084  1.1442 -0.2002 -0.1923
 4450SOL     OW24808   2.525   3.990  15.259 -0.2290  0.1701 -0.2221
 4450SOL    HW124809   2.474   4.067  15.234  0.4574  0.9580  0.8197
 4450SOL    HW224810   2.568   3.980  15.174 -0.1926 -0.9392 -0.0685
 4451SOL     OW24811   2.823   1.066  11.650  0.7115 -0.1614 -0.2789
 4451SOL    HW124812   2.793   0.990  11.601  0.2259 -0.8129  1.0156
 4451SOL    HW224813   2.742   1.096  11.690  0.2142 -1.2531 -0.4978
 4452SOL     OW24814   3.101   1.230   6.495 -0.1863 -0.6482  0.1207
 4452SOL    HW124815   3.149   1.310   6.475  0.2371 -0.9610 -0.1374
 4452SOL    HW224816   3.108   1.213   6.589  0.1056 -1.8072 -0.1058
 4453SOL     OW24817   0.807   0.751  14.834 -0.4305  0.3737  0.3725
 4453SOL    HW124818   0.872   0.727  14.900 -1.2708 -2.6275  0.1301
 4453SOL    HW224819   0.764   0.816  14.889 -0.3573  0.6230  0.1379
 4454SOL     OW24820   4.318   0.368   2.997  0.0862 -0.6508  0.0578
 4454SOL    HW124821   4.338   0.279   3.025 -0.3305 -1.0479 -0.9181
 4454SOL    HW224822   4.226   0.355   2.976  0.8166  0.4322 -3.8814
 4455SOL     OW24823   0.003   4.197   0.645 -0.3384 -0.1772  0.0761
 4455SOL    HW124824   4.632   4.189   0.663  0.0691 -0.6067  2.0556
 4455SOL    HW224825   0.044   4.153   0.720  0.1355  0.0276 -0.0637
 4456SOL     OW24826   3.428   4.456  16.842 -0.4560 -0.6412  0.0170
 4456SOL    HW124827   3.459   4.426  16.927  0.5530  0.4307  0.0252
 4456SOL    HW224828   3.510   4.442  16.794  1.1309 -1.6181  2.9956
 4457SOL     OW24829   1.849   1.292  13.521 -0.0804 -0.3984  0.2942
 4457SOL    HW124830   1.938   1.320  13.543  0.2457 -1.7932  0.7814
 4457SOL    HW224831   1.837   1.206  13.562  0.8379  0.6502  2.7844
 4458SOL     OW24832   4.136   2.123   5.293 -0.6222 -0.0617 -0.4324
 4458SOL    HW124833   4.102   2.125   5.382  2.4143 -4.1046  0.8129
 4458SOL    HW224834   4.067   2.169   5.245 -2.3698 -1.1669  1.0293
 4459SOL     OW24835   4.210   4.019  11.032  0.3720  0.0079 -0.2965
 4459SOL    HW124836   4.251   4.102  11.009  1.1156  0.0721  1.2617
 4459SOL    HW224837   4.289   3.970  11.053  0.7541  0.3323 -0.9764
 4460SOL     OW24838   4.235   2.368   6.862 -0.6125 -0.0482  0.5136
 4460SOL    HW124839   4.178   2.409   6.798  0.3609  3.5278  1.9144
 4460SOL    HW224840   4.197   2.282   6.881 -0.1469 -1.0251 -2.9208
 4461SOL     OW24841   0.855   2.818   4.575 -0.9078  0.4746  0.0292
 4461SOL    HW124842   0.931   2.761   4.586 -0.0511  2.2022  3.0233
 4461SOL    HW224843   0.827   2.800   4.485 -0.3105 -1.7833  0.3041
 4462SOL     OW24844   0.754   3.312   6.471 -0.0313  0.1373 -0.0023
 4462SOL    HW124845   0.689   3.259   6.425  1.4758 -1.7155  0.0260
 4462SOL    HW224846   0.704   3.393   6.457  3.8116  2.8076  1.6865
 4463SOL     OW24847   3.641   3.883   6.861  0.0356 -0.4252 -0.1161
 4463SOL    HW124848   3.720   3.931   6.886  0.9220 -1.9110 -0.0529
 4463SOL    HW224849   3.593   3.954   6.820  0.0962  0.0445  0.6151
 4464SOL     OW24850   1.014   2.730   8.257 -0.4874 -0.5722  0.2306
 4464SOL    HW124851   0.930   2.688   8.277 -1.1041  1.4568  1.9422
 4464SOL    HW224852   1.069   2.656   8.231  0.5259  0.6016 -0.9525
 4465SOL     OW24853   1.124   4.161  16.808  0.2174  0.3957  0.0956
 4465SOL    HW124854   1.190   4.207  16.757  0.2632 -0.3227 -0.4942
 4465SOL    HW224855   1.148   4.072  16.782 -3.9175 -0.1224 -1.9609
 4466SOL     OW24856   0.565   0.948   2.861 -0.0637 -0.2444 -0.4500
 4466SOL    HW124857   0.531   0.886   2.797  0.2607 -0.4467 -0.4248
 4466SOL    HW224858   0.656   0.935   2.834  0.4304 -0.3565  1.2560
 4467SOL     OW24859   2.027   0.322   7.578 -0.0650  0.2816 -0.2368
 4467SOL    HW124860   2.073   0.251   7.623 -1.4498 -0.4134  0.0802
 4467SOL    HW224861   2.035   0.386   7.649  1.7262  1.2890 -1.3433
 4468SOL     OW24862   0.504   2.091   0.283  0.0716  0.6537  0.0717
 4468SOL    HW124863   0.501   2.146   0.362  1.2790 -2.4255  2.2436
 4468SOL    HW224864   0.496   2.155   0.213 -0.3667  0.6222  0.0922
 4469SOL     OW24865   1.119   1.198   8.332  0.2310  0.2932  0.4090
 4469SOL    HW124866   1.190   1.165   8.387 -0.3538 -1.3336  0.1890
 4469SOL    HW224867   1.141   1.291   8.329  0.6173  0.0501 -4.3632
 4470SOL     OW24868   3.452   4.133   2.249  1.1272  0.0879  0.2015
 4470SOL    HW124869   3.460   4.179   2.332 -0.9971 -2.7360  1.9678
 4470SOL    HW224870   3.358   4.116   2.254  0.8836  1.4087  0.0093
 4471SOL     OW24871   2.820   3.752   6.612 -0.5701 -0.0471  0.2339
 4471SOL    HW124872   2.832   3.767   6.706  0.2806  1.5507 -0.1357
 4471SOL    HW224873   2.725   3.763   6.601 -0.5800 -4.1779 -3.7498
 4472SOL     OW24874   1.822   3.444   2.456  0.1981  0.2064 -0.1805
 4472SOL    HW124875   1.772   3.447   2.374 -1.5999 -0.2332  0.8844
 4472SOL    HW224876   1.832   3.350   2.465 -2.7080 -0.2058 -1.1494
 4473SOL     OW24877   3.114   2.471  11.885 -0.1777  0.2447  0.3170
 4473SOL    HW124878   3.069   2.467  11.801  2.5320  1.6850 -1.2284
 4473SOL    HW224879   3.095   2.391  11.934 -0.6656  0.9113  1.2026
 4474SOL     OW24880   4.617   3.486  10.984 -0.6368 -0.3803 -0.4814
 4474SOL    HW124881   4.554   3.557  10.977  1.3484  1.2469 -1.7566
 4474SOL    HW224882   4.696   3.531  10.955 -0.8842  1.3146  1.5105
 4475SOL     OW24883   3.370   1.438  11.213 -0.0322 -0.5820  0.2384
 4475SOL    HW124884   3.462   1.461  11.198  0.2601 -1.4946  0.6307
 4475SOL    HW224885   3.378   1.342  11.210  0.1056 -0.5571 -0.2997
 4476SOL     OW24886   2.153   0.026   3.758 -0.5064  0.0196 -0.6015
 4476SOL    HW124887   2.174   4.668   3.711 -1.3335  0.9877 -2.6542
 4476SOL    HW224888   2.238   0.069   3.752 -1.1514  1.0804 -2.2868
 4477SOL     OW24889   4.718   0.939   7.597 -0.7402 -0.0791 -0.0319
 4477SOL    HW124890   4.663   0.865   7.572 -1.9208  0.8132 -0.0579
 4477SOL    HW224891   0.075   0.887   7.607 -0.0031  1.0289 -0.1393
 4478SOL     OW24892   3.513   3.461   5.910 -0.4884  0.4133 -0.0942
 4478SOL    HW124893   3.552   3.451   5.823 -1.7076  1.6737 -0.7819
 4478SOL    HW224894   3.425   3.487   5.885 -0.0349  1.8825 -0.1382
 4479SOL     OW24895   0.319   3.337   4.519  0.6388  0.0164  0.2849
 4479SOL    HW124896   0.374   3.405   4.480 -0.5526  0.8158 -0.0105
 4479SOL    HW224897   0.238   3.342   4.468  2.3374  1.0971 -2.2844
 4480SOL     OW24898   2.242   2.998   5.134  0.5390  0.4166 -0.4609
 4480SOL    HW124899   2.221   2.946   5.057 -1.3830  1.4591 -0.6419
 4480SOL    HW224900   2.265   2.931   5.199 -0.9654  0.1385 -0.2162
 4481SOL     OW24901   1.955   4.677  14.720 -0.0134  0.2669  0.3965
 4481SOL    HW124902   2.000   4.597  14.748 -0.0551  0.0100 -0.2607
 4481SOL    HW224903   1.916   4.633  14.644  0.8980  0.6423 -0.2841
 4482SOL     OW24904   0.559   0.796  15.657  0.5947  0.0663 -0.6610
 4482SOL    HW124905   0.494   0.727  15.669 -0.5078  1.2789  0.2509
 4482SOL    HW224906   0.585   0.814  15.748 -1.1813 -0.5124 -0.0472
 4483SOL     OW24907   2.005   1.854   6.409  0.5629 -0.3275 -0.3319
 4483SOL    HW124908   1.954   1.772   6.408 -0.0058  0.0267 -1.0579
 4483SOL    HW224909   2.094   1.837   6.378  1.6990  0.0531  2.7725
 4484SOL     OW24910   3.597   4.584   5.159 -0.2983 -0.3136  0.2369
 4484SOL    HW124911   3.516   4.611   5.114  0.2992 -0.4161 -0.9117
 4484SOL    HW224912   3.652   4.651   5.117 -0.6363 -0.9292 -1.2079
 4485SOL     OW24913   2.206   1.565   1.608 -0.2705 -0.3328  0.1382
 4485SOL    HW124914   2.200   1.626   1.534 -1.8883 -0.5237  0.1242
 4485SOL    HW224915   2.225   1.488   1.554 -0.7860 -0.3382 -0.0385
 4486SOL     OW24916   1.792   1.801  12.538 -0.2264 -0.7590  0.1554
 4486SOL    HW124917   1.732   1.727  12.535  0.3477 -1.1733 -0.8579
 4486SOL    HW224918   1.866   1.762  12.491  0.1319 -0.3992  0.4206
 4487SOL     OW24919   2.124   4.227   7.468  0.6061  0.0767  0.1406
 4487SOL    HW124920   2.218   4.241   7.456  0.3341  1.1931 -0.6852
 4487SOL    HW224921   2.131   4.209   7.562  3.0427  1.2103  0.1584
 4488SOL     OW24922   3.633   0.294   5.336 -0.3607  0.2640 -0.8588
 4488SOL    HW124923   3.546   0.325   5.361  0.6151  2.8226 -0.6382
 4488SOL    HW224924   3.681   0.376   5.321  1.1551 -0.6540 -1.0815
 4489SOL     OW24925   3.141   1.689  16.435 -0.5233  0.1760  0.2061
 4489SOL    HW124926   3.141   1.769  16.382 -0.9950 -1.5215 -2.3483
 4489SOL    HW224927   3.067   1.649  16.389  0.0127 -2.3661  1.5758
 4490SOL     OW24928   4.562   0.979   6.014  0.0064  0.2933  0.2899
 4490SOL    HW124929   4.569   1.069   5.980 -0.2995 -0.0687 -0.7430
 4490SOL    HW224930   4.466   0.981   6.009  0.0080  0.2186  0.2359
 4491SOL     OW24931   3.597   0.999  11.053  0.3046  0.1692  0.1485
 4491SOL    HW124932   3.539   0.924  11.060 -0.8278  0.8862 -1.5484
 4491SOL    HW224933   3.687   0.965  11.055  0.0088 -0.5501  1.2646
 4492SOL     OW24934   2.274   1.423   5.742 -0.2267 -0.4908 -0.1130
 4492SOL    HW124935   2.314   1.479   5.808 -2.1240  0.3295  0.3372
 4492SOL    HW224936   2.339   1.353   5.737  1.7824  1.3045  0.9508
 4493SOL     OW24937   1.270   1.224   7.077 -0.0692  0.1848  0.3757
 4493SOL    HW124938   1.305   1.188   6.996 -3.0023 -1.6583 -0.0674
 4493SOL    HW224939   1.177   1.238   7.062  0.4067  2.1896 -0.5952
 4494SOL     OW24940   2.270   1.356   6.795 -0.4676 -0.1976  0.1511
 4494SOL    HW124941   2.221   1.381   6.873 -0.5338 -0.3063  0.1440
 4494SOL    HW224942   2.255   1.432   6.739 -1.6097  0.0454  0.7872
 4495SOL     OW24943   2.480   0.134  14.071  0.3452  0.0068  0.1293
 4495SOL    HW124944   2.455   0.091  13.989 -3.2924  0.6158  0.8947
 4495SOL    HW224945   2.447   0.222  14.050 -2.5563 -0.9976  0.3893
 4496SOL     OW24946   1.313   2.057   0.367  0.4543  0.1531 -0.2365
 4496SOL    HW124947   1.306   2.125   0.300 -1.5578 -0.8944 -1.0953
 4496SOL    HW224948   1.230   2.010   0.363 -0.5792  1.8778  1.0800
 4497SOL     OW24949   3.324   3.862   9.350 -0.8041  0.3958 -0.2688
 4497SOL    HW124950   3.344   3.784   9.402 -1.3909  0.4891  0.1030
 4497SOL    HW224951   3.263   3.821   9.288 -0.2319 -1.3912  0.3355
 4498SOL     OW24952   1.764   3.365  10.406 -0.3891  0.7221 -0.3781
 4498SOL    HW124953   1.739   3.330  10.321  0.8557 -1.7413  0.2736
 4498SOL    HW224954   1.711   3.444  10.419 -0.8130  0.1552  1.3054
 4499SOL     OW24955   1.095   2.331   2.395 -0.2027  0.5560  0.4988
 4499SOL    HW124956   1.152   2.362   2.325  1.1593 -2.0403  0.4779
 4499SOL    HW224957   1.016   2.303   2.348 -0.8709 -0.2005  2.0819
 4500SOL     OW24958   1.516   1.361   8.746 -0.3812  0.5109  0.0060
 4500SOL    HW124959   1.515   1.275   8.788  1.4328  0.0017 -1.0050
 4500SOL    HW224960   1.427   1.368   8.712 -0.0878  1.8654 -0.4523
 4501SOL     OW24961   3.252   1.261   5.918 -0.1740 -0.2165 -0.2884
 4501SOL    HW124962   3.202   1.252   5.837  1.3718  0.8425 -1.3644
 4501SOL    HW224963   3.282   1.172   5.935  0.4544  0.2652  1.0964
 4502SOL     OW24964   1.647   0.242  17.638 -0.1552 -0.2417 -0.2215
 4502SOL    HW124965   1.637   0.337  17.639  1.1195 -0.1216  0.7026
 4502SOL    HW224966   1.742   0.240  17.648 -0.3793 -0.2347  1.9162
 4503SOL     OW24967   2.207   4.281  15.856 -0.2909  0.7042  0.6007
 4503SOL    HW124968   2.125   4.312  15.894 -2.5487 -2.5414 -1.6167
 4503SOL    HW224969   2.194   4.188  15.876 -0.5037  0.3322 -1.2493
 4504SOL     OW24970   3.318   1.916  16.202  0.0822 -0.1379 -0.0179
 4504SOL    HW124971   3.387   1.929  16.136  0.8637  1.2018  1.0716
 4504SOL    HW224972   3.239   1.879  16.162 -0.7242  0.3874  1.1015
 4505SOL     OW24973   1.955   1.472   6.865 -0.1432  0.3355 -0.3463
 4505SOL    HW124974   1.971   1.553   6.816 -0.6480  0.3661 -0.4625
 4505SOL    HW224975   2.025   1.480   6.929  1.1872  0.1508 -1.7904
 4506SOL     OW24976   3.221   3.969   7.018  0.2696 -0.0664  0.2423
 4506SOL    HW124977   3.265   4.052   7.004 -1.9338  0.7351 -1.9049
 4506SOL    HW224978   3.263   3.928   6.943 -0.1796 -1.7894  0.9307
 4507SOL     OW24979   2.932   3.084  14.745  0.8696 -0.2940  0.8053
 4507SOL    HW124980   2.991   3.155  14.771 -2.3036  1.4350  3.2887
 4507SOL    HW224981   2.863   3.131  14.699  1.0301 -1.7414 -0.9024
 4508SOL     OW24982   3.876   2.270   9.038  0.2333  0.1031  0.1003
 4508SOL    HW124983   3.869   2.176   9.049 -3.1705  0.5992  2.1583
 4508SOL    HW224984   3.877   2.282   8.943 -1.7196  1.2693  0.2128
 4509SOL     OW24985   0.319   2.697   0.394 -0.7787 -0.6063  0.0946
 4509SOL    HW124986   0.410   2.686   0.422 -1.4406 -3.7587  1.0182
 4509SOL    HW224987   0.335   2.739   0.310  0.9133 -0.0036  0.7155
 4510SOL     OW24988   2.250   0.758   3.610  0.1781  0.3542  0.0226
 4510SOL    HW124989   2.270   0.851   3.620  0.7469  0.4396 -1.7868
 4510SOL    HW224990   2.176   0.749   3.670  0.2793  0.7001  0.1928
 4511SOL     OW24991   1.109   1.643  12.283  0.2584 -1.0245  0.0763
 4511SOL    HW124992   1.154   1.559  12.291  2.2582  0.0412  0.0971
 4511SOL    HW224993   1.118   1.673  12.374 -0.1866  0.6474 -0.4289
 4512SOL     OW24994   4.040   1.844  13.215 -0.6142  0.5921  0.2669
 4512SOL    HW124995   4.084   1.791  13.282  0.0176 -1.2572 -1.6316
 4512SOL    HW224996   3.990   1.899  13.275  0.0521  1.7585 -0.2483
 4513SOL     OW24997   3.302   3.736   6.244  0.2540  0.3123 -0.1040
 4513SOL    HW124998   3.326   3.669   6.180 -0.0765  0.5864 -0.5164
 4513SOL    HW224999   3.215   3.710   6.276 -0.0806  1.2661 -0.2330
 4514SOL     OW25000   0.828   1.091   1.854 -0.1394  0.0281  0.1767
 4514SOL    HW125001   0.828   1.020   1.918  1.4022 -0.6958 -0.6203
 4514SOL    HW225002   0.740   1.079   1.819  0.3501 -2.3585 -0.2366
 4515SOL     OW25003   0.215   0.363   3.893  0.6583  0.2084  0.1504
 4515SOL    HW125004   0.214   0.307   3.971  0.5647 -0.8364 -0.6003
 4515SOL    HW225005   0.126   0.346   3.863  0.5631  1.1400 -0.0870
 4516SOL     OW25006   2.230   0.361   1.719  0.1371  0.1596  0.7652
 4516SOL    HW125007   2.259   0.349   1.810  0.9633  0.9970  0.6216
 4516SOL    HW225008   2.315   0.375   1.678  0.0819  0.9952  0.9377
 4517SOL     OW25009   2.945   4.238   6.163  0.3972 -0.5759 -0.4256
 4517SOL    HW125010   2.874   4.284   6.119  1.8936  2.2629  0.1114
 4517SOL    HW225011   2.944   4.274   6.252  0.1894  1.8487 -1.4216
 4518SOL     OW25012   1.002   2.428  13.694 -0.1003 -0.2072 -0.1264
 4518SOL    HW125013   1.077   2.487  13.694 -1.5757  1.6852 -0.0619
 4518SOL    HW225014   1.026   2.356  13.752  0.4075 -0.0993 -0.2022
 4519SOL     OW25015   3.950   3.633   6.541 -0.6615 -0.0829  0.1440
 4519SOL    HW125016   3.888   3.565   6.570 -0.1603 -0.4243  0.3999
 4519SOL    HW225017   3.954   3.612   6.447 -0.0998  0.7443 -0.0092
 4520SOL     OW25018   3.357   2.611   7.466  0.3193  0.5580  0.4467
 4520SOL    HW125019   3.358   2.683   7.402  1.3564 -1.0728 -1.3422
 4520SOL    HW225020   3.437   2.633   7.513  0.4900  1.3099 -0.2052
 4521SOL     OW25021   0.171   2.828   8.591 -0.1571 -0.1012  0.0931
 4521SOL    HW125022   0.257   2.834   8.634 -0.5550 -0.6784  0.9592
 4521SOL    HW225023   0.111   2.802   8.660 -0.2635  0.4184  0.1924
 4522SOL     OW25024   2.656   2.953   3.910  0.0952  0.2292  0.3996
 4522SOL    HW125025   2.703   2.874   3.883 -2.3632 -1.1486  0.1730
 4522SOL    HW225026   2.658   2.932   4.004 -2.0846 -0.8284  0.2100
 4523SOL     OW25027   0.816   3.657   2.894 -0.3128 -0.1037  0.2987
 4523SOL    HW125028   0.748   3.722   2.879 -0.8939 -0.7126  0.2897
 4523SOL    HW225029   0.826   3.651   2.989 -1.4409 -1.0329  0.3583
 4524SOL     OW25030   2.345   3.393   3.894 -0.1980 -0.2868  0.2678
 4524SOL    HW125031   2.389   3.446   3.960 -0.0438  0.4828 -0.4491
 4524SOL    HW225032   2.391   3.309   3.899  0.4132 -0.2119 -3.6131
 4525SOL     OW25033   1.208   1.123   2.571  0.2498 -0.2679  0.0609
 4525SOL    HW125034   1.178   1.214   2.583  0.6704 -0.2611  1.0625
 4525SOL    HW225035   1.179   1.100   2.483 -0.3322  1.6867 -0.2542
 4526SOL     OW25036   4.099   3.426   0.845 -0.6432 -0.0537 -0.6518
 4526SOL    HW125037   4.083   3.499   0.905 -1.8968  0.6072 -1.7956
 4526SOL    HW225038   4.168   3.474   0.800  0.1560 -1.4103 -0.8824
 4527SOL     OW25039   2.170   0.798   6.447 -0.1713 -0.4204 -0.1518
 4527SOL    HW125040   2.252   0.812   6.495 -0.0056 -1.2648 -0.1880
 4527SOL    HW225041   2.109   0.765   6.513  1.2546  0.0729  1.4150
 4528SOL     OW25042   2.436   1.503   2.201  0.0866  0.3057 -0.2252
 4528SOL    HW125043   2.387   1.549   2.133  1.0130 -1.2025 -1.9167
 4528SOL    HW225044   2.483   1.581   2.231 -2.2975  0.6099  2.6682
 4529SOL     OW25045   0.683   1.194   2.440  0.2313  0.1688  0.3456
 4529SOL    HW125046   0.694   1.259   2.370 -0.4993  0.4278  0.4736
 4529SOL    HW225047   0.646   1.121   2.390 -0.7483 -0.6880  2.3169
 4530SOL     OW25048   4.549   3.065   7.880  0.1859  0.8401 -0.6716
 4530SOL    HW125049   4.581   3.001   7.944 -0.7439 -0.9981 -2.0419
 4530SOL    HW225050   4.506   3.124   7.942  0.9325  0.8372 -0.1567
 4531SOL     OW25051   1.983   2.788   2.255 -0.4848  0.4486 -0.1487
 4531SOL    HW125052   2.000   2.696   2.272 -1.6073  0.4838  1.1009
 4531SOL    HW225053   2.005   2.802   2.163 -2.5350 -4.9888 -1.4643
 4532SOL     OW25054   3.519   4.658   4.347 -0.1549  0.1470  0.0087
 4532SOL    HW125055   3.505   0.027   4.372 -0.9873  0.3616 -1.2484
 4532SOL    HW225056   3.563   4.672   4.263 -2.1318 -0.4055 -1.0985
 4533SOL     OW25057   1.762   3.442   3.501 -0.2596 -0.6321  0.4846
 4533SOL    HW125058   1.788   3.429   3.410 -1.7491 -0.7809  0.0837
 4533SOL    HW225059   1.753   3.537   3.506  1.7131 -0.4532  0.5967
 4534SOL     OW25060   3.266   2.195  16.659 -0.0023  0.0692 -0.4835
 4534SOL    HW125061   3.341   2.179  16.716  0.4724 -0.4697 -1.2644
 4534SOL    HW225062   3.205   2.228  16.725  1.5571  1.2972  0.3316
 4535SOL     OW25063   1.430   1.848  17.307 -0.4636  0.1851  0.6211
 4535SOL    HW125064   1.508   1.901  17.293 -0.6098 -0.0519 -1.0550
 4535SOL    HW225065   1.386   1.904  17.371 -0.3527  1.3020 -0.2812
 4536SOL     OW25066   2.686   3.921   5.166  0.3886 -0.4754  0.3354
 4536SOL    HW125067   2.653   4.009   5.145 -0.5344 -0.7821  0.4710
 4536SOL    HW225068   2.735   3.928   5.248  2.2469 -2.2068 -0.6343
 4537SOL     OW25069   0.794   0.110   2.975 -0.2390 -0.9128 -0.0461
 4537SOL    HW125070   0.870   0.168   2.977 -1.5169  0.7695 -0.3964
 4537SOL    HW225071   0.751   0.141   2.896 -0.6262 -2.3650 -0.4027
 4538SOL     OW25072   2.413   2.062   3.533 -0.0854 -0.0505 -0.5005
 4538SOL    HW125073   2.360   2.038   3.457  0.1171 -0.8525 -0.3886
 4538SOL    HW225074   2.498   2.080   3.494  0.0266 -0.6497 -0.5272
 4539SOL     OW25075   0.636   2.870   6.498 -0.1267 -0.7493  0.4871
 4539SOL    HW125076   0.613   2.919   6.419 -2.9474 -1.6186  0.7585
 4539SOL    HW225077   0.724   2.854   6.466 -0.4391 -0.9410 -0.2808
 4540SOL     OW25078   1.730   4.501   9.030 -0.2347 -0.5584 -0.3549
 4540SOL    HW125079   1.787   4.436   9.071  0.2781 -0.7277 -1.3441
 4540SOL    HW225080   1.653   4.445   9.024 -0.2885 -0.5484  0.1981
 4541SOL     OW25081   0.692   4.124   7.091  0.1300 -0.5650 -0.5827
 4541SOL    HW125082   0.686   4.120   7.187  3.1695  0.4354 -0.3378
 4541SOL    HW225083   0.777   4.167   7.075  0.0871  0.5948  2.3007
 4542SOL     OW25084   0.220   1.144   2.081  0.6276 -0.0901 -0.7352
 4542SOL    HW125085   0.310   1.127   2.052  0.6525  0.6622 -1.1070
 4542SOL    HW225086   0.193   1.229   2.047 -1.3808 -1.0999 -1.6244
 4543SOL     OW25087   3.226   1.305   3.177  0.6158  0.0974 -0.6680
 4543SOL    HW125088   3.150   1.290   3.120  0.0596  2.0245 -0.4392
 4543SOL    HW225089   3.280   1.359   3.120 -0.5615  0.5021 -1.4020
 4544SOL     OW25090   0.759   0.007  12.490  0.2255  0.4890 -0.7063
 4544SOL    HW125091   0.719   0.055  12.418  1.4045  0.8236 -1.1359
 4544SOL    HW225092   0.720   4.642  12.486  1.2396  0.2777 -5.2719
 4545SOL     OW25093   0.382   3.836   7.203 -0.6651  0.0201 -0.4208
 4545SOL    HW125094   0.352   3.746   7.191 -1.2255 -0.2271  3.0813
 4545SOL    HW225095   0.471   3.814   7.228 -1.4088 -1.3874  0.9765
 4546SOL     OW25096   2.413   0.090   3.704  0.5507 -0.1016 -0.4187
 4546SOL    HW125097   2.464   0.011   3.683  1.9678  0.5463  0.6120
 4546SOL    HW225098   2.477   0.156   3.730  0.5010 -0.3254  0.2764
 4547SOL     OW25099   0.916   0.372   2.552  0.1803 -0.2711 -0.0885
 4547SOL    HW125100   1.006   0.403   2.546  0.2036 -0.8844 -2.9761
 4547SOL    HW225101   0.887   0.385   2.462  0.3774  2.4719  0.2353
 4548SOL     OW25102   0.810   0.933  10.752 -0.1377 -0.4830  0.4200
 4548SOL    HW125103   0.904   0.925  10.767  0.2335 -0.9570 -2.0647
 4548SOL    HW225104   0.805   0.883  10.670 -2.3770 -0.9196  0.8115
 4549SOL     OW25105   3.331   2.270   6.706  0.6880  0.0777  0.0334
 4549SOL    HW125106   3.269   2.302   6.641  1.0020 -1.0130 -0.8045
 4549SOL    HW225107   3.377   2.209   6.648  1.5489  0.7077  0.0502
 4550SOL     OW25108   2.527   3.618   9.107  0.1492  0.3773  0.1394
 4550SOL    HW125109   2.535   3.709   9.138 -2.0142  0.8930 -0.8024
 4550SOL    HW225110   2.435   3.603   9.128  0.7923 -0.1482  2.4825
 4551SOL     OW25111   1.193   0.912   4.664 -0.2758  0.4369  0.0452
 4551SOL    HW125112   1.285   0.896   4.640 -0.3970  1.2459 -0.9484
 4551SOL    HW225113   1.194   0.967   4.743 -0.7562  0.2694  0.1688
 4552SOL     OW25114   0.747   2.636  17.194 -0.0938 -0.2708 -0.0976
 4552SOL    HW125115   0.838   2.654  17.170 -0.1239  0.2156  0.1458
 4552SOL    HW225116   0.724   2.719  17.236 -0.7941  0.2313 -1.4992
 4553SOL     OW25117   3.534   2.613   3.030  0.0429 -0.4050  0.1998
 4553SOL    HW125118   3.451   2.629   3.076  0.9604  3.0018  0.6740
 4553SOL    HW225119   3.530   2.684   2.966  0.0693 -0.6070 -0.0238
 4554SOL     OW25120   2.023   0.171  14.047 -0.0522  0.3473  0.2127
 4554SOL    HW125121   2.070   0.090  14.027  0.7860  0.9141 -0.0802
 4554SOL    HW225122   2.055   0.184  14.136 -2.5829  1.7282  0.9337
 4555SOL     OW25123   0.383   4.330   4.510  0.0384  0.3287 -0.4471
 4555SOL    HW125124   0.350   4.392   4.574  1.9047  0.6310  0.2149
 4555SOL    HW225125   0.479   4.331   4.518  0.2065 -1.6923 -1.9743
 4556SOL     OW25126   3.835   2.124   3.940  0.1436  0.0478 -0.0256
 4556SOL    HW125127   3.795   2.168   3.866 -2.2028  0.4848  1.4744
 4556SOL    HW225128   3.913   2.175   3.959 -0.1892 -0.0374  1.5928
 4557SOL     OW25129   4.231   2.816   6.780  0.0786 -0.2750 -0.4592
 4557SOL    HW125130   4.293   2.863   6.836  0.9304 -0.8335 -0.9218
 4557SOL    HW225131   4.285   2.798   6.703 -0.1457 -2.5284 -0.0627
 4558SOL     OW25132   1.250   2.541   9.066  0.4350  0.3505 -0.5635
 4558SOL    HW125133   1.170   2.510   9.024  0.5769 -0.6717 -0.0663
 4558SOL    HW225134   1.212   2.603   9.128  0.4476  0.7697 -0.9722
 4559SOL     OW25135   2.664   1.775  11.411  0.3955 -0.3846 -0.2971
 4559SOL    HW125136   2.728   1.844  11.394  1.1692  0.0085  4.2819
 4559SOL    HW225137   2.716   1.700  11.382 -2.4811 -1.9917 -1.3087
 4560SOL     OW25138   0.475   4.501   6.355  0.1493 -0.0377  0.3362
 4560SOL    HW125139   0.530   4.493   6.277 -1.9096  0.8261 -1.2112
 4560SOL    HW225140   0.544   4.487   6.420  1.2047  0.6795 -0.6386
 4561SOL     OW25141   2.072   4.601   6.655  0.0826 -0.4529 -0.1582
 4561SOL    HW125142   2.049   4.520   6.701  0.4759 -0.3247  0.2693
 4561SOL    HW225143   1.989   4.639   6.627  0.2094  1.0319  1.5013
 4562SOL     OW25144   2.642   0.283   8.554 -0.2872  0.4327 -0.5475
 4562SOL    HW125145   2.731   0.290   8.517 -0.3276  2.2571 -0.3303
 4562SOL    HW225146   2.642   0.195   8.591 -0.0880  0.3936 -0.6394
 4563SOL     OW25147   3.614   2.133   1.310 -0.0934  0.2072 -0.2282
 4563SOL    HW125148   3.522   2.109   1.297 -0.3235 -0.6781  3.1788
 4563SOL    HW225149   3.640   2.190   1.237  0.3260 -1.3319 -1.2914
 4564SOL     OW25150   0.406   3.887   8.478  0.0370 -0.3020 -0.2896
 4564SOL    HW125151   0.354   3.856   8.553 -1.2107  0.1095 -0.9864
 4564SOL    HW225152   0.494   3.852   8.492 -0.3168 -0.4755  1.5887
 4565SOL     OW25153   1.448   4.340   7.093  0.0807 -0.0627  0.6722
 4565SOL    HW125154   1.499   4.421   7.090 -0.3586  0.2666  2.0622
 4565SOL    HW225155   1.361   4.378   7.107  0.6027  1.4141 -0.0763
 4566SOL     OW25156   4.474   0.770  15.999 -0.1384  0.7805  0.0889
 4566SOL    HW125157   4.544   0.731  15.946 -1.4968 -1.2294 -0.2372
 4566SOL    HW225158   4.452   0.853  15.956 -3.8793 -0.7833 -1.0319
 4567SOL     OW25159   4.037   0.498   1.515 -0.4245 -0.2850  0.0517
 4567SOL    HW125160   3.955   0.510   1.467 -0.4839 -2.0736 -0.3045
 4567SOL    HW225161   4.040   0.404   1.531  0.3271 -0.3948 -0.7720
 4568SOL     OW25162   2.693   3.905   3.583 -0.6189 -0.1904  0.5322
 4568SOL    HW125163   2.698   3.997   3.558 -0.0523  0.2913  2.4749
 4568SOL    HW225164   2.775   3.897   3.631  0.1671 -0.3949 -0.8470
 4569SOL     OW25165   2.317   3.538  10.494 -0.3069 -0.2088 -0.8626
 4569SOL    HW125166   2.283   3.569  10.578 -1.4164 -0.8936 -1.0528
 4569SOL    HW225167   2.377   3.608  10.469  1.6947 -1.7057 -0.2344
 4570SOL     OW25168   1.098   2.718   6.146 -0.4374 -0.0389  0.1822
 4570SOL    HW125169   1.126   2.731   6.055 -0.6780  0.8527  0.2341
 4570SOL    HW225170   1.179   2.743   6.189 -1.5834  1.0531  1.6986
 4571SOL     OW25171   1.212   2.817  16.173  0.1632 -0.2856 -0.4256
 4571SOL    HW125172   1.150   2.879  16.210 -2.1299 -3.1254  0.4943
 4571SOL    HW225173   1.284   2.806  16.234 -1.6835  1.3914  2.0552
 4572SOL     OW25174   4.329   2.153  10.890 -0.1653 -0.2694  0.1792
 4572SOL    HW125175   4.286   2.077  10.850  0.6300 -0.7335  0.1988
 4572SOL    HW225176   4.271   2.156  10.966  1.0340 -3.1517  1.2278
 4573SOL     OW25177   0.525   0.569   7.920 -0.2270  0.6240  0.2019
 4573SOL    HW125178   0.578   0.615   7.855 -0.0327  0.8457  0.5154
 4573SOL    HW225179   0.470   0.509   7.870  1.2953  0.5598 -1.3675
 4574SOL     OW25180   4.449   3.448  11.752  0.4138 -0.3825 -0.4799
 4574SOL    HW125181   4.475   3.416  11.838 -0.6134 -0.0980 -0.0636
 4574SOL    HW225182   4.374   3.390  11.741 -1.0464  1.2157  1.0993
 4575SOL     OW25183   4.097   1.822   4.620  0.2668 -0.0918 -0.2097
 4575SOL    HW125184   4.191   1.839   4.613  0.6745 -2.4387 -0.6417
 4575SOL    HW225185   4.094   1.735   4.581  0.6701  0.0529 -0.5657
 4576SOL     OW25186   1.626   3.119   8.650  0.0505  0.1569 -0.0926
 4576SOL    HW125187   1.557   3.054   8.666  0.3885 -0.0076  0.6959
 4576SOL    HW225188   1.690   3.101   8.720 -1.6348 -1.0466  1.1503
 4577SOL     OW25189   0.017   3.396  10.120 -0.2956 -0.1757  0.8681
 4577SOL    HW125190   0.068   3.372  10.197  0.5069  0.0747  0.4168
 4577SOL    HW225191   4.676   3.455  10.159 -3.0219 -0.8900 -2.4947
 4578SOL     OW25192   4.596   2.104  14.906 -0.3032  0.1058 -0.1744
 4578SOL    HW125193   4.614   2.027  14.851 -0.2117 -0.6133  0.8736
 4578SOL    HW225194   4.502   2.098  14.922  0.4050 -0.6588  3.5985
 4579SOL     OW25195   0.785   4.018  14.044 -0.6199  0.2254  0.3727
 4579SOL    HW125196   0.740   3.934  14.041  0.0072 -0.1512  1.5521
 4579SOL    HW225197   0.799   4.028  13.950 -1.4529  0.5008  0.2721
 4580SOL     OW25198   2.926   1.936   7.839  0.2030  0.6301 -0.0815
 4580SOL    HW125199   2.917   2.021   7.882  0.6787 -0.4860  2.1964
 4580SOL    HW225200   2.893   1.870   7.901  0.6837  1.8155  1.4208
 4581SOL     OW25201   0.185   1.163   8.546 -0.3028 -0.0996  0.0079
 4581SOL    HW125202   0.245   1.119   8.485  0.8680  2.3861 -0.6259
 4581SOL    HW225203   0.202   1.256   8.533  1.2123 -0.1855  1.4498
 4582SOL     OW25204   0.253   2.734   4.589  0.2818  0.7190  0.0750
 4582SOL    HW125205   0.176   2.784   4.562 -0.4989 -0.8909 -0.6693
 4582SOL    HW225206   0.289   2.696   4.509 -0.2737 -1.3442  0.8105
 4583SOL     OW25207   0.219   0.331   3.366 -0.2409  0.1485 -0.1034
 4583SOL    HW125208   0.293   0.358   3.312 -0.6149  1.7532  0.1929
 4583SOL    HW225209   0.147   0.383   3.330 -2.0389 -3.2356 -1.3772
 4584SOL     OW25210   2.529   2.175   7.722  0.0938  0.3672 -0.0296
 4584SOL    HW125211   2.545   2.159   7.630  1.1630 -1.5166  0.4860
 4584SOL    HW225212   2.435   2.195   7.718 -0.0778 -0.5365 -0.3813
 4585SOL     OW25213   0.694   2.848   7.387 -0.3599  0.0283 -0.5158
 4585SOL    HW125214   0.617   2.792   7.374  0.5319 -1.7515  1.9455
 4585SOL    HW225215   0.757   2.778   7.369  0.0116  0.1685  0.2198
 4586SOL     OW25216   4.150   1.713   8.300 -0.3077 -0.0551  0.0939
 4586SOL    HW125217   4.123   1.800   8.272  0.9815  0.3445  0.0990
 4586SOL    HW225218   4.216   1.732   8.367  2.3672 -0.1035 -2.5300
 4587SOL     OW25219   2.128   3.616   2.698 -0.2115  0.5105 -0.3393
 4587SOL    HW125220   2.045   3.658   2.677 -1.9873 -3.1510 -0.5295
 4587SOL    HW225221   2.187   3.692   2.695  0.6720 -0.0945  1.3572
 4588SOL     OW25222   0.104   0.998   3.586  0.8728  0.1958  0.7166
 4588SOL    HW125223   0.155   0.935   3.636 -1.8924 -2.2742  0.4155
 4588SOL    HW225224   0.108   0.972   3.494 -0.8906 -1.8966  1.2408
 4589SOL     OW25225   1.060   3.662  17.390 -0.3136  0.1274  0.0374
 4589SOL    HW125226   1.136   3.670  17.447  1.7270 -0.0272 -2.6724
 4589SOL    HW225227   1.096   3.645  17.303 -0.1953  0.5254  0.0087
 4590SOL     OW25228   4.136   4.444   3.948 -0.1656 -0.0767  0.0302
 4590SOL    HW125229   4.049   4.469   3.918  0.5492 -0.6632 -2.4923
 4590SOL    HW225230   4.171   4.532   3.965 -2.7036  0.8416  0.4369
 4591SOL     OW25231   2.399   0.382   5.296 -0.0332  0.6800  0.2650
 4591SOL    HW125232   2.359   0.465   5.321 -1.7107 -0.4518  1.3287
 4591SOL    HW225233   2.450   0.367   5.376  2.9456  0.8755 -1.5909
 4592SOL     OW25234   0.019   3.971  16.913 -0.1321  0.0945  0.3222
 4592SOL    HW125235   0.053   3.899  16.859  1.1647  0.9812 -0.0326
 4592SOL    HW225236   0.029   4.049  16.858 -0.1005  0.1289  0.3768
 4593SOL     OW25237   3.566   1.109   8.791  0.2117  0.3219 -0.2402
 4593SOL    HW125238   3.581   1.016   8.774 -0.9794 -0.2877  2.0902
 4593SOL    HW225239   3.638   1.132   8.850  1.9387 -0.7574 -1.9365
 4594SOL     OW25240   2.199   0.459   6.051 -0.0249  1.1139 -0.6079
 4594SOL    HW125241   2.188   0.374   6.094 -0.9169  1.2313 -0.5863
 4594SOL    HW225242   2.109   0.489   6.068 -0.4931 -1.8821  2.1244
 4595SOL     OW25243   0.936   4.267   2.992  0.1236 -0.4200  0.5079
 4595SOL    HW125244   0.842   4.256   2.978  0.2708 -1.5871  0.3969
 4595SOL    HW225245   0.938   4.250   3.086  1.4100 -0.2004  0.5129
 4596SOL     OW25246   3.614   2.147   2.499 -0.1011  0.3209 -0.0836
 4596SOL    HW125247   3.692   2.094   2.484 -2.7959 -3.8324  0.6372
 4596SOL    HW225248   3.651   2.201   2.568  0.1558  0.0454 -0.0083
 4597SOL     OW25249   0.521   0.264   5.908  0.3325  0.3635 -0.0869
 4597SOL    HW125250   0.471   0.337   5.945 -1.7632 -0.6608 -0.9158
 4597SOL    HW225251   0.451   0.207   5.878  2.0186 -2.4216  1.2933
 4598SOL     OW25252   0.388   0.985   7.967 -0.6856  0.4044  0.2248
 4598SOL    HW125253   0.479   0.999   7.939 -0.5546  2.0543  1.4760
 4598SOL    HW225254   0.409   0.905   8.015 -1.8082  0.0364  0.1124
 4599SOL     OW25255   0.225   0.016   7.065 -0.0331  0.0145 -0.1505
 4599SOL    HW125256   0.198   0.042   6.977  1.1312 -0.9445 -0.7907
 4599SOL    HW225257   0.311   4.700   7.047  0.1186 -0.3074  1.2530
 4600SOL     OW25258   2.195   3.331   2.402  0.3172 -0.4668  0.3897
 4600SOL    HW125259   2.275   3.383   2.399 -1.6664  2.5567  0.2513
 4600SOL    HW225260   2.177   3.320   2.309  0.7122 -1.9249  0.4808
 4601SOL     OW25261   3.080   3.190   2.728  0.7422 -0.3272 -0.2084
 4601SOL    HW125262   3.070   3.270   2.780 -2.0654 -1.4652  0.9787
 4601SOL    HW225263   3.000   3.143   2.749  1.6830 -1.4216  0.9061
 4602SOL     OW25264   3.156   0.636   6.741 -0.3475  0.1249 -0.1568
 4602SOL    HW125265   3.197   0.567   6.793  0.1867 -0.0968 -0.8789
 4602SOL    HW225266   3.076   0.596   6.708 -0.7640  0.8342 -0.0200
 4603SOL     OW25267   3.166   1.946   2.360  0.3001 -0.1335  0.2786
 4603SOL    HW125268   3.096   1.892   2.323  0.7613 -0.3839 -0.2247
 4603SOL    HW225269   3.141   2.026   2.314  0.7630 -0.7886 -1.1075
 4604SOL     OW25270   2.069   4.004   8.721  0.0785 -0.5359  0.0840
 4604SOL    HW125271   2.039   3.917   8.748 -1.8675  0.2651  0.4914
 4604SOL    HW225272   1.989   4.057   8.722  1.6834  1.8263  0.8554
 4605SOL     OW25273   2.391   2.709   4.138  0.2205 -0.0118  0.0569
 4605SOL    HW125274   2.436   2.647   4.080 -0.5081 -2.0896  1.7058
 4605SOL    HW225275   2.393   2.655   4.217 -1.4113 -0.1449  0.0118
 4606SOL     OW25276   1.015   2.937   2.547  0.8106 -0.3964  0.2690
 4606SOL    HW125277   1.098   2.917   2.589  1.2110  1.9839  0.6234
 4606SOL    HW225278   1.055   3.020   2.519 -0.7210 -0.0099 -0.7591
 4607SOL     OW25279   0.591   1.523   7.949  0.4069 -0.4121 -0.1960
 4607SOL    HW125280   0.654   1.522   8.021 -2.2730  0.9286  2.1737
 4607SOL    HW225281   0.539   1.443   7.957 -3.0291  1.9790  1.1587
 4608SOL     OW25282   4.387   3.105  12.426  0.3900  0.3292  0.1162
 4608SOL    HW125283   4.328   3.156  12.481  0.8870 -0.2067  1.1362
 4608SOL    HW225284   4.429   3.059  12.499 -0.0548  0.3485  0.3820
 4609SOL     OW25285   0.028   2.861   4.497  0.3447  0.4895  0.2271
 4609SOL    HW125286   4.674   2.818   4.459  0.6172  0.7026 -0.5542
 4609SOL    HW225287   4.705   2.914   4.563  1.7760  0.4001  1.2716
 4610SOL     OW25288   2.708   3.023  11.091  0.5631  0.4359 -0.0423
 4610SOL    HW125289   2.694   2.930  11.111  0.2720  0.5903  0.4713
 4610SOL    HW225290   2.722   3.019  10.996  1.1884  1.5476 -0.0007
 4611SOL     OW25291   0.281   2.181   2.883  0.1095  0.2864  0.5870
 4611SOL    HW125292   0.192   2.145   2.890  0.5799 -1.3194 -1.6462
 4611SOL    HW225293   0.337   2.115   2.925  1.2082  0.7023 -0.2274
 4612SOL     OW25294   3.496   3.880   7.569 -0.4472  0.2512  0.1803
 4612SOL    HW125295   3.478   3.972   7.590 -1.2606 -0.1988  1.4130
 4612SOL    HW225296   3.440   3.863   7.493  0.0394  1.0616 -0.3638
 4613SOL     OW25297   3.031   0.653   1.501 -0.3410  0.1985 -0.8892
 4613SOL    HW125298   3.004   0.744   1.511 -0.9214 -0.0085 -0.5485
 4613SOL    HW225299   2.963   0.618   1.444 -0.1867 -2.5211  0.5940
 4614SOL     OW25300   1.584   4.492   2.762  0.7498 -0.0993  0.9390
 4614SOL    HW125301   1.561   4.414   2.813 -2.1030  1.6039  2.2114
 4614SOL    HW225302   1.554   4.463   2.675  0.0919  1.1637  0.7442
 4615SOL     OW25303   0.555   4.163   7.853  0.0363  0.5743  0.5351
 4615SOL    HW125304   0.597   4.151   7.938  0.9022  0.3554  0.0786
 4615SOL    HW225305   0.476   4.201   7.890  0.0960  1.9676 -0.7481
 4616SOL     OW25306   1.822   0.255   7.154 -0.2002  0.2675 -0.2995
 4616SOL    HW125307   1.833   0.230   7.246 -0.3667 -1.3463 -0.7299
 4616SOL    HW225308   1.761   0.329   7.161 -1.3198 -0.5919 -1.0806
 4617SOL     OW25309   0.715   0.593   8.342  0.0621  0.0993 -0.0600
 4617SOL    HW125310   0.768   0.519   8.372  0.0350  0.8229  1.8278
 4617SOL    HW225311   0.777   0.664   8.322  1.7446 -1.2111  0.4538
 4618SOL     OW25312   4.230   0.653   8.571  0.4669  0.3866 -0.2060
 4618SOL    HW125313   4.295   0.678   8.636 -0.0639 -2.5658  1.4482
 4618SOL    HW225314   4.180   0.595   8.628 -1.4192  2.6927  0.5111
 4619SOL     OW25315   4.118   1.116  16.878 -0.3164 -0.1641 -0.1874
 4619SOL    HW125316   4.111   1.040  16.935  0.8493  1.2360  1.8027
 4619SOL    HW225317   4.198   1.155  16.912 -0.5598 -0.3143  0.5423
 4620SOL     OW25318   2.064   4.533   4.743 -0.1194  0.0255 -0.0779
 4620SOL    HW125319   2.124   4.543   4.668 -0.5641  1.0643 -0.2947
 4620SOL    HW225320   2.001   4.604   4.738  0.5595  0.7650  2.0606
 4621SOL     OW25321   3.751   0.821   9.519 -0.3634 -0.2530 -0.1264
 4621SOL    HW125322   3.844   0.827   9.538 -0.8420 -1.9557  2.7525
 4621SOL    HW225323   3.740   0.755   9.588 -1.2538  0.1760  0.1501
 4622SOL     OW25324   2.830   3.673   7.679 -0.3945  0.4434  0.2061
 4622SOL    HW125325   2.863   3.587   7.705 -1.4314 -0.1407 -0.4135
 4622SOL    HW225326   2.896   3.739   7.701 -0.3049  0.6282 -0.6071
 4623SOL     OW25327   1.098   2.143  13.302  0.2054 -0.3407  0.1332
 4623SOL    HW125328   1.090   2.217  13.362 -2.6076 -1.0098  0.6136
 4623SOL    HW225329   1.116   2.068  13.359 -1.8484 -0.8109  0.1658
 4624SOL     OW25330   0.063   1.972   4.114  0.2368 -0.2191  0.3274
 4624SOL    HW125331   0.030   1.891   4.076  1.4066  0.0881 -1.3473
 4624SOL    HW225332   0.130   1.995   4.049 -0.4852  0.2054 -0.2666
 4625SOL     OW25333   0.547   2.660   7.225  0.3436  0.0235 -0.1268
 4625SOL    HW125334   0.626   2.667   7.170 -0.3094  0.9579 -0.9479
 4625SOL    HW225335   0.494   2.608   7.165 -0.4737  2.3534 -1.4359
 4626SOL     OW25336   2.822   0.120   3.690  0.2147 -0.4382 -0.1407
 4626SOL    HW125337   2.747   0.154   3.740  1.3297  2.1269 -0.2226
 4626SOL    HW225338   2.853   0.043   3.739  0.7134 -0.3741 -0.3625
 4627SOL     OW25339   4.647   0.367   6.664 -0.0067 -0.2719  0.4287
 4627SOL    HW125340   4.702   0.439   6.695 -2.0464  1.7518 -0.5865
 4627SOL    HW225341   4.701   0.327   6.596 -0.6735  2.4119 -1.6575
 4628SOL     OW25342   3.362   3.312   6.366 -0.3605  0.1638 -0.1184
 4628SOL    HW125343   3.340   3.222   6.342  0.7209  0.0007 -0.4803
 4628SOL    HW225344   3.322   3.317   6.453  0.2439  1.4403  0.0954
 4629SOL     OW25345   0.415   4.076   7.329 -0.6043 -0.2448  0.4464
 4629SOL    HW125346   0.325   4.106   7.322 -1.2492 -1.7428  2.1299
 4629SOL    HW225347   0.410   3.996   7.277 -0.0950  0.4422 -0.6512
 4630SOL     OW25348   4.285   0.775   8.832 -0.1773  0.0679  0.0877
 4630SOL    HW125349   4.282   0.685   8.865  2.5185 -0.4339 -1.0506
 4630SOL    HW225350   4.316   0.826   8.907  2.0922 -1.0530 -0.0708
 4631SOL     OW25351   3.634   1.822   2.940  0.0775 -0.0148 -0.2233
 4631SOL    HW125352   3.618   1.732   2.911 -0.5855 -0.3934  1.3324
 4631SOL    HW225353   3.729   1.819   2.928 -0.1146 -0.3473 -1.7106
 4632SOL     OW25354   0.862   1.393   1.897  0.4938 -0.1715  0.2352
 4632SOL    HW125355   0.804   1.398   1.822 -0.7946 -0.4545  1.2201
 4632SOL    HW225356   0.882   1.299   1.889  1.8936  0.1548 -0.1484
 4633SOL     OW25357   0.775   4.418   3.798 -0.1382  0.1760  0.0926
 4633SOL    HW125358   0.801   4.487   3.858 -3.5664  0.4635  1.1900
 4633SOL    HW225359   0.861   4.392   3.764  0.4179  0.8652  0.9829
 4634SOL     OW25360   2.647   0.698   5.200  0.0802  0.4311 -0.1457
 4634SOL    HW125361   2.605   0.744   5.273 -0.7210  0.7224 -0.7935
 4634SOL    HW225362   2.678   0.618   5.244  1.1921 -0.1428 -1.9826
 4635SOL     OW25363   4.053   2.619  13.804  0.1282 -0.0702  0.2189
 4635SOL    HW125364   4.015   2.660  13.881 -0.6349 -0.2248 -0.0729
 4635SOL    HW225365   4.016   2.675  13.736  2.2262  0.8490 -0.1855
 4636SOL     OW25366   1.748   2.724   9.105 -0.3159 -0.0590  0.2079
 4636SOL    HW125367   1.674   2.748   9.161 -0.0626 -1.6175  1.2203
 4636SOL    HW225368   1.781   2.643   9.145  2.0842  0.7828 -0.1197
 4637SOL     OW25369   2.963   1.771   4.421 -0.1127 -0.8781  0.0759
 4637SOL    HW125370   2.872   1.798   4.409  0.5648  0.3838 -2.1540
 4637SOL    HW225371   2.967   1.695   4.364 -0.2732  0.5310 -1.8185
 4638SOL     OW25372   1.538   0.550  12.230 -0.9419  0.2492 -0.2264
 4638SOL    HW125373   1.505   0.588  12.148 -0.3245 -0.9266 -1.0134
 4638SOL    HW225374   1.632   0.559  12.219 -0.8117  0.2889  0.9492
 4639SOL     OW25375   2.012   4.092   6.132 -0.0018 -0.1929 -0.1287
 4639SOL    HW125376   2.085   4.130   6.082  0.8488 -2.2157 -0.4214
 4639SOL    HW225377   2.065   4.031   6.183  1.0765 -0.3181 -1.3811
 4640SOL     OW25378   3.081   1.827  17.173 -0.4712 -0.2406  0.1138
 4640SOL    HW125379   3.139   1.804  17.246  2.1530 -0.4501 -2.0137
 4640SOL    HW225380   3.047   1.747  17.133 -1.4618 -1.0532  2.6211
 4641SOL     OW25381   1.752   2.277   4.650  0.2347  0.8049  0.0950
 4641SOL    HW125382   1.694   2.268   4.575 -0.2964 -2.9917  0.9866
 4641SOL    HW225383   1.734   2.366   4.681  0.7793  0.6072  0.9801
 4642SOL     OW25384   0.509   0.221  10.543  0.1577  0.1864  0.0379
 4642SOL    HW125385   0.536   0.131  10.563 -0.7763  0.0697  0.8116
 4642SOL    HW225386   0.433   0.224  10.602  0.0094  0.1940 -0.1533
 4643SOL     OW25387   0.711   1.060   6.437  0.3277 -0.2634 -0.2307
 4643SOL    HW125388   0.671   1.072   6.523 -2.0069 -0.6587 -1.2393
 4643SOL    HW225389   0.682   1.132   6.382 -1.1290  0.0795  0.9912
 4644SOL     OW25390   1.078   0.219   6.263  0.5991  0.7333  0.2290
 4644SOL    HW125391   1.076   0.304   6.218 -0.1247  1.5096  1.7356
 4644SOL    HW225392   1.116   0.239   6.348 -1.9798 -3.4483  2.3467
 4645SOL     OW25393   0.021   3.402   1.448 -0.4233  0.9074 -0.4087
 4645SOL    HW125394   4.656   3.405   1.488 -0.1598 -1.3759  0.3119
 4645SOL    HW225395   0.052   3.492   1.462 -2.9817  1.6003  0.9130
 4646SOL     OW25396   2.157   4.678  14.001 -0.3948  0.2260 -0.5364
 4646SOL    HW125397   2.204   4.662  14.083 -0.7550 -3.1858 -0.9685
 4646SOL    HW225398   2.224   4.706  13.939  0.3020 -1.1182 -0.4022
 4647SOL     OW25399   3.945   4.705   7.566  0.1928 -0.4280  0.3079
 4647SOL    HW125400   3.974   4.649   7.638  0.0381 -2.1862 -1.0109
 4647SOL    HW225401   3.858   4.666   7.559 -0.7743  1.7777  0.0134
 4648SOL     OW25402   2.756   0.093  14.057  0.9234 -0.0609  0.5966
 4648SOL    HW125403   2.667   0.087  14.093 -0.1191 -0.1336 -1.9923
 4648SOL    HW225404   2.741   0.185  14.036  1.2823 -0.5099 -1.5726
 4649SOL     OW25405   0.418   0.198   3.766 -0.3590 -0.3439  0.3351
 4649SOL    HW125406   0.418   0.203   3.671 -0.4649  0.0502  0.3531
 4649SOL    HW225407   0.326   0.215   3.785 -0.5370 -0.9822  0.0315
 4650SOL     OW25408   0.556   0.772   1.545  0.4770 -0.2295  0.1137
 4650SOL    HW125409   0.577   0.679   1.537  1.4790 -0.0377  0.4702
 4650SOL    HW225410   0.587   0.804   1.460  0.7802  0.9128  0.6549
 4651SOL     OW25411   1.843   1.428   5.461 -0.1351  0.6615 -0.5258
 4651SOL    HW125412   1.919   1.377   5.433 -0.0429 -0.1422  1.2384
 4651SOL    HW225413   1.830   1.475   5.379 -0.6779  0.7127 -0.4130
 4652SOL     OW25414   4.694   0.748   1.079 -0.1704  0.1621  0.2506
 4652SOL    HW125415   4.714   0.839   1.055  3.3593 -0.6380  0.1900
 4652SOL    HW225416   4.599   0.750   1.086 -0.0315 -0.3106  2.4530
 4653SOL     OW25417   0.992   3.931   3.039  0.0656 -0.1283 -0.5402
 4653SOL    HW125418   0.978   3.836   3.042  0.8297 -0.1590  2.2943
 4653SOL    HW225419   1.087   3.936   3.041 -0.0543  1.6889  0.5265
 4654SOL     OW25420   4.277   1.355  11.686 -0.2179 -0.4538 -0.0153
 4654SOL    HW125421   4.341   1.310  11.631 -0.3501 -1.2740  0.5080
 4654SOL    HW225422   4.203   1.374  11.629 -0.6034 -0.8033  0.3692
 4655SOL     OW25423   4.321   3.384  10.291  0.4131  0.0159 -0.2519
 4655SOL    HW125424   4.388   3.439  10.250  0.2826  0.0153 -0.4618
 4655SOL    HW225425   4.317   3.444  10.366  0.8286  1.6683 -1.5508
 4656SOL     OW25426   2.806   3.377   8.271 -0.3686 -0.0599 -0.7491
 4656SOL    HW125427   2.813   3.461   8.316 -0.9147 -0.9868  1.0418
 4656SOL    HW225428   2.873   3.338   8.327  0.6780  1.0257 -1.2435
 4657SOL     OW25429   1.514   2.204  17.072  0.4071  0.1830  0.6974
 4657SOL    HW125430   1.499   2.249  16.989  2.5993 -0.5945 -0.1436
 4657SOL    HW225431   1.545   2.119  17.040 -0.8191  0.8264 -2.1714
 4658SOL     OW25432   4.571   1.312   5.258  0.0829 -0.4502 -1.1162
 4658SOL    HW125433   4.566   1.368   5.335  1.7242 -1.1859 -0.4629
 4658SOL    HW225434   4.593   1.233   5.308  1.2989  0.8774  0.4228
 4659SOL     OW25435   2.639   3.163   8.144  0.3063 -0.6074 -0.1129
 4659SOL    HW125436   2.711   3.191   8.201 -0.5482  0.9743  0.1851
 4659SOL    HW225437   2.563   3.184   8.199  0.5370  0.6680 -0.2718
 4660SOL     OW25438   4.561   0.079  12.983  0.1544 -0.2201 -0.0629
 4660SOL    HW125439   4.601   0.166  12.984 -1.3241  0.4237  2.0565
 4660SOL    HW225440   4.486   0.085  12.924  0.2072 -0.7845 -0.1901
 4661SOL     OW25441   2.375   2.792   3.362 -0.5624  0.2597 -0.8184
 4661SOL    HW125442   2.350   2.869   3.312  1.1887  1.8426  0.7781
 4661SOL    HW225443   2.331   2.717   3.321 -1.4472  0.2011  0.2386
 4662SOL     OW25444   3.288   1.935   6.977  0.2773  0.3754 -0.4392
 4662SOL    HW125445   3.231   1.958   7.050 -0.1521 -0.9545 -0.3556
 4662SOL    HW225446   3.234   1.961   6.902  1.4427  2.2667 -0.6204
 4663SOL     OW25447   0.438   2.566  14.106  0.1091  0.3701  0.2939
 4663SOL    HW125448   0.396   2.490  14.066 -0.8104  1.0741 -0.0738
 4663SOL    HW225449   0.458   2.622  14.031  0.5459  0.4007  0.4299
 4664SOL     OW25450   1.620   2.788   1.108 -0.4558  0.5209 -0.4529
 4664SOL    HW125451   1.642   2.808   1.017  0.5665  0.1923 -0.2877
 4664SOL    HW225452   1.650   2.697   1.111  1.9115  1.2400 -1.6470
 4665SOL     OW25453   2.830   4.017   7.196 -0.2443 -0.5669 -0.1743
 4665SOL    HW125454   2.925   4.011   7.199 -0.1748  0.5726 -0.0547
 4665SOL    HW225455   2.817   3.926   7.221  0.6785 -0.9714 -1.1816
 4666SOL     OW25456   4.085   1.539   4.497  0.1100  0.6083  0.3280
 4666SOL    HW125457   4.033   1.578   4.427 -2.9823 -1.1233  1.6593
 4666SOL    HW225458   4.143   1.480   4.450 -0.8081  0.8574 -1.0945
 4667SOL     OW25459   4.124   1.204  13.467  0.4066  0.0209 -0.1060
 4667SOL    HW125460   4.167   1.149  13.401  0.4481  0.3457 -0.3526
 4667SOL    HW225461   4.138   1.146  13.542  1.2694  0.8068  0.3287
 4668SOL     OW25462   0.204   1.225   2.740  0.0413 -0.3519  0.4910
 4668SOL    HW125463   0.119   1.182   2.729  0.3457 -0.3436 -1.8796
 4668SOL    HW225464   0.201   1.280   2.662  0.8016  0.4525  1.0291
 4669SOL     OW25465   1.163   2.044   6.441  0.1141 -0.1863  0.4721
 4669SOL    HW125466   1.146   2.064   6.349  1.5162  1.7047  0.6335
 4669SOL    HW225467   1.086   2.079   6.486  1.1966  0.1856  2.0039
 4670SOL     OW25468   0.384   4.039  13.923  0.1918  0.0446 -0.3640
 4670SOL    HW125469   0.446   4.107  13.949  2.9939 -1.7979 -2.3304
 4670SOL    HW225470   0.309   4.067  13.976  0.4971 -1.6893  0.9650
 4671SOL     OW25471   4.304   0.979   9.036  0.7349 -0.1329 -0.1455
 4671SOL    HW125472   4.252   0.951   9.111 -0.4530  0.2560 -0.8241
 4671SOL    HW225473   4.390   0.983   9.078  0.5573 -2.3924  0.4281
 4672SOL     OW25474   2.148   0.981   9.592 -0.6772 -0.8761  0.0945
 4672SOL    HW125475   2.109   0.900   9.557 -0.3366 -0.8603 -0.3271
 4672SOL    HW225476   2.094   1.007   9.666 -2.4156  0.6219 -1.6845
 4673SOL     OW25477   1.180   1.682   9.042 -0.3182  0.8001  0.1706
 4673SOL    HW125478   1.096   1.723   9.028 -0.1652  1.0295 -0.0683
 4673SOL    HW225479   1.247   1.750   9.037  0.2013  0.1797 -1.2562
 4674SOL     OW25480   3.219   2.533  13.735  0.2917 -0.1139 -0.2088
 4674SOL    HW125481   3.255   2.578  13.811  2.3716 -1.1558 -0.5960
 4674SOL    HW225482   3.266   2.573  13.663 -0.1439  0.0003 -0.4321
 4675SOL     OW25483   2.084   1.169   0.847  0.4684 -0.5816  0.7259
 4675SOL    HW125484   2.067   1.198   0.758  3.6533 -2.1575 -0.3815
 4675SOL    HW225485   2.142   1.096   0.828 -0.1618 -0.4950 -1.4554
 4676SOL     OW25486   0.797   1.077  14.875 -0.3441 -0.6499 -0.3810
 4676SOL    HW125487   0.721   1.135  14.867 -0.3396 -0.4397  1.2736
 4676SOL    HW225488   0.846   1.128  14.938 -0.3583  0.9504 -1.6561
 4677SOL     OW25489   3.853   2.772  10.878 -0.3161 -0.0193 -1.1254
 4677SOL    HW125490   3.769   2.816  10.884 -1.3218 -2.0744 -0.3071
 4677SOL    HW225491   3.890   2.833  10.814  0.3957  2.4411  1.6399
 4678SOL     OW25492   2.349   2.960   7.502  0.5738 -0.2914 -0.1025
 4678SOL    HW125493   2.438   2.970   7.535 -0.2217 -0.9227  2.2445
 4678SOL    HW225494   2.363   2.885   7.444 -0.2881 -1.1961  0.8500
 4679SOL     OW25495   2.546   4.428   1.288  0.4655 -0.7018  0.4170
 4679SOL    HW125496   2.637   4.399   1.286  1.0587  1.1432  1.1089
 4679SOL    HW225497   2.537   4.484   1.211 -1.2438 -0.7779  0.5426
 4680SOL     OW25498   0.777   1.270  16.315 -0.3054  0.7025 -0.4846
 4680SOL    HW125499   0.713   1.339  16.329 -1.3748 -0.5601  0.8808
 4680SOL    HW225500   0.859   1.316  16.334  0.2422  0.1187 -1.4244
 4681SOL     OW25501   2.922   1.871   3.030  0.0970  0.4087  0.0180
 4681SOL    HW125502   3.015   1.872   3.006 -0.0455  0.9055 -0.5058
 4681SOL    HW225503   2.882   1.930   2.966  0.8987  0.8163 -0.1031
 4682SOL     OW25504   0.093   3.990  10.161  0.6504  0.3840  0.0667
 4682SOL    HW125505   0.131   4.072  10.193  0.8479  0.9731 -1.6799
 4682SOL    HW225506   0.005   3.998  10.197 -0.2869  0.0183 -2.1589
 4683SOL     OW25507   2.365   0.619   8.473 -0.6420 -0.0098 -0.3961
 4683SOL    HW125508   2.436   0.591   8.531 -0.2525  0.0558 -0.8377
 4683SOL    HW225509   2.291   0.629   8.533 -0.9499 -2.1762 -0.4204
 4684SOL     OW25510   0.224   0.428   0.838  0.3017 -0.1916 -0.1113
 4684SOL    HW125511   0.296   0.479   0.801 -0.7972  1.8721  0.6099
 4684SOL    HW225512   0.153   0.487   0.862  1.5124  1.8891 -1.6339
 4685SOL     OW25513   0.713   3.202   2.617  0.2797  0.1462 -0.3364
 4685SOL    HW125514   0.718   3.119   2.665 -2.2019 -0.6629 -1.5111
 4685SOL    HW225515   0.679   3.162   2.537  0.4741 -0.0816 -0.3048
 4686SOL     OW25516   4.647   4.195  17.028 -0.0426 -0.4494  0.6903
 4686SOL    HW125517   4.640   4.192  17.124  3.8657  0.1861  0.9876
 4686SOL    HW225518   4.656   4.102  17.010  3.7778 -0.4017  2.2037
 4687SOL     OW25519   3.532   4.618   5.928  0.4189  0.6772  0.3551
 4687SOL    HW125520   3.505   4.592   5.840 -1.2722 -0.4275  1.2018
 4687SOL    HW225521   3.506   4.710   5.933  1.6219  0.8755  3.0298
 4688SOL     OW25522   3.976   3.118  14.876 -0.1387 -0.7454 -0.2845
 4688SOL    HW125523   3.986   3.040  14.930  0.0648 -1.9394 -2.0379
 4688SOL    HW225524   4.066   3.148  14.863 -1.0025  2.5961  1.5544
 4689SOL     OW25525   0.335   3.667   0.457 -0.3175 -0.9177 -0.3077
 4689SOL    HW125526   0.334   3.627   0.544  0.8081  1.2944  0.7281
 4689SOL    HW225527   0.391   3.611   0.404 -2.2001 -0.6541 -2.5638
 4690SOL     OW25528   3.119   1.761   6.221  0.0266 -0.3677  0.0734
 4690SOL    HW125529   3.044   1.728   6.269 -0.1601 -0.6926 -0.4399
 4690SOL    HW225530   3.174   1.786   6.295  0.1386 -1.7750  0.4606
 4691SOL     OW25531   0.162   0.599   7.492 -0.0100  0.0303 -0.4695
 4691SOL    HW125532   0.105   0.633   7.561  0.3211  0.8307 -0.6044
 4691SOL    HW225533   0.110   0.524   7.462  0.3011  1.0001 -3.3528
 4692SOL     OW25534   1.437   1.080   8.184  0.1552 -0.0321  0.0439
 4692SOL    HW125535   1.426   1.142   8.256 -1.3352 -3.1571  2.4900
 4692SOL    HW225536   1.402   1.140   8.117 -0.4597 -0.5492 -0.0988
 4693SOL     OW25537   4.303   3.421   5.480  0.3804 -0.5142 -0.4057
 4693SOL    HW125538   4.253   3.408   5.561  0.1853  0.6611 -0.3376
 4693SOL    HW225539   4.393   3.405   5.505  0.2029 -2.7062 -1.1477
 4694SOL     OW25540   1.241   2.727   2.368 -0.0334  0.1067 -0.5323
 4694SOL    HW125541   1.318   2.676   2.393  0.7686  0.7061 -1.7911
 4694SOL    HW225542   1.243   2.800   2.431  2.5352 -1.3650  1.0997
 4695SOL     OW25543   2.365   0.872  12.468  0.3127 -0.6349 -0.5036
 4695SOL    HW125544   2.454   0.847  12.494 -0.4921 -1.9820  0.8785
 4695SOL    HW225545   2.312   0.817  12.524  1.0178 -1.5440 -0.7154
 4696SOL     OW25546   3.759   2.670   9.902  0.1490  0.6346  0.1605
 4696SOL    HW125547   3.815   2.625   9.839  0.8392  0.8057  0.6613
 4696SOL    HW225548   3.724   2.745   9.854  0.1946 -0.5092 -1.6686
 4697SOL     OW25549   2.259   2.492  14.468 -0.1412  0.1137 -0.3073
 4697SOL    HW125550   2.257   2.559  14.536  0.8398 -0.4248  0.2531
 4697SOL    HW225551   2.198   2.434  14.514  1.7397  1.3126  3.7535
 4698SOL     OW25552   4.014   3.569   9.675 -0.2653  0.0005  0.2962
 4698SOL    HW125553   4.053   3.541   9.758 -0.6547 -0.8617  0.1837
 4698SOL    HW225554   3.946   3.626   9.711 -0.6958 -1.0479  1.1412
 4699SOL     OW25555   2.334   3.699   4.406  0.0805  0.5140  0.3032
 4699SOL    HW125556   2.272   3.637   4.369  0.2522  1.0559 -0.8791
 4699SOL    HW225557   2.407   3.681   4.347  0.2093  1.4837  0.1656
 4700SOL     OW25558   4.660   0.611   2.791 -0.0464  0.0356  0.2474
 4700SOL    HW125559   4.632   0.700   2.814  0.8151  0.5857 -0.8806
 4700SOL    HW225560   4.652   0.612   2.696  1.0069  1.4202  0.1659
 4701SOL     OW25561   2.930   4.371   5.404 -0.5387 -0.4144 -0.5131
 4701SOL    HW125562   2.964   4.332   5.323 -0.4179  0.0615 -0.6932
 4701SOL    HW225563   2.983   4.322   5.467  3.2952  2.9642 -1.1648
 4702SOL     OW25564   0.205   3.951  12.378  0.8707 -0.6488  0.4323
 4702SOL    HW125565   0.194   3.886  12.448  1.5639 -0.3287  0.8344
 4702SOL    HW225566   0.116   3.982  12.360  2.0102  1.9509 -0.7626
 4703SOL     OW25567   1.621   0.743   3.585  0.0476 -0.3235  0.1349
 4703SOL    HW125568   1.711   0.733   3.555 -0.0124  0.0353 -0.1547
 4703SOL    HW225569   1.582   0.670   3.536 -0.4264 -0.2842  0.4540
 4704SOL     OW25570   2.657   1.808   6.652  0.0138 -0.0840  0.5569
 4704SOL    HW125571   2.611   1.725   6.640 -0.7295  0.4445 -0.3532
 4704SOL    HW225572   2.684   1.807   6.743  0.2703 -3.6320  0.4308
 4705SOL     OW25573   4.472   4.651   7.397 -0.1495  0.0478 -0.0091
 4705SOL    HW125574   4.509   4.613   7.318  1.0751  1.0456  0.0754
 4705SOL    HW225575   4.507   4.604   7.472 -1.4761  1.7085  1.6499
 4706SOL     OW25576   0.070   4.150  16.697  0.2238  0.3473  0.3664
 4706SOL    HW125577   0.143   4.094  16.674 -1.0867 -1.3336  0.2924
 4706SOL    HW225578   0.054   4.197  16.615 -0.1974  1.5550  1.1335
 4707SOL     OW25579   0.855   2.425   7.400 -0.6599  0.8937 -0.1391
 4707SOL    HW125580   0.851   2.374   7.481  1.8757 -0.0965 -0.6331
 4707SOL    HW225581   0.766   2.458   7.391 -0.9732  0.3619  1.0395
 4708SOL     OW25582   3.755   2.927   7.436  0.1898 -0.4805  0.1641
 4708SOL    HW125583   3.710   2.934   7.352 -2.2645 -1.9088  1.3445
 4708SOL    HW225584   3.681   2.913   7.497  0.6058  0.3516  0.8665
 4709SOL     OW25585   2.207   3.874   7.409  0.0936  0.8081 -0.1227
 4709SOL    HW125586   2.220   3.829   7.493 -0.1467  1.9981  0.5542
 4709SOL    HW225587   2.111   3.873   7.402  0.3064 -3.2114 -2.6153
 4710SOL     OW25588   1.637   1.922  16.561  0.0389 -0.5060  0.6183
 4710SOL    HW125589   1.672   1.909  16.473 -2.1027  0.2214 -0.3471
 4710SOL    HW225590   1.601   2.011  16.556 -0.3196 -0.7398 -0.8994
 4711SOL     OW25591   0.594   4.098  11.624 -0.1540 -0.3370  0.1418
 4711SOL    HW125592   0.593   4.193  11.611 -2.5794 -0.3334  0.3078
 4711SOL    HW225593   0.683   4.071  11.646 -0.7301 -0.8830  1.7874
 4712SOL     OW25594   0.815   1.929   5.833  0.3225  0.5875  0.7330
 4712SOL    HW125595   0.774   1.967   5.910 -0.1440 -0.4390  0.9887
 4712SOL    HW225596   0.897   1.884   5.857  0.1812  0.3531  0.7793
 4713SOL     OW25597   3.388   1.858  10.605  0.7416 -0.5641  0.0749
 4713SOL    HW125598   3.370   1.768  10.579 -1.4277 -0.4766  1.2220
 4713SOL    HW225599   3.477   1.854  10.640  1.6973  1.1642 -2.1135
 4714SOL     OW25600   0.777   1.605   2.431  0.3390  0.2500  0.3343
 4714SOL    HW125601   0.687   1.572   2.426  0.6938 -0.9132  1.5282
 4714SOL    HW225602   0.827   1.560   2.364  0.9822  1.0716  0.2626
 4715SOL     OW25603   3.052   0.691  11.747  0.0595  0.0356 -0.1762
 4715SOL    HW125604   3.119   0.750  11.712 -1.9918  1.9524 -0.8983
 4715SOL    HW225605   3.015   0.751  11.813 -0.2061 -2.5088  1.9791
 4716SOL     OW25606   2.774   1.110   8.413  0.2808 -0.3351  0.1965
 4716SOL    HW125607   2.707   1.168   8.377  0.1603 -1.2730 -1.1067
 4716SOL    HW225608   2.769   1.133   8.505  2.7920 -0.8201  0.4633
 4717SOL     OW25609   1.103   3.639   7.692 -0.0914 -0.2866 -0.5478
 4717SOL    HW125610   1.184   3.634   7.743  0.1782 -3.0745 -1.2557
 4717SOL    HW225611   1.145   3.676   7.614  0.8485  1.8277  0.9750
 4718SOL     OW25612   1.403   0.475   2.619 -0.2638  0.2386 -0.0834
 4718SOL    HW125613   1.468   0.523   2.671 -0.1487 -1.8511  1.6834
 4718SOL    HW225614   1.389   0.390   2.660 -1.2591  1.0191  1.1985
 4719SOL     OW25615   3.230   2.046   2.038 -0.0412  0.1210 -0.2442
 4719SOL    HW125616   3.191   2.093   1.963 -0.0830 -1.4799 -1.2243
 4719SOL    HW225617   3.194   2.103   2.105  1.5313 -1.5802  2.0219
 4720SOL     OW25618   2.342   0.899   7.829 -0.1268 -0.3107 -0.0872
 4720SOL    HW125619   2.422   0.890   7.777 -0.9198  2.7165 -1.8659
 4720SOL    HW225620   2.344   0.819   7.881  2.1280  1.6737  2.8920
 4721SOL     OW25621   3.231   3.158  17.106  0.2619 -0.1079 -0.7937
 4721SOL    HW125622   3.217   3.167  17.012  4.8350 -0.7627 -1.5546
 4721SOL    HW225623   3.227   3.250  17.132 -1.3710 -0.1497 -0.9280
 4722SOL     OW25624   3.634   0.470  12.412  0.2769 -0.1227 -0.4413
 4722SOL    HW125625   3.592   0.466  12.498  0.2842  1.7630 -0.3594
 4722SOL    HW225626   3.594   0.540  12.360 -0.0736 -0.8664 -1.1744
 4723SOL     OW25627   3.517   2.590   6.152  0.1806  0.1827  0.0202
 4723SOL    HW125628   3.480   2.526   6.212 -0.9472  0.7333 -0.0712
 4723SOL    HW225629   3.449   2.606   6.087 -0.0654 -0.9093  0.0066
 4724SOL     OW25630   0.735   0.548   7.077 -0.0429 -0.1932  0.1552
 4724SOL    HW125631   0.785   0.610   7.024 -0.9187 -1.7692 -2.5033
 4724SOL    HW225632   0.767   0.575   7.164 -1.8105  1.8321  0.1838
 4725SOL     OW25633   0.557   4.113   4.387 -0.2779 -0.3712  0.2851
 4725SOL    HW125634   0.528   4.181   4.326 -4.1397 -0.6981  1.7391
 4725SOL    HW225635   0.648   4.137   4.405 -1.6104  3.0047  2.5663
 4726SOL     OW25636   3.422   3.827  12.429  1.0010  0.2085  0.0254
 4726SOL    HW125637   3.503   3.876  12.418  0.7992  1.0337  2.1208
 4726SOL    HW225638   3.366   3.902  12.446  1.3030  0.2579  0.8289
 4727SOL     OW25639   3.563   4.269   4.011  0.3229 -0.0051 -0.4146
 4727SOL    HW125640   3.626   4.204   3.980  1.8801  0.6530  1.3636
 4727SOL    HW225641   3.556   4.320   3.930  1.5153  1.4752  0.3943
 4728SOL     OW25642   0.300   4.406   8.755  0.7370 -0.2481 -0.5494
 4728SOL    HW125643   0.389   4.419   8.723  0.2730  2.1440 -0.8410
 4728SOL    HW225644   0.288   4.481   8.814 -1.1133 -0.8708 -0.1146
 4729SOL     OW25645   4.409   2.965   8.616 -0.4093  0.5415  0.2806
 4729SOL    HW125646   4.403   2.973   8.521  0.0999  1.3022  0.3099
 4729SOL    HW225647   4.478   2.901   8.631  0.7651  2.1003  1.6436
 4730SOL     OW25648   2.329   1.716   0.404 -0.6178  0.1802 -0.9209
 4730SOL    HW125649   2.235   1.710   0.421 -0.4088  0.5556  0.3331
 4730SOL    HW225650   2.364   1.760   0.481  1.0604  1.6901 -2.5523
 4731SOL     OW25651   3.941   3.420  11.785  0.2203 -0.2714 -0.7772
 4731SOL    HW125652   3.928   3.488  11.851 -1.7975 -0.1349 -1.3090
 4731SOL    HW225653   4.036   3.412  11.775  0.2719 -1.6683  0.7418
 4732SOL     OW25654   4.048   0.610   9.678 -0.3412  0.3660  0.1440
 4732SOL    HW125655   4.112   0.546   9.646  0.4886  1.5184 -0.4671
 4732SOL    HW225656   4.074   0.628   9.769 -2.4795  1.0339  0.6382
 4733SOL     OW25657   1.355   0.297   1.119  0.1084  0.3392  0.4038
 4733SOL    HW125658   1.342   0.352   1.196  0.5661  0.9162  0.0656
 4733SOL    HW225659   1.277   0.242   1.113  1.7128 -2.1089  2.0821
 4734SOL     OW25660   1.943   4.297   5.195  0.5463  0.2667  0.2135
 4734SOL    HW125661   1.921   4.225   5.255 -0.7829 -0.3488 -1.0234
 4734SOL    HW225662   1.858   4.321   5.157 -0.1274 -0.2302  1.3996
 4735SOL     OW25663   2.741   0.816   1.652 -0.0980 -0.1229  0.2282
 4735SOL    HW125664   2.679   0.776   1.713 -0.4844  1.7403  1.0722
 4735SOL    HW225665   2.787   0.884   1.702 -0.3993 -0.7397  1.3535
 4736SOL     OW25666   3.600   0.107   2.717  0.5055  0.3460 -0.7541
 4736SOL    HW125667   3.534   0.075   2.656  0.2649  1.4477 -1.0722
 4736SOL    HW225668   3.680   0.105   2.665  2.1186 -1.1161  1.7996
 4737SOL     OW25669   1.403   4.419   6.710  0.2895 -0.0053 -0.0649
 4737SOL    HW125670   1.412   4.330   6.674  1.2927 -0.4704  1.2984
 4737SOL    HW225671   1.318   4.406   6.752  0.7661 -2.1616  0.2676
 4738SOL     OW25672   4.413   1.549   3.816  0.1256 -0.5767  0.2100
 4738SOL    HW125673   4.479   1.482   3.800  0.7925  0.0766  0.2167
 4738SOL    HW225674   4.446   1.621   3.762 -0.2627  0.5852  1.5179
 4739SOL     OW25675   0.179   4.595   4.332  0.1115 -0.1627 -0.1465
 4739SOL    HW125676   0.177   4.500   4.317 -0.1893  0.3853 -3.4283
 4739SOL    HW225677   0.270   4.616   4.313  0.1549  3.0593  3.6120
 4740SOL     OW25678   4.517   2.808  12.415  1.0318 -0.4270  0.5337
 4740SOL    HW125679   4.543   2.868  12.485  1.2583  0.3783 -0.2289
 4740SOL    HW225680   4.598   2.798  12.366  1.1211 -2.2756  1.0682
 4741SOL     OW25681   2.042   1.540  10.156 -0.0090  0.9336 -0.1812
 4741SOL    HW125682   1.996   1.514  10.076  0.2939  0.1081 -0.0889
 4741SOL    HW225683   2.073   1.626  10.127 -1.5224  1.6762  0.4007
 4742SOL     OW25684   3.978   2.128   4.212  0.0497  0.2064 -0.0040
 4742SOL    HW125685   4.011   2.186   4.144 -1.2107  1.6113  0.5796
 4742SOL    HW225686   4.051   2.067   4.216 -0.3431 -0.2471  0.2751
 4743SOL     OW25687   3.549   1.190  11.371 -0.2710  0.0864 -0.0178
 4743SOL    HW125688   3.460   1.185  11.337 -0.5395  2.3537  0.3456
 4743SOL    HW225689   3.587   1.242  11.300 -1.9157  0.6821 -0.4643
 4744SOL     OW25690   4.096   0.692   0.708  0.2164  0.2851 -0.2532
 4744SOL    HW125691   4.027   0.660   0.767  0.1832 -0.2545 -0.5824
 4744SOL    HW225692   4.104   0.608   0.663 -1.0144 -0.2551  0.5275
 4745SOL     OW25693   1.127   1.696   8.172  0.5502  0.4998  0.4146
 4745SOL    HW125694   1.185   1.759   8.130  1.0469 -0.4045 -0.2581
 4745SOL    HW225695   1.081   1.646   8.105  1.0800 -0.8487  1.0473
 4746SOL     OW25696   0.632   2.324  17.326  0.4587 -0.1471  0.7780
 4746SOL    HW125697   0.548   2.279  17.335  1.8322 -2.7123  0.7910
 4746SOL    HW225698   0.613   2.356  17.237 -1.9358 -0.9183  0.9964
 4747SOL     OW25699   4.432   0.717   1.885 -0.4830  0.2387 -0.0349
 4747SOL    HW125700   4.501   0.774   1.850  1.2097 -1.6013  0.3043
 4747SOL    HW225701   4.472   0.641   1.843  1.2160  1.8644 -1.3706
 4748SOL     OW25702   3.327   2.408  12.573  0.0861 -0.3407 -0.0191
 4748SOL    HW125703   3.336   2.482  12.513  0.6421 -1.3264 -1.1737
 4748SOL    HW225704   3.387   2.346  12.531 -0.2782 -1.2713  0.8219
 4749SOL     OW25705   1.139   2.481   8.191 -0.2007 -0.1624  0.1020
 4749SOL    HW125706   1.081   2.425   8.139  1.1618 -0.8488 -0.6796
 4749SOL    HW225707   1.171   2.407   8.243 -1.0739  1.1332  2.4718
 4750SOL     OW25708   0.112   3.605   7.392  0.1457  0.2544 -0.5913
 4750SOL    HW125709   0.116   3.700   7.406  1.1401  0.0236  0.6270
 4750SOL    HW225710   0.156   3.575   7.471  2.8130 -0.4702 -2.3768
 4751SOL     OW25711   0.997   4.033   6.412 -0.3253  0.2832 -0.6419
 4751SOL    HW125712   1.057   3.986   6.355 -0.8857 -1.1279 -0.0921
 4751SOL    HW225713   0.927   3.968   6.421  0.6559 -0.7658 -0.6010
 4752SOL     OW25714   3.709   1.310   6.255  0.5191 -0.7435  0.2108
 4752SOL    HW125715   3.627   1.275   6.220 -0.1376 -0.0826  1.0767
 4752SOL    HW225716   3.691   1.402   6.276 -0.7086 -1.5723  2.8509
 4753SOL     OW25717   3.210   3.152   1.372 -0.4621 -0.1528 -0.2886
 4753SOL    HW125718   3.187   3.144   1.465  2.3722 -0.1235  0.4082
 4753SOL    HW225719   3.261   3.232   1.367  0.9324 -1.1369 -1.8956
 4754SOL     OW25720   2.903   2.824   4.796 -0.0125 -0.1898 -0.4038
 4754SOL    HW125721   2.817   2.863   4.806 -0.2249 -0.7296 -0.1668
 4754SOL    HW225722   2.884   2.755   4.732  0.5168  0.8704 -1.7127
 4755SOL     OW25723   3.961   1.005   8.289 -0.1239 -0.4625 -0.3225
 4755SOL    HW125724   4.004   0.927   8.324 -0.7613 -0.6551  0.0342
 4755SOL    HW225725   4.025   1.063   8.248  1.6346 -1.8968  0.3863
 4756SOL     OW25726   3.777   2.198  14.179 -0.1985  0.3528  1.0219
 4756SOL    HW125727   3.747   2.117  14.220  0.7147 -0.0591  0.8819
 4756SOL    HW225728   3.850   2.215  14.239 -1.6281  1.0115  2.5756
 4757SOL     OW25729   2.116   3.016   8.095 -0.0430 -0.5069 -0.7610
 4757SOL    HW125730   2.058   3.053   8.028 -0.2539  1.5626  0.5454
 4757SOL    HW225731   2.052   2.994   8.162 -0.2269  1.9135 -0.1478
 4758SOL     OW25732   3.735   1.645   3.777  0.5965 -0.2773  0.3141
 4758SOL    HW125733   3.828   1.663   3.790  0.5197  1.2639 -1.1831
 4758SOL    HW225734   3.697   1.729   3.750  0.4319 -0.2323  0.6948
 4759SOL     OW25735   1.601   1.394   7.204 -1.2182  0.1843 -0.4137
 4759SOL    HW125736   1.627   1.391   7.112  0.6984  1.7688  0.0557
 4759SOL    HW225737   1.521   1.343   7.207  0.5731 -2.4521  3.3603
 4760SOL     OW25738   3.548   2.806  12.116 -0.6395  0.7450 -0.1721
 4760SOL    HW125739   3.630   2.853  12.131  0.0162 -0.8881  1.4709
 4760SOL    HW225740   3.488   2.851  12.175 -0.0403  2.3544 -0.7934
 4761SOL     OW25741   0.538   2.756   5.118  0.3236 -0.1644 -0.5234
 4761SOL    HW125742   0.632   2.764   5.134 -0.0355 -1.4331  2.2526
 4761SOL    HW225743   0.521   2.664   5.137 -0.4603  0.4639  1.8288
 4762SOL     OW25744   1.876   2.259  15.988 -0.3931  0.1620  0.1161
 4762SOL    HW125745   1.860   2.180  15.935  0.8367  0.6806 -1.0189
 4762SOL    HW225746   1.967   2.246  16.015  0.5577  0.5810 -2.8950
 4763SOL     OW25747   3.525   1.809   6.210  0.3604  0.3160  0.0585
 4763SOL    HW125748   3.511   1.810   6.305 -2.1408  0.0507 -0.3306
 4763SOL    HW225749   3.582   1.885   6.202  1.4286 -0.4531  0.2027
 4764SOL     OW25750   0.128   1.185  17.670  0.2269 -0.0289 -0.4732
 4764SOL    HW125751   0.191   1.231  17.615 -0.6707  0.4894 -1.0620
 4764SOL    HW225752   0.154   1.206   0.068 -0.6656  1.1506 -0.5047
 4765SOL     OW25753   4.445   2.225   3.491 -0.0968 -0.4306  0.0457
 4765SOL    HW125754   4.355   2.194   3.492 -1.2054  2.7825  0.8485
 4765SOL    HW225755   4.435   2.320   3.496 -0.8516 -0.6134  2.0973
 4766SOL     OW25756   1.343   0.913  14.710 -0.5298  0.1519  0.0410
 4766SOL    HW125757   1.406   0.976  14.674  2.0750 -2.8430 -0.6485
 4766SOL    HW225758   1.298   0.880  14.632  0.5273  0.8876 -0.8865
 4767SOL     OW25759   3.395   0.825   4.114  0.3577  0.0433 -0.4599
 4767SOL    HW125760   3.408   0.735   4.142  0.9436 -0.1495 -1.3467
 4767SOL    HW225761   3.442   0.881   4.176  0.4179 -0.4081 -0.1052
 4768SOL     OW25762   0.357   3.180   7.795  0.5450 -0.4150 -0.1368
 4768SOL    HW125763   0.427   3.127   7.831 -1.1235 -2.3779  0.2372
 4768SOL    HW225764   0.386   3.192   7.705  2.6166 -0.7872  0.4975
 4769SOL     OW25765   0.809   2.793   5.151  0.0205 -0.2547  0.1761
 4769SOL    HW125766   0.826   2.860   5.216  2.3352  0.5226 -1.2478
 4769SOL    HW225767   0.886   2.737   5.161 -0.7929 -0.7292  3.5503
 4770SOL     OW25768   4.569   0.195   5.424  0.1276  0.0618  0.3892
 4770SOL    HW125769   4.653   0.149   5.430 -0.2899 -1.1454 -3.0120
 4770SOL    HW225770   4.524   0.111   5.422  0.0692  0.0597  2.1401
 4771SOL     OW25771   4.102   0.890   4.573 -0.2079  0.6564 -0.1147
 4771SOL    HW125772   4.133   0.816   4.520 -1.6810 -1.1237  1.4943
 4771SOL    HW225773   4.105   0.957   4.505  2.8848  1.8087  1.1596
 4772SOL     OW25774   3.624   3.744   7.771  0.0702 -0.4213  0.3069
 4772SOL    HW125775   3.626   3.802   7.847  3.5246  0.3403 -0.3486
 4772SOL    HW225776   3.591   3.794   7.696 -0.4276 -1.5035 -0.1961
 4773SOL     OW25777   3.195   4.093   2.355  0.1103 -0.2564  0.0502
 4773SOL    HW125778   3.194   4.016   2.412 -1.9895  0.9645  1.6609
 4773SOL    HW225779   3.161   4.155   2.420  1.2408  1.4202 -0.9596
 4774SOL     OW25780   4.340   4.360   9.735  0.1370 -0.6553  0.1382
 4774SOL    HW125781   4.325   4.287   9.795 -0.5202 -2.4221 -2.1845
 4774SOL    HW225782   4.248   4.383   9.719  0.5933  1.6107  0.7642
 4775SOL     OW25783   0.432   1.536  15.646  0.4603  0.1306  0.8494
 4775SOL    HW125784   0.422   1.625  15.681  2.3226  0.5816  0.2246
 4775SOL    HW225785   0.372   1.492  15.706  0.0033 -0.1328  0.2085
 4776SOL     OW25786   3.670   1.114   3.429 -0.1279 -0.1975  0.5274
 4776SOL    HW125787   3.603   1.159   3.378 -2.1530 -0.5770  2.8383
 4776SOL    HW225788   3.702   1.053   3.363 -0.3979  0.2218  0.0054
 4777SOL     OW25789   3.649   4.572   7.176 -0.5840  0.6218 -0.3186
 4777SOL    HW125790   3.626   4.548   7.086  1.8935 -0.4488 -0.6624
 4777SOL    HW225791   3.743   4.553   7.179 -1.1046 -1.8942 -0.1587
 4778SOL     OW25792   2.955   1.444   4.950  0.2077 -0.0648  0.1980
 4778SOL    HW125793   2.880   1.387   4.930 -1.1013  2.0506 -0.9727
 4778SOL    HW225794   3.032   1.390   4.934 -0.2916 -1.4046  2.3872
 4779SOL     OW25795   3.342   4.091   5.219 -0.2486  0.3251  0.1442
 4779SOL    HW125796   3.292   4.080   5.138  0.6377 -0.7101 -0.2592
 4779SOL    HW225797   3.353   4.187   5.219  0.4362  0.2451  1.1924
 4780SOL     OW25798   4.041   0.703   3.903  0.1048  0.5754 -0.0333
 4780SOL    HW125799   4.032   0.788   3.945  1.0214 -0.5105  2.3626
 4780SOL    HW225800   4.125   0.718   3.861 -0.1312 -1.1848 -1.1161
 4781SOL     OW25801   4.366   2.244  15.019 -0.1915 -0.6584 -1.3448
 4781SOL    HW125802   4.371   2.258  15.114  1.1369  1.1873 -1.6706
 4781SOL    HW225803   4.272   2.238  15.002 -0.3754 -1.4955 -0.0782
 4782SOL     OW25804   2.518   1.724   6.392 -0.4108  0.3290 -0.1942
 4782SOL    HW125805   2.523   1.643   6.442  0.1401  0.0808 -0.6392
 4782SOL    HW225806   2.594   1.770   6.429 -1.8502  0.1993  2.9278
 4783SOL     OW25807   2.850   1.456  15.772  0.4879  0.4237 -0.6496
 4783SOL    HW125808   2.935   1.492  15.748  1.1088 -1.1069 -0.8027
 4783SOL    HW225809   2.822   1.405  15.696 -0.4181  0.0457 -0.0650
 4784SOL     OW25810   4.571   1.770   3.248  0.4847 -0.0263  0.2220
 4784SOL    HW125811   4.490   1.765   3.300  0.0914  1.2502 -0.2719
 4784SOL    HW225812   4.551   1.711   3.175  1.9716 -0.3665  0.0958
 4785SOL     OW25813   3.951   3.686   5.975 -0.2033 -0.0774  0.7084
 4785SOL    HW125814   3.855   3.683   5.968 -0.2228 -0.4147  1.0885
 4785SOL    HW225815   3.969   3.748   5.905  0.0934  0.4117  1.2154
 4786SOL     OW25816   3.549   0.823   3.742  0.6704  0.1811 -0.1303
 4786SOL    HW125817   3.632   0.777   3.750  0.5607 -0.2947 -1.6161
 4786SOL    HW225818   3.586   0.908   3.717 -1.6928  0.9114 -1.1878
 4787SOL     OW25819   3.670   1.984  13.343  0.3179  0.2967 -0.0436
 4787SOL    HW125820   3.689   2.076  13.326 -0.6148  0.4143 -0.4480
 4787SOL    HW225821   3.753   1.944  13.370  0.2695  2.1847  2.9291
 4788SOL     OW25822   0.242   1.102   4.889 -0.4459 -0.2219  0.1174
 4788SOL    HW125823   0.215   1.067   4.974 -0.3221 -1.9613 -0.5706
 4788SOL    HW225824   0.201   1.189   4.890 -0.2901 -0.1635  2.9578
 4789SOL     OW25825   3.166   4.393   8.226  0.3705 -0.0866 -0.3547
 4789SOL    HW125826   3.204   4.309   8.201  0.7412  0.3112 -1.1303
 4789SOL    HW225827   3.101   4.364   8.291  0.6622  2.4783  1.0974
 4790SOL     OW25828   2.218   1.474   4.203 -0.3315 -0.1441  0.4072
 4790SOL    HW125829   2.225   1.554   4.150  0.1681 -1.3255 -1.3073
 4790SOL    HW225830   2.147   1.421   4.168 -1.9557  1.7330  0.8447
 4791SOL     OW25831   4.383   0.980   8.234 -0.2828  0.1431 -0.0820
 4791SOL    HW125832   4.437   1.051   8.269  1.8735 -0.8957 -1.2581
 4791SOL    HW225833   4.328   1.031   8.175  1.3877  1.6244 -0.3686
 4792SOL     OW25834   1.033   0.217   2.991 -0.2057 -0.8145 -0.1306
 4792SOL    HW125835   1.026   0.274   3.068  0.7079 -0.7336 -0.1052
 4792SOL    HW225836   1.112   0.164   3.004  1.2616  1.7166  1.3007
 4793SOL     OW25837   0.986   1.057  15.401  0.4734 -0.7703  0.0033
 4793SOL    HW125838   0.973   1.097  15.316 -1.0253  1.0264  1.0870
 4793SOL    HW225839   0.902   1.011  15.408 -0.7844  2.1697  4.0398
 4794SOL     OW25840   2.520   3.932   4.479  0.3484 -0.1488 -0.2569
 4794SOL    HW125841   2.460   3.858   4.482  0.1646  0.0723  1.2136
 4794SOL    HW225842   2.524   3.954   4.386 -0.3662  2.4331  0.3302
 4795SOL     OW25843   1.576   2.331   1.361 -0.1045 -0.0834  0.0348
 4795SOL    HW125844   1.526   2.401   1.318 -2.9320 -1.6749  0.6706
 4795SOL    HW225845   1.573   2.265   1.291  2.2455 -1.6174  1.4081
 4796SOL     OW25846   1.817   0.619   5.925  0.1723 -0.2585  0.4613
 4796SOL    HW125847   1.848   0.637   5.836 -0.8918  0.9612  0.3315
 4796SOL    HW225848   1.766   0.697   5.944 -1.2470 -0.8991 -0.6935
 4797SOL     OW25849   1.274   0.906   9.184  0.3901  0.7390  0.1252
 4797SOL    HW125850   1.360   0.890   9.146  0.7893  2.2337  0.3885
 4797SOL    HW225851   1.235   0.960   9.115 -1.3150  0.4181  0.8358
 4798SOL     OW25852   3.705   1.069  16.646 -0.0102 -0.3950 -0.3590
 4798SOL    HW125853   3.669   1.144  16.693 -0.9473 -0.7413 -0.5152
 4798SOL    HW225854   3.753   1.123  16.584 -2.4221  0.7871 -1.2017
 4799SOL     OW25855   0.274   3.609  10.743 -0.0163 -0.4977 -0.1984
 4799SOL    HW125856   0.247   3.529  10.789  1.2978 -1.2532 -0.7323
 4799SOL    HW225857   0.362   3.594  10.707  0.6056  2.6088  0.0383
 4800SOL     OW25858   0.771   2.340  11.208 -0.1573 -0.4089 -0.6052
 4800SOL    HW125859   0.826   2.351  11.130 -1.1454  0.3005 -1.1883
 4800SOL    HW225860   0.823   2.393  11.269 -0.1179  1.5940 -2.3752
 4801SOL     OW25861   3.590   2.969  16.229 -0.2293  0.1330  0.2406
 4801SOL    HW125862   3.520   2.969  16.294 -1.3377 -0.1939 -0.9455
 4801SOL    HW225863   3.661   3.015  16.272 -0.8435  2.3033 -1.0683
 4802SOL     OW25864   2.756   0.862   6.053  0.5045 -0.1351  0.0590
 4802SOL    HW125865   2.687   0.901   6.107  1.2686  0.0506  0.8969
 4802SOL    HW225866   2.833   0.916   6.068  1.1106 -0.7756 -0.7629
 4803SOL     OW25867   4.542   1.039   9.966  0.1767  0.2071  0.1017
 4803SOL    HW125868   4.556   0.962  10.020  1.1565 -0.8638 -1.7060
 4803SOL    HW225869   4.454   1.019   9.934  0.5911 -1.1887 -0.1442
 4804SOL     OW25870   0.414   3.341   3.913 -0.3168 -0.1554 -0.0497
 4804SOL    HW125871   0.363   3.379   3.841  2.4786  0.4394 -1.6947
 4804SOL    HW225872   0.371   3.394   3.980 -2.0765 -0.2986 -1.0352
 4805SOL     OW25873   1.501   1.119   3.233  1.1918  0.5923 -0.0299
 4805SOL    HW125874   1.570   1.075   3.283  1.1993 -0.3478 -0.8647
 4805SOL    HW225875   1.422   1.096   3.282  2.1956 -1.0233  0.8298
 4806SOL     OW25876   1.767   0.586  17.097 -0.1839 -0.2375  0.1437
 4806SOL    HW125877   1.840   0.611  17.154 -0.8377  1.2876  0.2956
 4806SOL    HW225878   1.796   0.620  17.012 -1.8836  1.4680  0.2677
 4807SOL     OW25879   0.192   3.253  15.807 -0.1308  0.2414 -0.7034
 4807SOL    HW125880   0.130   3.192  15.766 -0.5993  0.2606 -0.0336
 4807SOL    HW225881   0.248   3.266  15.731 -3.6898 -2.0722 -3.7485
 4808SOL     OW25882   2.688   4.099   9.809  0.1140  0.0687 -0.2553
 4808SOL    HW125883   2.598   4.078   9.784 -0.5503  0.0968  2.1137
 4808SOL    HW225884   2.666   4.175   9.863  0.6476 -1.8008  2.6204
 4809SOL     OW25885   0.570   4.643  15.067  0.2061 -0.2058  0.0029
 4809SOL    HW125886   0.618   0.003  15.073  0.1165 -0.1104 -0.6056
 4809SOL    HW225887   0.538   4.639  14.977  1.2475 -1.1850 -0.3187
 4810SOL     OW25888   4.636   1.843   5.519 -0.2067 -0.0671  0.7076
 4810SOL    HW125889   4.589   1.847   5.436 -0.7770  1.3971  1.1066
 4810SOL    HW225890   4.565   1.823   5.579  1.8233 -2.6640  2.2522
 4811SOL     OW25891   1.818   1.840   6.765 -0.5811  0.1095  0.2206
 4811SOL    HW125892   1.771   1.763   6.797  0.5903 -0.0714  1.4955
 4811SOL    HW225893   1.827   1.886   6.848 -0.8924 -1.6866  1.2612
 4812SOL     OW25894   4.072   2.688   1.993 -0.6915 -0.3818  0.1388
 4812SOL    HW125895   4.134   2.720   1.927 -0.5036 -2.9749 -0.9435
 4812SOL    HW225896   4.106   2.720   2.076  1.5508 -0.8782 -0.6057
 4813SOL     OW25897   4.038   1.876   1.410  0.5612  0.2852 -0.4108
 4813SOL    HW125898   4.090   1.944   1.366  1.5974  0.0459  0.4560
 4813SOL    HW225899   3.948   1.903   1.389  0.6438  1.4462  0.7735
 4814SOL     OW25900   2.746   3.064   4.933  0.1370 -0.6058  0.7232
 4814SOL    HW125901   2.817   3.030   4.987  1.5557  1.5191  0.1491
 4814SOL    HW225902   2.668   3.039   4.984 -2.2577  0.3519 -2.4822
 4815SOL     OW25903   2.632   2.346   9.419 -0.1228 -0.6257 -0.1482
 4815SOL    HW125904   2.611   2.275   9.358 -2.3834  0.6406 -0.8477
 4815SOL    HW225905   2.667   2.413   9.360  1.9447 -0.5637  1.1390
 4816SOL     OW25906   4.293   0.351   7.830  0.6316 -0.0588  0.2144
 4816SOL    HW125907   4.317   0.411   7.901 -0.1681  0.4685  0.0397
 4816SOL    HW225908   4.204   0.376   7.805  1.5424  1.9524 -1.0138
 4817SOL     OW25909   1.102   3.662  16.813  0.4394  0.7391  0.2457
 4817SOL    HW125910   1.040   3.715  16.863 -0.9456 -1.2785  0.6629
 4817SOL    HW225911   1.083   3.571  16.833  0.0623  0.9210  0.7092
 4818SOL     OW25912   1.266   2.617  12.266 -0.3118  0.4374  0.1313
 4818SOL    HW125913   1.259   2.642  12.358 -0.9293  2.6808 -0.5362
 4818SOL    HW225914   1.176   2.607  12.237 -0.5555 -0.1309  1.0922
 4819SOL     OW25915   4.421   2.692   7.004  0.1901 -0.0649 -0.1713
 4819SOL    HW125916   4.325   2.696   6.998  0.2172  2.5332  0.9405
 4819SOL    HW225917   4.450   2.783   7.005  2.4248 -0.7567 -1.8585
 4820SOL     OW25918   0.025   2.895   1.432 -0.4112  0.2056  0.2616
 4820SOL    HW125919   0.011   2.807   1.396 -0.0098 -0.6902  2.3058
 4820SOL    HW225920   0.118   2.903   1.451 -0.2295  1.0423 -0.9826
 4821SOL     OW25921   3.499   3.433  14.896  0.2518 -0.4585  0.2761
 4821SOL    HW125922   3.419   3.480  14.920  1.1139  1.2483 -0.1496
 4821SOL    HW225923   3.546   3.498  14.842  0.1270 -0.0584  0.6484
 4822SOL     OW25924   0.161   2.679   2.280  0.3301 -0.2651  0.6077
 4822SOL    HW125925   0.230   2.643   2.224 -0.9639 -3.1565  0.9298
 4822SOL    HW225926   0.131   2.610   2.338 -0.8781 -1.6915 -1.7185
 4823SOL     OW25927   1.873   3.665  11.040 -0.5532  0.3108  0.5123
 4823SOL    HW125928   1.892   3.756  11.065  2.7076 -0.4019  0.6207
 4823SOL    HW225929   1.962   3.631  11.038 -1.4076 -1.8854 -1.0503
 4824SOL     OW25930   3.212   0.746   3.123 -0.2880  0.0154 -0.1651
 4824SOL    HW125931   3.130   0.713   3.087  0.4597 -0.5466 -1.3513
 4824SOL    HW225932   3.228   0.673   3.183  0.9762  1.2042  0.9431
 4825SOL     OW25933   0.829   0.262   5.334  0.1577 -0.0455 -0.6356
 4825SOL    HW125934   0.745   0.243   5.292 -0.1573  0.1355 -0.1022
 4825SOL    HW225935   0.795   0.328   5.395 -1.4283 -2.5857  1.2068
 4826SOL     OW25936   0.831   4.594   0.774 -0.2120 -0.2435  0.5432
 4826SOL    HW125937   0.736   4.595   0.764 -0.0744  1.4390 -0.6532
 4826SOL    HW225938   0.869   4.541   0.704 -1.0183  0.4859 -0.4380
 4827SOL     OW25939   1.050   3.169   7.775  0.2048  0.0149 -0.4234
 4827SOL    HW125940   0.984   3.131   7.832 -2.0432 -0.2454 -3.2240
 4827SOL    HW225941   1.014   3.257   7.762  1.7391  0.8817  1.1611
 4828SOL     OW25942   2.578   1.478   6.881  0.0387 -0.2445 -0.2278
 4828SOL    HW125943   2.531   1.494   6.799  0.3154  2.3073  0.0905
 4828SOL    HW225944   2.638   1.552   6.876 -1.4286  0.7934 -2.4604
 4829SOL     OW25945   0.845   3.274   2.932 -0.3485  0.6603 -0.1692
 4829SOL    HW125946   0.832   3.369   2.924  0.9327  0.6974 -1.7535
 4829SOL    HW225947   0.810   3.244   2.849  2.9459 -1.0739 -0.9639
 4830SOL     OW25948   4.088   3.273   1.669 -0.9709 -0.4269 -0.5122
 4830SOL    HW125949   4.103   3.209   1.599 -0.6175 -1.0367  0.1159
 4830SOL    HW225950   4.097   3.214   1.744  1.2297 -1.4732 -1.6206
 4831SOL     OW25951   2.429   1.530  11.157  0.5825 -0.0107  0.0770
 4831SOL    HW125952   2.473   1.448  11.181  1.4771 -0.1791 -2.1351
 4831SOL    HW225953   2.415   1.562  11.246 -1.7378  1.0203 -0.6725
 4832SOL     OW25954   4.281   3.252   0.988  0.2593  0.2576  0.1181
 4832SOL    HW125955   4.235   3.316   0.935 -0.1238 -1.6444 -1.8536
 4832SOL    HW225956   4.225   3.174   0.992  0.0700  0.4160  0.5171
 4833SOL     OW25957   4.492   3.912   8.948 -0.5614  0.0168 -0.2498
 4833SOL    HW125958   4.397   3.917   8.961 -0.0465  1.3599  2.8780
 4833SOL    HW225959   4.517   3.855   9.020  0.8314 -1.7211 -2.1059
 4834SOL     OW25960   3.318   2.450   5.032  0.3337  0.0278 -0.3184
 4834SOL    HW125961   3.304   2.486   4.944  1.5007  1.1539 -0.0611
 4834SOL    HW225962   3.260   2.512   5.076 -1.2678 -1.0431 -0.9580
 4835SOL     OW25963   4.060   3.764   3.439  0.0802 -0.0736 -0.0602
 4835SOL    HW125964   4.062   3.672   3.465 -1.2683  0.4959  2.0004
 4835SOL    HW225965   3.966   3.777   3.436  0.0791 -0.2944 -1.2165
 4836SOL     OW25966   3.945   0.331   5.487 -0.1677 -0.4598  0.0457
 4836SOL    HW125967   3.995   0.323   5.569  1.8976 -0.2260 -1.1961
 4836SOL    HW225968   3.908   0.420   5.492  0.6926 -0.1645  1.0678
 4837SOL     OW25969   1.914   1.328   1.050  0.6485  0.8507 -0.1279
 4837SOL    HW125970   1.970   1.390   1.003  0.4642 -0.8648 -2.6363
 4837SOL    HW225971   1.832   1.373   1.028  0.4722  0.3268 -0.5551
 4838SOL     OW25972   1.936   4.013   7.385  0.5756  0.1644  0.1877
 4838SOL    HW125973   1.846   4.042   7.398  0.8857  0.4261  1.6930
 4838SOL    HW225974   1.983   4.084   7.427  2.1744  0.2524 -1.7455
 4839SOL     OW25975   0.256   4.658   6.304  0.0322 -0.5700 -0.0904
 4839SOL    HW125976   0.263   0.021   6.261  0.1146 -0.0007  1.0516
 4839SOL    HW225977   0.344   4.620   6.296 -0.1396 -0.8803 -0.4809
 4840SOL     OW25978   2.912   3.169  13.549 -0.2383  0.2914  0.0537
 4840SOL    HW125979   2.928   3.117  13.627  1.7253  0.5953 -0.1427
 4840SOL    HW225980   2.881   3.242  13.603 -0.7415  0.2659 -0.2015
 4841SOL     OW25981   2.161   0.180   0.616  0.0336  0.1293 -0.3245
 4841SOL    HW125982   2.110   0.211   0.691 -0.5577 -1.9875  0.1462
 4841SOL    HW225983   2.254   0.179   0.641 -0.0133  2.3774 -0.0964
 4842SOL     OW25984   2.374   3.730  11.576 -0.1925  0.5939  0.2056
 4842SOL    HW125985   2.310   3.697  11.640  0.3999  0.4531  0.7248
 4842SOL    HW225986   2.426   3.651  11.562  0.1293  0.7908  0.2910
 4843SOL     OW25987   2.329   0.671   8.026  0.4072  0.0051 -0.7103
 4843SOL    HW125988   2.412   0.662   8.072 -0.8409 -1.8768  1.1759
 4843SOL    HW225989   2.270   0.724   8.080  1.3246  0.9706 -0.6587
 4844SOL     OW25990   3.875   3.093   8.559  0.2037 -0.1015 -0.3785
 4844SOL    HW125991   3.837   3.010   8.532  0.7904 -0.8065  0.9151
 4844SOL    HW225992   3.955   3.069   8.605  2.0511  3.7123 -1.5405
 4845SOL     OW25993   1.262   0.249   4.821  0.1843  0.8274 -0.0304
 4845SOL    HW125994   1.267   0.292   4.907 -0.3925 -1.5649  1.2006
 4845SOL    HW225995   1.314   0.303   4.762 -1.0724  1.1103 -0.8661
 4846SOL     OW25996   1.429   2.316   1.842  0.4733 -0.5183 -0.1428
 4846SOL    HW125997   1.403   2.406   1.856 -2.1494 -1.5289  1.3388
 4846SOL    HW225998   1.373   2.293   1.767  0.0336  0.2486 -0.0488
 4847SOL     OW25999   0.783   3.003   3.561 -0.1929  0.3133 -0.0134
 4847SOL    HW126000   0.816   2.915   3.545 -0.2014 -0.0823  2.1257
 4847SOL    HW226001   0.844   3.041   3.625  0.2826 -0.0177 -0.2770
 4848SOL     OW26002   0.825   1.148  15.210 -0.5528  0.1461 -0.9264
 4848SOL    HW126003   0.740   1.170  15.248  1.3791  0.3914  3.2088
 4848SOL    HW226004   0.848   1.229  15.164  1.5095 -1.0171 -1.9666
 4849SOL     OW26005   0.092   2.492   4.377 -0.0697  0.6244  0.0455
 4849SOL    HW126006   0.181   2.516   4.353 -0.2306 -0.5596 -1.7989
 4849SOL    HW226007   0.029   2.529   4.314  0.2157 -0.2852 -0.7741
 4850SOL     OW26008   3.069   4.678   9.491  0.3454  0.3985  0.5817
 4850SOL    HW126009   3.129   4.633   9.550  0.0871  0.8369  1.1757
 4850SOL    HW226010   3.127   0.018   9.448  0.5688  0.0510  0.3794
 4851SOL     OW26011   4.262   3.577   6.251 -0.0438 -0.1835 -0.2686
 4851SOL    HW126012   4.202   3.652   6.254  0.7339  0.4012  0.5785
 4851SOL    HW226013   4.336   3.622   6.293  0.0150 -1.7016  1.2027
 4852SOL     OW26014   1.205   3.105   3.606 -0.1392 -0.6967 -0.6230
 4852SOL    HW126015   1.138   3.037   3.617  0.7119 -1.6466 -1.3316
 4852SOL    HW226016   1.269   3.052   3.559  1.4582 -0.1573  0.9576
 4853SOL     OW26017   3.385   1.275   3.651  0.3839 -0.0648 -0.2914
 4853SOL    HW126018   3.364   1.269   3.558  0.8876  0.1727 -0.4236
 4853SOL    HW226019   3.473   1.312   3.656  0.5289 -0.1811 -2.0664
 4854SOL     OW26020   1.149   1.060   8.999  0.0462  0.2947 -0.2833
 4854SOL    HW126021   1.152   1.092   8.908  1.8469 -2.0750 -1.0715
 4854SOL    HW226022   1.059   1.080   9.022  0.7676  1.6827  1.3270
 4855SOL     OW26023   3.455   0.473  13.278 -0.5875 -0.0842 -0.4508
 4855SOL    HW126024   3.421   0.431  13.357  0.9395 -0.7594 -0.1648
 4855SOL    HW226025   3.392   0.544  13.267 -2.3562 -1.8305 -1.5173
 4856SOL     OW26026   4.009   1.582   6.219 -1.3029  0.4483  0.3627
 4856SOL    HW126027   4.013   1.678   6.216 -1.3157  0.4451  0.2224
 4856SOL    HW226028   3.918   1.575   6.191  0.0625 -1.9743 -3.4663
 4857SOL     OW26029   1.681   3.653   1.097  0.3433 -0.2595  0.4319
 4857SOL    HW126030   1.722   3.718   1.154 -0.4435 -0.2184  0.9559
 4857SOL    HW226031   1.664   3.599   1.174 -1.8158 -1.4258 -0.8696
 4858SOL     OW26032   1.429   3.469  15.537 -0.4845  0.1269  0.2342
 4858SOL    HW126033   1.426   3.374  15.537 -0.9964  0.1466  0.6493
 4858SOL    HW226034   1.490   3.483  15.465 -0.6143 -0.4676  0.0153
 4859SOL     OW26035   4.482   3.668  12.658 -0.5370 -0.1012 -0.8874
 4859SOL    HW126036   4.525   3.697  12.738 -1.0057 -1.4266 -0.1510
 4859SOL    HW226037   4.426   3.602  12.697  0.5940 -0.2513  0.4595
 4860SOL     OW26038   1.440   0.474   6.299  0.1708  0.0010  0.4130
 4860SOL    HW126039   1.416   0.393   6.254  2.1896  0.4806 -1.5163
 4860SOL    HW226040   1.353   0.494   6.334 -0.1148  0.7593 -0.7088
 4861SOL     OW26041   3.796   3.659   9.078  0.1845 -0.2863  0.0038
 4861SOL    HW126042   3.824   3.655   9.169 -3.2202  1.4105  1.1006
 4861SOL    HW226043   3.709   3.696   9.091 -0.2120 -0.4001 -2.2690
 4862SOL     OW26044   3.870   4.147   9.043  0.5531  0.0007 -0.0161
 4862SOL    HW126045   3.949   4.097   9.023  0.2851 -0.6327  0.5092
 4862SOL    HW226046   3.810   4.107   8.981 -0.5298 -1.1253  1.7579
 4863SOL     OW26047   0.968   0.671   6.601 -0.6069  0.0951 -0.0638
 4863SOL    HW126048   0.921   0.649   6.521 -0.9021  0.1728  0.0882
 4863SOL    HW226049   1.008   0.587   6.623 -0.7763  0.1422  0.4333
 4864SOL     OW26050   4.191   2.350   7.446  0.3529 -0.4766 -0.3076
 4864SOL    HW126051   4.160   2.282   7.507  1.9485  0.7366  1.8550
 4864SOL    HW226052   4.119   2.365   7.386  0.2229 -0.0237 -0.0349
 4865SOL     OW26053   3.374   2.199   6.173  0.0500  0.4013 -0.1506
 4865SOL    HW126054   3.346   2.126   6.116  1.2674  0.8123 -1.2903
 4865SOL    HW226055   3.459   2.218   6.132 -0.0319  1.6469  0.2764
 4866SOL     OW26056   1.535   4.029   2.737  0.0566 -0.0786  0.2296
 4866SOL    HW126057   1.604   3.973   2.773 -0.6060 -1.9809 -1.4766
 4866SOL    HW226058   1.479   3.962   2.698 -0.4628  0.4578  0.0567
 4867SOL     OW26059   1.979   2.129   4.483 -0.4664 -0.2644  0.1964
 4867SOL    HW126060   1.920   2.054   4.482 -0.2326 -0.4252 -2.4252
 4867SOL    HW226061   2.052   2.092   4.434  1.1607  1.4744  1.2972
 4868SOL     OW26062   0.247   0.472  16.316  0.0757  0.1799 -0.2793
 4868SOL    HW126063   0.222   0.384  16.289 -0.9285  0.1720  0.6728
 4868SOL    HW226064   0.303   0.467  16.394  0.6870  1.1084 -0.6544
 4869SOL     OW26065   0.967   4.284   1.918 -0.0052  0.6719  0.6098
 4869SOL    HW126066   0.893   4.227   1.941 -0.4092  0.5868 -0.8941
 4869SOL    HW226067   0.985   4.255   1.829 -0.0211  1.7205  0.2694
 4870SOL     OW26068   2.701   3.235  11.293  0.6151 -0.0172 -0.9121
 4870SOL    HW126069   2.699   3.164  11.229 -0.8074 -0.5387 -0.2779
 4870SOL    HW226070   2.636   3.212  11.359  2.0824  1.1688  0.9629
 4871SOL     OW26071   2.565   0.117   6.161  0.4356 -0.5613 -0.4694
 4871SOL    HW126072   2.506   0.127   6.236  0.3789  0.5315 -0.6551
 4871SOL    HW226073   2.500   0.118   6.091  1.9229  2.0999 -1.8456
 4872SOL     OW26074   3.334   0.948   5.326 -0.3513  0.2976 -0.5170
 4872SOL    HW126075   3.349   1.042   5.319 -0.2687  0.3356  0.1689
 4872SOL    HW226076   3.242   0.946   5.350 -0.3649 -0.5562 -0.6239
 4873SOL     OW26077   4.710   4.536   4.051  0.2471 -0.3248 -0.3000
 4873SOL    HW126078   0.036   4.577   4.122 -0.5113 -2.0375  1.2073
 4873SOL    HW226079   0.033   4.560   3.970 -1.8465  1.4287 -0.9553
 4874SOL     OW26080   4.167   2.349   7.129  0.1081 -0.2206  0.2594
 4874SOL    HW126081   4.210   2.340   7.044 -0.2906 -1.4912  0.1900
 4874SOL    HW226082   4.218   2.416   7.175 -1.4628  0.7337  0.6265
 4875SOL     OW26083   1.996   4.027  12.960 -0.4719 -0.2955  0.1139
 4875SOL    HW126084   2.077   4.054  12.916 -2.1837  1.0064 -2.2258
 4875SOL    HW226085   1.929   4.057  12.898  1.6069  1.5363 -1.2700
 4876SOL     OW26086   1.349   0.159   7.568 -0.3189  0.2123  0.2337
 4876SOL    HW126087   1.376   0.070   7.545 -2.2924 -0.5603  0.8581
 4876SOL    HW226088   1.286   0.132   7.635 -1.3297 -1.2267 -1.2796
 4877SOL     OW26089   1.892   4.483   4.000  0.0945 -0.4523 -0.6349
 4877SOL    HW126090   1.804   4.477   3.962 -0.1185 -1.6356  0.0442
 4877SOL    HW226091   1.902   4.578   3.997 -1.3166 -0.2673  0.2866
 4878SOL     OW26092   0.519   3.685   2.790 -0.2322 -0.1651 -0.2503
 4878SOL    HW126093   0.503   3.756   2.728 -0.6954 -0.2190 -0.1914
 4878SOL    HW226094   0.571   3.638   2.724  1.9252 -0.0833  1.3676
 4879SOL     OW26095   4.713   2.201   4.788  0.2459  0.0284  0.3755
 4879SOL    HW126096   4.620   2.220   4.775  0.5991  0.7105 -1.1749
 4879SOL    HW226097   0.028   2.249   4.715 -0.9003 -0.0159 -0.2536
 4880SOL     OW26098   1.455   4.403   3.698 -0.8509 -0.3580 -0.1280
 4880SOL    HW126099   1.443   4.325   3.644  0.4325 -1.6530  1.4655
 4880SOL    HW226100   1.482   4.473   3.637 -0.1883 -0.5254 -0.0243
 4881SOL     OW26101   0.774   2.333   6.951  0.7875 -0.1317 -0.1462
 4881SOL    HW126102   0.775   2.298   7.039  1.1640 -0.2731 -0.2065
 4881SOL    HW226103   0.815   2.258   6.908  0.4106 -0.6667  0.4323
 4882SOL     OW26104   1.761   4.334  10.041 -0.0410  0.0297  0.0717
 4882SOL    HW126105   1.847   4.300  10.065 -0.4150 -1.3393 -0.5484
 4882SOL    HW226106   1.725   4.369  10.122 -0.1375  0.1553 -0.0247
 4883SOL     OW26107   3.055   2.986   4.987  0.7421  0.0574 -0.0270
 4883SOL    HW126108   3.130   2.927   5.001  1.1382  0.4637 -0.4296
 4883SOL    HW226109   2.999   2.924   4.940  1.9869 -1.8569  1.0022
 4884SOL     OW26110   3.212   0.470  16.018  0.8100  0.0527 -0.0287
 4884SOL    HW126111   3.211   0.538  16.086 -2.1568  0.8675 -0.8846
 4884SOL    HW226112   3.305   0.475  15.996  0.9873 -1.1952  0.4620
 4885SOL     OW26113   0.916   2.485  15.223 -0.2658 -0.0235 -0.2555
 4885SOL    HW126114   0.955   2.397  15.224  1.4998  0.7866  1.4228
 4885SOL    HW226115   0.921   2.513  15.132  1.3333 -3.5034 -1.2433
 4886SOL     OW26116   4.197   2.582   4.000 -0.4863  0.0225  0.6572
 4886SOL    HW126117   4.292   2.582   4.003 -0.4684  0.1985  0.1617
 4886SOL    HW226118   4.173   2.571   3.908 -0.9479 -1.7757  0.9952
 4887SOL     OW26119   2.323   4.074   8.760 -0.6147  0.1871  0.4180
 4887SOL    HW126120   2.251   4.019   8.730 -0.8475  1.4268 -1.2659
 4887SOL    HW226121   2.330   4.050   8.853 -0.7057  0.9894  0.6343
 4888SOL     OW26122   4.643   4.361   9.807 -0.1126  0.6180 -0.5857
 4888SOL    HW126123   4.694   4.299   9.859  0.9348  1.7393 -0.2607
 4888SOL    HW226124   4.558   4.323   9.828  0.5685  0.2526  1.5301
 4889SOL     OW26125   2.178   3.508  11.720  0.0132  0.1345 -0.2924
 4889SOL    HW126126   2.096   3.525  11.674 -0.9181 -2.4698  0.3945
 4889SOL    HW226127   2.152   3.530  11.810 -0.9907  2.2641 -1.1090
 4890SOL     OW26128   2.708   1.343   7.620 -0.3437 -0.2229 -0.0229
 4890SOL    HW126129   2.640   1.400   7.585  0.7201  1.0558  0.0068
 4890SOL    HW226130   2.654   1.302   7.688 -1.8057 -1.2644 -1.8190
 4891SOL     OW26131   1.772   1.578   7.383  0.0078  0.4156  0.8076
 4891SOL    HW126132   1.854   1.592   7.430  0.9744 -0.9359 -0.4703
 4891SOL    HW226133   1.734   1.528   7.455 -0.2402 -0.0353  0.3649
 4892SOL     OW26134   4.163   1.370  15.280  0.0694  0.4421  0.0747
 4892SOL    HW126135   4.093   1.396  15.221 -0.3803  1.4052  1.0442
 4892SOL    HW226136   4.215   1.318  15.218  0.1747 -1.4965  1.7751
 4893SOL     OW26137   2.272   4.121   2.468 -0.2124  0.3920  0.0487
 4893SOL    HW126138   2.221   4.201   2.481 -0.0618  1.0621 -3.6500
 4893SOL    HW226139   2.235   4.101   2.382  0.7148  1.2863 -0.5570
 4894SOL     OW26140   3.881   3.125   2.685  0.5571  1.0388 -0.0313
 4894SOL    HW126141   3.829   3.054   2.724  1.6226  0.2999  0.0290
 4894SOL    HW226142   3.906   3.087   2.601  1.1061  0.3369  0.4549
 4895SOL     OW26143   0.853   3.433   5.345  0.0623 -0.4707  0.5950
 4895SOL    HW126144   0.893   3.520   5.351  2.0868 -1.3495 -0.3709
 4895SOL    HW226145   0.882   3.400   5.430  0.9289 -0.3481  0.3483
 4896SOL     OW26146   1.266   2.677   8.705  0.4280 -0.0569  1.0909
 4896SOL    HW126147   1.328   2.609   8.679  1.9966  0.9733  2.1160
 4896SOL    HW226148   1.235   2.713   8.621  0.5098 -2.4135  0.0505
 4897SOL     OW26149   0.155   2.177  10.710  0.5853  0.1362 -0.0489
 4897SOL    HW126150   0.191   2.231  10.781  1.5369 -1.4386  0.6816
 4897SOL    HW226151   0.181   2.091  10.742 -0.7743 -0.2583  0.0190
 4898SOL     OW26152   0.163   2.161   7.497 -0.0949 -0.0856 -0.5630
 4898SOL    HW126153   0.154   2.180   7.590 -1.0898  1.4276 -0.9737
 4898SOL    HW226154   0.073   2.160   7.464 -0.9774 -0.5671  1.8697
 4899SOL     OW26155   4.403   4.429  16.096 -0.4350  0.1948  0.5340
 4899SOL    HW126156   4.316   4.392  16.116 -0.5369  0.3397  0.3558
 4899SOL    HW226157   4.436   4.355  16.045 -1.2916 -0.1887  0.5181
 4900SOL     OW26158   4.573   2.193   1.099 -0.2492 -0.3172  0.2936
 4900SOL    HW126159   4.501   2.204   1.161 -0.3188 -2.5107  0.6030
 4900SOL    HW226160   4.544   2.260   1.037  2.4243  2.2951  1.8648
 4901SOL     OW26161   2.387   4.335  11.576 -0.1414  0.6022  0.4707
 4901SOL    HW126162   2.469   4.299  11.609  1.2106  2.5183 -0.8015
 4901SOL    HW226163   2.337   4.254  11.561 -1.8885  2.0425 -1.4519
 4902SOL     OW26164   4.339   1.707   8.500  0.0412 -0.0773 -0.2129
 4902SOL    HW126165   4.330   1.651   8.577 -1.0659  1.2147  0.5947
 4902SOL    HW226166   4.423   1.749   8.519  0.3460 -1.0450  0.5773
 4903SOL     OW26167   0.441   1.578   1.778 -0.6094 -0.1411 -0.1558
 4903SOL    HW126168   0.367   1.516   1.781  1.5711 -2.7887 -1.0237
 4903SOL    HW226169   0.407   1.625   1.703  1.4599  0.6482 -0.6058
 4904SOL     OW26170   2.549   2.680   4.985 -0.3370 -0.4807  0.0966
 4904SOL    HW126171   2.563   2.725   4.902  0.3264 -1.7942 -0.5059
 4904SOL    HW226172   2.606   2.729   5.044 -1.9259 -1.1342  2.1704
 4905SOL     OW26173   2.031   3.364   9.869  0.2642  0.0105  0.0404
 4905SOL    HW126174   2.110   3.384   9.919  0.4003  2.2634 -1.0865
 4905SOL    HW226175   2.034   3.272   9.843  1.5653 -0.0813  0.5359
 4906SOL     OW26176   2.934   0.992   3.399 -0.2948  0.0265 -0.2089
 4906SOL    HW126177   3.006   1.038   3.441  0.1065 -2.0266  1.3420
 4906SOL    HW226178   2.970   0.991   3.310 -2.4850  0.8975 -1.1095
 4907SOL     OW26179   2.393   1.254   0.751 -0.0606 -0.0863 -0.2876
 4907SOL    HW126180   2.376   1.286   0.662 -2.5797 -2.8573 -0.7926
 4907SOL    HW226181   2.351   1.321   0.805  2.3576  0.6385  0.6727
 4908SOL     OW26182   4.722   4.227   4.536 -0.0637  0.0208 -0.1986
 4908SOL    HW126183   4.651   4.183   4.583 -2.2769  3.9208  0.1311
 4908SOL    HW226184   0.005   4.306   4.590  1.3122 -0.6202  0.5794
 4909SOL     OW26185   2.135   3.905   3.910 -0.0553 -0.5850  0.6557
 4909SOL    HW126186   2.072   3.925   3.841  0.3065 -0.3670  0.3870
 4909SOL    HW226187   2.207   3.953   3.869 -0.9913 -0.1033 -0.4242
 4910SOL     OW26188   1.855   1.820   5.347 -0.0761 -0.4231  0.5127
 4910SOL    HW126189   1.810   1.746   5.306  0.2399 -0.5858  0.4597
 4910SOL    HW226190   1.903   1.778   5.418 -1.1128 -1.4235  0.6289
 4911SOL     OW26191   0.935   1.590   6.278  0.2267  0.5976 -0.2441
 4911SOL    HW126192   1.012   1.599   6.221 -0.0253  1.3603 -0.4781
 4911SOL    HW226193   0.927   1.678   6.316  1.7530  0.6753 -0.1350
 4912SOL     OW26194   1.932   4.353  17.211  0.5967 -0.1250 -0.0619
 4912SOL    HW126195   1.947   4.267  17.169  2.2986 -0.6797  1.6722
 4912SOL    HW226196   1.953   4.331  17.302  0.6571  0.6164  0.0996
 4913SOL     OW26197   1.915   2.285   2.479  0.1122 -0.1492 -0.1822
 4913SOL    HW126198   1.825   2.305   2.503  0.2484 -0.0658  0.2681
 4913SOL    HW226199   1.919   2.190   2.469  0.8160 -0.0855 -0.4815
 4914SOL     OW26200   1.889   4.323   8.259 -0.0263 -0.3344  0.0324
 4914SOL    HW126201   1.962   4.326   8.197 -1.3723 -0.3263 -1.5758
 4914SOL    HW226202   1.888   4.411   8.297 -0.3247  0.2152 -1.2380
 4915SOL     OW26203   3.308   0.365   3.082  0.2078  0.6718  0.0449
 4915SOL    HW126204   3.365   0.316   3.023 -0.2019  0.6948 -0.3700
 4915SOL    HW226205   3.367   0.436   3.107  1.4135 -0.4375  0.3360
 4916SOL     OW26206   3.370   0.652   2.319 -0.2620 -0.3897 -0.0433
 4916SOL    HW126207   3.275   0.650   2.316 -0.2992  3.0217 -1.4826
 4916SOL    HW226208   3.385   0.743   2.293 -0.3334 -0.2367  0.4501
 4917SOL     OW26209   0.705   3.970   1.460 -0.6905 -0.9328  0.1291
 4917SOL    HW126210   0.697   4.050   1.511  2.7997 -0.5967  0.1155
 4917SOL    HW226211   0.737   3.907   1.525 -0.3976  1.0401  1.8647
 4918SOL     OW26212   1.041   2.336   7.961 -0.1069 -0.5959  0.0624
 4918SOL    HW126213   0.946   2.340   7.971 -0.0912  0.3950 -0.1830
 4918SOL    HW226214   1.044   2.368   7.871  0.1985 -2.3465 -0.5381
 4919SOL     OW26215   0.231   4.498   2.934  0.3872 -0.4418  0.0843
 4919SOL    HW126216   0.221   4.570   2.871 -0.4809 -0.9958 -0.4158
 4919SOL    HW226217   0.321   4.513   2.961  0.5608 -0.6931 -0.3537
 4920SOL     OW26218   2.382   0.848  10.138 -0.8878 -0.6414 -0.0812
 4920SOL    HW126219   2.346   0.925  10.181 -1.4474 -2.2423  2.2810
 4920SOL    HW226220   2.466   0.840  10.183  0.3018 -3.0421 -2.7220
 4921SOL     OW26221   3.336   3.659   8.888 -0.1561 -0.0702 -0.6190
 4921SOL    HW126222   3.308   3.750   8.878  1.5246  0.3502 -1.5733
 4921SOL    HW226223   3.429   3.662   8.866 -0.1938  1.0260 -0.6561
 4922SOL     OW26224   2.505   2.732  10.761  0.7441  0.1648 -0.8576
 4922SOL    HW126225   2.521   2.765  10.849  0.3536 -2.2687  0.1371
 4922SOL    HW226226   2.450   2.795  10.715  0.8030 -0.2212 -1.4626
 4923SOL     OW26227   4.121   0.565   3.655  0.5029  0.9345 -0.0736
 4923SOL    HW126228   4.191   0.625   3.682  0.8978  1.0682 -1.3635
 4923SOL    HW226229   4.078   0.616   3.586 -1.0777  0.1051  0.3022
 4924SOL     OW26230   3.812   2.591  15.983 -0.2979  0.0972  0.6368
 4924SOL    HW126231   3.803   2.672  16.033  2.6347  0.8452 -0.0824
 4924SOL    HW226232   3.731   2.595  15.932  1.7079 -1.1722 -2.6290
 4925SOL     OW26233   2.657   3.472   8.072  0.4100 -0.1942  0.3905
 4925SOL    HW126234   2.716   3.442   8.141 -0.0060  0.7155  1.1372
 4925SOL    HW226235   2.647   3.387   8.027  0.2398  1.1866 -2.2047
 4926SOL     OW26236   1.364   2.288   1.564  0.2618  0.1479  0.4438
 4926SOL    HW126237   1.450   2.286   1.521 -0.1955 -1.5184 -0.4269
 4926SOL    HW226238   1.308   2.313   1.490  0.9988  1.5926  0.3915
 4927SOL     OW26239   0.780   0.656   7.339  0.2313 -0.0940 -0.0137
 4927SOL    HW126240   0.875   0.649   7.327  0.4512 -0.8439  2.0932
 4927SOL    HW226241   0.747   0.584   7.393  0.6516  0.9628  1.6623
 4928SOL     OW26242   0.176   4.214  10.264 -0.0438 -0.3223  0.1976
 4928SOL    HW126243   0.181   4.304  10.234 -4.2196 -0.2384 -0.1289
 4928SOL    HW226244   0.241   4.216  10.335 -1.2836  0.2609  1.3155
 4929SOL     OW26245   4.039   0.507   3.229 -0.2031 -0.6250  0.2971
 4929SOL    HW126246   4.033   0.595   3.193 -3.0183 -1.3745 -1.1208
 4929SOL    HW226247   3.974   0.470   3.169  0.4421 -0.0602 -0.7452
 4930SOL     OW26248   2.837   1.516  11.398 -0.6980 -0.2606  0.4838
 4930SOL    HW126249   2.831   1.426  11.431  0.6868 -0.7548 -0.6510
 4930SOL    HW226250   2.931   1.534  11.403 -0.4575 -1.4358  0.2322
 4931SOL     OW26251   4.082   0.869  12.445  0.4908 -0.1482 -0.2735
 4931SOL    HW126252   4.171   0.858  12.411  0.5455 -2.3789  0.5935
 4931SOL    HW226253   4.096   0.947  12.498  1.0526 -0.4571  0.0307
 4932SOL     OW26254   1.364   0.075   5.039  0.2142  0.3288  0.1561
 4932SOL    HW126255   1.351   0.031   4.955 -0.7453  1.4622 -0.2911
 4932SOL    HW226256   1.279   0.094   5.078  0.1326  0.0769  0.1007
 4933SOL     OW26257   0.156   2.357  10.939  0.5497  0.7482 -0.1406
 4933SOL    HW126258   0.199   2.401  11.012 -1.0283  0.0608  1.2079
 4933SOL    HW226259   0.154   2.423  10.870  3.3945 -0.4831 -1.4014
 4934SOL     OW26260   2.240   2.406   2.915 -0.0048  0.0478 -0.4478
 4934SOL    HW126261   2.310   2.470   2.899 -0.2854  0.3596 -0.4345
 4934SOL    HW226262   2.172   2.451   2.966 -0.1970 -0.7541  0.0099
 4935SOL     OW26263   1.168   4.026   3.600 -0.3612 -0.0220 -0.0641
 4935SOL    HW126264   1.146   3.948   3.651  0.3959 -0.6781 -0.7404
 4935SOL    HW226265   1.106   4.012   3.529 -0.9143 -1.1824  0.6609
 4936SOL     OW26266   2.444   3.728  11.091  0.2475 -0.0400 -0.2713
 4936SOL    HW126267   2.426   3.796  11.157 -2.5222 -2.0262  1.0473
 4936SOL    HW226268   2.463   3.658  11.154  0.2976  1.5248  1.4667
 4937SOL     OW26269   0.530   2.790   3.259 -0.5322  0.2364  0.3842
 4937SOL    HW126270   0.454   2.833   3.298 -0.6593 -1.7052  2.2477
 4937SOL    HW226271   0.527   2.811   3.166  0.1545 -0.6972  0.1533
 4938SOL     OW26272   4.414   4.638   9.794 -0.0269 -0.1178  0.1607
 4938SOL    HW126273   4.394   4.545   9.802  1.1596 -0.1795  2.4493
 4938SOL    HW226274   4.451   4.654   9.881 -0.2967 -2.1235  0.6528
 4939SOL     OW26275   4.047   4.153   7.737 -0.3812 -0.3241 -0.5192
 4939SOL    HW126276   4.035   4.061   7.760  2.0281 -0.8724 -1.3748
 4939SOL    HW226277   3.975   4.169   7.676  0.7041 -0.7467 -1.9196
 4940SOL     OW26278   1.992   0.665   5.016  0.4379  0.8854 -0.3500
 4940SOL    HW126279   1.995   0.606   4.940 -0.3165 -1.3453  1.3563
 4940SOL    HW226280   2.084   0.676   5.041  0.2067  0.9538  0.4627
 4941SOL     OW26281   2.625   0.518   9.168  0.2357 -0.0247  0.3510
 4941SOL    HW126282   2.621   0.426   9.193 -2.1406 -0.3047 -1.0880
 4941SOL    HW226283   2.581   0.549   9.247  0.8515  1.9415 -0.0798
 4942SOL     OW26284   4.131   2.097  10.212  0.4971 -0.5431 -0.6316
 4942SOL    HW126285   4.226   2.092  10.202  0.4820  0.5975 -1.2670
 4942SOL    HW226286   4.130   2.098  10.308 -1.5307  1.1718 -0.6798
 4943SOL     OW26287   1.540   1.755   3.932  0.1847  0.3679 -0.7148
 4943SOL    HW126288   1.512   1.777   4.021 -1.0152 -1.7498 -0.5653
 4943SOL    HW226289   1.630   1.787   3.934  0.0143  0.8612 -0.7914
 4944SOL     OW26290   1.826   4.473   4.509  0.1973  0.6374  0.3863
 4944SOL    HW126291   1.781   4.548   4.470 -0.7361  0.3220  0.8561
 4944SOL    HW226292   1.754   4.414   4.533 -0.0904  0.8779  0.1087
 4945SOL     OW26293   3.461   1.348  16.540 -0.0528  0.0871  1.0509
 4945SOL    HW126294   3.379   1.328  16.586 -0.5670 -1.0450 -0.3574
 4945SOL    HW226295   3.529   1.337  16.606 -0.6979 -2.7633  1.2336
 4946SOL     OW26296   1.965   1.842  14.714 -0.1400  0.1499  0.6535
 4946SOL    HW126297   1.882   1.839  14.665  0.1593  2.3081  0.0478
 4946SOL    HW226298   1.992   1.750  14.713 -0.4698  0.0489  0.7246
 4947SOL     OW26299   1.027   3.646   4.010 -0.1611  0.5327  0.3700
 4947SOL    HW126300   1.017   3.653   4.105 -0.7076  1.9520  0.2003
 4947SOL    HW226301   0.946   3.685   3.978 -0.1205 -0.1937 -0.6304
 4948SOL     OW26302   3.591   4.060   5.665 -0.4553  0.6242  0.1408
 4948SOL    HW126303   3.667   4.108   5.633  1.7591 -2.0874  1.3199
 4948SOL    HW226304   3.602   4.058   5.760  2.5585 -0.4844 -0.2416
 4949SOL     OW26305   3.661   3.244   4.181 -0.8221 -0.3185  0.0839
 4949SOL    HW126306   3.633   3.162   4.221  3.4240 -0.2579  3.1393
 4949SOL    HW226307   3.605   3.244   4.104  1.5477  3.7118 -1.6415
 4950SOL     OW26308   2.747   1.263   4.862 -0.4588 -0.5043 -0.2864
 4950SOL    HW126309   2.747   1.286   4.769 -0.5581  0.7648  0.0278
 4950SOL    HW226310   2.812   1.193   4.865 -2.8647 -2.8389 -2.6160
 4951SOL     OW26311   0.195   0.044  15.822  0.3183  0.4963 -0.2199
 4951SOL    HW126312   0.220   0.003  15.739 -1.3299 -0.2593 -0.3544
 4951SOL    HW226313   0.103   0.020  15.834  1.1146 -1.8015  1.4845
 4952SOL     OW26314   0.475   1.984  11.982 -0.0691  0.2415 -0.5054
 4952SOL    HW126315   0.460   1.896  12.015 -0.8852  1.3315  2.0362
 4952SOL    HW226316   0.565   1.983  12.016 -1.0338 -1.5089  1.9185
 4953SOL     OW26317   0.946   4.223   1.656 -0.4739  0.0508  0.0847
 4953SOL    HW126318   0.994   4.183   1.584 -2.4007 -0.2566 -1.0264
 4953SOL    HW226319   0.863   4.241   1.611 -1.0396 -3.3402 -0.2225
 4954SOL     OW26320   0.608   3.087   6.312  0.4890  0.0508  0.0092
 4954SOL    HW126321   0.590   3.106   6.220 -2.0100 -0.5016  0.3666
 4954SOL    HW226322   0.548   3.149   6.355 -0.2356 -1.0492  0.5985
 4955SOL     OW26323   0.017   4.409  15.549 -0.0388 -0.2014 -0.4062
 4955SOL    HW126324   0.017   4.504  15.538  2.5059 -0.3919 -1.9086
 4955SOL    HW226325   4.716   4.387  15.459 -1.2785 -2.0571  0.3803
 4956SOL     OW26326   1.464   4.103  12.982 -0.5295  0.5080 -0.1420
 4956SOL    HW126327   1.492   4.054  13.060  1.8825  2.2563  0.1153
 4956SOL    HW226328   1.453   4.028  12.924 -1.0383  1.9621 -1.9157
 4957SOL     OW26329   1.725   1.765  10.065 -0.1996 -0.3587 -0.5507
 4957SOL    HW126330   1.697   1.758   9.974 -2.4879  2.5354 -0.1104
 4957SOL    HW226331   1.726   1.676  10.098 -1.9653 -0.0635  0.3040
 4958SOL     OW26332   3.617   0.183   4.014 -0.1156  0.3070  0.2410
 4958SOL    HW126333   3.591   0.092   4.000  0.3849 -0.1766  2.4570
 4958SOL    HW226334   3.671   0.200   3.938  0.2598  1.8932  0.8500
 4959SOL     OW26335   0.742   2.002  14.429 -0.6999  0.0517  0.5084
 4959SOL    HW126336   0.747   1.958  14.344 -0.9097  0.3632  0.3326
 4959SOL    HW226337   0.651   1.992  14.458 -1.3961  0.7672 -1.4310
 4960SOL     OW26338   1.146   1.932  13.461 -0.3113 -0.7214 -0.9076
 4960SOL    HW126339   1.065   1.941  13.511 -0.4326  1.8713 -1.5800
 4960SOL    HW226340   1.151   1.838  13.443  0.3596 -0.5482 -1.6244
 4961SOL     OW26341   3.104   2.758   2.639 -0.7078  0.8428  1.2650
 4961SOL    HW126342   3.157   2.744   2.561 -0.9908 -1.0011  1.3919
 4961SOL    HW226343   3.087   2.668   2.668 -1.3236 -0.1009 -1.9930
 4962SOL     OW26344   3.933   0.772   1.577 -0.4145  0.1620 -0.1533
 4962SOL    HW126345   3.921   0.704   1.643 -1.9006  0.7220  0.1572
 4962SOL    HW226346   3.876   0.725   1.516 -0.8872  0.8307 -0.2226
 4963SOL     OW26347   0.090   2.244  12.023 -0.0137 -0.2990 -0.0807
 4963SOL    HW126348   0.050   2.266  11.939 -0.2313 -1.1073 -0.1860
 4963SOL    HW226349   0.182   2.260  12.001  0.0840 -1.7302 -0.7241
 4964SOL     OW26350   4.164   2.373   1.181  0.0302  0.3507  0.0635
 4964SOL    HW126351   4.112   2.352   1.103 -0.1529 -0.2341  0.3402
 4964SOL    HW226352   4.171   2.287   1.222 -2.0180 -1.2262 -2.9318
 4965SOL     OW26353   1.792   3.808  13.230  0.6205  0.2459  0.0936
 4965SOL    HW126354   1.861   3.871  13.251  0.4244  0.0466  1.3124
 4965SOL    HW226355   1.804   3.793  13.136  1.8985 -0.7796  0.4279
 4966SOL     OW26356   3.309   1.798   5.832 -1.2036  0.4042 -0.0907
 4966SOL    HW126357   3.286   1.877   5.880 -1.8424  0.4226 -0.4329
 4966SOL    HW226358   3.354   1.747   5.900  2.8058  0.6188 -2.5813
 4967SOL     OW26359   0.992   3.366   6.372 -0.3006  0.2313  0.8865
 4967SOL    HW126360   0.913   3.315   6.389  0.0166 -0.5381 -0.0203
 4967SOL    HW226361   0.969   3.459   6.376 -1.0363  0.1612 -1.6851
 4968SOL     OW26362   0.698   3.943   5.061  0.4262 -0.4862  0.2039
 4968SOL    HW126363   0.645   3.896   4.996  2.5341  0.6469 -2.3448
 4968SOL    HW226364   0.634   3.966   5.129 -0.5955  1.9033 -1.5484
 4969SOL     OW26365   0.438   0.034  11.472 -0.2449 -0.4700  0.0358
 4969SOL    HW126366   0.507   4.691  11.486 -0.9207 -1.5645 -1.7461
 4969SOL    HW226367   0.391   0.004  11.395 -2.1831  0.9233  0.7052
 4970SOL     OW26368   4.252   2.969   3.948  0.0012  0.6737  0.0228
 4970SOL    HW126369   4.259   2.912   3.871 -0.4201 -0.8401  1.1043
 4970SOL    HW226370   4.176   3.023   3.928  0.0545  1.2145  1.2632
 4971SOL     OW26371   2.755   0.279   4.492 -0.2626 -0.3771  0.0272
 4971SOL    HW126372   2.791   0.314   4.574 -2.9737 -1.8695  1.8450
 4971SOL    HW226373   2.717   0.361   4.459 -0.3263 -0.3146  0.2530
 4972SOL     OW26374   4.494   2.344   9.730  0.2825 -0.3500  0.0062
 4972SOL    HW126375   4.433   2.351   9.657  0.9744  0.5470 -0.4775
 4972SOL    HW226376   4.528   2.255   9.715  1.0265 -0.2282  0.9730
 4973SOL     OW26377   0.875   2.071  11.818 -0.2712 -0.2091  0.9536
 4973SOL    HW126378   0.875   2.010  11.891  1.9445 -1.3503  0.0128
 4973SOL    HW226379   0.815   2.129  11.865 -0.7710 -0.2439  0.3749
 4974SOL     OW26380   3.285   0.458   3.926  0.4979 -0.4751 -0.7037
 4974SOL    HW126381   3.221   0.529   3.918 -0.1568 -1.2488 -2.3345
 4974SOL    HW226382   3.323   0.461   3.838  1.5512 -1.4327 -0.2705
 4975SOL     OW26383   1.495   2.288   7.911 -0.1757  0.5299  0.2438
 4975SOL    HW126384   1.487   2.282   8.006 -1.6547 -1.0940  0.0117
 4975SOL    HW226385   1.487   2.194   7.895 -0.5565  0.8883 -1.6844
 4976SOL     OW26386   1.488   4.583   4.616 -0.3243  0.0517  0.0315
 4976SOL    HW126387   1.499   4.625   4.531 -1.4267 -1.0904 -0.6806
 4976SOL    HW226388   1.510   4.491   4.606  0.7202 -0.0261  2.8914
 4977SOL     OW26389   0.557   0.603   1.038  0.2590  0.3517  0.1717
 4977SOL    HW126390   0.472   0.640   1.014  0.5333  0.9276  0.1144
 4977SOL    HW226391   0.531   0.597   1.130 -2.4954 -1.0589 -0.7004
 4978SOL     OW26392   4.220   2.043   3.529 -0.3067 -0.5702  0.1211
 4978SOL    HW126393   4.199   1.954   3.558  0.7600 -0.2054  2.0218
 4978SOL    HW226394   4.148   2.048   3.466 -1.6686 -1.0749  1.6373
 4979SOL     OW26395   4.068   0.729  16.191  0.6590  0.4078  0.2846
 4979SOL    HW126396   3.975   0.751  16.199  0.9208  1.3959  0.5888
 4979SOL    HW226397   4.101   0.784  16.262  0.3700 -1.2967  1.7347
 4980SOL     OW26398   0.864   2.992   5.309 -0.5056  0.1006 -0.7389
 4980SOL    HW126399   0.856   3.067   5.250 -0.3316  0.3077 -0.5003
 4980SOL    HW226400   0.951   3.009   5.345 -0.5580 -0.6592 -0.2723
 4981SOL     OW26401   4.097   1.223  17.304  0.6887  0.0674 -0.8839
 4981SOL    HW126402   4.019   1.225  17.250 -0.9179  1.8114  1.5156
 4981SOL    HW226403   4.149   1.152  17.266  1.0397 -1.2060  1.9207
 4982SOL     OW26404   0.634   0.009   7.066  0.0708  0.1111 -0.3240
 4982SOL    HW126405   0.644   0.023   7.161  0.0218 -0.3004 -0.2585
 4982SOL    HW226406   0.577   4.655   7.060  0.2146 -0.0530  0.3094
 4983SOL     OW26407   3.095   2.605   0.814  0.7145  0.7966  0.2839
 4983SOL    HW126408   3.081   2.541   0.744  0.4085  1.1792 -0.0019
 4983SOL    HW226409   3.189   2.620   0.805  0.6011  1.5816  0.4197
 4984SOL     OW26410   0.777   2.604   3.923 -0.7552  0.6637  0.3594
 4984SOL    HW126411   0.787   2.571   3.834 -0.5615 -0.3606  0.7579
 4984SOL    HW226412   0.753   2.530   3.979  1.1624 -1.6542 -1.8945
 4985SOL     OW26413   0.487   1.975  14.622  0.0748 -0.3788 -0.3966
 4985SOL    HW126414   0.560   1.996  14.679 -2.5568  0.9709  2.4620
 4985SOL    HW226415   0.476   2.058  14.574 -0.4066 -0.5564 -0.5915
 4986SOL     OW26416   1.713   1.453   2.349 -0.2997 -0.1825  0.1753
 4986SOL    HW126417   1.754   1.367   2.340 -0.9357 -0.3382 -1.1076
 4986SOL    HW226418   1.748   1.479   2.435 -0.6769 -3.0760  1.1995
 4987SOL     OW26419   3.638   4.400  14.860 -0.0771 -0.4717 -0.2616
 4987SOL    HW126420   3.654   4.466  14.793 -0.4063 -1.5912 -1.4422
 4987SOL    HW226421   3.650   4.456  14.936  2.2804 -1.5795  0.1686
 4988SOL     OW26422   4.412   1.293   7.685 -0.9532 -0.1489 -0.4215
 4988SOL    HW126423   4.430   1.199   7.689  0.1200  0.0052 -1.6469
 4988SOL    HW226424   4.335   1.305   7.741 -1.4157 -2.5137 -0.5501
 4989SOL     OW26425   1.431   3.603  11.565 -0.0589  0.1387 -0.3446
 4989SOL    HW126426   1.445   3.640  11.478  0.5440  0.4593 -0.1046
 4989SOL    HW226427   1.515   3.616  11.609 -0.0276 -0.1010 -0.3337
 4990SOL     OW26428   1.680   0.434   0.897  0.1006  0.8359  0.7804
 4990SOL    HW126429   1.590   0.437   0.865  0.0767  5.0904  1.2181
 4990SOL    HW226430   1.672   0.353   0.948 -1.1229  0.9771  0.8109
 4991SOL     OW26431   1.376   2.921   3.492  0.1028  0.2713  0.4989
 4991SOL    HW126432   1.364   2.926   3.397  0.7784  1.3331  0.4697
 4991SOL    HW226433   1.356   2.828   3.498 -0.1883  0.3313  0.4490
 4992SOL     OW26434   1.129   0.335  11.912  0.0138 -0.3043 -0.3642
 4992SOL    HW126435   1.146   0.341  12.006 -0.1869  0.8720 -0.4021
 4992SOL    HW226436   1.194   0.268  11.891  0.1233 -0.7229  1.3312
 4993SOL     OW26437   2.508   3.210   3.022  1.2514 -0.5909 -0.3833
 4993SOL    HW126438   2.444   3.225   2.952  0.7966  0.2213  0.2068
 4993SOL    HW226439   2.512   3.300   3.052  2.6487 -1.1268  0.9787
 4994SOL     OW26440   3.370   0.086   3.609 -0.0173  0.5003  0.4750
 4994SOL    HW126441   3.291   0.121   3.649  0.8074  0.3974  2.1754
 4994SOL    HW226442   3.337   0.050   3.527  0.5087 -0.5130  0.7016
 4995SOL     OW26443   2.843   0.645  11.502  0.0291 -0.1120 -0.6039
 4995SOL    HW126444   2.928   0.616  11.535 -0.7273 -2.5057 -0.7502
 4995SOL    HW226445   2.867   0.682  11.417  0.0280 -0.2547 -0.6665
 4996SOL     OW26446   3.069   1.169   5.190  0.1257  0.3839  0.2555
 4996SOL    HW126447   2.998   1.128   5.142  0.6295 -1.8020  1.3884
 4996SOL    HW226448   3.118   1.193   5.111 -0.5682 -1.3300 -0.6968
 4997SOL     OW26449   3.838   4.407   3.093 -0.4106 -0.0661  0.2521
 4997SOL    HW126450   3.855   4.334   3.033  0.8239 -0.4263  1.0626
 4997SOL    HW226451   3.828   4.366   3.179 -1.4552 -0.1728  0.0773
 4998SOL     OW26452   1.862   1.119   3.078 -0.0574  1.0074  0.1896
 4998SOL    HW126453   1.823   1.205   3.095 -1.7180  0.2013  0.4004
 4998SOL    HW226454   1.949   1.139   3.114 -0.3981  0.0171  1.5583
 4999SOL     OW26455   3.389   0.207  16.720  0.1009 -0.9400 -0.1991
 4999SOL    HW126456   3.295   0.213  16.705  0.5680  0.4662 -2.6077
 4999SOL    HW226457   3.385   0.171  16.808  0.1985 -0.9341 -0.1918
 5000SOL     OW26458   2.590   0.785  12.581 -0.7475  0.4608 -0.2697
 5000SOL    HW126459   2.620   0.734  12.505  0.9274 -0.0809  0.7476
 5000SOL    HW226460   2.660   0.766  12.643 -0.3706 -0.5783 -0.9939
 5001SOL     OW26461   2.663   3.849   2.365  0.0448 -0.2059  0.0341
 5001SOL    HW126462   2.603   3.922   2.359 -0.9464 -1.1251 -1.2617
 5001SOL    HW226463   2.693   3.853   2.274 -2.8722  0.9603 -0.8774
 5002SOL     OW26464   3.936   0.523  10.207 -0.1831  0.7752 -0.1922
 5002SOL    HW126465   4.028   0.511  10.182  0.6580  0.1990  3.1552
 5002SOL    HW226466   3.936   0.608  10.250 -1.3107  0.2077  0.9104
 5003SOL     OW26467   1.237   2.093   3.356 -0.1684 -0.2911 -0.0462
 5003SOL    HW126468   1.208   2.183   3.339 -1.7043 -0.8027 -0.1981
 5003SOL    HW226469   1.330   2.096   3.336 -0.4612  1.6583 -1.1047
 5004SOL     OW26470   3.749   1.624  11.470  0.1962  0.3658  0.3443
 5004SOL    HW126471   3.823   1.594  11.522 -0.6555 -2.2209  0.0669
 5004SOL    HW226472   3.686   1.568  11.515  1.9571 -0.5725  1.6205
 5005SOL     OW26473   1.684   3.597   5.673  0.2172 -0.0534  0.0941
 5005SOL    HW126474   1.668   3.506   5.697 -1.7403 -0.1191 -1.4286
 5005SOL    HW226475   1.689   3.604   5.578  0.5860  1.6488  0.2314
 5006SOL     OW26476   2.443   3.436   2.409 -0.6740  0.3021 -0.3616
 5006SOL    HW126477   2.458   3.380   2.333 -1.6270 -0.6815  0.1808
 5006SOL    HW226478   2.520   3.492   2.412 -0.2138 -0.4198  1.2111
 5007SOL     OW26479   1.083   3.598   6.966  0.2786  0.3986 -0.1092
 5007SOL    HW126480   0.993   3.569   6.979  0.1678  1.4596  1.3879
 5007SOL    HW226481   1.118   3.527   6.911  0.7707  1.2116 -0.8521
 5008SOL     OW26482   3.076   2.393   1.735 -0.0155 -0.4514  0.0797
 5008SOL    HW126483   2.984   2.407   1.711 -0.1536  0.3236  1.0823
 5008SOL    HW226484   3.116   2.452   1.671 -1.8061  0.7734  0.0977
 5009SOL     OW26485   2.935   1.396   7.472  0.4963  0.0810  0.1069
 5009SOL    HW126486   2.925   1.484   7.508 -1.6953  0.2777 -0.9370
 5009SOL    HW226487   2.859   1.356   7.515  2.5384 -2.9876  0.8652
 5010SOL     OW26488   1.715   2.053   2.861  0.1872 -0.6495  0.2731
 5010SOL    HW126489   1.810   2.042   2.862  0.3955  1.2245  2.1153
 5010SOL    HW226490   1.695   2.147   2.868  0.5477 -0.6494  1.2457
 5011SOL     OW26491   4.525   2.878   9.092  0.1555  0.0696 -0.3293
 5011SOL    HW126492   4.551   2.786   9.088  1.7332  0.5579 -1.2635
 5011SOL    HW226493   4.439   2.880   9.048 -0.1708 -0.1755  0.3062
 5012SOL     OW26494   2.470   3.965   4.213 -0.0607  0.4790 -0.4765
 5012SOL    HW126495   2.498   3.997   4.127  1.4635 -0.8666 -0.4629
 5012SOL    HW226496   2.378   3.993   4.210  0.0821  0.9141 -0.8373
 5013SOL     OW26497   3.536   1.578   5.295 -0.1309 -0.2174 -0.3127
 5013SOL    HW126498   3.605   1.595   5.359 -3.2384  0.8729  2.7643
 5013SOL    HW226499   3.499   1.665   5.312 -1.3249 -0.8372  0.3456
 5014SOL     OW26500   2.266   1.784   6.318  0.3938 -0.9204 -0.1369
 5014SOL    HW126501   2.281   1.731   6.241 -0.8312 -1.4622 -0.0047
 5014SOL    HW226502   2.355   1.785   6.354 -0.4048  1.4053  1.7726
 5015SOL     OW26503   1.551   0.161   5.535  0.3356  0.0347 -0.5777
 5015SOL    HW126504   1.486   0.190   5.470 -0.6615 -1.2094 -0.1309
 5015SOL    HW226505   1.496   0.144   5.611  1.4991 -0.2463  0.1920
 5016SOL     OW26506   4.482   2.018   2.150  0.6959  0.2085 -0.1956
 5016SOL    HW126507   4.422   2.083   2.115 -0.8601 -1.1856 -0.1396
 5016SOL    HW226508   4.439   1.935   2.130  1.0483  0.3670 -1.6422
 5017SOL     OW26509   1.189   2.976  16.965  0.1170 -0.1822  0.5109
 5017SOL    HW126510   1.246   3.040  16.921  2.0854 -2.2291  0.1206
 5017SOL    HW226511   1.259   2.916  16.990 -1.4432 -1.8808  0.7140
 5018SOL     OW26512   4.651   0.677   5.474 -0.7290 -0.3997  0.4697
 5018SOL    HW126513   4.678   0.588   5.452 -4.1366 -1.6243  1.2005
 5018SOL    HW226514   4.565   0.666   5.434  0.5779 -1.1911 -2.1427
 5019SOL     OW26515   2.700   1.409   6.268  0.0038 -0.0652 -0.1077
 5019SOL    HW126516   2.721   1.323   6.303 -0.3222  0.3500  1.0973
 5019SOL    HW226517   2.610   1.406   6.299  0.4905 -2.3985  1.0305
 5020SOL     OW26518   1.955   0.886   9.335  0.1198 -0.4690  0.2908
 5020SOL    HW126519   2.043   0.853   9.316 -0.2817 -0.9194 -0.7958
 5020SOL    HW226520   1.941   0.836   9.416 -0.4729  1.7619  1.5753
 5021SOL     OW26521   0.585   3.054   7.820 -0.4500  0.7559  0.5218
 5021SOL    HW126522   0.652   3.122   7.828 -0.5597  1.2202 -2.7643
 5021SOL    HW226523   0.634   2.972   7.812 -1.5379  0.1785 -0.2435
 5022SOL     OW26524   1.869   2.976   9.069 -0.5293  0.4462 -0.1774
 5022SOL    HW126525   1.952   2.972   9.115 -0.1952  1.5177 -0.6695
 5022SOL    HW226526   1.829   2.893   9.093 -1.2359  0.7161 -0.3877
 5023SOL     OW26527   4.350   1.064   4.977  0.3327  0.7296  0.0386
 5023SOL    HW126528   4.267   1.105   4.949 -0.8640 -1.5824  0.2241
 5023SOL    HW226529   4.352   0.981   4.930  3.0446  0.3100  0.9149
 5024SOL     OW26530   2.317   3.535  17.648 -0.0234 -0.6293  0.2547
 5024SOL    HW126531   2.247   3.598  17.631  1.9884  1.4396 -0.3191
 5024SOL    HW226532   2.338   3.511  17.558 -0.1140  0.1538  0.0214
 5025SOL     OW26533   3.484   0.961  13.020 -0.2838  0.1295 -0.0480
 5025SOL    HW126534   3.521   0.903  13.087 -1.3921  1.2686  1.5569
 5025SOL    HW226535   3.558   1.011  12.985 -0.3443  1.1350  1.2501
 5026SOL     OW26536   3.442   0.501   7.781  0.7329  0.5802  0.2062
 5026SOL    HW126537   3.369   0.525   7.723  0.4052  3.1041  1.6776
 5026SOL    HW226538   3.507   0.526   7.715 -0.0661 -0.8502 -1.1342
 5027SOL     OW26539   0.855   4.696   5.376  0.3848 -0.2470 -0.0612
 5027SOL    HW126540   0.852   4.664   5.286 -0.3214  3.7810 -1.4777
 5027SOL    HW226541   0.881   0.066   5.367  1.9038 -0.7287 -0.7616
 5028SOL     OW26542   2.406   0.120  14.339  0.3951  0.0325 -0.7207
 5028SOL    HW126543   2.333   0.171  14.304 -0.2857 -2.2008 -2.5702
 5028SOL    HW226544   2.442   0.077  14.262 -0.0858 -0.5316 -0.6352
 5029SOL     OW26545   3.278   4.477   9.719 -0.2509 -0.0002 -1.0395
 5029SOL    HW126546   3.313   4.551   9.670 -2.7010  0.5459 -1.9298
 5029SOL    HW226547   3.351   4.416   9.705  0.2209  0.5952 -1.1518
 5030SOL     OW26548   1.452   1.781   3.293 -0.4932  0.3469 -0.0599
 5030SOL    HW126549   1.387   1.774   3.363 -0.2575 -3.4795 -0.1926
 5030SOL    HW226550   1.493   1.862   3.321  0.3397  0.0962 -0.5699
 5031SOL     OW26551   4.406   1.249  15.459 -0.0554 -0.2697  0.0537
 5031SOL    HW126552   4.397   1.278  15.368 -1.4864 -0.9567 -0.0184
 5031SOL    HW226553   4.322   1.204  15.464 -1.0653  1.7034  0.8107
 5032SOL     OW26554   3.233   0.855  16.676 -0.8321  0.0502  0.0428
 5032SOL    HW126555   3.289   0.799  16.730 -1.8708 -2.9499 -2.0087
 5032SOL    HW226556   3.167   0.796  16.640 -0.5636  0.1200 -0.5781
 5033SOL     OW26557   3.683   3.688   9.628 -0.5115  0.0486 -0.0782
 5033SOL    HW126558   3.693   3.593   9.628 -2.9851 -0.2273  2.0282
 5033SOL    HW226559   3.741   3.708   9.702 -0.5773 -0.1003  0.0139
 5034SOL     OW26560   1.658   3.760   6.959 -0.4163  0.1712  0.3217
 5034SOL    HW126561   1.660   3.836   7.017 -0.0210  0.6354 -0.2945
 5034SOL    HW226562   1.667   3.806   6.875  1.6496 -0.9968 -0.1010
 5035SOL     OW26563   2.852   1.967   5.731 -0.8134 -0.1319  0.1616
 5035SOL    HW126564   2.788   1.981   5.661  1.4920  1.8529 -1.5346
 5035SOL    HW226565   2.932   2.011   5.701  0.4836 -1.0914  2.2333
 5036SOL     OW26566   2.458   2.922   5.791  0.6096 -0.3439 -0.0787
 5036SOL    HW126567   2.481   3.003   5.837 -1.8031  0.9869 -1.1881
 5036SOL    HW226568   2.517   2.857   5.830  1.3253 -0.5831 -1.5953
 5037SOL     OW26569   1.190   0.498  15.455  0.2458  0.7767  0.0497
 5037SOL    HW126570   1.164   0.528  15.368 -0.3392 -0.6405 -0.2644
 5037SOL    HW226571   1.270   0.449  15.435  0.5597  2.7020 -3.3951
 5038SOL     OW26572   1.790   4.421   7.862 -0.2641 -0.2838  0.0573
 5038SOL    HW126573   1.789   4.509   7.825  1.7995 -0.9677 -1.6189
 5038SOL    HW226574   1.884   4.407   7.873 -0.0695 -0.1250 -1.4440
 5039SOL     OW26575   3.636   2.934   8.142 -0.4659 -0.3978  0.6023
 5039SOL    HW126576   3.718   2.971   8.174  0.1125 -0.5182 -0.7562
 5039SOL    HW226577   3.658   2.843   8.125  0.7795 -0.1267  0.7980
 5040SOL     OW26578   0.777   3.641   4.496  0.2397 -0.2163  0.1171
 5040SOL    HW126579   0.735   3.721   4.529 -1.8141 -1.2410  0.0248
 5040SOL    HW226580   0.737   3.574   4.552  0.0148 -0.3490 -0.2065
 5041SOL     OW26581   2.286   3.866   8.032  0.3145 -0.3255 -0.0802
 5041SOL    HW126582   2.279   3.956   8.001 -1.3701  0.1253  1.6386
 5041SOL    HW226583   2.207   3.824   7.999  1.2948 -2.3859  0.1557
 5042SOL     OW26584   1.973   2.268   5.523 -0.0887 -0.7390 -0.1338
 5042SOL    HW126585   1.954   2.220   5.603 -0.4084  0.8197  0.7367
 5042SOL    HW226586   1.910   2.222   5.468 -0.3445  0.2071 -0.6423
 5043SOL     OW26587   1.340   4.689  14.559 -0.4513  0.4946 -0.6609
 5043SOL    HW126588   1.347   4.668  14.652  0.9849 -0.8185 -1.0553
 5043SOL    HW226589   1.258   4.642  14.546 -0.8250  1.0323 -0.2544
 5044SOL     OW26590   0.401   3.605   8.220 -0.3351 -0.2645  0.4318
 5044SOL    HW126591   0.322   3.623   8.271 -0.1733  0.7679  0.3274
 5044SOL    HW226592   0.459   3.674   8.254  0.2836 -0.5666 -0.0108
 5045SOL     OW26593   1.652   2.536   8.024  0.0814 -0.0820  0.2987
 5045SOL    HW126594   1.678   2.611   7.971  0.2436  0.3916  1.0450
 5045SOL    HW226595   1.570   2.514   7.981 -0.4291  1.4266  0.5015
 5046SOL     OW26596   1.113   2.744   1.483 -0.0302 -0.0380  0.0012
 5046SOL    HW126597   1.129   2.827   1.528  0.5229 -0.1242 -0.0364
 5046SOL    HW226598   1.204   2.713   1.476 -0.0267 -0.1629  0.6513
 5047SOL     OW26599   3.012   4.326   4.310  0.4084  0.0926 -0.0552
 5047SOL    HW126600   2.995   4.307   4.403  1.5256  0.1505  0.1698
 5047SOL    HW226601   3.074   4.397   4.324  1.5593 -0.3668 -2.8174
 5048SOL     OW26602   2.138   1.140   9.105  1.1426 -0.3215  0.5653
 5048SOL    HW126603   2.103   1.132   9.194  0.3170  1.4330  0.4007
 5048SOL    HW226604   2.059   1.141   9.051  1.8721  2.9764 -0.4377
 5049SOL     OW26605   4.040   1.107   6.981  0.4095 -0.0027  0.0941
 5049SOL    HW126606   3.987   1.107   6.901 -0.3133  0.8723  0.5611
 5049SOL    HW226607   3.972   1.134   7.044  0.1491  2.0146 -1.0687
 5050SOL     OW26608   3.211   2.971   7.925  0.0997  0.2418  0.5112
 5050SOL    HW126609   3.200   3.049   7.871  2.5500 -0.1811 -0.5729
 5050SOL    HW226610   3.288   2.994   7.977  0.7238 -1.3629  0.2958
 5051SOL     OW26611   3.469   1.706   2.609 -0.1607 -0.1717 -0.1393
 5051SOL    HW126612   3.433   1.639   2.551  0.0170  1.7583 -2.4605
 5051SOL    HW226613   3.563   1.689   2.611 -0.2206 -0.4822  0.1689
 5052SOL     OW26614   3.983   1.730  12.853 -0.4432 -0.1042 -0.0810
 5052SOL    HW126615   4.059   1.764  12.806 -0.4034 -2.0234 -1.3906
 5052SOL    HW226616   3.908   1.759  12.800 -0.6871 -2.6461 -1.1005
 5053SOL     OW26617   3.349   2.663   0.777 -0.2039  0.0186 -0.2301
 5053SOL    HW126618   3.374   2.685   0.688  1.2203  0.3029  0.2415
 5053SOL    HW226619   3.371   2.739   0.831 -0.3964 -0.6679  0.8188
 5054SOL     OW26620   0.352   2.462   0.763 -0.1355 -0.2060 -0.1481
 5054SOL    HW126621   0.444   2.449   0.743  0.0698  0.1159  0.5972
 5054SOL    HW226622   0.351   2.547   0.807 -2.1703 -0.2632 -0.0726
 5055SOL     OW26623   0.826   4.065   4.708 -0.2901  0.2646  0.2150
 5055SOL    HW126624   0.841   4.084   4.801  0.8339 -1.0548  0.2989
 5055SOL    HW226625   0.877   4.139   4.674  0.1443  0.0935  0.4857
 5056SOL     OW26626   2.594   0.232  14.866 -0.0345 -0.7755  0.1344
 5056SOL    HW126627   2.508   0.238  14.906  0.1452 -0.2420  0.4286
 5056SOL    HW226628   2.576   0.273  14.781  0.3493  0.8966  0.8825
 5057SOL     OW26629   1.268   2.694   7.996 -0.0218  0.0319  0.0228
 5057SOL    HW126630   1.212   2.632   8.043 -2.2488  0.4864 -2.0229
 5057SOL    HW226631   1.281   2.636   7.921  0.0614  0.3820 -0.2311
 5058SOL     OW26632   2.412   1.903   1.661  0.6297  0.7333 -0.4561
 5058SOL    HW126633   2.399   1.939   1.573 -2.4366  0.5951 -0.0383
 5058SOL    HW226634   2.330   1.863   1.688  0.8570  0.7476  0.2745
 5059SOL     OW26635   2.146   0.494   8.029 -0.3775  0.4511 -0.4025
 5059SOL    HW126636   2.190   0.577   8.011 -0.9602  0.0093 -3.8482
 5059SOL    HW226637   2.197   0.464   8.104 -2.1371  0.0029  0.5964
 5060SOL     OW26638   4.300   2.516   8.659  0.3966 -0.1493 -0.0255
 5060SOL    HW126639   4.379   2.476   8.622 -0.6640 -0.9943 -1.3630
 5060SOL    HW226640   4.332   2.553   8.741  0.7834  0.1262 -0.3021
 5061SOL     OW26641   3.118   4.496   5.011 -0.3533  0.5314 -0.0158
 5061SOL    HW126642   3.118   4.540   4.925 -3.2951 -0.4487 -0.5251
 5061SOL    HW226643   3.041   4.440   5.006  1.4607 -2.0182  0.9907
 5062SOL     OW26644   0.580   3.343  16.950 -0.1562 -0.2552 -0.7110
 5062SOL    HW126645   0.517   3.271  16.942 -0.8294  0.3827 -1.0920
 5062SOL    HW226646   0.545   3.413  17.005  1.4618  0.1200 -0.1440
 5063SOL     OW26647   4.430   0.402   6.102  0.0505  0.2784  0.4839
 5063SOL    HW126648   4.524   0.412   6.116 -0.3057  4.4000 -0.0610
 5063SOL    HW226649   4.394   0.457   6.171 -3.1186 -1.8620  0.5553
 5064SOL     OW26650   2.828   3.008   6.187 -0.3521  0.2130  0.3092
 5064SOL    HW126651   2.891   3.050   6.128  0.7066 -1.0367  0.5672
 5064SOL    HW226652   2.887   2.959   6.244 -1.8537 -1.3224  0.5599
 5065SOL     OW26653   3.169   1.122   6.725  0.1510  0.0266 -0.1810
 5065SOL    HW126654   3.195   1.035   6.754 -0.3312 -0.6430 -1.7268
 5065SOL    HW226655   3.089   1.123   6.778  1.1702  2.9810  1.2862
 5066SOL     OW26656   2.933   4.608   6.713  0.0843  0.1802 -0.1292
 5066SOL    HW126657   2.840   4.621   6.694 -0.2105  0.5207  1.5447
 5066SOL    HW226658   2.931   4.581   6.804 -1.3274  3.0790  0.6897
 5067SOL     OW26659   0.152   1.248   6.227  0.1883 -0.0939 -0.0455
 5067SOL    HW126660   0.234   1.297   6.234  0.1607 -0.1031  0.3396
 5067SOL    HW226661   0.082   1.311   6.211 -0.8584 -1.8851 -2.6291
 5068SOL     OW26662   3.088   3.174   1.613 -0.1041  0.0151 -0.1896
 5068SOL    HW126663   3.068   3.258   1.573 -0.0204 -0.4808 -1.2618
 5068SOL    HW226664   3.043   3.174   1.698 -3.5049 -1.6395 -2.0138
 5069SOL     OW26665   2.873   0.158  14.578 -0.1531  0.4613  0.1676
 5069SOL    HW126666   2.780   0.177  14.590 -0.2983  0.8304 -1.5080
 5069SOL    HW226667   2.875   0.170  14.483  1.4879 -1.2608 -0.0192
 5070SOL     OW26668   4.355   3.094   5.830 -0.2746 -0.8191  0.1291
 5070SOL    HW126669   4.422   3.155   5.863 -0.3018 -1.0637  0.6410
 5070SOL    HW226670   4.348   3.112   5.737 -0.1842 -1.7631 -0.0636
 5071SOL     OW26671   4.637   1.245  14.398  0.9353 -1.0540  0.0657
 5071SOL    HW126672   4.681   1.283  14.322 -0.7598  2.8132  1.0036
 5071SOL    HW226673   4.584   1.179  14.352  0.5600  0.4422 -1.6520
 5072SOL     OW26674   2.817   0.374   6.314  0.0959  0.2849  0.1762
 5072SOL    HW126675   2.777   0.460   6.301 -3.8114 -1.9515 -2.2296
 5072SOL    HW226676   2.885   0.376   6.247 -0.0109 -0.0562  0.0631
 5073SOL     OW26677   0.421   2.888   3.865  0.1994 -0.0068 -0.1290
 5073SOL    HW126678   0.460   2.926   3.787 -0.5664  2.4811  0.6976
 5073SOL    HW226679   0.375   2.815   3.823 -0.0018 -1.0541  1.8640
 5074SOL     OW26680   0.746   2.679  15.394 -0.3408 -0.1490 -0.0509
 5074SOL    HW126681   0.789   2.614  15.338 -1.2161  0.6928 -1.6768
 5074SOL    HW226682   0.794   2.683  15.477  0.4734 -1.0146 -0.4694
 5075SOL     OW26683   3.172   2.552   5.684  0.1087 -0.0414 -0.2284
 5075SOL    HW126684   3.093   2.533   5.735 -0.1254 -0.6864 -0.8194
 5075SOL    HW226685   3.142   2.618   5.622  1.0893  0.9139  0.3193
 5076SOL     OW26686   1.524   1.101  10.440  0.4340 -0.4422 -0.2321
 5076SOL    HW126687   1.509   1.111  10.346 -0.3946 -3.4270 -0.4222
 5076SOL    HW226688   1.543   1.007  10.441  1.9909 -0.1415 -0.8901
 5077SOL     OW26689   3.989   3.308   5.135  0.3333  0.3686  1.0838
 5077SOL    HW126690   4.017   3.307   5.043 -2.0037  1.4322  0.3578
 5077SOL    HW226691   3.917   3.246   5.137  1.4770 -0.9955  0.2459
 5078SOL     OW26692   2.258   3.725   7.071 -0.0155 -0.2210  0.6456
 5078SOL    HW126693   2.191   3.788   7.097  0.4376  1.3819 -2.0739
 5078SOL    HW226694   2.230   3.648   7.120 -1.1448  0.9344  1.8205
 5079SOL     OW26695   0.818   3.524   1.507 -0.3205  0.0306 -0.0878
 5079SOL    HW126696   0.772   3.540   1.590 -0.0110 -0.3391  0.1547
 5079SOL    HW226697   0.790   3.602   1.458 -0.0389  0.7489  0.8838
 5080SOL     OW26698   2.588   0.806   3.069  0.0806  0.5216  0.1041
 5080SOL    HW126699   2.648   0.862   3.119  0.5027 -0.4603  0.6880
 5080SOL    HW226700   2.503   0.844   3.090  1.4699  2.6795  1.8037
 5081SOL     OW26701   4.525   2.890   8.107  0.1570 -0.4728 -0.4978
 5081SOL    HW126702   4.585   2.876   8.181 -0.7817  1.3884  0.6100
 5081SOL    HW226703   4.445   2.887   8.159  0.2557 -2.1007 -0.4206
 5082SOL     OW26704   4.259   0.391   7.422  0.3393  0.6575  0.0579
 5082SOL    HW126705   4.233   0.300   7.439 -0.5043  0.5333 -1.8912
 5082SOL    HW226706   4.170   0.424   7.411  0.4906  1.4999  1.3161
 5083SOL     OW26707   2.291   3.022   3.208 -0.3423  0.1172 -0.0265
 5083SOL    HW126708   2.346   3.036   3.285 -0.1484 -3.5490  0.5005
 5083SOL    HW226709   2.321   3.097   3.157  0.5132  0.3582  0.8366
 5084SOL     OW26710   2.977   1.532   4.254  0.0168  0.1538 -0.0828
 5084SOL    HW126711   3.032   1.459   4.224 -2.4721 -2.3479  1.4865
 5084SOL    HW226712   2.900   1.517   4.199 -0.9610 -0.2195  1.3939
 5085SOL     OW26713   2.353   3.743  13.312 -0.1478  0.1059 -0.3054
 5085SOL    HW126714   2.315   3.675  13.255 -0.6400  0.7263 -0.7141
 5085SOL    HW226715   2.434   3.694  13.325 -0.4168 -0.0028  0.9362
 5086SOL     OW26716   3.142   3.245  10.277  0.0666 -0.0535 -0.3307
 5086SOL    HW126717   3.234   3.228  10.256  0.4675  0.3268  1.0864
 5086SOL    HW226718   3.132   3.304  10.202 -0.5997 -0.6353 -0.6906
 5087SOL     OW26719   4.522   3.565   1.797 -0.1081  0.2425  1.0709
 5087SOL    HW126720   4.509   3.657   1.818  1.4898 -0.0477  3.2824
 5087SOL    HW226721   4.500   3.559   1.703  1.0294  1.5228  0.7328
 5088SOL     OW26722   0.993   1.870   2.432  0.7225 -0.1884 -0.1060
 5088SOL    HW126723   1.062   1.823   2.385  0.7727  0.8672 -1.0906
 5088SOL    HW226724   0.934   1.796   2.446  0.8827 -0.0616  1.2913
 5089SOL     OW26725   2.991   0.378   5.402  0.0368 -0.1795 -0.1900
 5089SOL    HW126726   3.054   0.443   5.431 -2.2134  1.0438  1.9025
 5089SOL    HW226727   3.002   0.315   5.474 -0.3438 -1.4593 -1.2508
 5090SOL     OW26728   1.225   1.711   4.211  0.4110  0.5700 -0.2861
 5090SOL    HW126729   1.257   1.624   4.235  0.7701  0.9444  0.5904
 5090SOL    HW226730   1.307   1.757   4.192  0.2314  0.6803 -0.7877
 5091SOL     OW26731   0.046   4.055  11.917  0.1622 -0.1586 -0.0843
 5091SOL    HW126732   0.058   4.145  11.887  0.1526 -0.8956 -2.3226
 5091SOL    HW226733   4.717   4.062  11.997  0.5964 -0.0500  0.1866
 5092SOL     OW26734   2.854   3.071   2.252 -0.0827 -0.1972 -0.2862
 5092SOL    HW126735   2.763   3.049   2.274  0.0963  0.2913  0.9462
 5092SOL    HW226736   2.890   3.057   2.340  1.6896  0.9677 -0.8292
 5093SOL     OW26737   4.406   2.532   8.246  0.2915  0.2587 -0.6764
 5093SOL    HW126738   4.338   2.506   8.307  1.9055  0.9246  1.3990
 5093SOL    HW226739   4.417   2.450   8.197  1.2184 -0.9975  1.6386
 5094SOL     OW26740   3.468   0.894   8.340 -0.6906  0.1019  0.0077
 5094SOL    HW126741   3.560   0.897   8.314 -0.5758  0.1019  0.4089
 5094SOL    HW226742   3.439   0.971   8.291 -0.9413  0.6763  1.0524
 5095SOL     OW26743   1.693   2.122  10.603  0.8158 -0.2931 -0.1725
 5095SOL    HW126744   1.688   2.027  10.603 -0.7945 -0.2068 -0.9553
 5095SOL    HW226745   1.773   2.145  10.650 -0.3029  1.8234  0.7274
 5096SOL     OW26746   3.395   4.702  15.327 -0.1530 -0.0161  0.2288
 5096SOL    HW126747   3.443   4.619  15.327  0.7956  0.5317 -0.1831
 5096SOL    HW226748   3.463   0.023  15.377 -1.3597  2.0257  0.0649
 5097SOL     OW26749   4.325   2.000   0.221 -0.3713  0.0687  0.5862
 5097SOL    HW126750   4.300   2.073   0.277 -4.3610 -0.7329 -0.1190
 5097SOL    HW226751   4.418   2.021   0.215 -0.2222 -0.8880 -0.5706
 5098SOL     OW26752   4.122   1.843   6.904 -0.6407 -0.3959  0.3214
 5098SOL    HW126753   4.076   1.794   6.837  1.2090 -1.5988 -0.0782
 5098SOL    HW226754   4.072   1.814   6.981  0.4238 -1.4331  0.6305
 5099SOL     OW26755   4.082   1.678   0.572 -0.0962 -0.0516  0.2951
 5099SOL    HW126756   4.127   1.632   0.643  0.3313  0.2093  0.1949
 5099SOL    HW226757   4.140   1.751   0.551  0.3923 -0.3690  0.5325
 5100SOL     OW26758   0.681   3.355   1.244  0.2948  0.2803  0.0981
 5100SOL    HW126759   0.722   3.368   1.158  0.4039 -0.2553  0.0713
 5100SOL    HW226760   0.666   3.443   1.278  3.8100  2.0005 -2.7079
 5101SOL     OW26761   4.145   0.330  15.215  0.2165 -0.2526  0.0631
 5101SOL    HW126762   4.168   0.422  15.230 -0.5946 -0.2247  1.1319
 5101SOL    HW226763   4.144   0.295  15.304 -0.9279  0.2863  0.2588
 5102SOL     OW26764   2.485   4.478   6.590 -0.0249 -0.5442 -0.3870
 5102SOL    HW126765   2.447   4.465   6.677 -1.8887  2.4579 -0.7591
 5102SOL    HW226766   2.481   4.391   6.551  2.3833 -0.6350 -0.4298
 5103SOL     OW26767   3.042   1.383   8.716  0.0778 -0.6003  0.0855
 5103SOL    HW126768   3.003   1.457   8.762 -1.6151  0.1115 -2.4916
 5103SOL    HW226769   3.021   1.305   8.766 -2.7097  1.2619  1.8371
 5104SOL     OW26770   2.375   4.279   7.410 -0.0885  0.0323  0.1594
 5104SOL    HW126771   2.406   4.366   7.433  1.6329 -0.6761  0.4869
 5104SOL    HW226772   2.423   4.260   7.330  0.9098 -0.9628  0.9913
 5105SOL     OW26773   3.110   2.059   5.603 -0.1745 -0.0580 -0.1728
 5105SOL    HW126774   3.127   1.973   5.567 -0.8993  0.0598 -0.7976
 5105SOL    HW226775   3.200   2.090   5.593  0.1720  0.1588  3.4391
 5106SOL     OW26776   0.639   1.684   7.472 -0.0415 -0.1362  0.4139
 5106SOL    HW126777   0.603   1.654   7.555  3.3516  0.9084  2.2536
 5106SOL    HW226778   0.656   1.775   7.493  2.9430 -1.0839  2.2394
 5107SOL     OW26779   4.396   2.019   1.436  0.2729  0.1698  0.2015
 5107SOL    HW126780   4.426   1.929   1.443 -0.8493 -0.0177  2.5495
 5107SOL    HW226781   4.354   2.030   1.521  1.0189  1.6124  0.3817
 5108SOL     OW26782   2.834   4.097   1.356  0.0169  0.2540 -0.2635
 5108SOL    HW126783   2.927   4.106   1.378  0.2411 -1.5704 -0.4770
 5108SOL    HW226784   2.823   4.176   1.301  0.7630 -1.1685 -2.4453
 5109SOL     OW26785   2.115   3.844   6.307  0.2500  0.0931  0.0361
 5109SOL    HW126786   2.079   3.759   6.282 -0.7975  0.8894 -1.1960
 5109SOL    HW226787   2.069   3.869   6.387  0.5222  0.9970 -0.0818
 5110SOL     OW26788   1.627   1.954   2.097 -0.0753 -0.2133  0.2257
 5110SOL    HW126789   1.598   1.868   2.128 -0.3027 -0.4127 -0.5351
 5110SOL    HW226790   1.548   1.976   2.047  0.1854  0.4528  0.1069
 5111SOL     OW26791   2.669   2.148   5.044  0.0087 -0.2207  0.1444
 5111SOL    HW126792   2.651   2.058   5.017 -1.2334  0.6037 -1.8402
 5111SOL    HW226793   2.624   2.156   5.128 -0.1702 -0.5085  0.0757
 5112SOL     OW26794   1.437   3.417   3.883  0.6216  0.4504  0.1008
 5112SOL    HW126795   1.375   3.344   3.890  2.0917 -0.6599  1.6410
 5112SOL    HW226796   1.380   3.484   3.921  0.2826  0.6373 -0.7451
 5113SOL     OW26797   0.935   1.788  17.625  0.1446  0.2018 -0.4102
 5113SOL    HW126798   0.853   1.740  17.635  0.5602 -1.1400 -3.1588
 5113SOL    HW226799   0.914   1.842  17.548 -1.2492  0.5860  0.2428
 5114SOL     OW26800   1.473   1.129   8.887  0.3889  0.4160  0.3598
 5114SOL    HW126801   1.506   1.041   8.868 -0.3114  0.3427 -0.5525
 5114SOL    HW226802   1.393   1.125   8.834  0.5626  0.0403  0.1320
 5115SOL     OW26803   1.345   1.181  10.801 -0.8240  0.0037 -0.1658
 5115SOL    HW126804   1.323   1.115  10.866  0.2675  0.7191  0.9359
 5115SOL    HW226805   1.439   1.191  10.818 -1.0372  1.7636 -0.0451
 5116SOL     OW26806   3.406   2.611   9.735 -0.2197 -0.4602 -0.3795
 5116SOL    HW126807   3.370   2.531   9.774  0.0626 -1.2595 -1.7870
 5116SOL    HW226808   3.473   2.564   9.687  1.2367 -1.4186  2.5944
 5117SOL     OW26809   1.292   2.547   7.785 -0.2379 -0.1279 -0.2311
 5117SOL    HW126810   1.202   2.527   7.761 -0.5294  1.4732 -0.4454
 5117SOL    HW226811   1.345   2.484   7.735  2.0442  2.0902 -0.5886
 5118SOL     OW26812   3.882   0.223   6.273  0.1539 -0.2455 -0.3509
 5118SOL    HW126813   3.955   0.277   6.241  0.3097  1.0807  2.2687
 5118SOL    HW226814   3.905   0.217   6.365  0.5378  1.1420 -0.3582
 5119SOL     OW26815   1.986   4.062   6.941  0.2047 -0.5254  0.1865
 5119SOL    HW126816   1.899   4.087   6.911  1.2380  1.1435 -1.4378
 5119SOL    HW226817   2.047   4.123   6.899 -0.9832  2.5060  2.8796
 5120SOL     OW26818   0.405   0.315   5.409 -0.1877 -0.3746  0.4756
 5120SOL    HW126819   0.445   0.400   5.425 -0.7744  0.4707 -2.5664
 5120SOL    HW226820   0.353   0.340   5.332  1.8757  0.7421 -0.5506
 5121SOL     OW26821   4.196   2.709   8.118  0.4106  0.7471 -0.6026
 5121SOL    HW126822   4.170   2.674   8.033  1.8576  0.0659 -0.7648
 5121SOL    HW226823   4.246   2.641   8.163 -0.4801 -0.1895 -1.0436
 5122SOL     OW26824   0.377   2.925   5.277 -0.2572 -0.1897 -0.0124
 5122SOL    HW126825   0.391   3.006   5.227 -0.4359  0.0531  0.3254
 5122SOL    HW226826   0.440   2.869   5.233  0.2927  0.0394  0.4675
 5123SOL     OW26827   4.661   0.846   1.834 -0.2872 -0.1417 -0.4463
 5123SOL    HW126828   0.018   0.810   1.873 -0.4515  0.6477  0.6035
 5123SOL    HW226829   4.680   0.935   1.863 -0.2829  0.2075 -1.5104
 5124SOL     OW26830   1.252   3.668   7.950 -0.5983 -0.3745  0.1473
 5124SOL    HW126831   1.219   3.743   7.999 -0.0348  1.1980 -1.8610
 5124SOL    HW226832   1.345   3.649   7.964 -0.6849 -0.2975  0.8310
 5125SOL     OW26833   0.369   3.160  17.016 -0.0899 -0.2047 -0.3028
 5125SOL    HW126834   0.413   3.076  17.004 -0.3189 -0.3335 -0.2537
 5125SOL    HW226835   0.365   3.155  17.112  3.3145 -0.4271 -0.1864
 5126SOL     OW26836   0.637   2.840  16.678 -0.0095 -0.0519 -0.2213
 5126SOL    HW126837   0.709   2.886  16.633  3.1763 -2.4811  2.4210
 5126SOL    HW226838   0.644   2.755  16.635  1.1594 -0.3139  0.5045
 5127SOL     OW26839   3.195   3.886   2.550  0.0865 -0.1169 -0.3536
 5127SOL    HW126840   3.133   3.941   2.597 -0.4218 -0.7249 -0.3214
 5127SOL    HW226841   3.216   3.818   2.614  1.9519 -1.1750 -2.0676
 5128SOL     OW26842   3.707   0.242   1.624 -0.0959  0.0814 -0.0739
 5128SOL    HW126843   3.800   0.234   1.642 -0.6049 -2.1325  1.5067
 5128SOL    HW226844   3.687   0.152   1.597 -0.3902  0.1742 -0.1744
 5129SOL     OW26845   0.454   1.295   8.706 -0.5334 -0.4263  0.0843
 5129SOL    HW126846   0.451   1.244   8.625  2.4634  1.4996 -1.2288
 5129SOL    HW226847   0.394   1.366   8.684 -0.2096 -0.7345 -1.8451
 5130SOL     OW26848   0.379   2.792   9.404 -0.1678 -1.0800 -0.2745
 5130SOL    HW126849   0.336   2.807   9.488  1.8887  0.1396  0.5773
 5130SOL    HW226850   0.307   2.793   9.341  2.0354 -2.4690 -2.8325
 5131SOL     OW26851   2.081   2.958   4.642 -0.3079 -0.3092 -0.4779
 5131SOL    HW126852   2.126   2.926   4.564 -0.4777 -1.9541  0.1092
 5131SOL    HW226853   2.006   2.899   4.647  0.1535 -0.7943  0.6409
 5132SOL     OW26854   0.574   1.919   1.905 -0.1791 -0.1567  0.1633
 5132SOL    HW126855   0.492   1.876   1.927 -0.8143  0.5873 -0.7289
 5132SOL    HW226856   0.594   1.968   1.984  2.1312 -0.5234 -0.1883
 5133SOL     OW26857   2.154   0.341  14.672 -0.2758  0.5101 -0.0770
 5133SOL    HW126858   2.163   0.427  14.631 -1.4033 -0.2376 -1.8901
 5133SOL    HW226859   2.084   0.371  14.730 -0.1500 -2.2522  1.5564
 5134SOL     OW26860   0.773   2.356  16.413 -0.6615 -0.1924 -0.2652
 5134SOL    HW126861   0.739   2.270  16.388  0.0364 -0.4089 -0.4838
 5134SOL    HW226862   0.867   2.340  16.407 -0.4917  0.6262  0.2419
 5135SOL     OW26863   0.121   1.492   0.471 -0.4582 -0.2624  0.3755
 5135SOL    HW126864   0.099   1.446   0.552 -0.5777 -0.0259  0.4750
 5135SOL    HW226865   0.155   1.413   0.429  0.4110  1.3813 -2.0244
 5136SOL     OW26866   0.461   2.920  16.876 -0.3971  0.5994 -0.1282
 5136SOL    HW126867   0.374   2.882  16.881 -1.4195  2.9330 -0.2281
 5136SOL    HW226868   0.487   2.861  16.804 -0.0142 -0.1074  0.5895
 5137SOL     OW26869   2.034   1.522   2.673 -0.5151 -0.0317  0.6404
 5137SOL    HW126870   2.095   1.464   2.626  0.0276 -0.3795  1.7696
 5137SOL    HW226871   2.080   1.528   2.756 -0.1263 -1.5953  0.5445
 5138SOL     OW26872   3.961   4.558   2.807  0.2246  0.4069 -0.1501
 5138SOL    HW126873   3.963   4.462   2.810 -1.3018  0.3668 -0.8841
 5138SOL    HW226874   4.032   4.582   2.866 -0.2658 -0.6890  0.8858
 5139SOL     OW26875   3.561   0.686   2.853  0.0997  0.6930 -0.0365
 5139SOL    HW126876   3.477   0.660   2.815 -1.1482 -0.7581  3.7386
 5139SOL    HW226877   3.608   0.643   2.782 -0.3141  0.1017  0.0410
 5140SOL     OW26878   3.928   3.977   6.226  0.4243  0.0084 -0.0956
 5140SOL    HW126879   3.834   3.993   6.237  0.8261 -0.0734  3.4743
 5140SOL    HW226880   3.961   4.064   6.205  0.0961 -0.1864 -1.4262
 5141SOL     OW26881   2.565   3.285   4.607 -0.2007  0.1920  0.3067
 5141SOL    HW126882   2.477   3.287   4.570  0.0145  0.1159 -0.2150
 5141SOL    HW226883   2.590   3.377   4.598 -2.6180  1.1343  3.2564
 5142SOL     OW26884   1.720   1.633   6.950 -0.4231  0.0496 -0.3237
 5142SOL    HW126885   1.704   1.640   7.044  1.3856  1.1366 -0.0961
 5142SOL    HW226886   1.786   1.564   6.941  1.0345  1.1397  1.8844
 5143SOL     OW26887   2.441   4.337   8.770 -0.2997 -0.2868 -0.6188
 5143SOL    HW126888   2.402   4.251   8.762  1.0595 -1.0367  0.7823
 5143SOL    HW226889   2.374   4.373   8.829  1.3899  0.8817  0.6093
 5144SOL     OW26890   4.598   2.553   3.483  0.7561 -0.4461 -0.2510
 5144SOL    HW126891   4.603   2.492   3.410  2.4611  0.6019 -1.0309
 5144SOL    HW226892   4.569   2.491   3.549  1.5260 -1.2234 -0.6412
 5145SOL     OW26893   4.382   0.751  17.036  0.1472  0.3059 -0.1862
 5145SOL    HW126894   4.355   0.777  16.948 -0.5161 -3.1560 -1.0043
 5145SOL    HW226895   4.457   0.700  17.006 -1.5044 -1.5139 -1.2132
 5146SOL     OW26896   1.747   1.206   7.637 -0.0219  0.3625 -0.0254
 5146SOL    HW126897   1.662   1.170   7.612  0.0841  1.2355 -1.6132
 5146SOL    HW226898   1.728   1.299   7.632 -1.3782  0.1418  1.0056
 5147SOL     OW26899   0.795   2.081   4.218 -0.1881  0.1919  0.1701
 5147SOL    HW126900   0.832   2.088   4.306 -1.3593  0.3901  0.6506
 5147SOL    HW226901   0.868   2.035   4.176 -0.8731  0.7960 -1.6701
 5148SOL     OW26902   0.812   1.163   4.596  0.4377 -0.5997  0.5036
 5148SOL    HW126903   0.891   1.115   4.572 -0.1865 -0.5060 -1.7228
 5148SOL    HW226904   0.741   1.116   4.554  0.4771  0.3104 -0.5749
 5149SOL     OW26905   3.109   1.751  16.750 -0.9996  0.2807  0.3460
 5149SOL    HW126906   3.100   1.754  16.655 -1.5650 -0.4086  0.3748
 5149SOL    HW226907   3.048   1.680  16.769  0.7161 -1.3333 -0.1739
 5150SOL     OW26908   1.865   2.870   5.977 -0.1654  0.2358 -0.6852
 5150SOL    HW126909   1.956   2.893   5.995 -0.6216  0.6420  1.2001
 5150SOL    HW226910   1.822   2.908   6.054 -0.4882  0.2461 -0.8694
 5151SOL     OW26911   1.605   2.455   0.844 -0.2174  0.4822  0.1128
 5151SOL    HW126912   1.578   2.363   0.834 -0.1080  0.7642 -2.9811
 5151SOL    HW226913   1.697   2.460   0.817 -0.8704  0.9198 -2.0789
 5152SOL     OW26914   0.469   1.731  14.463 -0.5117  0.3418 -0.8986
 5152SOL    HW126915   0.435   1.811  14.503  1.2537  1.0289 -0.7384
 5152SOL    HW226916   0.506   1.686  14.539  1.9906  1.8328 -1.2262
 5153SOL     OW26917   0.581   2.555   2.652  0.2392  0.1799 -0.6620
 5153SOL    HW126918   0.537   2.495   2.712  0.4355  1.1962  0.4913
 5153SOL    HW226919   0.672   2.566   2.680  0.0195  0.9674 -0.2694
 5154SOL     OW26920   2.914   0.619   8.026 -0.4290  0.8101  0.0543
 5154SOL    HW126921   2.959   0.669   8.094  0.9820  0.0216 -0.2890
 5154SOL    HW226922   2.993   0.574   7.995 -1.9280 -2.1482  0.5101
 5155SOL     OW26923   1.399   4.544   7.806 -0.0465  0.0600 -0.3233
 5155SOL    HW126924   1.421   4.568   7.716 -1.5171  2.7305  0.0252
 5155SOL    HW226925   1.313   4.586   7.801 -0.6060 -0.7986  1.9414
 5156SOL     OW26926   4.355   0.138  12.804  0.2579 -0.6514 -0.4406
 5156SOL    HW126927   4.304   0.219  12.811 -3.3521 -2.7916 -1.8208
 5156SOL    HW226928   4.332   0.115  12.714 -3.6077  0.0052  0.3622
 5157SOL     OW26929   4.482   2.640   0.406  0.3614 -0.5430 -0.2793
 5157SOL    HW126930   4.536   2.637   0.327 -0.5039  0.5768 -0.8986
 5157SOL    HW226931   4.417   2.574   0.383  1.0006 -0.3054 -2.8266
 5158SOL     OW26932   0.235   1.610  10.526 -0.0878 -0.2827  0.4741
 5158SOL    HW126933   0.197   1.633  10.611 -0.1396 -1.6046  0.8027
 5158SOL    HW226934   0.165   1.641  10.468  0.9998 -0.5301 -0.9797
 5159SOL     OW26935   0.325   2.569  17.028  0.2159  0.7128 -0.0440
 5159SOL    HW126936   0.247   2.591  16.977  0.2253  1.1874  0.1477
 5159SOL    HW226937   0.339   2.652  17.074 -0.0822 -0.1611  1.6500
 5160SOL     OW26938   3.982   0.365   2.939  0.2704  0.0538  0.0581
 5160SOL    HW126939   3.975   0.457   2.913  0.3954 -0.2062 -0.8868
 5160SOL    HW226940   3.909   0.367   3.001 -0.1507  1.7412 -0.4831
 5161SOL     OW26941   3.829   0.955   6.385 -0.7705  0.0210 -0.0866
 5161SOL    HW126942   3.859   0.934   6.473  1.6314 -0.9034 -1.1306
 5161SOL    HW226943   3.886   1.029   6.362 -1.0772 -0.3040 -1.8488
 5162SOL     OW26944   3.804   1.237   7.031  0.0293 -1.1474 -0.4523
 5162SOL    HW126945   3.726   1.201   7.074 -0.2623 -1.4391 -1.2308
 5162SOL    HW226946   3.777   1.237   6.939 -1.8035 -1.3762  0.0884
 5163SOL     OW26947   1.910   0.373   8.083 -0.1136  0.4192  0.0580
 5163SOL    HW126948   1.999   0.406   8.075 -0.3504  1.8320  3.1298
 5163SOL    HW226949   1.868   0.438   8.140 -1.3470 -0.0391 -0.3144
 5164SOL     OW26950   3.073   4.627   6.169  0.1257 -0.2894  0.1099
 5164SOL    HW126951   2.985   4.655   6.144  1.2068  1.8181 -1.2938
 5164SOL    HW226952   3.101   4.710   6.207  0.3335  0.7619 -2.3717
 5165SOL     OW26953   0.750   1.436   3.459  0.2681  0.1477  0.0886
 5165SOL    HW126954   0.711   1.523   3.472  0.5573  0.5100 -1.4239
 5165SOL    HW226955   0.701   1.411   3.381  0.1758 -1.5408  0.6983
 5166SOL     OW26956   3.243   2.471   7.989  0.0009  0.5921 -0.0494
 5166SOL    HW126957   3.284   2.527   8.056  0.7932  0.4813 -0.4517
 5166SOL    HW226958   3.212   2.539   7.929  0.4030  1.1987  0.4332
 5167SOL     OW26959   2.872   3.330   3.443 -0.1416 -0.3901 -0.8449
 5167SOL    HW126960   2.840   3.254   3.491  1.8514  0.0474  1.1963
 5167SOL    HW226961   2.898   3.389   3.514  1.3631 -2.2092  0.1057
 5168SOL     OW26962   1.369   0.573  11.755  0.0882  0.3760  0.4044
 5168SOL    HW126963   1.404   0.500  11.704 -0.1625 -0.8329  1.9685
 5168SOL    HW226964   1.397   0.653  11.710 -1.4218  1.0520  0.6767
 5169SOL     OW26965   2.954   1.033   6.116 -0.5611  0.1301  0.3126
 5169SOL    HW126966   3.003   1.022   6.198 -0.4294  0.6026  0.3019
 5169SOL    HW226967   2.952   1.128   6.101  1.1844  0.0095 -0.7053
 5170SOL     OW26968   0.913   3.355   1.707 -0.1274 -0.4287 -0.0196
 5170SOL    HW126969   0.907   3.377   1.614  0.4977  0.0761  0.0565
 5170SOL    HW226970   0.906   3.259   1.710 -1.4212 -0.3188  0.2798
 5171SOL     OW26971   0.510   3.113   9.245 -0.4270 -0.0940 -0.2342
 5171SOL    HW126972   0.548   3.028   9.267  1.1739  0.4131 -1.0371
 5171SOL    HW226973   0.543   3.165   9.319  1.6645  0.4748 -1.5736
 5172SOL     OW26974   2.263   1.688   9.003  0.2170 -0.3997 -0.0907
 5172SOL    HW126975   2.288   1.598   8.984 -2.1529 -0.9693 -0.3728
 5172SOL    HW226976   2.170   1.682   8.985 -0.0074 -0.4310  1.0994
 5173SOL     OW26977   4.146   2.942  11.035  0.4074 -0.2457  0.0916
 5173SOL    HW126978   4.232   2.920  11.072 -0.5367 -2.4245  0.9999
 5173SOL    HW226979   4.174   3.016  10.981 -2.2448  1.0460  0.5102
 5174SOL     OW26980   1.571   1.491   8.379  1.0273 -0.0213 -0.7431
 5174SOL    HW126981   1.643   1.476   8.441 -1.6635  0.7373  2.5216
 5174SOL    HW226982   1.555   1.585   8.388 -0.6102 -0.6655  3.3783
 5175SOL     OW26983   4.352   3.472  13.286 -0.0044 -0.2888  0.4317
 5175SOL    HW126984   4.267   3.506  13.258  1.0338  0.1958 -2.1223
 5175SOL    HW226985   4.350   3.378  13.265 -1.6632 -0.1163 -0.1274
 5176SOL     OW26986   2.531   1.259   4.035  0.2009 -0.6256  0.4943
 5176SOL    HW126987   2.537   1.248   3.940 -0.7881 -1.3772  0.5146
 5176SOL    HW226988   2.450   1.212   4.058  0.5052 -0.5125  1.7687
 5177SOL     OW26989   2.557   2.413   3.094  0.0755 -0.6394  0.0621
 5177SOL    HW126990   2.523   2.480   3.035 -2.5340 -3.2774 -1.4080
 5177SOL    HW226991   2.567   2.466   3.174 -0.9682  0.9241 -0.8324
 5178SOL     OW26992   0.646   0.563  13.064 -0.2075 -0.0108  0.5354
 5178SOL    HW126993   0.593   0.566  12.985  2.4643  0.0791 -1.2412
 5178SOL    HW226994   0.673   0.654  13.072  0.0615 -0.1715  1.4600
 5179SOL     OW26995   2.991   3.437   2.968 -0.3703  0.7409 -0.7538
 5179SOL    HW126996   2.904   3.456   2.933 -1.9605 -0.9586  2.2619
 5179SOL    HW226997   2.977   3.347   2.998 -2.3412  0.9477 -1.0939
 5180SOL     OW26998   0.359   4.329  17.314  0.1408 -0.3708 -0.5162
 5180SOL    HW126999   0.414   4.386  17.368  0.4771 -0.2629 -0.9695
 5180SOL    HW227000   0.345   4.251  17.367 -0.7986 -0.3936 -0.8038
 5181SOL     OW27001   1.260   2.892   2.606  0.6185  0.2122 -0.5485
 5181SOL    HW127002   1.268   2.982   2.638 -0.9432  0.6397 -1.3592
 5181SOL    HW227003   1.332   2.853   2.656  1.0796  1.5631 -0.1426
 5182SOL     OW27004   3.271   3.587   9.186  0.5194 -0.0171  0.0348
 5182SOL    HW127005   3.219   3.510   9.165  2.0773 -1.1914  0.5106
 5182SOL    HW227006   3.308   3.606   9.099 -4.2202  1.7251 -1.5859
 5183SOL     OW27007   4.346   3.156   3.645 -0.3870 -0.2698 -0.4360
 5183SOL    HW127008   4.414   3.212   3.606 -0.0905  1.0012  1.8721
 5183SOL    HW227009   4.268   3.203   3.615 -0.4144 -0.5895 -0.8607
 5184SOL     OW27010   3.735   4.140  11.774 -0.4022 -0.2448 -0.0388
 5184SOL    HW127011   3.731   4.061  11.719  3.0738 -0.9635  0.7614
 5184SOL    HW227012   3.829   4.156  11.784  0.0240 -2.2273 -0.8820
 5185SOL     OW27013   4.145   1.379   4.291  0.3094 -0.7019 -0.0802
 5185SOL    HW127014   4.063   1.409   4.253  0.1939 -1.6466 -0.5519
 5185SOL    HW227015   4.203   1.448   4.258  1.7315 -0.5761  2.6520
 5186SOL     OW27016   2.360   0.310   7.957  0.5569  0.1233  0.7346
 5186SOL    HW127017   2.282   0.355   7.988  0.9112  0.4168  1.1950
 5186SOL    HW227018   2.429   0.374   7.939 -0.2440  0.7774 -0.0057
 5187SOL     OW27019   3.055   3.600   8.866  0.5452  0.6208 -0.9174
 5187SOL    HW127020   3.016   3.637   8.945 -0.5093  0.1442 -1.2101
 5187SOL    HW227021   3.146   3.609   8.895 -0.0706 -1.8023  1.6995
 5188SOL     OW27022   4.305   1.632   7.100  0.2432  0.5474  0.2271
 5188SOL    HW127023   4.341   1.623   7.188  0.4361 -0.6638  0.0117
 5188SOL    HW227024   4.319   1.545   7.064  0.2099  0.5441  0.2225
 5189SOL     OW27025   2.694   0.163   3.204 -0.4126  0.2545 -0.2258
 5189SOL    HW127026   2.683   0.174   3.299  1.6316 -0.2121  0.0555
 5189SOL    HW227027   2.743   0.241   3.177  0.4563 -0.1459  0.1990
 5190SOL     OW27028   2.298   0.565   7.334  0.3509 -0.0650  0.1200
 5190SOL    HW127029   2.380   0.517   7.327  0.7269  0.6123 -0.1402
 5190SOL    HW227030   2.230   0.502   7.311 -2.7462  3.4401 -0.3553
 5191SOL     OW27031   4.089   0.303   3.629  0.0585 -0.3995  0.5068
 5191SOL    HW127032   3.998   0.306   3.598  1.0927 -0.3742 -2.4842
 5191SOL    HW227033   4.109   0.396   3.642 -1.0596 -0.3593  1.9158
 5192SOL     OW27034   1.660   0.606   2.783  0.0149  0.2758  0.1336
 5192SOL    HW127035   1.728   0.634   2.845  0.2869  0.9782 -0.4802
 5192SOL    HW227036   1.711   0.574   2.709 -2.5574  1.6092 -2.2272
 5193SOL     OW27037   0.554   0.078  14.680 -0.0186  0.2405  0.0132
 5193SOL    HW127038   0.472   0.069  14.730 -0.0988  2.5509  0.2596
 5193SOL    HW227039   0.586   0.167  14.694 -2.1682  0.8097  1.2697
 5194SOL     OW27040   4.046   2.590   4.227  0.1527  0.5520 -0.4014
 5194SOL    HW127041   4.111   2.537   4.274  0.1104  0.5318 -0.3654
 5194SOL    HW227042   4.085   2.614   4.144 -0.1422 -1.2042 -1.0527
 5195SOL     OW27043   3.172   4.273   0.544 -0.2689  0.8719 -0.8661
 5195SOL    HW127044   3.131   4.191   0.516  1.1543  0.0949 -0.6801
 5195SOL    HW227045   3.177   4.268   0.639  1.1104 -1.1554 -1.0383
 5196SOL     OW27046   1.332   1.368   3.938  0.7792  0.3372 -0.0096
 5196SOL    HW127047   1.357   1.456   3.910 -0.9598  0.4853 -1.0443
 5196SOL    HW227048   1.258   1.392   3.993 -0.0429 -0.1444 -0.9073
 5197SOL     OW27049   3.342   3.221   4.142  0.7052 -0.4800 -0.9422
 5197SOL    HW127050   3.370   3.130   4.133 -0.0918 -1.1056  2.7238
 5197SOL    HW227051   3.250   3.201   4.125 -0.2673  3.8622 -0.7893
 5198SOL     OW27052   2.168   2.361   8.373 -0.0493  0.3940 -0.5347
 5198SOL    HW127053   2.105   2.369   8.444 -0.8471  0.5967 -1.2565
 5198SOL    HW227054   2.251   2.366   8.420 -1.3874 -1.9364  2.0276
 5199SOL     OW27055   0.667   1.176  15.946  0.3404 -0.1018  0.0070
 5199SOL    HW127056   0.714   1.259  15.952  1.2992 -0.4779 -2.4566
 5199SOL    HW227057   0.647   1.175  15.852  1.5262  0.2005 -0.2532
 5200SOL     OW27058   2.553   1.797   4.629  0.2134 -0.0853 -0.2635
 5200SOL    HW127059   2.620   1.838   4.684  2.4272 -1.4000 -1.9772
 5200SOL    HW227060   2.601   1.723   4.593  1.0061  0.1619  0.2954
 5201SOL     OW27061   3.976   3.821   7.054 -0.7161  0.4337  0.0403
 5201SOL    HW127062   3.967   3.893   7.116 -1.1423  1.0862 -0.7904
 5201SOL    HW227063   3.963   3.876   6.977  0.2697  1.0813  0.3383
 5202SOL     OW27064   1.262   0.325   7.314 -0.0162  0.0412 -0.8275
 5202SOL    HW127065   1.278   0.350   7.223 -1.3241  0.6282 -0.8984
 5202SOL    HW227066   1.182   0.274   7.303 -0.1958 -0.0337  0.8436
 5203SOL     OW27067   2.220   4.496   8.439  0.3728 -0.2112  0.9170
 5203SOL    HW127068   2.126   4.485   8.453  0.0991  0.1525 -0.6680
 5203SOL    HW227069   2.260   4.409   8.440 -0.9523 -0.8272 -0.8779
 5204SOL     OW27070   0.663   1.540   8.526  0.6296  0.3542  0.3482
 5204SOL    HW127071   0.757   1.530   8.509  0.5919  0.8553 -0.1805
 5204SOL    HW227072   0.647   1.631   8.551 -1.3337  0.6325 -1.9203
 5205SOL     OW27073   4.701   2.294   0.337 -0.0698  0.7446  0.5768
 5205SOL    HW127074   0.059   2.260   0.297 -0.8929 -0.9383  0.3805
 5205SOL    HW227075   0.020   2.374   0.372  3.0951 -1.3982  1.7223
 5206SOL     OW27076   0.751   0.844   6.297  0.2629  0.4355 -0.1279
 5206SOL    HW127077   0.747   0.930   6.339  2.1321  0.1568  0.6206
 5206SOL    HW227078   0.711   0.864   6.212 -0.4137  1.2902  0.4005
 5207SOL     OW27079   2.357   1.971   5.781  0.2912 -0.2187 -0.0186
 5207SOL    HW127080   2.304   1.916   5.840  1.5482 -1.1312  0.2561
 5207SOL    HW227081   2.304   1.977   5.702  0.8259  1.3044 -0.2471
 5208SOL     OW27082   3.368   3.013  17.276  0.0660  0.3638 -0.0066
 5208SOL    HW127083   3.319   3.018  17.359 -0.0723 -0.7474 -0.0136
 5208SOL    HW227084   3.309   3.054  17.213  1.0964 -1.9683 -2.5052
 5209SOL     OW27085   3.165   3.931   8.332  0.5970  0.3762 -0.8667
 5209SOL    HW127086   3.111   3.965   8.261  1.0699 -2.2355 -2.5054
 5209SOL    HW227087   3.244   3.983   8.318  2.0867 -1.1819  1.7819
 5210SOL     OW27088   2.071   2.662  15.266  0.5466 -0.0165  0.4633
 5210SOL    HW127089   2.109   2.684  15.351 -2.8641 -1.7612  2.4613
 5210SOL    HW227090   1.999   2.603  15.288  1.0167  0.0587  2.2353
 5211SOL     OW27091   4.493   2.066  14.468 -0.2843  0.2606  0.1816
 5211SOL    HW127092   4.528   2.059  14.556 -0.0455 -0.3433  0.0348
 5211SOL    HW227093   4.554   2.129  14.428 -0.4112  0.1289 -0.2248
 5212SOL     OW27094   4.237   1.360   7.887 -0.1070 -0.2087 -0.1717
 5212SOL    HW127095   4.250   1.429   7.952 -0.2786 -1.8591  1.6402
 5212SOL    HW227096   4.175   1.405   7.830 -0.1363  0.7836  0.6294
 5213SOL     OW27097   2.328   1.351   4.910  0.6660  0.1362  0.4022
 5213SOL    HW127098   2.393   1.303   4.963  1.2700 -0.6037 -1.0229
 5213SOL    HW227099   2.374   1.345   4.826 -0.8440 -0.7762 -0.3491
 5214SOL     OW27100   3.391   0.094  13.008  0.4110  0.5631  0.7749
 5214SOL    HW127101   3.438   0.027  12.959 -0.5673 -0.5650  1.3698
 5214SOL    HW227102   3.307   0.051  13.026  0.7226 -0.9062 -1.3551
 5215SOL     OW27103   2.083   1.821   4.168 -0.6595  0.2648 -0.1495
 5215SOL    HW127104   2.032   1.898   4.142  0.0592  0.4447 -1.0587
 5215SOL    HW227105   2.093   1.775   4.084  3.5625 -1.5529  1.3808
 5216SOL     OW27106   0.984   2.358   8.685 -0.3174  0.0425  0.0269
 5216SOL    HW127107   1.048   2.336   8.617  1.1959 -1.0381  1.7981
 5216SOL    HW227108   0.933   2.279   8.700  1.2984 -1.0661 -0.3951
 5217SOL     OW27109   0.225   3.215   7.500 -0.5424  0.9660 -0.5099
 5217SOL    HW127110   0.143   3.200   7.547 -0.0811  0.0917  0.0061
 5217SOL    HW227111   0.234   3.136   7.448  2.2091  2.1920 -1.8943
 5218SOL     OW27112   3.207   0.381   8.560  0.5399  0.4463 -0.0171
 5218SOL    HW127113   3.301   0.383   8.576  1.0658  1.7655 -3.4629
 5218SOL    HW227114   3.192   0.474   8.575  2.2760  0.9811 -1.6782
 5219SOL     OW27115   4.242   3.674  11.794 -0.7594 -0.9258 -0.0161
 5219SOL    HW127116   4.151   3.698  11.776 -1.2796 -2.1689  1.0132
 5219SOL    HW227117   4.246   3.689  11.888  2.2240 -0.0193 -0.2826
 5220SOL     OW27118   2.028   0.504   1.544  0.2087 -0.4707 -0.3331
 5220SOL    HW127119   2.108   0.482   1.590  1.6170 -0.0321 -2.5702
 5220SOL    HW227120   1.974   0.516   1.622 -1.1627 -3.5566 -0.7994
 5221SOL     OW27121   3.872   1.966   8.440 -0.2422 -0.5991 -0.6321
 5221SOL    HW127122   3.785   1.971   8.479  0.5847  1.8823  0.9709
 5221SOL    HW227123   3.863   1.896   8.376 -2.2379 -0.5960 -0.3341
 5222SOL     OW27124   3.315   3.713   0.962  0.1179 -0.0935 -0.0536
 5222SOL    HW127125   3.272   3.632   0.991 -0.3590 -0.1682 -0.9536
 5222SOL    HW227126   3.409   3.698   0.973 -0.5991 -2.4003  3.0065
 5223SOL     OW27127   2.485   3.818   3.756  0.0813  0.1548 -0.2277
 5223SOL    HW127128   2.560   3.862   3.718  0.2318 -1.0327 -1.3183
 5223SOL    HW227129   2.451   3.896   3.800 -2.2662 -0.6435 -0.5839
 5224SOL     OW27130   0.353   1.314   1.025 -0.3734 -0.1726 -0.1362
 5224SOL    HW127131   0.298   1.256   1.078  2.2103 -2.4936  0.0050
 5224SOL    HW227132   0.425   1.257   1.000  1.1214  1.0194  1.4507
 5225SOL     OW27133   3.012   2.323   0.311  0.3130 -0.1313 -0.1261
 5225SOL    HW127134   2.976   2.361   0.391  2.1740  1.1157  0.1252
 5225SOL    HW227135   3.081   2.268   0.348  1.1590  1.1858  0.2731
 5226SOL     OW27136   4.168   3.488   4.801 -0.1568  0.0544  0.7230
 5226SOL    HW127137   4.143   3.562   4.857 -1.1707 -0.7251  1.3113
 5226SOL    HW227138   4.190   3.537   4.722 -0.1174  1.7117  1.7654
 5227SOL     OW27139   2.279   2.013   0.952 -0.2565 -0.2523 -0.1810
 5227SOL    HW127140   2.213   2.033   0.886  1.9208  2.3341 -1.5508
 5227SOL    HW227141   2.238   2.026   1.038  1.1119 -1.4845  0.6554
 5228SOL     OW27142   2.473   0.611   9.370  0.3577 -0.4313 -0.3442
 5228SOL    HW127143   2.474   0.702   9.399  0.5341 -0.2510 -0.9182
 5228SOL    HW227144   2.463   0.580   9.460 -4.0064 -1.9082 -1.2995
 5229SOL     OW27145   1.262   3.155  16.167  0.6100  0.0488 -0.0182
 5229SOL    HW127146   1.179   3.202  16.161 -0.2191 -1.6045 -1.2181
 5229SOL    HW227147   1.268   3.144  16.262 -1.6121 -1.6200 -0.0929
 5230SOL     OW27148   3.582   3.998  12.642  0.2531 -0.2689  0.0238
 5230SOL    HW127149   3.491   3.981  12.663 -0.0664 -0.4041 -1.5309
 5230SOL    HW227150   3.594   4.030  12.553  0.1640 -1.1138 -0.2887
 5231SOL     OW27151   3.122   2.592   2.374 -0.4061  0.6397  0.5263
 5231SOL    HW127152   3.159   2.654   2.312  0.3291 -0.1704  0.1639
 5231SOL    HW227153   3.048   2.573   2.316  0.5904 -1.7694  0.0465
 5232SOL     OW27154   1.208   0.691   2.220 -0.0215  0.1297  0.2052
 5232SOL    HW127155   1.246   0.779   2.219  1.0245 -0.3328 -1.1941
 5232SOL    HW227156   1.238   0.654   2.136  0.6214  1.5638 -0.1962
 5233SOL     OW27157   0.442   1.149   9.892  0.0166  0.1411 -0.1116
 5233SOL    HW127158   0.373   1.172   9.830 -0.4033  0.8329  0.6001
 5233SOL    HW227159   0.503   1.090   9.847  2.0323  1.4558  0.8873
 5234SOL     OW27160   4.487   0.694   4.597 -0.2846 -0.0769 -0.0652
 5234SOL    HW127161   4.405   0.676   4.551  0.0251 -0.0398 -0.6300
 5234SOL    HW227162   4.481   0.621   4.658 -1.0119 -0.3974 -0.5060
 5235SOL     OW27163   1.578   0.726  11.546 -0.0494  0.2647 -0.0610
 5235SOL    HW127164   1.647   0.697  11.605 -0.7512  0.0696  0.6545
 5235SOL    HW227165   1.523   0.649  11.527 -0.5965  0.4470  0.7929
 5236SOL     OW27166   4.625   0.644  16.895 -0.2028  0.2579 -0.0635
 5236SOL    HW127167   4.601   0.560  16.856  0.5858  0.4401 -0.9187
 5236SOL    HW227168   4.701   0.672  16.844  0.5602 -0.7471  0.5253
 5237SOL     OW27169   0.510   3.823   1.606  0.1323 -0.6302  0.1637
 5237SOL    HW127170   0.416   3.828   1.588  0.2774 -0.9451 -0.6819
 5237SOL    HW227171   0.543   3.849   1.520 -0.6151  0.5398  0.2279
 5238SOL     OW27172   1.209   4.458   8.054  0.2951  0.5779  0.0565
 5238SOL    HW127173   1.252   4.539   8.081 -0.9880  1.8380 -1.6974
 5238SOL    HW227174   1.125   4.470   8.098  1.2541  0.8702  1.8328
 5239SOL     OW27175   2.854   2.361   2.666 -0.3023  0.0801 -0.7484
 5239SOL    HW127176   2.790   2.352   2.596 -1.7040 -0.8697  0.6605
 5239SOL    HW227177   2.787   2.345   2.732  0.1998 -1.4899 -0.6351
 5240SOL     OW27178   0.806   4.690  14.735  0.0541 -0.8081  0.1568
 5240SOL    HW127179   0.872   4.704  14.667 -0.4449 -1.8395 -0.5314
 5240SOL    HW227180   0.733   0.009  14.690  0.5909  0.2291  0.2379
 5241SOL     OW27181   3.925   0.607   2.316  0.1243  0.0478 -0.1252
 5241SOL    HW127182   3.958   0.677   2.372 -0.0281 -0.6319  0.8146
 5241SOL    HW227183   3.860   0.658   2.267 -0.3246 -0.8382 -0.4539
 5242SOL     OW27184   1.609   1.042   3.755 -0.3179 -0.4478 -0.2393
 5242SOL    HW127185   1.662   0.977   3.709  0.4021 -0.9336  1.2912
 5242SOL    HW227186   1.562   0.976   3.806 -2.6406  0.0204 -1.7945
 5243SOL     OW27187   2.744   3.731   8.057  0.3312  0.0028 -0.1448
 5243SOL    HW127188   2.674   3.787   8.024 -0.8049 -1.1329  0.3112
 5243SOL    HW227189   2.703   3.644   8.056  2.0047 -0.8223  0.9770
 5244SOL     OW27190   2.640   0.505  11.644 -0.3427  0.0751  0.5126
 5244SOL    HW127191   2.683   0.550  11.572 -2.4546 -0.1487 -0.8896
 5244SOL    HW227192   2.691   0.424  11.634 -0.2395 -0.2313  3.5016
 5245SOL     OW27193   4.176   4.357   8.497  0.3865 -0.0769 -0.4566
 5245SOL    HW127194   4.088   4.391   8.515  0.9385  0.8893  0.3895
 5245SOL    HW227195   4.169   4.343   8.402  0.4882 -2.1126 -0.1594
 5246SOL     OW27196   3.123   1.861   8.049 -0.1120 -0.1268 -0.2243
 5246SOL    HW127197   3.169   1.843   7.967  1.9099 -0.2079  0.9081
 5246SOL    HW227198   3.110   1.956   8.043  0.4402 -0.1845 -2.2249
 5247SOL     OW27199   0.752   1.462   3.118 -0.2830  0.5802 -0.9085
 5247SOL    HW127200   0.838   1.445   3.078 -0.7797 -0.6239 -1.4517
 5247SOL    HW227201   0.703   1.401   3.064 -0.2073  0.7697 -1.1892
 5248SOL     OW27202   2.536   2.623   7.152 -0.0726  0.1426 -0.3706
 5248SOL    HW127203   2.564   2.702   7.105  1.1661  0.1210  0.3511
 5248SOL    HW227204   2.453   2.605   7.108 -0.5342 -0.2954  0.7072
 5249SOL     OW27205   4.140   0.121   4.201  0.4535 -0.7885  0.1411
 5249SOL    HW127206   4.066   0.167   4.162  0.2444  0.0777  1.5174
 5249SOL    HW227207   4.190   0.101   4.122  0.0397 -0.6168 -0.1606
 5250SOL     OW27208   4.517   0.948  12.583 -0.4228 -0.1014  0.2259
 5250SOL    HW127209   4.581   0.908  12.643 -0.7658  1.0416  1.3692
 5250SOL    HW227210   4.527   1.036  12.619  0.3822 -0.4973  0.9709
 5251SOL     OW27211   4.076   0.277  13.499  0.0833 -0.4840 -0.3804
 5251SOL    HW127212   4.045   0.355  13.452 -0.7776  0.1397  1.2118
 5251SOL    HW227213   4.161   0.268  13.456  1.2973  0.1985  1.8874
 5252SOL     OW27214   0.332   1.898   3.973  0.1195  0.1449 -0.3380
 5252SOL    HW127215   0.324   1.953   3.895  0.1962  0.9419  0.2203
 5252SOL    HW227216   0.411   1.933   4.014  0.3195  0.4237 -0.9662
 5253SOL     OW27217   3.443   4.481  12.669 -0.1164  0.4870  0.2849
 5253SOL    HW127218   3.518   4.446  12.622 -0.3732 -0.9635  0.9499
 5253SOL    HW227219   3.444   4.569  12.632  0.2436 -0.1606 -1.2351
 5254SOL     OW27220   2.652   4.306   2.946 -0.0889  0.4461  0.0139
 5254SOL    HW127221   2.591   4.372   2.980 -1.4356 -0.4593 -0.6180
 5254SOL    HW227222   2.675   4.344   2.862  1.7426  0.0581  0.3553
 5255SOL     OW27223   0.063   1.842   6.670 -0.2898  0.0443  0.1640
 5255SOL    HW127224   0.069   1.872   6.760  0.3886  2.8946 -0.8425
 5255SOL    HW227225   0.090   1.750   6.672  0.8142  0.3828  0.3249
 5256SOL     OW27226   2.960   2.917   6.390  0.1836  0.2464  0.3453
 5256SOL    HW127227   2.944   2.831   6.429  1.8916 -0.7785 -1.1827
 5256SOL    HW227228   2.953   2.969   6.470  0.9431 -0.4221  0.8534
 5257SOL     OW27229   1.247   0.180   7.063  0.1945 -0.6140  0.6258
 5257SOL    HW127230   1.335   0.142   7.067  1.4034  2.2252  0.9586
 5257SOL    HW227231   1.195   0.121   7.118 -0.0006 -2.0984 -1.1346
 5258SOL     OW27232   1.864   2.732   0.376  1.0605 -0.1991 -0.0367
 5258SOL    HW127233   1.805   2.772   0.440  0.7445  0.0071 -0.4566
 5258SOL    HW227234   1.897   2.658   0.427 -0.2065  0.4570  1.7350
 5259SOL     OW27235   0.707   2.854   7.694 -0.3199 -0.0298  0.1768
 5259SOL    HW127236   0.800   2.857   7.718  0.3541 -1.0612 -2.3611
 5259SOL    HW227237   0.709   2.863   7.599  1.1632  1.0708  0.3155
 5260SOL     OW27238   3.104   3.083  10.479 -0.2693 -0.2584  0.1932
 5260SOL    HW127239   3.118   3.145  10.550 -2.7740 -0.3368  0.7628
 5260SOL    HW227240   3.122   3.139  10.404 -1.1932 -2.0644 -1.3931
 5261SOL     OW27241   3.047   1.206   4.657 -0.0444 -0.1154 -0.5560
 5261SOL    HW127242   3.062   1.285   4.605 -3.8002  1.1823  0.2696
 5261SOL    HW227243   2.999   1.162   4.587  0.6283 -0.9832 -0.4693
 5262SOL     OW27244   2.333   1.089   6.805 -0.5369 -0.1743 -0.0994
 5262SOL    HW127245   2.247   1.061   6.838 -0.3229 -1.3613 -0.5533
 5262SOL    HW227246   2.321   1.184   6.808 -0.2537 -0.1739  0.9006
 5263SOL     OW27247   2.451   1.344   2.752 -0.5663 -0.6755 -0.6605
 5263SOL    HW127248   2.468   1.372   2.662  0.3951 -0.5245 -0.4375
 5263SOL    HW227249   2.356   1.337   2.744 -0.5980  1.0516 -1.9019
 5264SOL     OW27250   0.881   0.596   0.403 -0.5541  0.5164 -0.7882
 5264SOL    HW127251   0.870   0.643   0.486 -0.7933  1.2952 -1.2668
 5264SOL    HW227252   0.969   0.632   0.395  0.3517 -0.9626  2.3525
 5265SOL     OW27253   0.868   3.177   0.434  0.0045  0.3023 -0.0405
 5265SOL    HW127254   0.897   3.194   0.524  2.0296 -1.2881 -0.4007
 5265SOL    HW227255   0.822   3.259   0.416 -1.6032 -0.4857  0.4348
 5266SOL     OW27256   4.600   3.489  11.260  0.9846  0.2782 -0.1768
 5266SOL    HW127257   4.544   3.412  11.271  1.1121  0.3059  0.6096
 5266SOL    HW227258   4.644   3.473  11.176  1.7348 -0.4463  0.3591
 5267SOL     OW27259   3.079   1.268   2.480  0.0900 -0.0054 -0.2993
 5267SOL    HW127260   3.140   1.198   2.458 -2.0795 -2.0808  0.3754
 5267SOL    HW227261   3.044   1.294   2.395  1.0184 -2.2301 -1.3589
 5268SOL     OW27262   2.527   3.460   5.624  0.3545 -0.2629 -0.1736
 5268SOL    HW127263   2.453   3.407   5.653 -0.1748 -1.2993 -3.4021
 5268SOL    HW227264   2.562   3.476   5.711 -0.2920  0.0708  0.0252
 5269SOL     OW27265   2.876   0.441  17.496  0.8188  0.0473 -0.3768
 5269SOL    HW127266   2.946   0.385  17.462 -0.1985 -2.2674  1.3388
 5269SOL    HW227267   2.918   0.520  17.528 -0.0805  0.5734 -0.5038
 5270SOL     OW27268   2.911   4.624   5.707  0.5427  0.0935 -0.2064
 5270SOL    HW127269   2.931   4.540   5.666  2.2325  0.2365  0.3301
 5270SOL    HW227270   2.965   4.604   5.784 -2.6413 -1.5528  1.6045
 5271SOL     OW27271   2.720   3.328   2.143 -0.4956 -0.1590  0.0761
 5271SOL    HW127272   2.771   3.262   2.189  1.3198  1.9227  1.0606
 5271SOL    HW227273   2.636   3.287   2.165 -0.2340 -1.2549 -1.0124
 5272SOL     OW27274   3.710   0.528   7.658 -0.6030 -0.2831 -0.3587
 5272SOL    HW127275   3.760   0.604   7.687  0.7555 -0.8118 -1.3312
 5272SOL    HW227276   3.742   0.465   7.722  2.5306  0.6786 -0.9952
 5273SOL     OW27277   3.615   3.776   5.699  0.0136 -0.3615 -0.0632
 5273SOL    HW127278   3.611   3.721   5.621 -1.2858 -0.1096 -0.1896
 5273SOL    HW227279   3.603   3.862   5.658 -1.7744  0.2959  1.8361
 5274SOL     OW27280   2.508   1.207  13.011 -0.1555  0.3877  0.1622
 5274SOL    HW127281   2.574   1.271  13.037 -2.1816  2.3192  0.5510
 5274SOL    HW227282   2.456   1.242  12.939 -0.9793 -1.4212 -0.1338
 5275SOL     OW27283   2.069   2.501   8.173 -0.2749  0.2980  0.2336
 5275SOL    HW127284   2.114   2.455   8.244  1.9136  0.8944 -0.7578
 5275SOL    HW227285   2.002   2.555   8.215 -0.8390 -0.2386  0.0281
 5276SOL     OW27286   0.230   0.524  10.490  0.4771 -0.1265 -0.8334
 5276SOL    HW127287   0.208   0.508  10.582 -0.6268  0.1811 -1.0463
 5276SOL    HW227288   0.322   0.549  10.500  0.6685 -1.0567 -0.3000
 5277SOL     OW27289   2.756   2.344   8.752 -0.1855  0.2007  0.1197
 5277SOL    HW127290   2.812   2.269   8.735 -0.8276 -0.3250  0.3244
 5277SOL    HW227291   2.799   2.396   8.820  0.1674  0.6810 -0.4747
 5278SOL     OW27292   0.327   4.615   6.603 -0.3013  0.0401 -0.1140
 5278SOL    HW127293   0.404   4.628   6.659  0.9721 -0.0877 -1.8347
 5278SOL    HW227294   0.361   4.599   6.515 -2.3429  1.0791 -1.0688
 5279SOL     OW27295   0.268   4.599   8.930 -0.6343 -0.7598 -0.2440
 5279SOL    HW127296   0.176   4.592   8.957 -1.1331  0.9240 -1.4010
 5279SOL    HW227297   0.311   4.568   9.009 -2.2543  0.2504  1.0455
 5280SOL     OW27298   0.609   2.877   5.771 -0.0856 -0.4831 -0.2392
 5280SOL    HW127299   0.631   2.971   5.777 -1.0905 -0.1741 -1.5708
 5280SOL    HW227300   0.647   2.849   5.854  2.0904  0.7636 -0.7974
 5281SOL     OW27301   1.845   4.598  17.390  0.5411  0.1819  0.5582
 5281SOL    HW127302   1.791   4.646  17.328 -0.6263 -1.2758  0.4413
 5281SOL    HW227303   1.925   4.585  17.339  0.5113  1.2869  0.2341
 5282SOL     OW27304   0.285   1.041   2.338  0.1359  0.0456  0.4028
 5282SOL    HW127305   0.268   0.954   2.304 -0.6694 -0.1117  1.2033
 5282SOL    HW227306   0.309   1.095   2.263 -1.8393 -1.3703 -1.2308
 5283SOL     OW27307   3.122   4.066   6.556 -0.4764  0.1093 -0.6011
 5283SOL    HW127308   3.046   4.069   6.613 -1.8409 -0.2581 -2.3908
 5283SOL    HW227309   3.086   4.016   6.483 -0.2303 -0.3399 -0.4159
 5284SOL     OW27310   3.595   0.913  10.072  0.2716 -0.5232 -0.4410
 5284SOL    HW127311   3.559   0.845  10.130  1.5035  0.9375  2.0292
 5284SOL    HW227312   3.537   0.908   9.996  2.2670 -1.7739 -1.8754
 5285SOL     OW27313   2.734   4.073  14.999  0.8001 -0.0811  0.0063
 5285SOL    HW127314   2.734   4.049  14.906  1.9265 -2.2952  0.5802
 5285SOL    HW227315   2.824   4.107  15.005  0.1151  1.8042 -0.4251
 5286SOL     OW27316   1.079   1.758   2.197  0.6682 -0.3636 -0.8056
 5286SOL    HW127317   1.145   1.784   2.133  0.4226  0.6725 -0.6251
 5286SOL    HW227318   1.006   1.802   2.155  1.8866  2.0888 -0.3316
 5287SOL     OW27319   4.132   3.115   1.428 -0.3190  0.5979  0.2505
 5287SOL    HW127320   4.184   3.035   1.418  3.9695  3.4344 -0.3593
 5287SOL    HW227321   4.181   3.189   1.392 -1.6121  0.5538 -1.5980
 5288SOL     OW27322   4.470   0.690   5.904  0.2860 -0.0246  0.2514
 5288SOL    HW127323   4.431   0.759   5.851 -1.6721  0.3267  2.1516
 5288SOL    HW227324   4.426   0.707   5.988  1.1099  1.0100  0.4776
 5289SOL     OW27325   0.408   1.714   1.312  0.3071 -0.3941 -0.4253
 5289SOL    HW127326   0.321   1.730   1.274 -0.4769  0.7540  1.8377
 5289SOL    HW227327   0.436   1.643   1.253  2.5551  0.1415  0.0212
 5290SOL     OW27328   2.329   0.989   0.808  0.1130  0.1314  0.0057
 5290SOL    HW127329   2.399   0.971   0.871 -0.4732  2.9512  1.4505
 5290SOL    HW227330   2.338   1.083   0.792  0.4682 -0.1744 -1.6249
 5291SOL     OW27331   3.513   3.491   7.688  0.1796  0.2280  0.6114
 5291SOL    HW127332   3.452   3.500   7.761 -0.1640 -1.8185  0.5867
 5291SOL    HW227333   3.568   3.568   7.704  0.5659  0.0235  0.2805
 5292SOL     OW27334   4.083   1.241   8.219 -0.5750 -0.7684  0.1602
 5292SOL    HW127335   4.075   1.256   8.313 -2.0144 -0.5767  0.0091
 5292SOL    HW227336   4.089   1.330   8.184  0.7788 -0.3537  1.4423
 5293SOL     OW27337   1.755   0.160   5.005 -0.5384  0.5952 -0.0596
 5293SOL    HW127338   1.687   0.204   5.056  0.5779  2.4947 -0.1918
 5293SOL    HW227339   1.697   0.107   4.951  2.8566 -3.9547  0.6832
 5294SOL     OW27340   0.098   4.362   4.936 -0.0290  0.7608 -0.5139
 5294SOL    HW127341   0.013   4.317   4.932  1.2198 -1.4439 -2.0441
 5294SOL    HW227342   0.155   4.299   4.892 -0.2605 -1.2451  2.0858
 5295SOL     OW27343   2.423   0.300  11.662 -0.3741 -0.3984  0.1222
 5295SOL    HW127344   2.457   0.212  11.673  0.4314 -0.1840 -0.5970
 5295SOL    HW227345   2.505   0.350  11.662  0.5588 -1.9340 -0.0446
 5296SOL     OW27346   3.655   3.850   4.353 -0.1735  0.3677 -0.4344
 5296SOL    HW127347   3.691   3.762   4.338 -1.8178 -0.6257  1.4350
 5296SOL    HW227348   3.562   3.832   4.366 -0.8512  2.9329 -1.6473
 5297SOL     OW27349   1.604   2.591  15.758  0.0352 -0.5513 -0.4528
 5297SOL    HW127350   1.596   2.681  15.789 -0.8321 -0.6190 -0.4791
 5297SOL    HW227351   1.685   2.556  15.796 -0.3808  1.1599  2.0077
 5298SOL     OW27352   2.033   3.539  10.150 -0.3306  0.4961  0.5188
 5298SOL    HW127353   2.091   3.464  10.134  0.8743  1.5056  0.1598
 5298SOL    HW227354   1.948   3.502  10.127  1.5946 -1.2452 -3.8492
 5299SOL     OW27355   0.661   1.720   5.699 -0.2530 -0.0434 -0.4346
 5299SOL    HW127356   0.723   1.650   5.676  0.7529  0.7866 -0.2444
 5299SOL    HW227357   0.716   1.774   5.756  0.5630 -0.8654 -0.4346
 5300SOL     OW27358   1.495   3.297  12.307  0.0189 -0.3689  0.5886
 5300SOL    HW127359   1.574   3.251  12.279  0.4966  1.2973 -0.8238
 5300SOL    HW227360   1.437   3.230  12.343 -2.4007  1.3500 -0.1263
 5301SOL     OW27361   2.792   3.457  16.382  0.2706 -0.6859 -0.7974
 5301SOL    HW127362   2.763   3.458  16.291 -1.2922 -0.6787 -0.2943
 5301SOL    HW227363   2.838   3.374  16.386  0.3898 -0.6364 -1.1662
 5302SOL     OW27364   1.901   0.619   2.902 -0.1118  0.3189  0.4753
 5302SOL    HW127365   1.969   0.683   2.922 -0.2821 -0.0385  2.2497
 5302SOL    HW227366   1.955   0.560   2.849  2.2231  2.3929  0.5757
 5303SOL     OW27367   4.453   0.462  15.061  0.1033 -0.2352  0.5974
 5303SOL    HW127368   4.430   0.404  14.988 -0.1721  1.0216 -0.3155
 5303SOL    HW227369   4.370   0.496  15.093  0.0864  1.0906 -0.7971
 5304SOL     OW27370   3.840   3.928  15.533 -0.0890  0.0776  0.4813
 5304SOL    HW127371   3.882   3.908  15.450  0.5530  1.6068  0.4349
 5304SOL    HW227372   3.766   3.982  15.505  0.0835 -0.7242 -1.4769
 5305SOL     OW27373   0.607   1.619  15.927 -0.2004  0.2151 -0.6036
 5305SOL    HW127374   0.645   1.577  15.850  2.1314  0.7058  0.2790
 5305SOL    HW227375   0.664   1.591  15.999  1.9832  1.1242 -2.0018
 5306SOL     OW27376   2.628   0.192   7.019 -0.6595 -0.0966  0.2890
 5306SOL    HW127377   2.584   0.210   6.936  2.6259  0.3593 -1.3464
 5306SOL    HW227378   2.616   0.278   7.061  1.1266 -0.2515  1.1011
 5307SOL     OW27379   3.663   2.651   8.215  0.0576  0.6276 -0.1281
 5307SOL    HW127380   3.628   2.623   8.300 -0.5998 -3.3158 -1.7229
 5307SOL    HW227381   3.755   2.652   8.242 -0.3715 -1.5986  1.4128
 5308SOL     OW27382   4.158   3.985  15.478  0.3460  0.4632  0.3551
 5308SOL    HW127383   4.187   3.924  15.546 -0.5928 -1.1847 -0.7380
 5308SOL    HW227384   4.169   4.065  15.530  1.2491  1.2100 -0.9919
 5309SOL     OW27385   0.343   0.175  16.225 -0.6111 -0.0743 -0.2158
 5309SOL    HW127386   0.248   0.163  16.222 -0.3353 -1.8993 -1.9980
 5309SOL    HW227387   0.365   0.208  16.312  0.9602  0.1222 -0.6811
 5310SOL     OW27388   3.675   0.391   1.957 -0.3467 -0.3683  0.5796
 5310SOL    HW127389   3.699   0.299   1.956  1.0865  0.0100 -0.1838
 5310SOL    HW227390   3.615   0.398   2.031 -1.5323 -1.8447 -0.2613
 5311SOL     OW27391   3.410   4.698   9.530 -0.1596  0.5242  0.4214
 5311SOL    HW127392   3.420   4.657   9.444 -3.2109 -0.1754  0.4034
 5311SOL    HW227393   3.466   0.052   9.520 -0.8056  0.7521 -1.3839
 5312SOL     OW27394   1.686   1.093   8.063  0.2248 -0.5063 -0.4638
 5312SOL    HW127395   1.703   1.131   8.149 -1.2850 -2.8960  0.8952
 5312SOL    HW227396   1.594   1.076   8.080 -0.4612  0.9485 -2.6912
 5313SOL     OW27397   0.544   1.250   4.331 -0.9868 -0.2963  0.1432
 5313SOL    HW127398   0.520   1.322   4.389 -0.6586 -0.2339  0.2006
 5313SOL    HW227399   0.458   1.209   4.317  0.0830 -2.5894  0.3388
 5314SOL     OW27400   4.222   2.925  14.599 -0.2651  0.5635  0.0268
 5314SOL    HW127401   4.259   2.937  14.686 -4.4875  4.0662  1.3215
 5314SOL    HW227402   4.277   2.978  14.541 -0.7355  1.7738  0.6942
 5315SOL     OW27403   3.493   3.790   4.935  0.2173  0.2181  0.4585
 5315SOL    HW127404   3.573   3.816   4.980  1.6074 -1.0556 -1.2621
 5315SOL    HW227405   3.468   3.719   4.995 -0.2178  0.2489  0.3120
 5316SOL     OW27406   1.287   1.499   7.130  0.3411 -0.0963  0.1353
 5316SOL    HW127407   1.272   1.408   7.105  0.1187  0.7054 -2.5836
 5316SOL    HW227408   1.273   1.527   7.040  2.1249  0.4572  0.0279
 5317SOL     OW27409   2.466   1.402   8.007  0.0920 -0.4867  0.5941
 5317SOL    HW127410   2.417   1.482   8.023  1.3222  0.5296 -0.7298
 5317SOL    HW227411   2.408   1.348   7.953 -0.8989  2.7166 -1.5166
 5318SOL     OW27412   4.339   1.079   9.512 -0.1981 -0.8868  0.0784
 5318SOL    HW127413   4.404   1.009   9.503  0.8660  0.3934 -2.1420
 5318SOL    HW227414   4.375   1.134   9.442 -0.1157  1.3841  1.9112
 5319SOL     OW27415   1.156   0.425   3.173 -0.0834  0.0972 -0.3349
 5319SOL    HW127416   1.249   0.427   3.194 -0.6356 -1.6599  2.3712
 5319SOL    HW227417   1.159   0.481   3.096  2.0587  0.2728 -0.1220
 5320SOL     OW27418   2.480   4.403   0.763 -0.0727  0.5071  0.2200
 5320SOL    HW127419   2.427   4.341   0.714 -0.2296  0.2329  0.7300
 5320SOL    HW227420   2.420   4.449   0.822  0.7435  0.5961  0.9865
 5321SOL     OW27421   0.394   1.784  16.011 -0.8955 -0.2771  0.0621
 5321SOL    HW127422   0.481   1.745  16.016 -0.9527 -0.6449 -1.7245
 5321SOL    HW227423   0.395   1.806  15.918  1.5153  0.5254  0.3015
 5322SOL     OW27424   3.783   3.576   0.903  0.4428 -0.2455  0.3654
 5322SOL    HW127425   3.863   3.569   0.955 -0.1953 -0.1515  1.3676
 5322SOL    HW227426   3.816   3.544   0.819  0.9771 -1.0928  0.9026
 5323SOL     OW27427   3.206   4.397   6.144  0.3234  0.2221 -0.4046
 5323SOL    HW127428   3.184   4.489   6.149  1.5855  0.4863  0.6159
 5323SOL    HW227429   3.121   4.354   6.137 -0.4629  1.5680  0.7771
 5324SOL     OW27430   0.801   2.864   3.957  0.5151  0.5808 -0.0879
 5324SOL    HW127431   0.710   2.882   3.932 -0.0633 -0.3154  1.3637
 5324SOL    HW227432   0.799   2.773   3.930  0.5839  1.1167 -1.8700
 5325SOL     OW27433   1.320   1.460   4.258 -0.3574  0.1807  0.4210
 5325SOL    HW127434   1.397   1.437   4.309 -0.0864 -0.0589 -0.1009
 5325SOL    HW227435   1.270   1.382   4.235  1.0081 -0.0519 -1.6760
 5326SOL     OW27436   1.544   2.851  15.810  0.5636  0.4837  0.1697
 5326SOL    HW127437   1.583   2.905  15.741 -0.4597  0.0076 -0.7851
 5326SOL    HW227438   1.452   2.871  15.826  0.7516 -0.5312  2.5047
 5327SOL     OW27439   4.558   3.634   5.491  0.8268 -0.1036  0.2991
 5327SOL    HW127440   4.518   3.706   5.441 -0.8867 -1.9698 -0.9998
 5327SOL    HW227441   4.564   3.571   5.419 -0.6349 -0.9939  0.9507
 5328SOL     OW27442   2.309   0.338   2.710  0.5411  0.2116 -0.3218
 5328SOL    HW127443   2.326   0.327   2.617  1.2268  0.0317 -0.1733
 5328SOL    HW227444   2.397   0.331   2.748 -0.1132  1.1241  1.3937
 5329SOL     OW27445   0.725   0.291   4.795  0.2369 -0.0575  0.1869
 5329SOL    HW127446   0.769   0.313   4.713  1.1646  1.0174  0.9594
 5329SOL    HW227447   0.799   0.241   4.830  1.4048  1.8696  0.4916
 5330SOL     OW27448   0.523   1.370  16.375  0.5979  0.1878  0.5064
 5330SOL    HW127449   0.427   1.380  16.373  0.5950  0.4530  1.7817
 5330SOL    HW227450   0.542   1.331  16.460  0.8105 -2.7290 -0.9025
 5331SOL     OW27451   2.442   1.014  14.308  0.6702  0.7934 -0.2307
 5331SOL    HW127452   2.424   0.962  14.230  0.2009  0.8282 -0.1459
 5331SOL    HW227453   2.359   1.060  14.311  0.3722  0.3055 -0.9710
 5332SOL     OW27454   0.266   2.895   3.330  0.0763 -0.3437 -0.1356
 5332SOL    HW127455   0.260   2.957   3.257 -0.8837  0.8194  0.9493
 5332SOL    HW227456   0.194   2.928   3.383  0.7342  0.5080  0.2192
 5333SOL     OW27457   1.205   3.572   5.647 -0.2746  0.1897  0.0045
 5333SOL    HW127458   1.238   3.660   5.631  0.3394  0.1726  1.1264
 5333SOL    HW227459   1.210   3.528   5.562  1.0018 -1.3470  0.8672
 5334SOL     OW27460   2.722   1.110   2.699  0.2759  0.4354  0.3234
 5334SOL    HW127461   2.646   1.076   2.652  0.3544 -0.0895  0.5685
 5334SOL    HW227462   2.773   1.028   2.693 -1.1882 -0.4010 -0.8344
 5335SOL     OW27463   4.356   2.879   3.670 -0.3510  0.7067 -0.4458
 5335SOL    HW127464   4.323   2.969   3.665 -1.0837  0.4607 -0.0864
 5335SOL    HW227465   4.406   2.886   3.589 -0.9817 -3.3750 -1.1924
 5336SOL     OW27466   0.007   4.201   8.267 -0.1887 -0.1477 -0.2867
 5336SOL    HW127467   0.015   4.274   8.328  0.8020 -0.9050  0.4998
 5336SOL    HW227468   4.649   4.162   8.301  0.7483 -2.2205 -0.4221
 5337SOL     OW27469   4.687   2.991   5.276  0.1934 -0.6553 -0.3904
 5337SOL    HW127470   0.032   2.930   5.308 -2.1821 -2.2316  1.6997
 5337SOL    HW227471   0.004   3.010   5.191 -0.1621 -0.0395 -0.4194
 5338SOL     OW27472   2.244   2.261   5.612 -0.4257 -0.1933  0.1208
 5338SOL    HW127473   2.225   2.176   5.572  3.3009 -1.5428  1.2375
 5338SOL    HW227474   2.160   2.301   5.588  0.5853  0.7573 -1.8336
 5339SOL     OW27475   1.303   4.123   4.383  0.3419 -0.2928  0.0578
 5339SOL    HW127476   1.330   4.119   4.475 -0.0268  0.8583  0.2258
 5339SOL    HW227477   1.388   4.125   4.339  0.4270  1.9229  0.3069
 5340SOL     OW27478   1.834   2.867   7.139 -0.4273  0.0683 -0.0493
 5340SOL    HW127479   1.822   2.961   7.123  0.9965 -0.0470 -1.8211
 5340SOL    HW227480   1.742   2.842   7.144 -1.1982  2.6229 -1.2088
 5341SOL     OW27481   0.218   0.096   8.423 -0.1346 -0.0994 -0.1464
 5341SOL    HW127482   0.130   0.080   8.391 -0.5837  0.7886  0.6436
 5341SOL    HW227483   0.206   0.080   8.517 -2.8162 -2.0080 -0.8403
 5342SOL     OW27484   0.419   1.062  16.057  0.3826 -0.3922 -0.1302
 5342SOL    HW127485   0.438   1.104  15.972  1.0329 -2.0339 -0.7907
 5342SOL    HW227486   0.468   1.109  16.125  0.6397 -1.3678  0.3597
 5343SOL     OW27487   1.916   2.920   9.640  0.2386 -0.1175 -0.1753
 5343SOL    HW127488   1.824   2.909   9.615  0.6892 -0.9462 -1.4521
 5343SOL    HW227489   1.894   2.954   9.727 -1.7478 -1.6948 -0.0497
 5344SOL     OW27490   4.647   4.694  15.904 -0.2554  0.0614  0.1755
 5344SOL    HW127491   4.585   0.044  15.891  0.0386  1.2871  5.6354
 5344SOL    HW227492   4.598   4.639  15.964  2.2479 -1.1902  1.0227
 5345SOL     OW27493   4.199   2.304  13.695 -0.5160 -0.5361  0.3488
 5345SOL    HW127494   4.153   2.336  13.617  0.2612  1.0996  0.5493
 5345SOL    HW227495   4.185   2.374  13.759  0.4403 -0.1583  0.1397
 5346SOL     OW27496   4.136   2.883  17.222 -0.6345  0.2524 -0.3200
 5346SOL    HW127497   4.195   2.954  17.246 -0.8347  0.0918  0.6434
 5346SOL    HW227498   4.184   2.837  17.153  0.7619 -0.7050  1.3014
 5347SOL     OW27499   0.263   3.654   7.810 -0.0716  0.3737 -0.2675
 5347SOL    HW127500   0.247   3.606   7.729 -1.3295  1.0035 -0.3895
 5347SOL    HW227501   0.174   3.677   7.837 -0.2315 -1.0520  0.4100
 5348SOL     OW27502   1.485   0.408  12.461 -0.3057 -0.0455  0.1007
 5348SOL    HW127503   1.521   0.466  12.394 -0.6410 -0.1252 -0.1450
 5348SOL    HW227504   1.391   0.425  12.449 -0.1203  0.7903 -0.1337
 5349SOL     OW27505   3.487   2.697  10.931 -0.0976 -0.2817 -0.6491
 5349SOL    HW127506   3.523   2.739  10.853  1.4134  0.0676  0.2312
 5349SOL    HW227507   3.526   2.611  10.913  1.4220 -0.0899  1.8068
 5350SOL     OW27508   3.490   1.867   4.276  0.0753 -0.2477 -0.5749
 5350SOL    HW127509   3.544   1.796   4.241  0.8435  0.6163 -1.1451
 5350SOL    HW227510   3.540   1.946   4.254  1.2895 -1.3196 -1.7206
 5351SOL     OW27511   3.330   3.259   4.999  0.0715  0.4899 -0.2125
 5351SOL    HW127512   3.279   3.178   4.998 -0.5803  0.9055 -0.3602
 5351SOL    HW227513   3.263   3.317   5.036  0.0758 -0.8376  1.9068
 5352SOL     OW27514   4.626   3.489   6.654  0.2442 -0.9438  0.2128
 5352SOL    HW127515   4.535   3.462   6.640  0.4051 -0.2594 -2.2137
 5352SOL    HW227516   4.622   3.477   6.749  0.1329 -3.3087 -0.0682
 5353SOL     OW27517   1.116   4.543  14.565 -0.2685 -0.2914 -0.2256
 5353SOL    HW127518   1.120   4.448  14.564 -2.5100 -0.4249  3.9022
 5353SOL    HW227519   1.021   4.552  14.573 -0.1963  0.9519 -0.6385
 5354SOL     OW27520   0.135   3.274   4.756 -0.4436 -0.3850  0.3180
 5354SOL    HW127521   0.056   3.220   4.755 -0.4545 -0.3563 -0.2034
 5354SOL    HW227522   0.130   3.331   4.680 -0.9764 -0.6156  0.1800
 5355SOL     OW27523   0.508   2.563   0.002 -0.2991 -0.7619  0.2162
 5355SOL    HW127524   0.579   2.546  17.633 -0.5838 -0.6132 -0.1574
 5355SOL    HW227525   0.435   2.556  17.633  0.6375  0.0144 -0.9729
 5356SOL     OW27526   2.933   1.206   8.091 -0.5945  0.0282  0.7530
 5356SOL    HW127527   2.864   1.273   8.085 -1.8040 -1.3914 -1.3193
 5356SOL    HW227528   3.005   1.267   8.108 -0.5437 -0.2061  1.3585
 5357SOL     OW27529   4.650   1.572   6.873 -0.0241  0.4178  0.3509
 5357SOL    HW127530   4.583   1.640   6.860 -1.5896 -1.4697 -1.3488
 5357SOL    HW227531   4.688   1.583   6.785 -2.1890  2.3154 -0.3646
 5358SOL     OW27532   0.728   1.935  14.143  0.0653  0.2279  0.4168
 5358SOL    HW127533   0.816   1.940  14.104  0.6347 -1.2051  1.4824
 5358SOL    HW227534   0.676   1.941  14.063  1.6416 -3.6517 -0.8920
 5359SOL     OW27535   1.100   0.566  11.802  0.1290  0.2217 -0.0357
 5359SOL    HW127536   1.102   0.481  11.847  2.2372  1.2934  1.9171
 5359SOL    HW227537   1.195   0.562  11.789 -0.2365 -2.9079 -1.8841
 5360SOL     OW27538   2.018   0.185   1.720  0.0811 -0.0090  0.1933
 5360SOL    HW127539   2.096   0.241   1.719 -0.5265  0.7720 -1.9615
 5360SOL    HW227540   2.056   0.103   1.689 -0.1997 -0.0452 -0.0509
 5361SOL     OW27541   2.032   2.568   5.151 -0.4172 -0.1198 -0.1136
 5361SOL    HW127542   2.016   2.618   5.070 -2.8459  1.1192  1.1346
 5361SOL    HW227543   1.974   2.609   5.215 -0.9984 -1.6536  0.3450
 5362SOL     OW27544   2.425   2.657   8.082  0.6098 -0.2348 -0.1234
 5362SOL    HW127545   2.507   2.694   8.051 -0.1355  0.7619 -0.8834
 5362SOL    HW227546   2.438   2.694   8.170 -0.4372 -1.5964  0.6153
 5363SOL     OW27547   4.113   3.761   4.984  0.3408  0.2679 -0.2669
 5363SOL    HW127548   4.037   3.774   4.928 -0.5282 -1.5089  0.5219
 5363SOL    HW227549   4.077   3.775   5.072  0.0065 -5.7031  0.5483
 5364SOL     OW27550   1.921   0.207  17.648  0.3635 -0.2540 -0.5415
 5364SOL    HW127551   2.005   0.213   0.000 -0.6385 -0.5161  1.4126
 5364SOL    HW227552   1.934   0.262  17.571  0.0374  0.8795  0.2095
 5365SOL     OW27553   3.645   1.401  17.037  0.4914  0.4221 -0.3131
 5365SOL    HW127554   3.571   1.452  17.069 -0.3259  0.8059 -2.8130
 5365SOL    HW227555   3.712   1.420  17.103 -1.2607 -1.4887  2.0200
 5366SOL     OW27556   0.800   1.106   4.864  0.0035 -0.0776  0.1503
 5366SOL    HW127557   0.766   1.037   4.806 -1.2054 -0.4575  1.3298
 5366SOL    HW227558   0.834   1.168   4.799 -1.8642  2.5937  1.7728
 5367SOL     OW27559   3.378   1.548  10.554 -0.1378  0.0704 -0.3150
 5367SOL    HW127560   3.376   1.474  10.615  0.1661  1.5922  1.5421
 5367SOL    HW227561   3.408   1.508  10.473  0.9794  1.2477 -0.4783
 5368SOL     OW27562   4.229   3.190  14.903  0.8291 -0.3344 -0.3385
 5368SOL    HW127563   4.253   3.098  14.914 -0.6650 -0.7065 -0.2300
 5368SOL    HW227564   4.307   3.234  14.936  0.6442  2.0557 -3.0806
 5369SOL     OW27565   1.871   2.219   0.112  0.5985 -0.2169  0.6557
 5369SOL    HW127566   1.857   2.135   0.069  1.4821 -1.4938  2.8639
 5369SOL    HW227567   1.781   2.251   0.125  0.2351 -1.0980  0.2935
 5370SOL     OW27568   2.976   2.007   6.365 -0.0482 -0.5831 -0.2243
 5370SOL    HW127569   2.913   2.037   6.431 -0.7810 -2.0946 -0.2269
 5370SOL    HW227570   2.961   2.076   6.301  0.6480 -0.3026 -0.0858
 5371SOL     OW27571   0.392   3.043  14.509 -0.1939  0.0653 -0.2836
 5371SOL    HW127572   0.394   3.100  14.432  0.6972 -2.7037 -2.2967
 5371SOL    HW227573   0.484   3.052  14.533  0.1825 -1.2113 -1.2400
 5372SOL     OW27574   2.428   0.324  14.619 -0.0277  0.4560  0.2028
 5372SOL    HW127575   2.434   0.384  14.545 -1.7832 -0.8104 -0.9663
 5372SOL    HW227576   2.343   0.357  14.650 -0.8865  0.6667 -2.3902
 5373SOL     OW27577   4.496   1.456  17.629  0.0516 -0.6002 -0.3726
 5373SOL    HW127578   4.407   1.432  17.655 -0.1978  0.4583 -0.2660
 5373SOL    HW227579   4.550   1.381  17.655  2.6555  0.6144 -2.2915
 5374SOL     OW27580   2.095   3.463   5.707 -0.1582  0.3820  0.2384
 5374SOL    HW127581   2.055   3.508   5.633 -0.1766 -0.1616 -0.0834
 5374SOL    HW227582   2.032   3.490   5.774 -1.8287 -0.3610 -1.0292
 5375SOL     OW27583   0.212   2.350  14.899  0.3729  0.4859 -0.3566
 5375SOL    HW127584   0.161   2.346  14.980 -0.2212  3.0700 -0.5968
 5375SOL    HW227585   0.166   2.317  14.822  1.9199 -3.0184  0.2391
 5376SOL     OW27586   4.182   2.174   7.683 -0.4409  0.4599  0.5705
 5376SOL    HW127587   4.147   2.087   7.669 -0.3100  0.4149  0.5206
 5376SOL    HW227588   4.277   2.163   7.688 -0.3732  0.2417 -1.2498
 5377SOL     OW27589   3.162   1.476   7.712 -0.0443  0.4909 -0.2450
 5377SOL    HW127590   3.074   1.514   7.708 -1.6516 -3.3290 -0.7551
 5377SOL    HW227591   3.158   1.416   7.786  0.7567 -1.0602 -1.4817
 5378SOL     OW27592   3.773   4.693  16.152 -0.1455  0.2457  0.1659
 5378SOL    HW127593   3.854   4.710  16.104 -0.1946  0.4944  0.1741
 5378SOL    HW227594   3.767   0.039  16.219 -1.2230 -0.0409  0.3655
 5379SOL     OW27595   1.407   2.899   7.889  0.3602  0.0653  0.2300
 5379SOL    HW127596   1.409   2.961   7.962  0.2953  0.7485 -0.3539
 5379SOL    HW227597   1.352   2.831   7.929  2.4663 -2.1092 -0.5761
 5380SOL     OW27598   3.244   1.730   7.812  0.2419  0.6625 -0.1876
 5380SOL    HW127599   3.228   1.663   7.746 -0.2243  0.3564  0.2337
 5380SOL    HW227600   3.287   1.671   7.874  0.3096 -0.4286 -1.2745
 5381SOL     OW27601   2.867   0.589   8.292  0.5205 -0.0499  0.6299
 5381SOL    HW127602   2.904   0.532   8.359 -0.9388  2.7644  3.8581
 5381SOL    HW227603   2.835   0.663   8.344 -0.6842 -0.6853  0.7927
 5382SOL     OW27604   3.320   0.749  12.921  0.3021  0.1280  0.0311
 5382SOL    HW127605   3.226   0.761  12.934  0.0265 -3.3128  1.2968
 5382SOL    HW227606   3.361   0.829  12.955 -1.2329  0.2882  1.4921
 5383SOL     OW27607   1.893   2.525  16.276 -0.4547  0.7112 -0.1265
 5383SOL    HW127608   1.988   2.530  16.287 -0.3078 -0.6196 -0.8043
 5383SOL    HW227609   1.868   2.547  16.366  0.2994 -2.7237  0.9113
 5384SOL     OW27610   3.664   0.962   6.139 -0.4313 -0.1235  0.0116
 5384SOL    HW127611   3.712   0.979   6.220  2.8342 -0.9202 -1.7735
 5384SOL    HW227612   3.738   0.983   6.083  0.4613 -1.2528  0.7695
 5385SOL     OW27613   0.358   3.889  17.686 -0.3019  0.6435 -0.6115
 5385SOL    HW127614   0.306   3.937  17.621 -2.9432  0.7628  1.5360
 5385SOL    HW227615   0.410   3.962   0.029 -0.7648  0.6419  0.0923
 5386SOL     OW27616   2.925   2.552   0.570  0.7341  0.0429  0.2094
 5386SOL    HW127617   2.970   2.470   0.589  2.1868  0.1778 -2.5073
 5386SOL    HW227618   2.843   2.537   0.617  0.7808  0.6418  0.4888
 5387SOL     OW27619   2.269   3.051   0.117  0.3109  0.0145  0.2570
 5387SOL    HW127620   2.314   3.130   0.088  0.5703 -0.3501 -0.3256
 5387SOL    HW227621   2.243   3.022   0.029 -1.3324 -1.2648  1.1668
 5388SOL     OW27622   3.872   2.013   9.138  0.0710 -0.0201  0.1062
 5388SOL    HW127623   3.900   1.923   9.123  1.4186  0.3184  0.6301
 5388SOL    HW227624   3.790   2.008   9.188  0.0085  0.6497  0.0609
 5389SOL     OW27625   3.393   2.096  14.138  0.6473  0.1820  0.0899
 5389SOL    HW127626   3.329   2.036  14.100  1.2992 -0.5186  0.1137
 5389SOL    HW227627   3.387   2.175  14.085 -0.8240 -0.4393 -0.6698
 5390SOL     OW27628   3.560   2.676   7.966  0.3850  0.0830 -0.5976
 5390SOL    HW127629   3.594   2.676   8.055 -0.1839 -0.0629 -0.3842
 5390SOL    HW227630   3.565   2.583   7.942 -1.2401 -0.2880  0.5152
 5391SOL     OW27631   1.219   2.958   7.214 -0.0791 -0.3353  0.3716
 5391SOL    HW127632   1.193   3.039   7.170 -1.4985 -1.4673 -0.8767
 5391SOL    HW227633   1.170   2.956   7.296  0.5460 -0.1002  0.7566
 5392SOL     OW27634   3.697   3.089  10.059 -0.5163  0.0674 -0.3478
 5392SOL    HW127635   3.638   3.039  10.115  1.1249 -0.7280  0.6853
 5392SOL    HW227636   3.727   3.155  10.121 -1.4116  0.6236 -0.5078
 5393SOL     OW27637   3.690   3.966   5.037 -0.2704  0.4490  0.7431
 5393SOL    HW127638   3.651   4.052   5.024  0.0675  0.7539  1.7728
 5393SOL    HW227639   3.725   3.984   5.125  2.3140 -0.4829 -0.1065
 5394SOL     OW27640   4.002   4.297  16.964  0.3697  0.1320 -0.2476
 5394SOL    HW127641   4.062   4.344  16.907 -1.3416  2.5898 -0.0582
 5394SOL    HW227642   4.033   4.208  16.951 -0.3030 -0.2571  0.7634
 5395SOL     OW27643   0.089   0.636   4.189 -0.5170 -0.3402  0.0046
 5395SOL    HW127644   0.080   0.558   4.244 -2.2241 -0.7960 -0.9357
 5395SOL    HW227645   0.028   0.621   4.117 -0.0563 -1.0007 -0.2538
 5396SOL     OW27646   2.563   2.568  16.261 -0.7573 -0.0493 -0.7510
 5396SOL    HW127647   2.477   2.552  16.300 -1.6420  2.9397 -1.5199
 5396SOL    HW227648   2.604   2.484  16.284 -0.0003 -0.0279 -2.0360
 5397SOL     OW27649   3.219   0.680  16.181 -0.7224  0.1578 -0.0058
 5397SOL    HW127650   3.192   0.764  16.143  1.1901  1.2445  1.0089
 5397SOL    HW227651   3.266   0.711  16.258 -0.4491  1.2275 -0.6014
 5398SOL     OW27652   3.632   0.799  10.389  0.6069  0.5733  0.5833
 5398SOL    HW127653   3.590   0.754  10.316  1.4966  1.2233 -0.3311
 5398SOL    HW227654   3.607   0.890  10.373  1.3402  0.0972 -3.4289
 5399SOL     OW27655   0.426   0.999   6.530 -0.5086  0.5933  0.9378
 5399SOL    HW127656   0.486   1.013   6.603 -0.9504 -1.9158  1.7867
 5399SOL    HW227657   0.362   0.934   6.558 -1.4378  1.3942  0.7150
 5400SOL     OW27658   1.012   1.509   3.335 -0.1989 -0.0066  0.3191
 5400SOL    HW127659   0.985   1.579   3.394 -1.2041  0.9733 -1.2861
 5400SOL    HW227660   0.929   1.464   3.316  0.5928 -0.8946 -1.0459
 5401SOL     OW27661   2.183   1.236  13.153 -0.0305  0.3678  0.4390
 5401SOL    HW127662   2.195   1.307  13.090  2.3158 -0.6793 -0.3067
 5401SOL    HW227663   2.129   1.279  13.219 -1.4454  0.3662 -0.7102
 5402SOL     OW27664   0.378   3.651   3.107  0.2825  0.1237 -0.5723
 5402SOL    HW127665   0.430   3.731   3.096 -0.6389  0.5143 -2.2382
 5402SOL    HW227666   0.423   3.583   3.056  2.1643  0.5226  0.5796
 5403SOL     OW27667   1.846   1.840   6.074  0.1495  0.0813 -0.0962
 5403SOL    HW127668   1.928   1.866   6.117  0.6771  1.0886 -1.7106
 5403SOL    HW227669   1.828   1.925   6.035  0.2106 -0.1804 -0.6977
 5404SOL     OW27670   2.847   4.146   1.784 -0.8091 -0.4783  0.1837
 5404SOL    HW127671   2.786   4.173   1.853  1.1113 -0.7636  2.0055
 5404SOL    HW227672   2.911   4.093   1.831  1.1715  1.1853 -0.6856
 5405SOL     OW27673   1.818   2.915  11.785 -0.5850 -0.2636 -0.6515
 5405SOL    HW127674   1.872   2.989  11.812 -0.8589 -0.4566  0.4381
 5405SOL    HW227675   1.748   2.949  11.729 -0.2682 -1.6991 -1.9256
 5406SOL     OW27676   1.971   0.012   3.061 -0.0093  0.2398 -0.2780
 5406SOL    HW127677   1.999   0.103   3.060  2.4025 -0.4702  0.1368
 5406SOL    HW227678   1.938   0.008   2.971  0.8155  1.7240 -0.6436
 5407SOL     OW27679   4.474   2.548   4.098 -0.0838  0.0983  0.1541
 5407SOL    HW127680   4.554   2.503   4.125 -0.4050  0.9509  2.5527
 5407SOL    HW227681   4.507   2.638   4.097  0.2689 -0.0207  1.7227
 5408SOL     OW27682   2.832   4.361   8.545  0.3458  0.2494 -0.2447
 5408SOL    HW127683   2.741   4.368   8.571  0.2305  1.6755 -1.0326
 5408SOL    HW227684   2.867   4.442   8.581 -1.8906  1.0804  0.0482
 5409SOL     OW27685   4.480   0.186   7.824 -0.0652  0.2236 -0.1893
 5409SOL    HW127686   4.453   0.154   7.738 -0.8858 -0.2485  0.2450
 5409SOL    HW227687   4.401   0.239   7.837  0.4170  1.0944 -0.8012
 5410SOL     OW27688   1.075   0.998  14.627  0.5093  0.6502 -0.1414
 5410SOL    HW127689   1.109   0.926  14.574 -0.7935 -0.2841  0.2619
 5410SOL    HW227690   1.152   1.027  14.675  0.2733  2.6647 -0.9894
 5411SOL     OW27691   3.204   2.915  11.440  0.4153 -0.0139 -0.1976
 5411SOL    HW127692   3.142   2.852  11.403  1.9280 -0.7336 -1.4896
 5411SOL    HW227693   3.236   2.868  11.517  0.1542 -0.9647 -0.6638
 5412SOL     OW27694   0.857   2.679   5.535  0.1684  0.8028 -0.4224
 5412SOL    HW127695   0.793   2.750   5.533 -1.3250 -0.6076 -2.3566
 5412SOL    HW227696   0.910   2.711   5.609 -2.0916  0.0716  1.5247
 5413SOL     OW27697   1.159   1.879   7.607  0.4878  0.3946  0.2467
 5413SOL    HW127698   1.177   1.787   7.586 -1.4246 -0.0858  0.7273
 5413SOL    HW227699   1.248   1.915   7.608  0.4964  0.4145 -1.3601
 5414SOL     OW27700   3.627   4.408   2.702  0.3149 -0.1022  0.0102
 5414SOL    HW127701   3.537   4.399   2.735 -0.2336 -0.4826 -1.6089
 5414SOL    HW227702   3.622   4.455   2.619  1.6198 -0.6908 -0.4009
 5415SOL     OW27703   4.266   3.421   2.950  0.4066  0.1680  0.1616
 5415SOL    HW127704   4.293   3.459   2.866  0.0749  2.0093  0.8720
 5415SOL    HW227705   4.224   3.341   2.919 -2.1262  2.2638 -1.9475
 5416SOL     OW27706   2.727   0.629   3.569  0.1991  0.0757  0.3182
 5416SOL    HW127707   2.822   0.641   3.567 -0.0228  1.8132  0.2202
 5416SOL    HW227708   2.705   0.596   3.482 -1.1590  2.1826 -0.1493
 5417SOL     OW27709   2.105   0.321   6.905 -0.1017  0.2209 -0.0054
 5417SOL    HW127710   2.112   0.340   6.812  1.5454  0.4319  0.1687
 5417SOL    HW227711   2.176   0.376   6.937  1.7148 -1.3590 -1.3716
 5418SOL     OW27712   0.814   4.446   9.951 -0.1353 -0.2316  0.2582
 5418SOL    HW127713   0.836   4.507   9.881 -1.4090  0.6889  0.6608
 5418SOL    HW227714   0.783   4.513  10.011 -0.3804  0.9556 -1.2021
 5419SOL     OW27715   0.573   3.512  17.475 -0.3716  0.3288  0.1101
 5419SOL    HW127716   0.599   3.565  17.400 -0.9208  2.8451  1.6922
 5419SOL    HW227717   0.591   3.573  17.547 -0.9309  0.4813  0.1211
 5420SOL     OW27718   3.767   4.593  14.731 -0.0852 -0.8709  0.7561
 5420SOL    HW127719   3.807   4.674  14.762 -0.7564 -0.6410  1.0197
 5420SOL    HW227720   3.739   4.622  14.645 -2.3028  1.4055  2.2602
 5421SOL     OW27721   4.145   1.909  10.698 -0.3793  0.2084  0.4974
 5421SOL    HW127722   4.151   1.817  10.672 -1.0402  0.4807 -0.5971
 5421SOL    HW227723   4.053   1.917  10.721 -1.0209 -1.9281 -1.4545
 5422SOL     OW27724   0.616   0.528   2.781  0.8669 -0.1045 -0.2045
 5422SOL    HW127725   0.663   0.595   2.733 -0.9341  1.5768  0.3695
 5422SOL    HW227726   0.548   0.578   2.826  2.2947  0.7342  1.0155
 5423SOL     OW27727   1.949   4.446   7.456  0.2309  0.1326  0.4232
 5423SOL    HW127728   1.993   4.530   7.443  0.0570  0.2754  0.7556
 5423SOL    HW227729   2.022   4.384   7.455 -0.0502 -0.2004  0.4992
 5424SOL     OW27730   2.594   4.669   2.736 -0.5650  0.0419  0.2170
 5424SOL    HW127731   2.647   0.010   2.687 -0.0955  0.5876  1.4433
 5424SOL    HW227732   2.556   4.710   2.813  1.1599  0.0921  1.0435
 5425SOL     OW27733   4.153   2.700   1.139 -0.5528  0.2288  0.0675
 5425SOL    HW127734   4.139   2.748   1.057 -2.8622 -0.4952  0.0423
 5425SOL    HW227735   4.062   2.688   1.167  0.0601 -3.8120  0.2958
 5426SOL     OW27736   0.260   2.460  11.153  0.3070 -0.2579  0.0055
 5426SOL    HW127737   0.235   2.535  11.207 -0.9825 -0.2162 -0.6542
 5426SOL    HW227738   0.346   2.443  11.191  0.4147  0.4666  0.1014
 5427SOL     OW27739   1.951   1.569   3.912 -0.6958 -0.8018 -0.0219
 5427SOL    HW127740   1.870   1.528   3.881 -2.2519  3.0881 -1.1400
 5427SOL    HW227741   1.999   1.492   3.943  2.8399  2.2329  1.9944
 5428SOL     OW27742   3.971   0.554   6.739  0.1913 -0.1500 -0.3061
 5428SOL    HW127743   3.991   0.514   6.824  0.2406  0.2497 -0.1279
 5428SOL    HW227744   3.876   0.546   6.730  0.1395  2.0375 -1.6315
 5429SOL     OW27745   3.206   2.582   6.764 -0.3197 -0.2660 -0.1058
 5429SOL    HW127746   3.264   2.511   6.739 -1.9294 -1.0564 -1.5801
 5429SOL    HW227747   3.234   2.607   6.852 -1.3902 -1.8722  0.6776
 5430SOL     OW27748   1.769   1.303   8.245  0.0115  0.1105  0.3987
 5430SOL    HW127749   1.840   1.367   8.250  0.6375 -0.5381 -0.3590
 5430SOL    HW227750   1.786   1.253   8.325  1.5834 -0.9092 -0.5883
 5431SOL     OW27751   1.821   2.734   1.723  0.4250 -0.3926 -1.0845
 5431SOL    HW127752   1.823   2.761   1.631  2.9704 -1.0608 -1.2115
 5431SOL    HW227753   1.852   2.644   1.716 -0.6747 -0.6805 -2.4540
 5432SOL     OW27754   0.994   1.090   2.318  0.5279  0.0335 -0.8373
 5432SOL    HW127755   0.970   1.014   2.371  2.2470 -0.7385 -1.1994
 5432SOL    HW227756   0.913   1.124   2.280  0.1769  0.5209  0.3364
 5433SOL     OW27757   1.494   1.562   2.572  0.6877  0.4815 -0.2426
 5433SOL    HW127758   1.467   1.472   2.586 -1.5811  1.1016 -0.6126
 5433SOL    HW227759   1.585   1.567   2.603  0.1510  1.1931  1.2036
 5434SOL     OW27760   3.163   1.334   8.189 -0.2008 -0.0239  0.1179
 5434SOL    HW127761   3.166   1.429   8.189  0.0739 -0.0168 -2.0239
 5434SOL    HW227762   3.156   1.315   8.282 -2.6062  1.4356  0.2399
 5435SOL     OW27763   1.061   3.034  17.211  0.6104 -0.5120 -0.5278
 5435SOL    HW127764   1.115   3.031  17.132  1.7963  0.0432  0.2406
 5435SOL    HW227765   0.974   3.068  17.190 -0.3604 -1.9666  1.1416
 5436SOL     OW27766   0.400   0.504   4.149  0.1585  0.0892 -0.3637
 5436SOL    HW127767   0.317   0.463   4.122  1.7147 -1.6713 -2.4556
 5436SOL    HW227768   0.454   0.493   4.071  0.1212  0.6232 -0.4624
 5437SOL     OW27769   2.754   2.182  15.642  0.7210 -0.4462 -0.0116
 5437SOL    HW127770   2.769   2.163  15.735 -0.3188 -1.0783  0.0231
 5437SOL    HW227771   2.847   2.183  15.617  0.7073  0.1697 -0.0417
 5438SOL     OW27772   1.621   4.488  15.937 -0.2912 -0.0144  0.1496
 5438SOL    HW127773   1.699   4.543  15.932 -0.1537 -0.3754 -1.7051
 5438SOL    HW227774   1.552   4.552  15.955 -1.3419 -1.5193  1.4819
 5439SOL     OW27775   4.684   1.597  15.967  0.2068  1.0205 -0.2609
 5439SOL    HW127776   4.693   1.572  15.875 -1.4480  1.2639 -0.4847
 5439SOL    HW227777   0.049   1.580  16.001  0.0061  0.8304  0.1621
 5440SOL     OW27778   2.797   0.251   9.478  0.4101  0.0302 -0.4443
 5440SOL    HW127779   2.862   0.309   9.519  2.3671 -2.1474 -0.4764
 5440SOL    HW227780   2.724   0.251   9.539 -0.2639  0.1299 -1.2388
 5441SOL     OW27781   3.725   1.966   6.327  0.7068  0.4281  0.1399
 5441SOL    HW127782   3.753   2.056   6.345  0.4637  0.8625 -1.7015
 5441SOL    HW227783   3.782   1.920   6.389 -0.1943  1.3645  1.6560
 5442SOL     OW27784   0.315   1.002   6.888  0.0389 -0.3035 -0.0277
 5442SOL    HW127785   0.396   1.048   6.868 -0.0079 -0.4762 -0.6035
 5442SOL    HW227786   0.286   1.045   6.969 -1.2286  0.0799 -0.6902
 5443SOL     OW27787   1.389   2.359   6.512  0.0352  0.2009 -0.2123
 5443SOL    HW127788   1.328   2.320   6.574  0.7131 -0.5963 -0.0421
 5443SOL    HW227789   1.449   2.284   6.508  0.6403  0.5690  2.1165
 5444SOL     OW27790   2.828   4.307   3.180  0.1990 -0.4784 -0.3076
 5444SOL    HW127791   2.856   4.217   3.170  3.1599 -0.0348  3.6762
 5444SOL    HW227792   2.771   4.312   3.104  0.5700 -1.7348 -0.6638
 5445SOL     OW27793   0.623   2.986   8.542 -0.8378  0.4997  0.9895
 5445SOL    HW127794   0.622   2.947   8.454  0.8837 -0.8692  1.5749
 5445SOL    HW227795   0.564   3.060   8.527 -0.2883  0.6647 -0.3690
 5446SOL     OW27796   3.539   0.195  15.529  0.4637 -0.3646  0.0643
 5446SOL    HW127797   3.598   0.175  15.456 -1.3950  0.3688 -1.6423
 5446SOL    HW227798   3.599   0.221  15.599  0.9148  0.0960 -0.4916
 5447SOL     OW27799   3.643   4.088   6.240  0.3095  0.5819  0.6188
 5447SOL    HW127800   3.591   4.166   6.223 -2.0803 -0.5930  2.5398
 5447SOL    HW227801   3.580   4.026   6.275  0.6025 -0.8292 -1.3499
 5448SOL     OW27802   2.843   4.466   6.932 -0.6658  0.4221  0.2427
 5448SOL    HW127803   2.827   4.523   7.008  2.0734  0.9044  0.4409
 5448SOL    HW227804   2.765   4.413   6.946 -0.2927 -0.1761  0.0508
 5449SOL     OW27805   4.206   2.747   5.042 -0.1358  0.0865  0.1324
 5449SOL    HW127806   4.198   2.824   5.097 -0.4082  1.1782 -1.4235
 5449SOL    HW227807   4.167   2.789   4.965 -0.1857 -0.0781  0.0674
 5450SOL     OW27808   4.033   0.242   2.378 -0.1197 -0.3490 -0.1089
 5450SOL    HW127809   4.046   0.316   2.318  4.3995 -1.6052 -0.6671
 5450SOL    HW227810   4.124   0.230   2.406 -0.7754 -1.8723  1.3872
 5451SOL     OW27811   0.814   1.298   4.294 -0.1127 -0.4508 -0.2490
 5451SOL    HW127812   0.828   1.346   4.376 -0.4990 -0.8478  0.0530
 5451SOL    HW227813   0.730   1.257   4.315  0.1676 -0.4200  0.9685
 5452SOL     OW27814   1.251   0.024   4.334  0.2436 -0.3961  0.3550
 5452SOL    HW127815   1.261   0.050   4.425 -1.0098  0.4915  0.2312
 5452SOL    HW227816   1.157   0.038   4.326 -0.1658 -1.8266  2.5676
 5453SOL     OW27817   0.759   3.117   7.395  0.0646  0.2053  0.0270
 5453SOL    HW127818   0.855   3.119   7.389  0.0703 -2.5882 -0.9118
 5453SOL    HW227819   0.749   3.022   7.405  0.6747 -0.1079 -2.4013
 5454SOL     OW27820   0.332   2.460   5.032  0.1545  0.1716 -0.3919
 5454SOL    HW127821   0.408   2.460   5.090 -0.2910  0.7050  0.1977
 5454SOL    HW227822   0.358   2.392   4.970 -0.5584  0.6855 -1.2419
 5455SOL     OW27823   3.220   2.174   1.788 -0.0870 -0.0822 -0.2774
 5455SOL    HW127824   3.151   2.240   1.787  0.8298  0.8811  0.4155
 5455SOL    HW227825   3.295   2.230   1.767 -0.3389  0.4360  0.2167
 5456SOL     OW27826   0.696   3.292   1.965 -0.1368 -0.3119 -0.1387
 5456SOL    HW127827   0.753   3.220   1.938 -0.5998 -0.7291  0.0110
 5456SOL    HW227828   0.714   3.348   1.890 -1.4655  3.1866  2.1133
 5457SOL     OW27829   3.351   1.851   3.878  0.0144  0.3048 -0.2196
 5457SOL    HW127830   3.322   1.812   3.960 -0.2842  1.5347  0.2616
 5457SOL    HW227831   3.277   1.837   3.818  0.1328 -1.7574  0.1351
 5458SOL     OW27832   1.796   1.119   3.999 -0.1462  0.0133 -0.1377
 5458SOL    HW127833   1.701   1.112   4.004 -0.0740 -1.5303 -0.9224
 5458SOL    HW227834   1.814   1.120   3.905  1.5949 -1.4154  0.1829
 5459SOL     OW27835   1.509   4.346   4.160  0.4083 -0.1797 -0.1623
 5459SOL    HW127836   1.504   4.306   4.247 -2.1844 -0.2377 -0.3333
 5459SOL    HW227837   1.513   4.438   4.184 -0.3992 -0.3868  0.7713
 5460SOL     OW27838   3.797   1.221   3.123  0.3443  0.6788 -0.1736
 5460SOL    HW127839   3.762   1.247   3.037 -1.8276 -1.0914  0.1724
 5460SOL    HW227840   3.720   1.199   3.175  1.7913  0.2414  1.7633
 5461SOL     OW27841   3.986   0.653   9.075 -0.3962 -0.6483 -0.1345
 5461SOL    HW127842   3.964   0.746   9.083  1.4718 -0.3806  1.7508
 5461SOL    HW227843   4.077   0.663   9.100 -0.9700 -2.3077  2.5746
 5462SOL     OW27844   1.967   1.974   0.034 -0.5026  0.2575  0.2023
 5462SOL    HW127845   1.922   1.920   0.099  3.9107 -1.7688  1.5403
 5462SOL    HW227846   2.054   1.939   0.055  0.2820  0.8290 -2.1048
 5463SOL     OW27847   1.665   4.228   2.596 -0.2526  0.0705 -0.4226
 5463SOL    HW127848   1.618   4.151   2.627  0.8806 -0.4189  0.0974
 5463SOL    HW227849   1.748   4.227   2.643  0.0693 -0.1071 -0.9979
 5464SOL     OW27850   0.469   2.345   2.791 -0.3080  0.4153 -0.1819
 5464SOL    HW127851   0.390   2.296   2.814  0.6433 -0.6266  0.8278
 5464SOL    HW227852   0.520   2.274   2.754 -1.3194  0.5706 -1.8777
 5465SOL     OW27853   4.099   0.226   4.621 -0.6153  0.8476  0.1339
 5465SOL    HW127854   4.083   0.300   4.562 -1.8502 -0.2794 -0.9217
 5465SOL    HW227855   4.102   0.274   4.705  0.2241  1.7617 -0.4174
 5466SOL     OW27856   3.628   2.002  14.306 -0.1403 -0.0212 -0.0701
 5466SOL    HW127857   3.567   2.065  14.268  0.5441  0.8374  0.2820
 5466SOL    HW227858   3.575   1.933  14.346  0.6314 -0.1919  0.6488
 5467SOL     OW27859   0.480   3.934   6.033  0.2004  0.1995  0.3006
 5467SOL    HW127860   0.398   3.900   5.997  1.2298 -2.0716  0.0758
 5467SOL    HW227861   0.534   3.953   5.956  0.0010 -0.8893 -0.1027
 5468SOL     OW27862   4.004   1.311   0.652  0.2445 -0.5440 -0.3024
 5468SOL    HW127863   4.016   1.405   0.636  1.4692 -0.1824  2.7287
 5468SOL    HW227864   4.065   1.277   0.586  1.3383  1.8278 -0.5089
 5469SOL     OW27865   2.981   3.144  11.132  0.0076  0.6343  0.2457
 5469SOL    HW127866   2.943   3.231  11.123 -0.5968  0.4038  0.5349
 5469SOL    HW227867   2.905   3.090  11.108  0.7001  0.1929 -0.9593
 5470SOL     OW27868   2.006   3.416   4.112  0.0014  0.6837 -0.3109
 5470SOL    HW127869   2.037   3.343   4.058  0.6321  1.1655 -0.6005
 5470SOL    HW227870   1.919   3.393   4.144 -0.1517  1.2745 -0.2955
 5471SOL     OW27871   1.924   3.540   2.924 -0.2376  0.1656 -0.1521
 5471SOL    HW127872   1.989   3.567   2.988  0.0728 -1.7101  0.3299
 5471SOL    HW227873   1.972   3.527   2.842  0.8385 -0.3316  0.5485
 5472SOL     OW27874   0.130   2.450   9.517 -0.1880  0.6439  0.1252
 5472SOL    HW127875   0.113   2.378   9.577  0.6312  0.7819  0.5158
 5472SOL    HW227876   0.214   2.490   9.542  0.1867 -1.5933  2.4093
 5473SOL     OW27877   2.408   3.171   4.821  0.1280 -0.7847  0.0810
 5473SOL    HW127878   2.453   3.232   4.763 -0.7317 -1.0562 -0.8716
 5473SOL    HW227879   2.425   3.100   4.760  0.7081 -1.1288  0.6470
 5474SOL     OW27880   2.971   0.175  12.950 -0.5371  0.1497  0.4022
 5474SOL    HW127881   3.016   0.092  12.964  0.3639  0.3158 -1.5318
 5474SOL    HW227882   2.891   0.140  12.910 -1.1640  1.0612  0.8495
 5475SOL     OW27883   1.982   1.180  16.011 -0.4159 -0.0554 -0.3991
 5475SOL    HW127884   2.075   1.168  15.993 -0.0885  0.9976  0.5829
 5475SOL    HW227885   1.956   1.088  15.999 -1.2678 -0.0749  1.5448
 5476SOL     OW27886   2.128   4.158   7.732 -0.1488 -0.0177 -0.3951
 5476SOL    HW127887   2.203   4.124   7.782  0.3086 -0.3252 -1.2821
 5476SOL    HW227888   2.058   4.100   7.762  0.9228 -0.0340  2.0227
 5477SOL     OW27889   3.894   0.057   3.320  0.3613  0.0489 -0.0222
 5477SOL    HW127890   3.837   0.074   3.245  0.1076  1.7217  0.5575
 5477SOL    HW227891   3.866   0.129   3.376 -1.1610 -0.9463  0.5091
 5478SOL     OW27892   1.639   3.265   1.388 -0.0398 -0.4836 -0.2027
 5478SOL    HW127893   1.724   3.266   1.344 -0.1028 -0.4960 -0.3249
 5478SOL    HW227894   1.588   3.332   1.343  0.5874 -0.4029 -0.7998
 5479SOL     OW27895   0.477   0.366   2.604  0.1157 -0.4724  0.0720
 5479SOL    HW127896   0.487   0.406   2.518 -2.2469 -0.4726 -0.1951
 5479SOL    HW227897   0.523   0.425   2.663 -1.2484  1.5905 -0.9511
 5480SOL     OW27898   2.653   2.368   6.668 -0.0787 -0.4295 -0.0104
 5480SOL    HW127899   2.668   2.452   6.710  1.0802 -0.7804  0.2751
 5480SOL    HW227900   2.641   2.304   6.738 -0.6056 -2.2728 -1.7684
 5481SOL     OW27901   3.136   4.328   4.072 -0.0061 -0.4995  0.3905
 5481SOL    HW127902   3.062   4.309   4.129 -0.0985 -0.3991  0.3018
 5481SOL    HW227903   3.099   4.382   4.003  1.6038 -1.0558 -0.8952
 5482SOL     OW27904   4.329   0.149  10.412 -0.2536 -0.2968  0.0005
 5482SOL    HW127905   4.261   0.110  10.466  0.4217 -0.5978  0.6313
 5482SOL    HW227906   4.293   0.238  10.416  1.8520  0.6284 -1.1989
 5483SOL     OW27907   2.185   0.186   5.315  0.1159  0.5675 -0.0450
 5483SOL    HW127908   2.261   0.243   5.323  1.4141 -1.1273 -0.3746
 5483SOL    HW227909   2.137   0.227   5.243 -0.9804 -0.4446  0.1091
 5484SOL     OW27910   2.273   4.399   8.989 -0.1738 -0.3765  0.2873
 5484SOL    HW127911   2.360   4.436   9.000 -0.9329  1.6572 -0.5345
 5484SOL    HW227912   2.220   4.461   9.039 -0.6994 -0.5059 -0.1075
 5485SOL     OW27913   0.592   2.457  17.065 -0.0040 -0.1884  0.0364
 5485SOL    HW127914   0.643   2.511  17.125  0.4690  0.5062 -0.9875
 5485SOL    HW227915   0.519   2.515  17.044 -1.4710 -1.8658  0.5010
 5486SOL     OW27916   1.657   0.881   3.219 -0.0592 -0.6780  0.1213
 5486SOL    HW127917   1.691   0.880   3.129 -1.0067 -2.2820 -0.2017
 5486SOL    HW227918   1.581   0.828   3.195  0.4731 -0.7165 -1.4816
 5487SOL     OW27919   3.737   3.681   8.215 -0.5661 -0.0931  0.1776
 5487SOL    HW127920   3.803   3.685   8.284 -1.3422 -0.6892  0.9527
 5487SOL    HW227921   3.765   3.751   8.156 -0.0995  0.4231  1.0153
 5488SOL     OW27922   0.942   3.152  16.931 -0.0899  0.7315 -0.3477
 5488SOL    HW127923   1.017   3.093  16.925 -1.8427 -1.4022 -1.1093
 5488SOL    HW227924   0.895   3.138  16.849  1.5693 -1.4594 -0.9224
 5489SOL     OW27925   3.653   2.555  13.854 -0.0846 -0.4222  0.8703
 5489SOL    HW127926   3.676   2.599  13.936  0.4694 -1.6861  1.3907
 5489SOL    HW227927   3.659   2.461  13.869 -0.4860 -0.8117 -1.4056
 5490SOL     OW27928   1.660   0.024  10.777  0.2852 -0.1572  0.2935
 5490SOL    HW127929   1.633   0.061  10.861  1.6847  0.2363  0.5709
 5490SOL    HW227930   1.673   4.654  10.798 -2.5899 -1.1476 -2.3911
 5491SOL     OW27931   0.837   0.926  12.741 -0.3776 -0.3391 -0.3904
 5491SOL    HW127932   0.766   0.861  12.740 -0.1005 -0.6263 -1.1866
 5491SOL    HW227933   0.876   0.915  12.655 -1.3248 -1.7904 -0.6419
 5492SOL     OW27934   0.437   3.425   1.594 -0.2067 -0.4131  0.2996
 5492SOL    HW127935   0.513   3.482   1.593  1.1773 -2.3112 -1.9661
 5492SOL    HW227936   0.408   3.440   1.504 -0.4961 -1.7713  0.1558
 5493SOL     OW27937   4.071   3.248  10.975  0.5311  0.4172 -0.4428
 5493SOL    HW127938   4.046   3.337  11.002  0.0958  0.2701 -0.3635
 5493SOL    HW227939   4.165   3.239  10.988  0.0642  0.6514  3.1315
 5494SOL     OW27940   3.071   2.477  15.734 -0.2973  0.1497 -0.5865
 5494SOL    HW127941   3.036   2.488  15.822 -1.1172 -1.3340 -0.7282
 5494SOL    HW227942   3.140   2.542  15.725 -1.2315  1.0432 -1.2543
 5495SOL     OW27943   2.514   1.795   3.890  0.1367  0.1945  0.1694
 5495SOL    HW127944   2.584   1.852   3.859 -0.8302  1.4337  0.2727
 5495SOL    HW227945   2.454   1.795   3.815 -0.3186 -0.2314  0.5331
 5496SOL     OW27946   1.060   1.759  16.482  0.1189  0.5718  0.2584
 5496SOL    HW127947   1.148   1.753  16.519 -0.1867 -0.9320  0.7191
 5496SOL    HW227948   1.062   1.845  16.441  2.2807  0.5182  0.2579
 5497SOL     OW27949   3.617   0.171   3.621 -0.1645  0.2403  0.0995
 5497SOL    HW127950   3.614   0.227   3.699 -0.2081 -2.8117  2.2550
 5497SOL    HW227951   3.527   0.140   3.606  0.5024 -1.5871 -0.0081
 5498SOL     OW27952   3.767   4.538   6.399 -0.2403 -0.4132 -0.7421
 5498SOL    HW127953   3.731   4.593   6.330  2.1694 -1.3100 -2.6669
 5498SOL    HW227954   3.856   4.525   6.367  0.6078  2.3233  0.4283
 5499SOL     OW27955   2.523   2.128   7.447  0.1806  0.4613  0.4793
 5499SOL    HW127956   2.584   2.096   7.380  1.0113  0.0794  1.4191
 5499SOL    HW227957   2.509   2.218   7.417 -0.5750  0.4228  0.7255
 5500SOL     OW27958   0.594   0.410  17.077  0.0324  0.4309  0.2276
 5500SOL    HW127959   0.646   0.484  17.044  1.4174 -1.1250 -1.0945
 5500SOL    HW227960   0.536   0.385  17.005  0.5089 -1.1748  0.4063
 5501SOL     OW27961   1.438   0.617   8.775 -0.3251 -0.3074 -0.2365
 5501SOL    HW127962   1.359   0.668   8.794 -1.6485 -2.3954 -0.1672
 5501SOL    HW227963   1.501   0.682   8.743 -1.4762  0.9680  0.0777
 5502SOL     OW27964   3.151   2.460   4.039 -0.5893 -0.0371 -0.2470
 5502SOL    HW127965   3.179   2.520   4.109 -0.8594 -0.0584 -0.1223
 5502SOL    HW227966   3.214   2.491   3.974  1.0697 -2.8940 -0.0072
 5503SOL     OW27967   1.749   0.707   5.128 -0.1266 -0.5362  0.1944
 5503SOL    HW127968   1.839   0.700   5.096  0.8256 -0.1527  2.7798
 5503SOL    HW227969   1.706   0.632   5.088 -1.0785  0.9747 -1.5989
 5504SOL     OW27970   4.660   3.623  11.517 -0.5582 -0.5927 -0.6751
 5504SOL    HW127971   4.705   3.542  11.540 -0.7065 -0.3642  0.4391
 5504SOL    HW227972   4.609   3.597  11.440  1.1427 -1.2191 -1.5724
 5505SOL     OW27973   2.696   2.458   4.132 -0.6059  0.2109 -0.2929
 5505SOL    HW127974   2.646   2.410   4.198  0.5278 -0.2453  0.2212
 5505SOL    HW227975   2.633   2.465   4.060 -0.5464  0.3559 -0.3325
 5506SOL     OW27976   1.609   1.071   7.112  0.3005 -0.7577 -0.2656
 5506SOL    HW127977   1.623   1.160   7.079 -0.5977 -1.4169 -2.4659
 5506SOL    HW227978   1.696   1.037   7.090  1.4255  1.9976 -0.0404
 5507SOL     OW27979   3.535   0.452   9.013 -0.0174  0.2476  0.4270
 5507SOL    HW127980   3.553   0.523   9.075 -1.7889  1.4838 -0.4768
 5507SOL    HW227981   3.623   0.417   9.028  0.1545  0.2455 -0.5926
 5508SOL     OW27982   3.647   3.773   5.989 -0.1604 -0.5165  0.7370
 5508SOL    HW127983   3.680   3.863   5.998 -0.8034  0.0193 -2.1792
 5508SOL    HW227984   3.653   3.764   5.894 -1.2767 -0.5233  0.6677
 5509SOL     OW27985   1.646   4.102   3.510 -0.1617  0.3890 -0.0747
 5509SOL    HW127986   1.706   4.153   3.565  1.2914  1.3360 -2.5226
 5509SOL    HW227987   1.560   4.138   3.529 -0.9348 -1.2826 -0.3970
 5510SOL     OW27988   1.552   1.772  16.792  0.2433  0.3112  0.0477
 5510SOL    HW127989   1.571   1.832  16.865 -1.1782  0.3791  0.3714
 5510SOL    HW227990   1.605   1.809  16.722 -1.3083  2.6914  0.1276
 5511SOL     OW27991   3.123   3.048   8.198  0.3527  0.5575 -0.1587
 5511SOL    HW127992   3.095   3.135   8.170  0.9716  0.3242 -1.5132
 5511SOL    HW227993   3.094   2.992   8.126  0.0988 -0.0668  0.4249
 5512SOL     OW27994   0.859   3.850   2.627 -0.1593  0.5373 -0.3357
 5512SOL    HW127995   0.907   3.777   2.668 -0.6010  0.8442  0.7451
 5512SOL    HW227996   0.785   3.801   2.592  0.6611 -1.3013  0.4771
 5513SOL     OW27997   1.443   2.818   3.984  0.0351 -0.2862 -0.4839
 5513SOL    HW127998   1.439   2.866   3.902  0.7645  1.3219  0.4285
 5513SOL    HW227999   1.354   2.784   3.983 -0.2139  0.3754 -0.3918
 5514SOL     OW28000   1.030   2.448   7.715 -0.0010  0.6328 -1.0443
 5514SOL    HW128001   0.936   2.462   7.709  0.1136  2.1865  0.5925
 5514SOL    HW228002   1.040   2.388   7.642  0.0586 -0.5498 -0.0630
 5515SOL     OW28003   3.945   4.604  11.312  0.4753 -0.0752 -0.6180
 5515SOL    HW128004   3.925   4.519  11.351  0.7640 -0.2853 -0.9232
 5515SOL    HW228005   3.884   4.615  11.239  1.5048  2.5331 -1.1024
 5516SOL     OW28006   1.384   4.264   5.840  0.1282  0.0386 -0.5205
 5516SOL    HW128007   1.403   4.267   5.746 -2.4977 -0.4750 -1.0700
 5516SOL    HW228008   1.392   4.354   5.872  1.2417 -0.6376  1.1179
 5517SOL     OW28009   4.630   1.335   1.495  0.2702 -0.0463  0.4789
 5517SOL    HW128010   4.670   1.249   1.504 -0.4275 -0.2872  1.2220
 5517SOL    HW228011   4.547   1.311   1.453 -0.7420 -1.4790  3.3341
 5518SOL     OW28012   2.431   2.243   3.739  0.1021 -0.0314 -0.1133
 5518SOL    HW128013   2.448   2.198   3.822  0.2289  4.0224  2.0260
 5518SOL    HW228014   2.433   2.165   3.683  0.9845  1.7083 -2.4521
 5519SOL     OW28015   4.594   2.140  12.660  0.3897  0.5327  0.2451
 5519SOL    HW128016   4.624   2.089  12.735 -0.0681 -0.8558 -0.5058
 5519SOL    HW228017   4.670   2.125  12.604  1.9919  2.9347  1.7659
 5520SOL     OW28018   2.448   0.980   4.505 -0.2298 -0.1863 -0.6686
 5520SOL    HW128019   2.384   0.909   4.518  0.2671 -0.2859  1.2246
 5520SOL    HW228020   2.501   0.970   4.584 -2.8869 -2.4138  0.8297
 5521SOL     OW28021   3.956   3.975   7.296 -0.0219 -0.3695 -0.4862
 5521SOL    HW128022   3.970   4.070   7.291 -1.4014 -0.2201 -1.3818
 5521SOL    HW228023   3.878   3.976   7.351  0.6569  1.2414  0.4812
 5522SOL     OW28024   1.533   3.233   5.528  0.0476 -0.1584  0.0996
 5522SOL    HW128025   1.528   3.280   5.611  0.8722 -0.1042  0.1220
 5522SOL    HW228026   1.624   3.251   5.506  0.7815 -2.3095  1.3346
 5523SOL     OW28027   4.305   0.152   9.710  0.0486 -0.5434 -0.5389
 5523SOL    HW128028   4.340   0.069   9.742  0.5307 -0.4830 -0.9075
 5523SOL    HW228029   4.266   0.187   9.790  0.8868 -1.9628  0.4798
 5524SOL     OW28030   1.781   1.614  15.392  0.5740  0.1439  0.4889
 5524SOL    HW128031   1.727   1.670  15.448 -0.1939  0.4132 -0.5432
 5524SOL    HW228032   1.750   1.527  15.415 -0.6508  0.9151  1.7818
 5525SOL     OW28033   1.153   2.535   5.413 -0.2060  0.3900 -0.0775
 5525SOL    HW128034   1.112   2.449   5.415  1.7253 -0.5034  1.0272
 5525SOL    HW228035   1.127   2.561   5.325 -0.8877 -0.5659 -0.1558
 5526SOL     OW28036   2.508   2.302   5.665 -0.2365 -0.3422 -0.0323
 5526SOL    HW128037   2.413   2.308   5.670  0.0714  3.9626  0.5364
 5526SOL    HW228038   2.525   2.216   5.626  0.9716 -0.7151  1.3246
 5527SOL     OW28039   2.021   3.289   4.614 -0.1254 -0.3517 -0.0926
 5527SOL    HW128040   1.966   3.220   4.578  1.9977  0.0828 -4.2064
 5527SOL    HW228041   2.049   3.259   4.700  1.0600 -1.3898 -0.8500
 5528SOL     OW28042   4.100   3.048   0.877  0.2160  0.1166  0.4999
 5528SOL    HW128043   4.191   3.017   0.878  0.3976  0.6638  0.9104
 5528SOL    HW228044   4.092   3.112   0.807 -0.4000 -2.4111 -1.7480
 5529SOL     OW28045   1.651   1.452   1.015 -0.4916 -0.4026 -0.8352
 5529SOL    HW128046   1.645   1.511   0.940 -1.1351 -1.1817 -1.3939
 5529SOL    HW228047   1.602   1.376   0.984 -2.2503  0.1456  0.5607
 5530SOL     OW28048   3.538   3.223   4.516  0.3360  0.1634  0.4334
 5530SOL    HW128049   3.509   3.234   4.607 -0.2416 -1.7645  0.4844
 5530SOL    HW228050   3.595   3.146   4.519  1.2436  0.8975  2.5069
 5531SOL     OW28051   3.441   4.511   1.543 -0.4367 -0.7618 -0.0230
 5531SOL    HW128052   3.347   4.513   1.526 -0.1474  0.0703 -1.6117
 5531SOL    HW228053   3.469   4.482   1.456  1.9326  2.4185 -0.3256
 5532SOL     OW28054   2.600   1.904   4.949 -0.1325 -0.2857  0.3597
 5532SOL    HW128055   2.652   1.829   4.977  1.7575  1.3067  1.1458
 5532SOL    HW228056   2.628   1.908   4.857  0.0533 -1.3564  0.3713
 5533SOL     OW28057   3.430   2.127   3.945  0.8522  0.0744  0.1484
 5533SOL    HW128058   3.432   2.142   4.040 -0.1073 -1.4240  0.3948
 5533SOL    HW228059   3.394   2.040   3.931  1.0651 -0.0127  0.1505
 5534SOL     OW28060   1.513   0.438   9.788  0.1997  0.1025 -0.5175
 5534SOL    HW128061   1.569   0.508   9.757  0.3208  0.6291  0.8853
 5534SOL    HW228062   1.553   0.399   9.865  0.6225  1.9526  0.2002
 5535SOL     OW28063   3.333   2.357  13.952 -0.1731 -0.5010  0.4871
 5535SOL    HW128064   3.333   2.419  14.025  0.1748  0.5651 -0.4392
 5535SOL    HW228065   3.280   2.407  13.890  0.9719  1.6956  1.2894
 5536SOL     OW28066   1.372   3.171   4.744 -0.3070 -0.4703 -0.3053
 5536SOL    HW128067   1.462   3.187   4.715 -0.0486 -1.3887  0.0120
 5536SOL    HW228068   1.340   3.261   4.752  1.6417  0.2563 -0.5577
 5537SOL     OW28069   4.296   0.740   5.062 -0.4750 -0.2922 -0.1272
 5537SOL    HW128070   4.221   0.743   5.121  0.0176  0.9413  0.4433
 5537SOL    HW228071   4.273   0.683   4.988 -2.6382 -0.3024  0.5645
 5538SOL     OW28072   3.024   1.534   3.092 -0.1202  0.7739  0.5900
 5538SOL    HW128073   3.031   1.468   3.023  0.7951  1.1100  0.3600
 5538SOL    HW228074   3.016   1.610   3.035 -0.8873 -0.2284 -0.6339
 5539SOL     OW28075   1.952   3.653  11.577  0.8015  0.3740 -0.3828
 5539SOL    HW128076   1.930   3.744  11.594  2.2125  0.4956  0.8122
 5539SOL    HW228077   1.883   3.629  11.515  0.4164 -1.5964  0.8120
 5540SOL     OW28078   0.919   3.094   1.634  0.0025 -0.0696 -0.4309
 5540SOL    HW128079   0.868   3.086   1.553  0.4694  1.7187 -0.9004
 5540SOL    HW228080   1.006   3.058   1.617  0.2027  0.0912  0.2342
 5541SOL     OW28081   4.020   2.238   4.921 -0.2584 -0.2957 -0.1172
 5541SOL    HW128082   3.991   2.267   5.007 -1.4010 -0.1818 -0.5446
 5541SOL    HW228083   3.994   2.146   4.928  1.7838 -1.0479 -2.2209
 5542SOL     OW28084   0.287   2.736   7.179 -0.2978 -0.1254 -0.1025
 5542SOL    HW128085   0.321   2.669   7.120  1.3833  0.4791  0.1750
 5542SOL    HW228086   0.373   2.760   7.213 -0.7773  2.4927 -0.7023
 5543SOL     OW28087   3.994   0.941   3.672  0.2126  0.2569 -0.1580
 5543SOL    HW128088   4.003   0.937   3.767 -0.9511 -0.0806 -0.0606
 5543SOL    HW228089   4.083   0.976   3.667  0.0360  0.8966  1.3801
 5544SOL     OW28090   3.194   1.933   1.400 -0.2597  0.3506  0.4928
 5544SOL    HW128091   3.142   1.854   1.385 -1.4015  1.1797  0.1058
 5544SOL    HW228092   3.140   2.004   1.434 -0.4683  0.0302  0.8346
 5545SOL     OW28093   1.418   3.623   6.630  0.1048 -0.3880  0.2319
 5545SOL    HW128094   1.388   3.585   6.548 -0.1550  1.1611 -0.3814
 5545SOL    HW228095   1.449   3.549   6.682  0.1979 -0.6027 -0.1370
 5546SOL     OW28096   1.720   2.792   8.171  0.1660  0.5376 -0.6869
 5546SOL    HW128097   1.715   2.774   8.077 -1.1913  0.7649 -0.6496
 5546SOL    HW228098   1.625   2.785   8.181  0.4694  0.1011  1.7952
 5547SOL     OW28099   0.412   3.232   3.337 -0.1042 -0.3948  0.7427
 5547SOL    HW128100   0.497   3.196   3.364  0.6168  1.6159  1.1489
 5547SOL    HW228101   0.425   3.327   3.342 -0.2550 -0.4656  2.3178
 5548SOL     OW28102   3.601   1.325   9.122 -0.1023  0.6370 -0.0139
 5548SOL    HW128103   3.625   1.296   9.210 -1.1581 -2.3226 -0.6654
 5548SOL    HW228104   3.514   1.293   9.096 -0.2747 -0.5433  2.0025
 5549SOL     OW28105   0.023   2.690  16.969 -0.0235  0.1890 -0.1847
 5549SOL    HW128106   4.687   2.649  17.033 -0.8802  0.3664 -0.8711
 5549SOL    HW228107   0.001   2.651  16.885  1.0971 -0.8386 -0.0060
 5550SOL     OW28108   2.369   0.859  14.107 -0.1395  0.1529 -0.2877
 5550SOL    HW128109   2.355   0.857  14.012  0.6474 -2.0660 -0.3618
 5550SOL    HW228110   2.279   0.845  14.136  0.7339 -2.8255  1.0548
 5551SOL     OW28111   0.861   4.520   5.140 -0.6921  0.1390 -0.4330
 5551SOL    HW128112   0.906   4.451   5.091  1.3849  1.5461 -0.5348
 5551SOL    HW228113   0.848   4.576   5.063 -0.7195  1.7297  0.7191
 5552SOL     OW28114   1.877   0.724   6.363 -0.1459  0.5597  0.2168
 5552SOL    HW128115   1.808   0.690   6.306 -0.4293 -1.2544  1.6210
 5552SOL    HW228116   1.950   0.694   6.308 -0.3457 -0.0282  0.2750
 5553SOL     OW28117   1.063   4.237   4.022  0.4564 -0.1990 -0.8120
 5553SOL    HW128118   1.086   4.302   3.957 -0.9542 -0.8419 -1.9626
 5553SOL    HW228119   1.084   4.271   4.109  0.5795  1.9750 -1.7087
 5554SOL     OW28120   0.494   1.403   1.471  0.3018 -0.4822 -0.2724
 5554SOL    HW128121   0.401   1.394   1.450 -0.1340  0.4719  1.2591
 5554SOL    HW228122   0.540   1.375   1.391 -1.2913  1.0960 -1.7297
 5555SOL     OW28123   0.658   4.317  16.950 -0.0744  0.3560 -0.3209
 5555SOL    HW128124   0.751   4.340  16.950 -0.3216  1.3321 -1.5494
 5555SOL    HW228125   0.671   4.254  16.879 -0.1006  0.4088 -0.3727
 5556SOL     OW28126   3.312   4.183   6.867  0.2686  0.2183  0.3709
 5556SOL    HW128127   3.233   4.236   6.861  0.6006  0.4108 -2.1042
 5556SOL    HW228128   3.307   4.120   6.796  0.5462  0.4286  0.1607
 5557SOL     OW28129   2.224   3.465  11.263 -0.5402  0.1247 -0.9945
 5557SOL    HW128130   2.317   3.468  11.287 -1.5614 -1.2808  3.2364
 5557SOL    HW228131   2.204   3.547  11.220 -1.8656 -1.3877 -3.2757
 5558SOL     OW28132   4.242   4.077   7.089 -0.0508 -0.4570 -0.1606
 5558SOL    HW128133   4.302   4.095   7.161  0.7776 -1.3675 -0.6222
 5558SOL    HW228134   4.165   4.125   7.120  0.3692  0.8969 -1.2101
 5559SOL     OW28135   0.457   1.802  10.129 -0.7906 -0.2595 -0.7441
 5559SOL    HW128136   0.366   1.790  10.157  0.1188 -2.1687  1.4359
 5559SOL    HW228137   0.459   1.833  10.039  0.2251  0.3081 -0.5197
 5560SOL     OW28138   0.533   2.200  17.042 -0.4630 -0.2411  0.2864
 5560SOL    HW128139   0.516   2.179  16.950  0.2680  2.5206 -0.4783
 5560SOL    HW228140   0.523   2.292  17.065  2.6226  0.2754 -0.4165
 5561SOL     OW28141   2.684   4.119   9.512  0.8428  0.0963 -0.3829
 5561SOL    HW128142   2.724   4.077   9.589  0.0026 -0.8542 -0.4582
 5561SOL    HW228143   2.605   4.068   9.494  0.2590  1.0798 -0.5597
 5562SOL     OW28144   3.268   3.978  16.800  0.0172  0.1609  0.1849
 5562SOL    HW128145   3.299   4.035  16.871 -0.2024  0.5002  0.0108
 5562SOL    HW228146   3.319   4.013  16.727  2.1707  0.7880  1.9872
 5563SOL     OW28147   0.105   2.713   7.916  0.0379  0.9817  0.0153
 5563SOL    HW128148   0.167   2.786   7.909  2.1808 -0.4726  4.1819
 5563SOL    HW228149   0.027   2.743   7.870 -0.7185  1.1084  1.3852
 5564SOL     OW28150   2.527   4.695   7.176 -0.0178  0.6981 -0.4207
 5564SOL    HW128151   2.553   0.053   7.132 -1.6493  0.5396 -1.6603
 5564SOL    HW228152   2.489   0.011   7.255  1.7257 -0.8940  1.2125
 5565SOL     OW28153   1.489   2.900   8.641 -0.0302  0.0781  0.0718
 5565SOL    HW128154   1.565   2.848   8.664 -0.5808 -1.1614 -0.9120
 5565SOL    HW228155   1.422   2.872   8.704 -0.8097 -0.0655 -0.8203
 5566SOL     OW28156   3.952   3.463   2.276  0.5219  0.0593  0.9118
 5566SOL    HW128157   3.887   3.392   2.271  0.8296 -0.2394  1.1021
 5566SOL    HW228158   3.943   3.480   2.369  0.4193 -0.8860  1.0820
 5567SOL     OW28159   3.900   3.088   0.563 -0.3153  0.1959 -0.4968
 5567SOL    HW128160   3.813   3.125   0.548 -0.6390 -0.0375  0.8301
 5567SOL    HW228161   3.913   3.083   0.468  0.1241 -2.4773 -0.2871
 5568SOL     OW28162   0.878   3.533   0.745  0.0668 -0.1677 -0.2102
 5568SOL    HW128163   0.813   3.580   0.693  0.3171 -0.5423 -0.8559
 5568SOL    HW228164   0.960   3.576   0.721  0.9538 -2.1606 -0.7424
 5569SOL     OW28165   3.816   3.574  12.360  0.4170 -0.8855 -0.0171
 5569SOL    HW128166   3.762   3.505  12.322 -2.0851 -0.4982  2.7869
 5569SOL    HW228167   3.860   3.531  12.434  0.8895  1.2054  0.9159
 5570SOL     OW28168   4.582   2.301   2.008 -0.0462  0.4593  0.3754
 5570SOL    HW128169   4.536   2.264   1.933 -1.3412 -1.4457  2.1247
 5570SOL    HW228170   4.514   2.302   2.075 -0.9174  1.2373 -0.5221
 5571SOL     OW28171   2.320   0.848  13.849  0.0539 -0.0847  0.0095
 5571SOL    HW128172   2.380   0.900  13.795 -0.4959 -0.1858 -0.6942
 5571SOL    HW228173   2.275   0.786  13.793  3.1174 -1.5101 -0.9045
 5572SOL     OW28174   0.703   1.834   9.014 -0.1583  0.2887  0.0539
 5572SOL    HW128175   0.673   1.890   8.942  1.0607 -1.6241 -1.9528
 5572SOL    HW228176   0.798   1.831   9.001  0.1929 -2.3886  3.2649
 5573SOL     OW28177   2.602   4.643   3.417 -0.3270 -0.2591  0.3370
 5573SOL    HW128178   2.693   4.637   3.388 -1.1468  1.1874 -2.5871
 5573SOL    HW228179   2.609   0.015   3.435 -1.8850  0.3794 -2.3287
 5574SOL     OW28180   2.728   2.878   5.185 -0.5460  0.2254  0.6837
 5574SOL    HW128181   2.648   2.848   5.227 -0.5766  0.6838  0.9550
 5574SOL    HW228182   2.702   2.970   5.184 -0.0596  0.3219 -1.9492
 5575SOL     OW28183   4.272   0.788   7.458 -0.7010  0.1795  0.1858
 5575SOL    HW128184   4.291   0.740   7.539  0.7884 -0.0796 -0.3266
 5575SOL    HW228185   4.353   0.793   7.408  1.4081 -2.9519  3.2595
 5576SOL     OW28186   2.542   0.621   7.008  0.2591  0.3120  0.1702
 5576SOL    HW128187   2.551   0.544   7.063  1.8794  0.4708  0.1306
 5576SOL    HW228188   2.464   0.657   7.050  1.0063 -1.4315  2.9888
 5577SOL     OW28189   2.803   0.918   5.473 -0.1971  0.4095  0.0758
 5577SOL    HW128190   2.718   0.904   5.431 -0.4120  1.9850 -0.0426
 5577SOL    HW228191   2.761   0.940   5.556  0.9133  0.3558  0.6577
 5578SOL     OW28192   3.439   2.984  12.269 -0.5697 -0.8129  0.0217
 5578SOL    HW128193   3.378   3.036  12.322  0.1213 -0.7823  0.7821
 5578SOL    HW228194   3.506   2.975  12.336 -1.7664 -2.9857  0.9026
 5579SOL     OW28195   3.330   1.338   2.676 -1.0417  0.2954 -0.4460
 5579SOL    HW128196   3.393   1.363   2.608  0.5880 -0.0996  0.9280
 5579SOL    HW228197   3.307   1.422   2.716 -0.3601 -0.5339  1.6814
 5580SOL     OW28198   3.421   2.732   5.695  0.3919 -0.0514 -0.4120
 5580SOL    HW128199   3.398   2.825   5.693  0.6134  0.0314  1.9046
 5580SOL    HW228200   3.343   2.680   5.713 -0.0468  1.3952  1.7417
 5581SOL     OW28201   3.734   1.046   2.223  0.2302  0.3411 -0.0119
 5581SOL    HW128202   3.792   1.080   2.291 -1.3137 -1.3700  2.1822
 5581SOL    HW228203   3.646   1.070   2.251  0.4801  2.0648 -0.7336
 5582SOL     OW28204   0.073   1.038   8.237  0.0512 -0.5942 -0.2756
 5582SOL    HW128205   0.044   1.117   8.282  0.1205 -2.2896  2.7080
 5582SOL    HW228206   0.015   1.038   8.160  0.2719  0.9025 -0.4274
 5583SOL     OW28207   1.653   3.753   6.650  0.0431 -0.0057 -0.5583
 5583SOL    HW128208   1.562   3.726   6.652  0.3173 -0.6760  1.8802
 5583SOL    HW228209   1.698   3.677   6.611 -0.0963  0.0773 -0.8827
 5584SOL     OW28210   3.455   3.768   7.023 -0.5488 -0.1846 -0.1664
 5584SOL    HW128211   3.519   3.805   6.963  1.3831 -0.0854  1.9334
 5584SOL    HW228212   3.432   3.843   7.078 -1.1784  0.0795 -0.7889
 5585SOL     OW28213   2.952   2.977   1.423 -0.0577 -0.0658 -0.6300
 5585SOL    HW128214   3.029   2.988   1.366  1.4928 -0.7311  1.3310
 5585SOL    HW228215   2.967   3.051   1.482 -1.6274 -0.7086  0.5521
 5586SOL     OW28216   1.336   2.801  17.628  0.5850 -0.5353  0.1103
 5586SOL    HW128217   1.401   2.864  17.596  0.7666 -0.7557  0.0539
 5586SOL    HW228218   1.260   2.832  17.577  0.7341  0.4817  0.5031
 5587SOL     OW28219   0.614   3.538   6.370 -0.2836 -0.0195 -0.0310
 5587SOL    HW128220   0.526   3.505   6.354 -0.0956  0.6224 -2.3733
 5587SOL    HW228221   0.620   3.621   6.322 -0.1269 -0.0367 -0.0423
 5588SOL     OW28222   3.110   1.465   3.791  0.0639 -0.0664 -0.0280
 5588SOL    HW128223   3.172   1.461   3.865 -0.8438 -0.1529  0.7225
 5588SOL    HW228224   3.168   1.486   3.717  0.2972 -3.3397 -0.7571
 5589SOL     OW28225   1.854   1.422   1.583  0.2071  0.3576  0.1820
 5589SOL    HW128226   1.809   1.458   1.659 -1.3974  0.5060 -0.8369
 5589SOL    HW228227   1.935   1.385   1.617 -1.2732 -0.1597  3.1210
 5590SOL     OW28228   4.104   3.356   7.861  0.7292  0.8499  0.1631
 5590SOL    HW128229   4.199   3.346   7.875  0.4784  0.9097  1.8656
 5590SOL    HW228230   4.096   3.448   7.885  0.5993  1.3834 -1.8917
 5591SOL     OW28231   3.081   4.674   7.809 -0.1925  0.0756  0.0820
 5591SOL    HW128232   3.113   4.619   7.881  2.1049 -0.3327 -1.2479
 5591SOL    HW228233   3.162   4.701   7.765 -0.3204 -1.6696 -1.2215
 5592SOL     OW28234   0.162   2.201  15.722  0.1112 -0.1837 -0.6572
 5592SOL    HW128235   0.104   2.137  15.682  1.5693 -1.2523 -1.0870
 5592SOL    HW228236   0.243   2.152  15.738  0.5468  1.2976  1.6979
 5593SOL     OW28237   1.873   0.155   0.276  0.0919  0.8977  0.1951
 5593SOL    HW128238   1.802   0.211   0.246  1.0290  1.1879 -1.4506
 5593SOL    HW228239   1.915   0.213   0.340 -0.6409 -0.5444  1.9967
 5594SOL     OW28240   3.003   0.109   8.884 -0.2659  0.4894 -0.1033
 5594SOL    HW128241   3.043   0.162   8.815 -1.4448  1.9658  0.3394
 5594SOL    HW228242   3.005   0.169   8.959 -1.5383  0.5317 -0.0893
 5595SOL     OW28243   3.806   1.220   8.894 -1.1264  0.3598  0.2001
 5595SOL    HW128244   3.898   1.238   8.876 -1.0707  0.6436  0.7547
 5595SOL    HW228245   3.802   1.206   8.988  1.1095  1.4103  0.4464
 5596SOL     OW28246   4.096   2.938   2.861 -0.2825 -0.0860  0.1424
 5596SOL    HW128247   4.088   2.892   2.944 -0.7202 -0.6866 -0.2251
 5596SOL    HW228248   4.190   2.929   2.850 -0.4064 -0.7831 -0.3520
 5597SOL     OW28249   0.502   0.533   2.372 -0.5619  0.0218 -0.1984
 5597SOL    HW128250   0.458   0.601   2.322  0.4966  1.3753  0.7028
 5597SOL    HW228251   0.532   0.481   2.298 -0.8092  1.5153 -1.3485
 5598SOL     OW28252   1.693   2.814  15.188  0.4666  0.0270  0.3867
 5598SOL    HW128253   1.715   2.721  15.195  0.0572 -0.1125 -0.1873
 5598SOL    HW228254   1.646   2.819  15.105 -1.9522  0.1284  1.7672
 5599SOL     OW28255   4.681   3.268   3.685  0.1162  0.2080 -0.0969
 5599SOL    HW128256   4.644   3.201   3.743  0.5210 -0.7732 -0.9672
 5599SOL    HW228257   0.050   3.264   3.713  0.5072  0.6743 -1.3023
 5600SOL     OW28258   2.155   0.619  10.493  0.2498  0.3319 -0.4373
 5600SOL    HW128259   2.150   0.638  10.399 -0.5153 -2.4871 -0.9850
 5600SOL    HW228260   2.089   0.680  10.527  0.3010 -0.3747  0.9342
 5601SOL     OW28261   3.561   1.556   4.268 -0.4266 -0.1776 -0.2670
 5601SOL    HW128262   3.642   1.547   4.319 -0.1273 -0.4200 -0.7862
 5601SOL    HW228263   3.606   1.564   4.184 -1.1737  0.0552 -0.6398
 5602SOL     OW28264   4.267   3.653  13.648  0.1031 -0.5168 -0.3314
 5602SOL    HW128265   4.340   3.645  13.587  0.2249 -1.0930 -0.1133
 5602SOL    HW228266   4.192   3.663  13.589 -0.0730  3.1988  0.5383
 5603SOL     OW28267   1.318   2.602   4.435  0.2786  0.4381 -0.3600
 5603SOL    HW128268   1.371   2.674   4.469  2.7395 -2.2684  1.5370
 5603SOL    HW228269   1.285   2.559   4.513  1.9776  2.5221  1.5060
 5604SOL     OW28270   1.119   0.582  12.134  0.3387 -0.2879  0.0175
 5604SOL    HW128271   1.205   0.616  12.109  1.2556 -3.0186 -0.5604
 5604SOL    HW228272   1.060   0.598  12.060  0.7445  1.3044  0.0347
 5605SOL     OW28273   2.364   2.531   6.736 -0.4454 -0.4135  0.2618
 5605SOL    HW128274   2.407   2.468   6.678  0.6028 -0.3085  0.9165
 5605SOL    HW228275   2.301   2.478   6.784 -0.3488 -0.1814  0.6373
 5606SOL     OW28276   1.784   4.127   9.609  0.2901 -0.3207  0.5090
 5606SOL    HW128277   1.756   4.217   9.625  0.5496 -0.4518  1.7094
 5606SOL    HW228278   1.772   4.115   9.515 -0.7771  0.9836  0.4795
 5607SOL     OW28279   1.654   0.479  17.510 -0.1002 -0.9927  0.5203
 5607SOL    HW128280   1.743   0.499  17.483 -1.0032  0.1452 -1.6212
 5607SOL    HW228281   1.611   0.564  17.519  2.0523  0.0202  1.1121
 5608SOL     OW28282   1.036   3.533  15.973  0.2387  0.2187  0.1032
 5608SOL    HW128283   1.019   3.542  16.067  0.7693  1.3391  0.0996
 5608SOL    HW228284   1.131   3.521  15.978  0.0739 -1.2832 -0.5421
 5609SOL     OW28285   2.615   0.794  10.237  0.2822 -0.1550  0.2233
 5609SOL    HW128286   2.666   0.757  10.165 -0.7604 -2.4933  0.7063
 5609SOL    HW228287   2.668   0.759  10.308  1.1677 -0.8306 -0.7874
 5610SOL     OW28288   3.261   2.427   2.536  0.1647 -0.0466  0.5329
 5610SOL    HW128289   3.214   2.483   2.475 -1.9507 -1.5783  0.7513
 5610SOL    HW228290   3.201   2.427   2.611 -0.3579 -3.4953  0.1072
 5611SOL     OW28291   3.055   3.328   5.144  0.1186  0.6572  0.7359
 5611SOL    HW128292   2.962   3.313   5.162  0.1856 -0.8659 -0.1341
 5611SOL    HW228293   3.047   3.410   5.096 -0.0929  0.6086  0.6881
 5612SOL     OW28294   2.261   3.924  13.501  0.3402 -0.4143  0.3338
 5612SOL    HW128295   2.311   3.895  13.424  1.4710 -0.2270  0.9988
 5612SOL    HW228296   2.176   3.912  13.459  0.7432  1.9093 -1.1851
 5613SOL     OW28297   0.100   0.114   9.253 -0.0707 -0.0193  0.5785
 5613SOL    HW128298   0.061   0.110   9.165  0.6446 -3.3528  0.4321
 5613SOL    HW228299   0.045   0.185   9.286 -0.5281 -1.2507  2.4439
 5614SOL     OW28300   3.894   0.105  14.920  0.0121 -0.4999  0.2138
 5614SOL    HW128301   3.974   0.151  14.945 -0.7784  0.6284  0.6693
 5614SOL    HW228302   3.862   0.164  14.852  3.9119  1.8525  0.3625
 5615SOL     OW28303   2.661   3.230   2.409  0.0849  0.1991 -0.7311
 5615SOL    HW128304   2.626   3.173   2.477 -0.3942  1.5234  0.1133
 5615SOL    HW228305   2.579   3.265   2.374 -1.5775 -2.6045  0.3299
 5616SOL     OW28306   2.933   1.611   7.934  0.2395  0.1224 -0.0879
 5616SOL    HW128307   2.875   1.557   7.987  0.9976  0.5813  1.1976
 5616SOL    HW228308   3.003   1.635   7.996  0.7043 -0.1963 -0.4909
 5617SOL     OW28309   2.215   4.153   7.187  0.1197  0.3545  0.2193
 5617SOL    HW128310   2.249   4.214   7.253  0.3456 -0.6198  1.0108
 5617SOL    HW228311   2.155   4.094   7.233 -0.1933  0.5797  0.1012
 5618SOL     OW28312   2.286   0.178  15.685 -0.1814  0.0150 -0.0102
 5618SOL    HW128313   2.356   0.197  15.748 -0.0346  1.5582 -0.6260
 5618SOL    HW228314   2.331   0.114  15.630  0.7216  1.8284 -1.4088
 5619SOL     OW28315   1.903   3.161   7.896  0.4652  0.5754 -0.2121
 5619SOL    HW128316   1.969   3.219   7.858 -0.1027  0.6099 -1.1416
 5619SOL    HW228317   1.930   3.076   7.862 -1.9256  0.1488 -1.0261
 5620SOL     OW28318   3.347   0.037   7.634  0.0747  0.0549 -0.6901
 5620SOL    HW128319   3.337   0.050   7.540 -0.3444 -0.9376 -0.7746
 5620SOL    HW228320   3.402   0.112   7.657  1.3281 -0.8714 -0.6525
 5621SOL     OW28321   1.801   4.479  10.504 -0.2416  0.3556 -0.0434
 5621SOL    HW128322   1.743   4.413  10.468 -1.3279  0.2826  1.8158
 5621SOL    HW228323   1.862   4.421  10.548  0.9944  1.1885 -0.6566
 5622SOL     OW28324   3.006   3.283   8.040  0.1340  0.3310 -0.2498
 5622SOL    HW128325   2.923   3.320   8.069 -0.3034 -1.3233  0.6485
 5622SOL    HW228326   2.968   3.210   7.991  0.2408  0.8589 -1.1085
 5623SOL     OW28327   2.370   1.175   0.190  0.0419  0.0755  0.1500
 5623SOL    HW128328   2.377   1.192   0.096 -1.5298 -0.0673  0.0186
 5623SOL    HW228329   2.358   1.080   0.197 -2.4532  0.4991  1.4573
 5624SOL     OW28330   2.163   3.340   2.678  0.3742 -0.1374  0.2488
 5624SOL    HW128331   2.162   3.312   2.586 -0.1770 -0.7012  0.4299
 5624SOL    HW228332   2.164   3.435   2.668 -0.1642 -0.0133  1.4331
 5625SOL     OW28333   1.257   4.296   2.431 -0.4392  0.2780  0.5042
 5625SOL    HW128334   1.325   4.307   2.363 -2.0846  1.0873 -1.0147
 5625SOL    HW228335   1.185   4.300   2.368 -0.7403 -1.0419  0.7734
 5626SOL     OW28336   0.190   0.433   9.870 -0.2688  0.3029 -0.0664
 5626SOL    HW128337   0.133   0.502   9.903 -0.2707 -0.8914  2.4004
 5626SOL    HW228338   0.215   0.397   9.954 -0.8636 -0.4570 -0.2230
 5627SOL     OW28339   3.667   4.120  15.435  0.4854  0.1766 -0.0079
 5627SOL    HW128340   3.584   4.132  15.389 -0.0401  0.7249  1.0864
 5627SOL    HW228341   3.718   4.152  15.360  0.9823  0.6278  0.5255
 5628SOL     OW28342   2.370   3.873   5.158  0.0519  0.6147  0.2498
 5628SOL    HW128343   2.444   3.816   5.136 -1.5488 -0.5356 -2.1916
 5628SOL    HW228344   2.380   3.955   5.110  1.7455  0.5178  0.4599
 5629SOL     OW28345   1.458   0.830   3.887  0.0908 -0.6635  0.2225
 5629SOL    HW128346   1.369   0.836   3.923 -0.4293 -0.4138 -1.1174
 5629SOL    HW228347   1.465   0.738   3.909 -0.0758 -1.1633 -1.8620
 5630SOL     OW28348   4.661   0.833   4.272 -0.1033  0.3557 -0.5148
 5630SOL    HW128349   4.697   0.758   4.225 -0.1115 -0.5667  0.9752
 5630SOL    HW228350   4.683   0.814   4.363  3.6488  0.1809 -1.4633
 5631SOL     OW28351   1.052   2.259   1.784 -0.1063 -0.7962  0.3951
 5631SOL    HW128352   0.992   2.234   1.855 -0.6657  2.2561  0.9896
 5631SOL    HW228353   1.025   2.201   1.712  0.2469 -1.5995  0.9019
 5632SOL     OW28354   3.532   2.539  12.180  0.3789 -0.3832 -0.1365
 5632SOL    HW128355   3.475   2.502  12.112  1.3838 -2.6147  0.2448
 5632SOL    HW228356   3.556   2.623  12.141  0.1021  0.2428  1.0422
 5633SOL     OW28357   3.411   2.395   6.373 -0.0683  0.5495 -0.1788
 5633SOL    HW128358   3.488   2.382   6.427 -0.4766  1.0339  0.5147
 5633SOL    HW228359   3.387   2.314   6.327  1.2384  1.0886 -1.8460
 5634SOL     OW28360   2.861   4.601   8.682  0.1173 -0.6344  0.1950
 5634SOL    HW128361   2.846   4.533   8.747  1.4273 -0.8035  0.3198
 5634SOL    HW228362   2.779   4.650   8.684  1.6052  1.9570 -0.8219
 5635SOL     OW28363   1.900   4.337   9.254 -0.0573  0.2138  0.5757
 5635SOL    HW128364   1.819   4.303   9.293 -0.9597  0.5733 -0.9840
 5635SOL    HW228365   1.923   4.248   9.228 -1.1587  0.8040 -2.4565
 5636SOL     OW28366   2.772   2.880   8.264 -0.1524  0.4163 -0.2192
 5636SOL    HW128367   2.680   2.853   8.274 -0.3758  0.5252 -2.1423
 5636SOL    HW228368   2.789   2.856   8.173 -1.3586  1.9689 -0.8539
 5637SOL     OW28369   4.717   3.591   0.628 -0.7340  0.0306  0.2061
 5637SOL    HW128370   4.623   3.572   0.625 -0.5511 -0.9469  0.8129
 5637SOL    HW228371   4.717   3.668   0.684  2.5191  1.3370 -1.5785
 5638SOL     OW28372   3.802   1.429   3.376 -0.3880  0.9116 -0.0618
 5638SOL    HW128373   3.753   1.455   3.455 -1.6532  1.4244 -1.0204
 5638SOL    HW228374   3.786   1.335   3.385 -3.4972  1.5830  1.4066
 5639SOL     OW28375   3.415   2.363   9.126  0.2821  0.1207  0.2984
 5639SOL    HW128376   3.506   2.391   9.125  0.6935 -1.2380 -1.3163
 5639SOL    HW228377   3.422   2.305   9.050  0.7749 -0.6865  0.9525
 5640SOL     OW28378   1.380   2.373  13.128 -0.7128  0.1688 -0.2898
 5640SOL    HW128379   1.441   2.428  13.079  1.1164 -2.1968 -0.6775
 5640SOL    HW228380   1.434   2.295  13.139 -1.5608 -0.3003  0.4661
 5641SOL     OW28381   3.294   1.086   8.620  0.1268 -0.5308  0.0511
 5641SOL    HW128382   3.337   1.004   8.597  0.9015 -0.2164  0.3730
 5641SOL    HW228383   3.366   1.133   8.661  0.6118 -2.4360  1.3779
 5642SOL     OW28384   1.664   2.736   5.724 -0.2380  0.7884  0.1685
 5642SOL    HW128385   1.683   2.731   5.630  1.1897 -1.4496  0.5602
 5642SOL    HW228386   1.598   2.805   5.726 -1.1947 -0.0468 -2.2546
 5643SOL     OW28387   4.299   0.258   8.328  0.2078  0.2416  0.5749
 5643SOL    HW128388   4.354   0.198   8.279  0.9437  1.0294  0.4342
 5643SOL    HW228389   4.341   0.344   8.321  0.2584  0.2522  1.0119
 5644SOL     OW28390   0.821   0.140   4.158 -0.2898  0.3330  0.0954
 5644SOL    HW128391   0.735   0.099   4.146  0.2035 -0.8053  0.4384
 5644SOL    HW228392   0.796   0.224   4.198 -2.2140  1.1957 -2.8760
 5645SOL     OW28393   1.336   4.008   0.292  0.3751  0.1116 -0.1282
 5645SOL    HW128394   1.282   3.968   0.224 -0.8452  2.1773 -0.3667
 5645SOL    HW228395   1.270   4.021   0.361  0.0949  2.8816 -0.9347
 5646SOL     OW28396   3.959   1.555  11.639 -0.0102  0.5088 -0.3865
 5646SOL    HW128397   4.000   1.505  11.567 -0.7984  1.4667 -1.4946
 5646SOL    HW228398   3.955   1.487  11.706 -0.6774  0.7009 -0.2422
 5647SOL     OW28399   3.175   1.277  14.167  0.0989 -0.0995  0.0709
 5647SOL    HW128400   3.248   1.338  14.152 -1.8511  1.4140 -3.1520
 5647SOL    HW228401   3.102   1.337  14.153 -0.4156 -1.1078 -1.5147
 5648SOL     OW28402   1.108   3.623   4.678 -0.0732 -0.1255  0.1602
 5648SOL    HW128403   1.063   3.571   4.611  1.3552  0.1561 -1.0073
 5648SOL    HW228404   1.082   3.712   4.654 -0.1177 -0.3920 -0.7606
 5649SOL     OW28405   1.088   3.478  10.440 -0.1224 -0.4464 -0.2123
 5649SOL    HW128406   1.145   3.412  10.399  1.7761  2.6119 -2.5170
 5649SOL    HW228407   1.055   3.425  10.512  0.5952  0.9848  1.1558
 5650SOL     OW28408   3.705   1.056   2.766  0.4662 -0.1108 -0.1238
 5650SOL    HW128409   3.712   1.145   2.802 -0.0106 -0.8282  1.6961
 5650SOL    HW228410   3.625   1.064   2.713 -0.5494 -2.7358  1.0644
 5651SOL     OW28411   3.767   3.017  11.514 -0.0633 -0.2098 -1.0650
 5651SOL    HW128412   3.689   3.030  11.460 -0.5705  0.3157 -0.2010
 5651SOL    HW228413   3.727   3.015  11.601  1.2628  2.6013 -0.4171
 5652SOL     OW28414   3.841   4.703   4.473  0.6866 -0.0598  0.2643
 5652SOL    HW128415   3.839   4.666   4.385 -1.1646  0.6289  0.0138
 5652SOL    HW228416   3.841   0.074   4.449 -1.1506 -0.6336 -1.9520
 5653SOL     OW28417   2.517   3.956  11.565  0.8552 -0.6340  0.4431
 5653SOL    HW128418   2.455   4.026  11.587  2.3317  0.6082  0.6361
 5653SOL    HW228419   2.467   3.878  11.588  1.1063 -1.1580 -0.7518
 5654SOL     OW28420   4.178   1.196   2.432  0.1825 -0.2055 -0.1302
 5654SOL    HW128421   4.228   1.115   2.431  0.3558 -0.0875 -1.0673
 5654SOL    HW228422   4.209   1.237   2.352  2.0234 -0.6968  0.3403
 5655SOL     OW28423   3.059   0.188   5.854 -0.2183  0.3342  0.8127
 5655SOL    HW128424   2.989   0.253   5.865 -0.1762  0.6208 -0.6034
 5655SOL    HW228425   3.140   0.228   5.885  0.6099  0.3167 -1.3232
 5656SOL     OW28426   3.140   3.550   8.622  0.4072 -0.0912  0.2912
 5656SOL    HW128427   3.225   3.510   8.639 -0.4809 -1.8228  0.6375
 5656SOL    HW228428   3.096   3.563   8.705  0.9190 -0.1344  0.5683
 5657SOL     OW28429   0.510   0.578  10.576  0.3786 -0.7333 -0.0794
 5657SOL    HW128430   0.491   0.484  10.583 -1.5893 -0.3655 -0.6202
 5657SOL    HW228431   0.517   0.611  10.665 -2.1251 -1.7008  0.4795
 5658SOL     OW28432   1.269   0.476   4.954  0.3140 -0.1973  0.1899
 5658SOL    HW128433   1.234   0.565   4.946 -1.2571 -0.9559 -1.5257
 5658SOL    HW228434   1.329   0.484   5.027  0.9418 -0.6855 -0.2774
 5659SOL     OW28435   3.086   4.618   5.890 -0.1585 -0.5899 -0.0988
 5659SOL    HW128436   3.054   4.708   5.887  3.2617  0.5887 -1.4503
 5659SOL    HW228437   3.119   4.605   5.979 -1.4174  1.5170  0.6570
 5660SOL     OW28438   0.736   2.066   3.505  0.1588  0.1453  0.0479
 5660SOL    HW128439   0.678   1.993   3.525 -2.6228  2.5376  0.8069
 5660SOL    HW228440   0.807   2.038   3.564  1.3098  5.3542  1.1735
 5661SOL     OW28441   0.897   4.633   8.054 -0.2214  0.3366  0.0818
 5661SOL    HW128442   0.947   4.574   8.111  0.0804 -0.3432 -0.8830
 5661SOL    HW228443   0.813   4.590   8.074 -0.0880 -0.0374 -0.1598
 5662SOL     OW28444   4.047   2.298   4.001  0.1677 -0.0950 -0.2535
 5662SOL    HW128445   4.057   2.393   4.006 -1.0746 -0.0944  2.2568
 5662SOL    HW228446   4.092   2.284   3.918  0.5551  0.5265 -0.1540
 5663SOL     OW28447   0.015   0.702   8.370 -0.1734 -0.3174  0.0187
 5663SOL    HW128448   0.076   0.639   8.409 -0.3152 -0.7815 -0.5013
 5663SOL    HW228449   0.035   0.779   8.423  1.0287  0.1670 -1.1509
 5664SOL     OW28450   0.510   2.924   4.904  0.6400 -0.1485  0.1884
 5664SOL    HW128451   0.520   2.869   4.981  1.7859 -1.3325 -0.8047
 5664SOL    HW228452   0.529   3.006   4.949 -1.4198  0.0831  0.6361
 5665SOL     OW28453   1.071   1.790   7.058  0.1414 -0.3562 -0.0425
 5665SOL    HW128454   1.109   1.804   6.972 -2.2024 -1.3618 -1.2471
 5665SOL    HW228455   1.070   1.880   7.091 -2.6375  0.7209 -3.1210
 5666SOL     OW28456   4.612   3.097   1.292  0.2683  0.5846 -0.2331
 5666SOL    HW128457   4.543   3.109   1.357  1.9229 -0.7427  1.7521
 5666SOL    HW228458   4.670   3.036   1.338  0.3307  0.1301 -0.9192
 5667SOL     OW28459   4.419   4.700   5.456  0.3850  0.3684 -0.3063
 5667SOL    HW128460   4.443   4.645   5.531 -1.1176  0.7521  0.4575
 5667SOL    HW228461   4.395   4.629   5.397 -0.5444  1.9218 -1.7817
 5668SOL     OW28462   4.663   0.687   8.836  0.4258  0.3107 -0.1457
 5668SOL    HW128463   4.618   0.676   8.920 -1.1214  0.7537 -0.9280
 5668SOL    HW228464   4.602   0.634   8.785  0.3874 -1.1341  1.4075
 5669SOL     OW28465   3.954   3.578  10.264  1.0689  0.2704  0.1527
 5669SOL    HW128466   4.027   3.528  10.228 -0.6203 -0.8389 -1.6908
 5669SOL    HW228467   3.891   3.597  10.195  0.4178 -0.1887  0.6209
 5670SOL     OW28468   2.795   0.546   5.350 -0.1147  0.3956 -0.0648
 5670SOL    HW128469   2.764   0.582   5.433  0.5997 -0.6612  0.6660
 5670SOL    HW228470   2.854   0.488   5.398 -3.9601 -1.6366  2.1477
 5671SOL     OW28471   2.976   3.042   7.699  0.3163  0.0526 -0.5271
 5671SOL    HW128472   2.895   3.050   7.649 -1.2394  1.4466  2.2087
 5671SOL    HW228473   3.022   3.121   7.673 -0.3699  0.2003 -1.2835
 5672SOL     OW28474   3.361   0.106   2.078 -0.1217  0.3015 -0.5791
 5672SOL    HW128475   3.358   0.175   2.012 -1.6694 -0.6741 -1.5246
 5672SOL    HW228476   3.287   0.047   2.064 -1.7212  2.0531  0.3650
 5673SOL     OW28477   2.840   3.083   8.708 -0.4507 -0.2518  0.5822
 5673SOL    HW128478   2.835   3.118   8.619 -1.0958 -0.0218  0.7019
 5673SOL    HW228479   2.797   3.149   8.763 -1.5961  0.5349 -1.2157
 5674SOL     OW28480   3.741   4.632   3.020  0.0398 -0.2515 -0.3782
 5674SOL    HW128481   3.797   4.643   2.944  0.3278 -2.2663 -0.4755
 5674SOL    HW228482   3.789   4.565   3.070 -0.7463 -0.1894  0.4611
 5675SOL     OW28483   2.995   3.164   3.056  0.4445  0.1341  0.0615
 5675SOL    HW128484   3.056   3.164   3.130  1.1889 -0.4190 -0.5462
 5675SOL    HW228485   3.008   3.077   3.018 -1.2976 -0.9793  2.0447
 5676SOL     OW28486   2.127   1.355   6.261  0.2301 -0.6101  0.1455
 5676SOL    HW128487   2.194   1.321   6.202  0.7806  0.5171  0.1050
 5676SOL    HW228488   2.161   1.321   6.344 -0.7609 -1.1084  0.3507
 5677SOL     OW28489   1.766   3.770   3.968  0.2496 -0.0475 -0.2938
 5677SOL    HW128490   1.740   3.681   3.947  0.0757 -0.3941  1.3595
 5677SOL    HW228491   1.790   3.817   3.888 -0.5785 -1.4535 -1.3559
 5678SOL     OW28492   0.944   4.718   9.548 -0.0436 -0.0453  0.0193
 5678SOL    HW128493   1.015   0.027   9.492  0.5089 -0.3572  0.5435
 5678SOL    HW228494   0.986   4.643   9.590  0.4373  0.0968 -0.2077
 5679SOL     OW28495   2.856   2.933  12.903 -0.0455 -0.3208  0.2148
 5679SOL    HW128496   2.937   2.961  12.945 -0.4100  0.0381  0.6701
 5679SOL    HW228497   2.778   2.945  12.956 -0.1316 -0.4840  0.1254
 5680SOL     OW28498   4.366   1.740   3.430 -0.9096  0.2186 -0.0640
 5680SOL    HW128499   4.346   1.652   3.462  0.2819 -0.7367 -1.9414
 5680SOL    HW228500   4.276   1.768   3.412 -1.3400 -2.0000 -1.4785
 5681SOL     OW28501   2.794   1.878   2.433  0.1508  0.0459 -0.2614
 5681SOL    HW128502   2.865   1.817   2.414  0.9298  0.8810 -0.0532
 5681SOL    HW228503   2.831   1.960   2.399 -1.3290  0.5513 -0.6991
 5682SOL     OW28504   3.702   2.289   7.617 -0.7195 -0.2914 -0.0284
 5682SOL    HW128505   3.707   2.251   7.529  4.7122  0.6323 -0.1473
 5682SOL    HW228506   3.772   2.354   7.613  1.3195 -2.5558 -1.3610
 5683SOL     OW28507   1.208   2.082   1.652  0.9671 -0.6362 -0.2024
 5683SOL    HW128508   1.274   2.139   1.613  0.0819  1.8163  1.8803
 5683SOL    HW228509   1.180   2.127   1.732  0.6551 -1.4758  0.1635
 5684SOL     OW28510   2.303   2.714   9.336  0.3569  0.7028  0.4248
 5684SOL    HW128511   2.320   2.752   9.249 -0.7270 -0.7690 -0.4373
 5684SOL    HW228512   2.215   2.678   9.328  0.9340 -0.7796  0.6269
 5685SOL     OW28513   0.265   1.683  16.349  0.8250  0.3135  0.0915
 5685SOL    HW128514   0.255   1.642  16.263  1.0041  0.0698  0.1882
 5685SOL    HW228515   0.356   1.711  16.335  0.5684  0.2767 -1.6845
 5686SOL     OW28516   4.385   2.608  16.660 -0.0837 -0.1032  0.0578
 5686SOL    HW128517   4.358   2.589  16.570 -1.0925 -1.0333  0.5563
 5686SOL    HW228518   4.308   2.647  16.702 -0.8664 -0.8046 -0.7176
 5687SOL     OW28519   4.392   0.105   3.058  0.1237 -0.4856 -0.0384
 5687SOL    HW128520   4.456   0.119   3.127 -0.8258  0.9175  0.5786
 5687SOL    HW228521   4.399   0.010   3.058  1.9204 -0.3466  1.0695
 5688SOL     OW28522   4.260   2.473   4.558  0.6331 -0.2316  0.0832
 5688SOL    HW128523   4.165   2.467   4.571  0.6800 -0.5386  0.2720
 5688SOL    HW228524   4.272   2.485   4.463 -0.5747 -2.1729 -0.3122
 5689SOL     OW28525   4.309   0.572   1.522 -0.1596  0.1265  0.4492
 5689SOL    HW128526   4.351   0.488   1.542 -0.0839  0.3775  1.3635
 5689SOL    HW228527   4.215   0.556   1.538 -0.0350  0.6478  1.7613
 5690SOL     OW28528   1.562   3.752   2.961  0.3528 -0.3865  0.1290
 5690SOL    HW128529   1.613   3.746   2.880  1.9716 -0.2183  1.1433
 5690SOL    HW228530   1.585   3.665   2.992  0.2046  0.2939  2.1808
 5691SOL     OW28531   3.167   4.224   0.793 -0.1609 -0.6605 -0.3240
 5691SOL    HW128532   3.165   4.255   0.884 -1.4486  0.5390 -0.7679
 5691SOL    HW228533   3.178   4.129   0.803 -0.5255 -0.7773 -1.1039
 5692SOL     OW28534   3.505   3.526   6.968  0.0039 -0.2033  0.2042
 5692SOL    HW128535   3.481   3.607   7.012 -1.7585 -0.2448 -0.6562
 5692SOL    HW228536   3.506   3.566   6.881  0.6980 -2.1195 -0.6784
 5693SOL     OW28537   1.682   0.032   6.670  0.4876  0.2155  0.3246
 5693SOL    HW128538   1.698   4.689   6.738  2.0499  2.0572  1.7412
 5693SOL    HW228539   1.673   4.694   6.596 -3.8235 -0.1254  1.1291
 5694SOL     OW28540   1.620   0.482   2.263 -0.1099 -0.1691 -0.0091
 5694SOL    HW128541   1.585   0.534   2.191  1.2770 -2.2887 -2.1911
 5694SOL    HW228542   1.704   0.454   2.226  0.6201 -0.1661  1.6483
 5695SOL     OW28543   2.466   4.654  14.767 -0.3303  0.3376 -0.2484
 5695SOL    HW128544   2.392   4.669  14.708 -0.8639 -0.5003  0.2032
 5695SOL    HW228545   2.437   4.693  14.849  1.1373 -0.1070  0.4755
 5696SOL     OW28546   2.618   2.589   8.558  0.1904 -0.2761 -0.0257
 5696SOL    HW128547   2.703   2.544   8.553  1.8508  2.7910  1.0873
 5696SOL    HW228548   2.606   2.599   8.652  0.7681  0.4480 -0.0323
 5697SOL     OW28549   3.643   4.215   2.031 -0.2561  0.0046 -0.0502
 5697SOL    HW128550   3.713   4.172   1.981 -3.6120 -1.1494 -3.6855
 5697SOL    HW228551   3.617   4.147   2.093 -0.8273 -1.4114 -1.8358
 5698SOL     OW28552   1.288   4.098   1.736 -0.0577  0.0024  0.0667
 5698SOL    HW128553   1.251   4.185   1.721  0.0118  0.0846  0.3724
 5698SOL    HW228554   1.263   4.071   1.824  0.8646 -0.0701  0.3032
 5699SOL     OW28555   1.189   4.573   8.943  0.7638 -0.1149  0.2241
 5699SOL    HW128556   1.112   4.622   8.915  1.1712  0.2539 -0.2693
 5699SOL    HW228557   1.154   4.494   8.984  0.6730  0.5743  1.4849
 5700SOL     OW28558   1.941   3.542   5.929  0.2910 -0.2364  0.2186
 5700SOL    HW128559   1.931   3.585   6.014 -0.7322 -0.0837  0.0180
 5700SOL    HW228560   1.909   3.605   5.865  1.4240 -0.2631 -0.3684
 5701SOL     OW28561   0.814   0.030   4.966 -0.3047  0.0361  0.0869
 5701SOL    HW128562   0.865   0.092   4.914  1.0162  0.4363  1.8526
 5701SOL    HW228563   0.724   0.061   4.971  0.0169  0.6934  1.6195
 5702SOL     OW28564   3.066   4.644  10.799  0.7369 -0.5101  0.2590
 5702SOL    HW128565   3.054   0.007  10.838 -0.7865  0.9694 -3.3919
 5702SOL    HW228566   3.073   4.650  10.703 -0.2791 -2.9266  0.0156
 5703SOL     OW28567   0.535   2.878   9.010  0.0550 -0.2580  0.3195
 5703SOL    HW128568   0.551   2.806   8.948 -0.6285  1.4748 -1.8624
 5703SOL    HW228569   0.463   2.918   8.962  0.3230  0.2899  0.3806
 5704SOL     OW28570   3.655   1.769   2.390 -0.0191  0.1369 -0.3706
 5704SOL    HW128571   3.686   1.743   2.477  1.0064  1.6504 -0.2905
 5704SOL    HW228572   3.581   1.828   2.402 -1.0551 -1.0303 -1.0001
 5705SOL     OW28573   1.803   4.104   5.960  0.2692  0.2088  0.3669
 5705SOL    HW128574   1.859   4.113   6.037 -0.1913  0.9623  0.6200
 5705SOL    HW228575   1.869   4.071   5.900  0.5958 -0.8588  1.3164
 5706SOL     OW28576   4.686   4.256   7.176  0.5225  0.7893 -0.0164
 5706SOL    HW128577   0.038   4.225   7.228  1.8032 -2.3990 -3.7825
 5706SOL    HW228578   0.012   4.267   7.094  0.5909  0.5550 -0.0064
 5707SOL     OW28579   2.827   0.701   2.411 -0.3449 -0.0673  0.9140
 5707SOL    HW128580   2.860   0.757   2.341 -1.9001  1.9396  1.8094
 5707SOL    HW228581   2.894   0.632   2.416  0.0808  0.3953  1.7461
 5708SOL     OW28582   3.713   0.092   5.761 -0.2974 -0.7194  0.4672
 5708SOL    HW128583   3.704   0.170   5.707  0.2668 -0.7903  0.2682
 5708SOL    HW228584   3.660   0.114   5.838 -1.0600  2.3715 -0.9752
 5709SOL     OW28585   1.718   3.302  10.134 -0.3796  0.1417  0.0482
 5709SOL    HW128586   1.738   3.370  10.071 -0.9806 -0.6656 -1.0047
 5709SOL    HW228587   1.671   3.240  10.080 -0.8666  0.2668  0.3271
 5710SOL     OW28588   0.040   3.430   7.214  0.4878 -0.2229  0.1570
 5710SOL    HW128589   0.038   3.498   7.147 -2.6328 -0.3216  0.1407
 5710SOL    HW228590   0.087   3.473   7.286  3.1066 -3.1110  0.1607
 5711SOL     OW28591   4.717   1.518  15.703 -0.1426  0.5246 -0.6421
 5711SOL    HW128592   4.636   1.467  15.706 -0.1131  0.5515  0.6617
 5711SOL    HW228593   4.705   1.568  15.622  1.6053  2.7870  0.5120
 5712SOL     OW28594   0.186   3.782   9.990  0.1531 -0.0110  0.1079
 5712SOL    HW128595   0.153   3.811   9.905  1.3711  2.7775  0.5542
 5712SOL    HW228596   0.155   3.858  10.040 -3.0254 -1.0037 -0.3701
 5713SOL     OW28597   2.353   1.005   7.522 -0.5895  0.3650  0.2149
 5713SOL    HW128598   2.257   1.006   7.523 -0.5957 -1.4008  0.0749
 5713SOL    HW228599   2.367   0.911   7.524  0.1263  0.5109  1.8014
 5714SOL     OW28600   2.590   2.876   4.186  0.9581 -0.2071  0.0560
 5714SOL    HW128601   2.514   2.824   4.161  0.1750  1.3406 -0.7631
 5714SOL    HW228602   2.649   2.813   4.228 -0.6574 -2.2651 -0.7256
 5715SOL     OW28603   1.456   3.695  14.399  0.2330 -0.2242 -0.0552
 5715SOL    HW128604   1.457   3.600  14.387  1.6081  0.1225 -2.8091
 5715SOL    HW228605   1.490   3.728  14.315  2.1685 -3.0679 -0.3964
 5716SOL     OW28606   2.871   2.835   7.184  0.0993 -0.1691  0.6635
 5716SOL    HW128607   2.905   2.781   7.255  0.2630  2.3059  2.4870
 5716SOL    HW228608   2.872   2.918   7.232 -1.0091  0.0661  0.2828
 5717SOL     OW28609   2.405   0.148   4.751  0.2739  0.0680 -0.0190
 5717SOL    HW128610   2.311   0.164   4.755  0.0866 -0.9220 -0.4560
 5717SOL    HW228611   2.413   0.105   4.836  3.2012  0.6260  0.0147
 5718SOL     OW28612   3.789   0.576   1.440  0.6490 -0.2135  0.3613
 5718SOL    HW128613   3.802   0.573   1.346 -3.3225 -0.8279 -0.1421
 5718SOL    HW228614   3.693   0.574   1.440  0.6569 -0.7549  0.1730
 5719SOL     OW28615   1.670   4.720   2.148 -0.4576  0.0118 -0.1394
 5719SOL    HW128616   1.723   0.054   2.092 -0.0737  0.3470  0.5658
 5719SOL    HW228617   1.737   4.653   2.161  1.2860  1.3498 -2.1309
 5720SOL     OW28618   3.288   4.644   7.294  0.4946  0.0349 -0.2132
 5720SOL    HW128619   3.245   4.572   7.248  0.7181 -1.0142  1.2258
 5720SOL    HW228620   3.257   4.722   7.248 -0.8748  0.0791  0.7878
 5721SOL     OW28621   0.859   2.907   8.128 -0.2904  0.2349  0.2503
 5721SOL    HW128622   0.881   2.972   8.194 -0.1808  2.4166 -1.9334
 5721SOL    HW228623   0.923   2.839   8.147 -1.4855 -1.4193 -1.6893
 5722SOL     OW28624   2.901   2.093  15.145  0.3179  0.2578 -0.3610
 5722SOL    HW128625   2.858   2.135  15.219 -1.4449 -0.5817 -0.9228
 5722SOL    HW228626   2.972   2.155  15.130  0.4780  0.5347  1.6020
 5723SOL     OW28627   2.836   0.504   1.398 -0.4537  0.1893 -0.3560
 5723SOL    HW128628   2.844   0.409   1.410  1.1184  0.3594 -0.0303
 5723SOL    HW228629   2.779   0.508   1.321 -1.6795 -2.0704  0.4502
 5724SOL     OW28630   2.552   4.458  13.874 -0.5627 -0.4590  0.3697
 5724SOL    HW128631   2.554   4.553  13.867  0.1993 -0.3923  1.5369
 5724SOL    HW228632   2.594   4.430  13.793  0.5319 -1.1649  1.1946
 5725SOL     OW28633   2.540   3.288  15.090 -0.1785 -0.2269  0.1428
 5725SOL    HW128634   2.631   3.300  15.115  0.4373 -2.2440 -1.0946
 5725SOL    HW228635   2.494   3.356  15.139  1.0676 -0.8490  2.1502
 5726SOL     OW28636   1.081   3.048   3.981  0.1828 -0.6793 -0.2223
 5726SOL    HW128637   1.106   2.996   4.058  1.0985 -0.4106 -0.3331
 5726SOL    HW228638   1.016   3.107   4.020  0.1144  0.1478 -1.5879
 5727SOL     OW28639   1.451   4.547  11.805 -0.0637 -0.4743  0.4122
 5727SOL    HW128640   1.527   4.494  11.829  0.2178  0.0919  0.7717
 5727SOL    HW228641   1.453   4.603  11.882 -1.8219  0.0592  0.0567
 5728SOL     OW28642   2.592   1.514   4.914 -0.5214  0.2484  0.2703
 5728SOL    HW128643   2.544   1.471   4.985 -0.3563  1.1284  0.9169
 5728SOL    HW228644   2.612   1.438   4.860 -2.5341  0.8881 -1.4220
 5729SOL     OW28645   1.079   1.200   3.749 -0.7232 -0.1398 -0.7312
 5729SOL    HW128646   1.034   1.117   3.765  1.3462 -1.6530 -2.8233
 5729SOL    HW228647   1.012   1.268   3.755  0.4147  0.8917  0.1977
 5730SOL     OW28648   0.635   0.658   4.528 -0.3704 -0.6119  0.1407
 5730SOL    HW128649   0.566   0.681   4.467  0.5561  1.3645 -0.1653
 5730SOL    HW228650   0.581   0.621   4.598 -0.9948  3.8009  1.9939
 5731SOL     OW28651   1.855   1.963   7.017  0.5095 -0.1946 -0.3486
 5731SOL    HW128652   1.926   1.923   7.066 -1.6591 -0.4766  2.5543
 5731SOL    HW228653   1.791   1.968   7.088  2.5904 -0.9555  1.5753
 5732SOL     OW28654   0.036   4.282   5.912  0.0998 -0.1556 -0.7194
 5732SOL    HW128655   4.694   4.229   5.865 -0.5947 -0.7160  0.8568
 5732SOL    HW228656   4.696   4.353   5.927  1.1504  0.3805  1.1133
 5733SOL     OW28657   1.278   0.839   6.885 -0.0277 -0.4288  0.8179
 5733SOL    HW128658   1.185   0.852   6.904  0.5133 -0.5680  3.6129
 5733SOL    HW228659   1.303   0.927   6.858  0.6892 -0.9402 -0.2042
 5734SOL     OW28660   4.522   1.584  17.121  0.2832  0.1464  0.3311
 5734SOL    HW128661   4.537   1.670  17.081  0.7019  0.6941  1.6570
 5734SOL    HW228662   4.573   1.531  17.060  0.8717  0.6783  0.3681
 5735SOL     OW28663   0.816   1.726   1.545 -0.0694 -0.0230  0.0544
 5735SOL    HW128664   0.778   1.724   1.633  3.8279 -1.1840  1.7052
 5735SOL    HW228665   0.898   1.771   1.561 -0.6136  0.8161  0.4986
 5736SOL     OW28666   3.895   3.451  15.598 -0.2078 -0.5767  0.2412
 5736SOL    HW128667   3.960   3.396  15.641  1.1581  1.0921  0.3221
 5736SOL    HW228668   3.822   3.392  15.581 -0.0644 -1.1058  1.4715
 5737SOL     OW28669   1.713   2.109   8.792  0.3141 -0.2258  0.1994
 5737SOL    HW128670   1.749   2.020   8.793 -1.9299 -1.1775 -4.9065
 5737SOL    HW228671   1.656   2.111   8.868  3.0379 -1.4070  2.2757
 5738SOL     OW28672   0.288   1.787  15.306  0.0335 -0.0081  0.4678
 5738SOL    HW128673   0.279   1.845  15.382 -2.7042  0.3944 -0.1857
 5738SOL    HW228674   0.297   1.706  15.358 -3.2358 -0.3659  0.4300
 5739SOL     OW28675   3.145   3.469   5.432  0.6498  0.2545 -0.0574
 5739SOL    HW128676   3.159   3.561   5.454 -1.7201  0.9585 -1.4662
 5739SOL    HW228677   3.101   3.467   5.347  2.1648  1.5384 -0.8495
 5740SOL     OW28678   3.523   1.384   5.922 -0.7020 -0.3916 -0.9964
 5740SOL    HW128679   3.475   1.314   5.877 -0.0836 -1.9958  0.8089
 5740SOL    HW228680   3.557   1.429   5.845  1.3347 -1.8616 -0.9692
 5741SOL     OW28681   3.963   2.725   7.401  0.5441 -0.0009  0.1786
 5741SOL    HW128682   3.932   2.810   7.432 -1.3195 -0.7215  0.3303
 5741SOL    HW228683   3.904   2.726   7.325  1.2506  0.0826 -0.3686
 5742SOL     OW28684   4.484   0.479   4.756  0.0285  0.0509 -0.8520
 5742SOL    HW128685   4.568   0.442   4.730 -0.6095 -0.3127 -2.4184
 5742SOL    HW228686   4.466   0.422   4.830 -1.2294  0.5101 -0.7960
 5743SOL     OW28687   3.893   3.689   7.598 -0.2931  0.3386  0.0922
 5743SOL    HW128688   3.898   3.732   7.684 -3.3242 -2.0138  1.4318
 5743SOL    HW228689   3.983   3.669   7.574 -0.9147 -0.8417 -1.2089
 5744SOL     OW28690   2.584   4.556   7.692  0.3087  0.3390  0.4086
 5744SOL    HW128691   2.676   4.541   7.673  0.5014 -0.1276  1.6848
 5744SOL    HW228692   2.592   4.605   7.775 -0.4761 -0.3548  0.8921
 5745SOL     OW28693   1.516   0.911  12.599  0.2533  0.4129 -0.2774
 5745SOL    HW128694   1.556   0.997  12.598  1.6965 -0.2918 -1.5134
 5745SOL    HW228695   1.479   0.897  12.512  0.6416 -0.1987 -0.3415
 5746SOL     OW28696   3.352   0.739   3.567 -0.5376  0.1996 -0.5400
 5746SOL    HW128697   3.274   0.794   3.573 -0.0503  0.8727 -0.3569
 5746SOL    HW228698   3.408   0.771   3.637 -0.6876  0.5797 -0.5952
 5747SOL     OW28699   1.442   3.987   3.839  0.7591  0.7491 -0.2937
 5747SOL    HW128700   1.439   3.954   3.929  1.0476  2.3910  0.3206
 5747SOL    HW228701   1.523   4.038   3.836  1.6582 -0.7345 -1.2244
 5748SOL     OW28702   3.922   0.845   5.393  0.3824  0.3220 -1.0431
 5748SOL    HW128703   3.968   0.863   5.476  0.8764  2.5715 -1.7988
 5748SOL    HW228704   3.833   0.825   5.421  0.7114  0.7347  0.3057
 5749SOL     OW28705   4.350   1.337  17.242 -0.3854 -0.6140 -0.1533
 5749SOL    HW128706   4.256   1.320  17.252  0.2803 -4.4666 -0.2783
 5749SOL    HW228707   4.368   1.429  17.258  0.8138 -0.2625 -3.5504
 5750SOL     OW28708   2.758   2.703   3.818 -0.1072 -0.3584  0.1581
 5750SOL    HW128709   2.770   2.723   3.726  0.0951 -0.1464  0.2302
 5750SOL    HW228710   2.836   2.656   3.846 -0.8767 -0.6489  1.8427
 5751SOL     OW28711   3.713   1.875   5.522 -0.4125 -0.3166  0.4606
 5751SOL    HW128712   3.633   1.897   5.568 -0.6576 -0.3150  0.0307
 5751SOL    HW228713   3.719   1.953   5.467  2.4660 -0.0722  1.1068
 5752SOL     OW28714   0.621   1.201   5.801  0.7280  0.2398 -0.1433
 5752SOL    HW128715   0.543   1.167   5.845  1.9706 -2.1975  0.2005
 5752SOL    HW228716   0.596   1.197   5.709  1.5618  1.3840 -0.4132
 5753SOL     OW28717   4.281   1.270   1.880  0.1408 -0.9833 -0.3801
 5753SOL    HW128718   4.344   1.199   1.887  0.1899 -0.8127  0.9250
 5753SOL    HW228719   4.206   1.248   1.824 -2.8716  0.1277  3.2088
 5754SOL     OW28720   4.540   1.374   7.448  0.6480  0.5934  0.3486
 5754SOL    HW128721   4.624   1.399   7.487  1.5976  0.7393 -1.7925
 5754SOL    HW228722   4.502   1.331   7.525 -0.3409 -2.0146 -1.6025
 5755SOL     OW28723   1.693   1.785   5.845  0.3773  0.0146  0.3900
 5755SOL    HW128724   1.711   1.777   5.939  2.1560 -0.8091 -0.0342
 5755SOL    HW228725   1.750   1.716   5.813 -1.4599 -1.7898  0.9911
 5756SOL     OW28726   2.756   0.986   3.188 -0.2258 -0.4271  0.0777
 5756SOL    HW128727   2.795   0.963   3.272 -1.8818  0.4922  1.0946
 5756SOL    HW228728   2.723   1.076   3.199  3.2325  1.0461 -1.6716
 5757SOL     OW28729   1.088   2.824   7.452  0.0130  0.0075 -0.2593
 5757SOL    HW128730   1.035   2.902   7.436 -0.5122  0.1208  2.1020
 5757SOL    HW228731   1.125   2.844   7.537  0.6583 -0.9729 -0.3131
 5758SOL     OW28732   4.507   3.574   2.391  1.2145  0.0580  0.3901
 5758SOL    HW128733   4.548   3.535   2.314  2.6481 -0.3062  1.3376
 5758SOL    HW228734   4.475   3.653   2.347 -1.6697  0.3969  3.0561
 5759SOL     OW28735   0.554   1.215  14.884  0.8193  0.0038  0.2632
 5759SOL    HW128736   0.515   1.206  14.797  0.5773  1.1189  0.2578
 5759SOL    HW228737   0.486   1.190  14.947  1.4210  1.5607  1.5191
 5760SOL     OW28738   1.158   2.838   5.018 -0.0328  0.2182 -0.0998
 5760SOL    HW128739   1.221   2.836   4.946  0.2439 -0.0136  0.1481
 5760SOL    HW228740   1.109   2.910   4.979 -1.9077 -0.6580  0.6477
 5761SOL     OW28741   1.506   0.229   4.430  0.1074  0.2665 -0.1433
 5761SOL    HW128742   1.477   0.249   4.341  1.9925 -2.3196 -1.3262
 5761SOL    HW228743   1.436   0.279   4.472 -1.5433 -2.5141  0.3616
 5762SOL     OW28744   4.077   3.489   9.942  0.1734  0.0415  0.2515
 5762SOL    HW128745   3.998   3.541   9.958  1.0006  1.0159  1.1145
 5762SOL    HW228746   4.074   3.418  10.006 -1.9060  0.7385  0.9342
 5763SOL     OW28747   2.056   1.732   3.326  0.3628  0.5640 -0.1256
 5763SOL    HW128748   1.970   1.693   3.343  1.2770 -2.0114 -1.3949
 5763SOL    HW228749   2.044   1.789   3.251  1.4526  0.8844 -0.0554
 5764SOL     OW28750   1.867   0.750   4.251  0.0984 -0.3531 -0.0969
 5764SOL    HW128751   1.930   0.765   4.321  0.2541  0.8280 -0.4963
 5764SOL    HW228752   1.790   0.795   4.286 -0.0967 -1.4765  0.9180
 5765SOL     OW28753   2.944   3.672   9.345  0.1475 -0.6328 -0.0457
 5765SOL    HW128754   2.919   3.698   9.434  1.1868 -0.1864  0.1229
 5765SOL    HW228755   2.956   3.578   9.363  2.0066  0.2122  3.1193
 5766SOL     OW28756   1.751   1.467  14.704  0.4588 -0.1979  0.4539
 5766SOL    HW128757   1.733   1.553  14.742  0.9118 -0.0054  0.2401
 5766SOL    HW228758   1.804   1.498  14.630 -0.0821  0.4266  0.3268
 5767SOL     OW28759   4.211   1.890   3.101 -0.0403  0.0604  0.9328
 5767SOL    HW128760   4.131   1.928   3.065  1.9519  2.7275 -0.7154
 5767SOL    HW228761   4.283   1.944   3.067 -2.7572  2.0262 -1.6387
 5768SOL     OW28762   0.764   0.104  14.983 -0.2677 -0.2352  0.0140
 5768SOL    HW128763   0.782   0.082  14.892 -1.0400 -0.5048 -0.0726
 5768SOL    HW228764   0.771   0.200  14.983  1.2944 -0.3441 -1.8215
 5769SOL     OW28765   4.177   2.750   2.269  0.5101 -0.5537  0.1127
 5769SOL    HW128766   4.121   2.798   2.329  0.8711 -0.9579  0.7681
 5769SOL    HW228767   4.250   2.723   2.324 -1.0331 -1.6314  1.6348
 5770SOL     OW28768   2.836   2.713   1.458  0.0715 -0.1854 -0.3038
 5770SOL    HW128769   2.757   2.722   1.405 -0.7235  1.0414  1.0763
 5770SOL    HW228770   2.875   2.797   1.435  1.3574 -0.5800  0.4606
 5771SOL     OW28771   0.210   0.348  15.689  0.2526  0.1278  0.0317
 5771SOL    HW128772   0.167   0.283  15.743  1.2592 -0.0100  0.6742
 5771SOL    HW228773   0.258   0.408  15.746  0.4254 -2.0754  2.1692
 5772SOL     OW28774   3.532   1.224   3.199 -0.4702 -0.3288 -0.3952
 5772SOL    HW128775   3.459   1.201   3.142  0.0522 -0.7990 -0.8699
 5772SOL    HW228776   3.550   1.312   3.167  0.1368 -0.1822  0.3641
 5773SOL     OW28777   4.115   0.683   7.055 -0.7829 -0.8768 -0.5861
 5773SOL    HW128778   4.114   0.591   7.081 -2.8486 -0.8688 -0.6475
 5773SOL    HW228779   4.166   0.732   7.119  0.3822 -0.6000 -1.7290
 5774SOL     OW28780   0.243   1.565  16.066 -0.7196  0.0010 -0.5746
 5774SOL    HW128781   0.255   1.496  16.000 -1.0939 -0.1335 -0.5050
 5774SOL    HW228782   0.309   1.630  16.042  0.3357 -1.3327 -1.3168
 5775SOL     OW28783   3.448   0.140  13.309  0.1573 -0.1395  0.4218
 5775SOL    HW128784   3.461   0.135  13.403 -1.1219 -2.1126  0.5013
 5775SOL    HW228785   3.356   0.113  13.305 -0.1591  1.0760 -0.7290
 5776SOL     OW28786   4.165   0.028   2.931  0.3428 -0.3649 -0.1305
 5776SOL    HW128787   4.114   0.106   2.910 -1.1019 -1.4206 -0.5266
 5776SOL    HW228788   4.248   0.066   2.961  0.5209 -1.2157  0.4728
 5777SOL     OW28789   0.360   3.032   7.110 -0.5783 -0.6771  0.4698
 5777SOL    HW128790   0.371   2.946   7.071 -0.7466 -1.1322  1.4457
 5777SOL    HW228791   0.428   3.075   7.059 -1.9878  0.5577 -0.3879
 5778SOL     OW28792   0.642   2.529   3.097  0.6391 -0.4176  0.0896
 5778SOL    HW128793   0.600   2.454   3.139 -1.5766  0.1932 -0.9990
 5778SOL    HW228794   0.699   2.557   3.169  0.8784 -0.6617 -0.0067
 5779SOL     OW28795   1.554   2.510   7.285  0.1588  0.3926  0.0454
 5779SOL    HW128796   1.481   2.556   7.327  2.0142  3.1123  0.2882
 5779SOL    HW228797   1.629   2.506   7.344  1.3518  0.8776 -1.4642
 5780SOL     OW28798   3.124   1.085  16.589 -0.0101 -0.1083  0.3145
 5780SOL    HW128799   3.165   1.010  16.633 -0.9167 -1.4903 -1.1828
 5780SOL    HW228800   3.029   1.073  16.591 -0.1960  1.1183 -2.4262
 5781SOL     OW28801   2.323   1.119  11.181  0.8133  0.6132 -0.1878
 5781SOL    HW128802   2.405   1.097  11.226 -1.0891 -1.3090  2.3479
 5781SOL    HW228803   2.270   1.156  11.251  0.5680  0.4590 -0.2938
 5782SOL     OW28804   4.082   2.243   3.124 -0.1679 -0.0076 -0.3497
 5782SOL    HW128805   4.174   2.254   3.097  0.3658  0.1226  1.5199
 5782SOL    HW228806   4.052   2.334   3.122  1.5539  0.5963  1.0582
 5783SOL     OW28807   1.877   1.087   6.707  0.1145  0.2162 -0.0620
 5783SOL    HW128808   1.814   1.156   6.687  1.5360  1.6548  0.4057
 5783SOL    HW228809   1.863   1.033   6.630 -1.1716  1.1925 -0.5038
 5784SOL     OW28810   0.715   2.968  10.761 -0.2768  0.0231 -0.2532
 5784SOL    HW128811   0.716   3.063  10.757 -0.7025  0.0683  0.7116
 5784SOL    HW228812   0.801   2.937  10.732  0.2436  1.2576  0.0131
 5785SOL     OW28813   3.746   2.910   9.002  0.0086 -0.1569  0.4044
 5785SOL    HW128814   3.755   2.848   8.930 -0.4918  1.2464 -0.8683
 5785SOL    HW228815   3.651   2.923   8.999 -0.1564 -1.5538 -0.5784
 5786SOL     OW28816   4.685   3.037   2.248  0.4643 -0.2364  0.5014
 5786SOL    HW128817   0.056   3.016   2.252  0.6979  0.3451 -2.3313
 5786SOL    HW228818   4.663   2.981   2.175 -0.2705  0.3127  0.3053
 5787SOL     OW28819   2.642   1.679   5.740  0.3241  0.7665 -0.0936
 5787SOL    HW128820   2.587   1.705   5.666  1.1543 -0.7988 -1.2494
 5787SOL    HW228821   2.587   1.623   5.795  0.1030  2.0251  0.9732
 5788SOL     OW28822   0.725   0.356   1.948  0.3208 -0.3043  0.0765
 5788SOL    HW128823   0.685   0.390   1.868 -0.2467 -1.7608 -0.2594
 5788SOL    HW228824   0.810   0.399   1.944  0.8702 -1.4019  0.1564
 5789SOL     OW28825   2.689   0.229   8.884 -0.7264  0.1163  0.3469
 5789SOL    HW128826   2.622   0.294   8.904 -0.2706  1.7803 -3.5291
 5789SOL    HW228827   2.771   0.278   8.881  0.5590 -2.0845 -0.8303
 5790SOL     OW28828   0.567   4.673  10.548  0.0535  0.4902 -0.1564
 5790SOL    HW128829   0.604   4.684  10.636 -2.7596 -0.3099  1.1624
 5790SOL    HW228830   0.621   4.605  10.507  0.9442  1.0689  0.0793
 5791SOL     OW28831   4.390   3.270   5.003  0.2891 -0.1932 -0.0858
 5791SOL    HW128832   4.355   3.292   5.090 -1.4070 -0.6527 -0.6590
 5791SOL    HW228833   4.308   3.276   4.954 -1.4482  1.3173  2.9794
 5792SOL     OW28834   1.624   0.747   9.209  0.3284 -0.5189 -0.9032
 5792SOL    HW128835   1.710   0.706   9.202 -0.0734 -1.5886  0.3520
 5792SOL    HW228836   1.573   0.666   9.221  0.8355 -0.1496  3.5241
 5793SOL     OW28837   0.423   4.391   4.795  0.0688 -0.3197 -0.2163
 5793SOL    HW128838   0.414   4.387   4.890 -0.1066  1.1597 -0.1839
 5793SOL    HW228839   0.516   4.367   4.795  0.5323  1.4828  1.1699
 5794SOL     OW28840   0.024   3.220  17.550  0.1290 -0.3107 -0.1450
 5794SOL    HW128841   0.114   3.188  17.551  0.5460  0.8209 -2.2876
 5794SOL    HW228842   0.026   3.290  17.615  1.0042  1.2535 -1.8914
 5795SOL     OW28843   3.548   3.186  14.687 -0.4957 -0.4046  0.1007
 5795SOL    HW128844   3.570   3.247  14.616  0.1042  1.8291  2.1823
 5795SOL    HW228845   3.626   3.130  14.691 -0.2716 -0.2726 -2.9216
 5796SOL     OW28846   4.031   3.077  14.277 -0.5983  0.0218  0.4042
 5796SOL    HW128847   3.993   3.150  14.325  0.7568  1.3584 -0.5579
 5796SOL    HW228848   4.019   3.009  14.344 -3.0315 -0.0237 -0.0871
 5797SOL     OW28849   2.435   1.039   3.535 -0.5256 -0.9960 -0.1037
 5797SOL    HW128850   2.457   0.966   3.594 -0.2158 -0.3449  0.5976
 5797SOL    HW228851   2.373   1.005   3.471 -0.1398 -0.5245 -0.7216
 5798SOL     OW28852   3.408   1.640   6.023  0.4127  0.0877  0.2119
 5798SOL    HW128853   3.453   1.703   6.079  0.2786  1.1102 -0.8114
 5798SOL    HW228854   3.459   1.559   6.028  1.0111  0.4971  0.8203
 5799SOL     OW28855   1.625   2.637   2.027  0.6858 -0.1664 -0.4542
 5799SOL    HW128856   1.617   2.597   2.113  0.1804  0.8375 -0.0343
 5799SOL    HW228857   1.625   2.730   2.053 -0.1090  0.5469 -2.9690
 5800SOL     OW28858   0.657   1.129  17.150 -0.1086 -0.8984  0.3363
 5800SOL    HW128859   0.691   1.113  17.238  1.3278  0.7501  0.0712
 5800SOL    HW228860   0.583   1.068  17.155  0.7037 -2.0691 -1.8651
 5801SOL     OW28861   1.630   1.517   1.303 -0.4664 -0.1755  0.1532
 5801SOL    HW128862   1.611   1.427   1.329  1.1890 -1.0477 -1.6942
 5801SOL    HW228863   1.641   1.515   1.208 -0.5731  0.2469  0.1333
 5802SOL     OW28864   1.626   4.252  10.686 -0.2349 -0.9706  0.1147
 5802SOL    HW128865   1.534   4.232  10.700 -0.3692  0.9386  2.0621
 5802SOL    HW228866   1.632   4.226  10.595 -2.8708 -0.9687 -0.0508
 5803SOL     OW28867   0.087   4.418   0.782 -0.0194  0.2295  0.2237
 5803SOL    HW128868   0.131   4.399   0.865 -1.0425  1.2441  0.9799
 5803SOL    HW228869   0.066   4.327   0.759 -0.9928  0.6034 -0.3326
 5804SOL     OW28870   1.805   0.186   7.455 -0.3847  0.2801  0.5672
 5804SOL    HW128871   1.724   0.174   7.505 -1.5004  0.4387 -1.1864
 5804SOL    HW228872   1.865   0.227   7.517 -0.5848 -0.2773  1.1305
 5805SOL     OW28873   0.267   1.300   4.244  0.7610  0.2202 -0.3060
 5805SOL    HW128874   0.233   1.315   4.156  1.6143 -1.4596 -0.9167
 5805SOL    HW228875   0.191   1.283   4.300  0.7998 -2.8255 -1.2218
 5806SOL     OW28876   0.623   2.131   8.264  0.0194  0.1751 -0.4670
 5806SOL    HW128877   0.672   2.066   8.214  1.1485 -0.9544  2.1106
 5806SOL    HW228878   0.529   2.114   8.264  0.0662 -0.1028  0.7563
 5807SOL     OW28879   2.724   0.184  15.098  0.5222  0.4574 -0.4998
 5807SOL    HW128880   2.696   0.193  15.007 -0.5313  1.5211 -0.0801
 5807SOL    HW228881   2.675   0.260  15.130  0.0779 -0.1857  0.3595
 5808SOL     OW28882   1.286   3.422   4.692 -0.5029  0.4361  0.2460
 5808SOL    HW128883   1.239   3.505   4.697  1.2087  1.3717  0.6477
 5808SOL    HW228884   1.372   3.462   4.701 -0.4422  0.3323  0.1215
 5809SOL     OW28885   3.518   2.278   9.978  0.0725  0.3278  0.1985
 5809SOL    HW128886   3.454   2.270  10.049 -2.0526  0.0450 -1.7343
 5809SOL    HW228887   3.457   2.284   9.904  2.0560  1.0306 -1.3714
 5810SOL     OW28888   0.921   0.099   3.601  0.2443  1.1363 -0.2516
 5810SOL    HW128889   0.883   0.145   3.676 -1.5019  0.9917 -1.0529
 5810SOL    HW228890   1.000   0.057   3.636 -1.2306 -0.2558  1.3740
 5811SOL     OW28891   3.179   0.090   9.296  0.2849  0.3639  0.4267
 5811SOL    HW128892   3.202   0.058   9.209  0.8713  2.1334 -0.0538
 5811SOL    HW228893   3.249   0.150   9.322 -0.7859  3.4521 -3.8225
 5812SOL     OW28894   1.142   2.693   6.503 -0.2863 -0.2335 -0.6748
 5812SOL    HW128895   1.046   2.698   6.510 -0.3919 -2.2764 -0.6679
 5812SOL    HW228896   1.143   2.647   6.419 -1.4671 -0.6116 -0.4935
 5813SOL     OW28897   0.626   3.762   5.472  0.3022 -0.2881 -0.2050
 5813SOL    HW128898   0.608   3.721   5.388  1.3660 -2.8147  0.8096
 5813SOL    HW228899   0.582   3.708   5.538 -2.7726  2.9186  0.3744
 5814SOL     OW28900   2.522   1.501   0.378 -0.7342 -0.1433  0.5762
 5814SOL    HW128901   2.594   1.539   0.326 -2.1993  2.4214  0.3955
 5814SOL    HW228902   2.456   1.568   0.362 -0.5277 -0.1615 -0.3752
 5815SOL     OW28903   0.571   1.825  16.699  0.1662 -0.3355  0.1359
 5815SOL    HW128904   0.567   1.855  16.608 -2.2337 -0.7321  0.1132
 5815SOL    HW228905   0.598   1.733  16.689 -0.6023 -0.5040 -0.4561
 5816SOL     OW28906   1.489   1.347   4.430  0.4987 -0.2434 -0.0470
 5816SOL    HW128907   1.569   1.308   4.396  0.2451 -0.8572  0.0507
 5816SOL    HW228908   1.472   1.284   4.500 -0.6122  1.1075  0.8809
 5817SOL     OW28909   4.507   3.191   6.761  0.2203  0.1807 -0.3883
 5817SOL    HW128910   4.503   3.286   6.776 -0.0611 -0.0900  1.2781
 5817SOL    HW228911   4.437   3.164   6.820  1.2357 -0.5474  0.4757
 5818SOL     OW28912   2.769   3.898   2.112  0.0965 -0.3052  0.0703
 5818SOL    HW128913   2.738   3.983   2.080  2.2386  0.4806  0.0583
 5818SOL    HW228914   2.861   3.917   2.128 -0.1901  2.0860 -1.0899
 5819SOL     OW28915   4.357   2.882  17.570 -0.3030  0.4966  0.1472
 5819SOL    HW128916   4.358   2.978  17.570 -0.7211  0.5011 -0.7829
 5819SOL    HW228917   4.432   2.858  17.514 -0.5394 -1.5818  0.7257
 5820SOL     OW28918   2.386   2.966   2.718 -0.5344 -0.0634 -0.1938
 5820SOL    HW128919   2.356   2.997   2.633  1.0637  0.4307 -0.5809
 5820SOL    HW228920   2.374   3.045   2.770  0.7204 -0.1234  0.1842
 5821SOL     OW28921   0.681   2.667  11.100  0.8035  0.0198  0.7902
 5821SOL    HW128922   0.768   2.631  11.084  1.0252  1.4877 -1.2315
 5821SOL    HW228923   0.670   2.683  11.194 -0.6059  0.7069  0.5075
 5822SOL     OW28924   1.338   4.131   2.883  0.6792  0.0080 -0.0678
 5822SOL    HW128925   1.376   4.204   2.931 -0.2032  0.7391 -0.4818
 5822SOL    HW228926   1.407   4.112   2.818  1.3159 -1.6190  1.0869
 5823SOL     OW28927   4.661   4.440  17.248 -0.1677 -0.5353  0.2601
 5823SOL    HW128928   4.652   4.357  17.296 -2.8536 -0.4452 -0.0795
 5823SOL    HW228929   4.672   4.493  17.327  2.2805 -1.4317  0.5300
 5824SOL     OW28930   1.585   2.995   5.806  0.0889 -0.1745 -0.4920
 5824SOL    HW128931   1.555   3.081   5.838 -1.1519 -0.6946 -0.2667
 5824SOL    HW228932   1.588   2.956   5.893  0.0219  0.0780 -0.3749
 5825SOL     OW28933   0.735   2.369   6.478  0.0188 -0.3132 -0.3430
 5825SOL    HW128934   0.656   2.341   6.432  0.4110 -2.2711  0.1801
 5825SOL    HW228935   0.694   2.422   6.547 -0.7557 -1.1954 -0.1364
 5826SOL     OW28936   0.560   0.461   3.937  0.2877  0.1933  0.6334
 5826SOL    HW128937   0.638   0.513   3.914  0.2877 -0.4029 -0.7144
 5826SOL    HW228938   0.575   0.377   3.894 -2.6547  0.0714 -0.1566
 5827SOL     OW28939   2.010   1.741   4.486  0.0537  0.5104  0.1842
 5827SOL    HW128940   2.093   1.758   4.531  0.6605 -0.8047 -0.4568
 5827SOL    HW228941   2.028   1.748   4.393  0.1841 -1.4859  0.0566
 5828SOL     OW28942   1.009   0.634  12.421  0.2113 -0.2909  0.1640
 5828SOL    HW128943   1.022   0.665  12.332 -0.8611  0.5868  0.3094
 5828SOL    HW228944   0.915   0.628  12.439 -0.3283  2.0576 -1.9324
 5829SOL     OW28945   4.071   2.758   0.193 -0.1546  0.4141  0.4997
 5829SOL    HW128946   4.160   2.728   0.175 -1.1026 -1.3731 -1.2595
 5829SOL    HW228947   4.015   2.686   0.162 -2.1542  1.8468  0.8062
 5830SOL     OW28948   2.430   3.706   7.380  0.3241 -0.2840  0.7112
 5830SOL    HW128949   2.447   3.738   7.468 -1.0417  0.7818  0.5794
 5830SOL    HW228950   2.342   3.740   7.363  0.8235  0.8314  0.3628
 5831SOL     OW28951   1.039   2.115   5.876  0.6319 -0.7837 -0.2899
 5831SOL    HW128952   1.009   2.190   5.825  0.5052 -0.1191  0.7527
 5831SOL    HW228953   1.005   2.132   5.964  1.1270 -0.6611 -0.1204
 5832SOL     OW28954   1.328   3.093  11.985  0.0712 -0.0112 -0.1790
 5832SOL    HW128955   1.278   3.150  12.044  1.7644 -0.6109  1.8366
 5832SOL    HW228956   1.301   3.004  12.009 -0.1924  0.3835  0.9747
 5833SOL     OW28957   2.481   0.553   4.950  0.3729  0.5828  0.1823
 5833SOL    HW128958   2.498   0.462   4.975 -0.9215  0.4361  0.5795
 5833SOL    HW228959   2.544   0.602   5.002  1.0771 -0.1979  0.0708
 5834SOL     OW28960   4.642   3.411  13.510  0.2759 -0.3735  0.3374
 5834SOL    HW128961   4.700   3.396  13.585  0.7844  0.6217  0.1488
 5834SOL    HW228962   4.625   3.321  13.480  0.0989 -0.0722 -0.4759
 5835SOL     OW28963   3.906   3.959   4.513  0.0020  0.4486 -0.4460
 5835SOL    HW128964   3.933   4.014   4.439  0.8322  0.6746  0.0341
 5835SOL    HW228965   3.823   3.916   4.492  0.2276 -1.2992  2.3718
 5836SOL     OW28966   4.226   0.598   1.189 -0.4069  0.2619 -0.4092
 5836SOL    HW128967   4.228   0.655   1.266  2.2748  0.1373 -0.4098
 5836SOL    HW228968   4.176   0.523   1.223  2.4615 -0.5584  1.9830
 5837SOL     OW28969   4.379   1.608   9.710 -0.4517  0.3416  0.2272
 5837SOL    HW128970   4.461   1.601   9.759  0.8105 -1.0454 -2.1193
 5837SOL    HW228971   4.333   1.673   9.764  1.1108  2.0854 -0.5336
 5838SOL     OW28972   3.620   2.553   7.325  0.6362  0.6160 -0.4523
 5838SOL    HW128973   3.659   2.548   7.238 -2.0254 -0.7867 -1.5691
 5838SOL    HW228974   3.551   2.486   7.328  0.7123  0.5465 -0.2036
 5839SOL     OW28975   3.863   3.596   3.994 -0.5168 -0.5087 -0.3764
 5839SOL    HW128976   3.856   3.691   3.995  2.7410 -0.2920  0.0880
 5839SOL    HW228977   3.797   3.559   3.935 -1.1530 -1.6596  1.0451
 5840SOL     OW28978   0.249   4.358   6.326 -0.4487  0.0934  0.1529
 5840SOL    HW128979   0.314   4.420   6.360  0.7986 -1.2199  0.2141
 5840SOL    HW228980   0.310   4.301   6.278 -1.3602 -0.2629 -0.5808
 5841SOL     OW28981   4.443   4.028   0.734 -0.2192  0.0995  0.6720
 5841SOL    HW128982   4.398   4.099   0.687  0.2268 -0.9040 -1.2329
 5841SOL    HW228983   4.429   3.962   0.666 -1.3330  1.2407 -0.2201
 5842SOL     OW28984   2.950   1.028   7.915 -0.2723 -0.4361 -0.0818
 5842SOL    HW128985   3.043   1.042   7.900 -1.0547  4.0263 -0.8531
 5842SOL    HW228986   2.939   1.087   7.989  1.2310 -1.0694  0.6459
 5843SOL     OW28987   1.249   2.496   6.316  0.1060 -0.0437  0.0471
 5843SOL    HW128988   1.290   2.474   6.400  1.3804 -2.0003 -1.0873
 5843SOL    HW228989   1.307   2.564   6.281 -1.0440  1.1745  0.4807
 5844SOL     OW28990   2.502   3.224  11.497 -0.4592  0.3247 -0.2119
 5844SOL    HW128991   2.491   3.129  11.497 -0.5261  0.3333 -0.1203
 5844SOL    HW228992   2.423   3.263  11.533  0.5935  0.6712  1.7458
 5845SOL     OW28993   3.696   1.464   2.294  0.4207 -0.5399 -0.4959
 5845SOL    HW128994   3.693   1.557   2.318 -0.9473 -0.9060  0.7512
 5845SOL    HW228995   3.649   1.475   2.211 -2.1752 -0.1825  1.0087
 5846SOL     OW28996   1.666   1.100   6.134 -0.0824  0.2567  0.6435
 5846SOL    HW128997   1.706   1.175   6.177 -0.8007  0.7980  0.3753
 5846SOL    HW228998   1.661   1.128   6.043  3.6121  2.4989  1.1768
 5847SOL     OW28999   1.171   3.975   0.526 -0.3586 -0.4198 -0.0375
 5847SOL    HW129000   1.083   3.948   0.551 -0.7497 -0.1869 -1.1561
 5847SOL    HW229001   1.212   4.001   0.609  0.3697  3.0079 -1.4629
 5848SOL     OW29002   1.544   3.309  11.688 -0.3649  0.0887  0.5352
 5848SOL    HW129003   1.548   3.289  11.782  0.3682  1.5843  0.8321
 5848SOL    HW229004   1.451   3.328  11.671 -0.4208  0.1796  0.9333
 5849SOL     OW29005   1.865   3.390  12.231 -0.0390  0.2392 -0.6131
 5849SOL    HW129006   1.938   3.369  12.288 -1.4170  0.7134  1.3037
 5849SOL    HW229007   1.908   3.453  12.173  1.4939 -0.3002 -0.0587
 5850SOL     OW29008   2.442   2.511   3.665 -0.3598 -0.3029  0.4306
 5850SOL    HW129009   2.361   2.561   3.663 -0.7032 -0.8842 -0.1611
 5850SOL    HW229010   2.417   2.418   3.670  0.3548 -0.6127 -1.6093
 5851SOL     OW29011   3.998   2.890   1.594  0.0320  0.3706  0.5366
 5851SOL    HW129012   4.041   2.976   1.596 -0.1642  0.4476  1.4874
 5851SOL    HW229013   4.069   2.831   1.615  0.8908  1.0139 -0.5759
 5852SOL     OW29014   2.875   4.535   9.121  0.0023  0.4210 -0.2666
 5852SOL    HW129015   2.865   4.625   9.153 -1.6136 -0.2724  1.1741
 5852SOL    HW229016   2.835   4.490   9.195  1.7530 -0.3197  0.2216
 5853SOL     OW29017   0.522   3.988   5.283  0.1451  0.6430  0.1833
 5853SOL    HW129018   0.601   4.039   5.298  0.0101  1.4571 -1.8063
 5853SOL    HW229019   0.486   3.959   5.366  0.3102  0.6117  0.2431
 5854SOL     OW29020   2.027   3.075   6.954  0.3261  0.0132 -0.2067
 5854SOL    HW129021   2.114   3.115   6.950  0.2967  0.1064  0.0738
 5854SOL    HW229022   2.047   3.000   7.010 -1.5852  0.5833  1.2253
 5855SOL     OW29023   0.472   1.530   2.496 -0.1651 -0.2667  0.3640
 5855SOL    HW129024   0.483   1.505   2.588 -0.8964  2.5168  1.2363
 5855SOL    HW229025   0.429   1.616   2.491 -1.7930 -1.0997  0.1266
 5856SOL     OW29026   0.542   3.383   4.898  0.4422  1.0418  0.2003
 5856SOL    HW129027   0.538   3.315   4.831 -0.2005  3.8333 -2.5469
 5856SOL    HW229028   0.459   3.361   4.940 -0.0278  2.0501 -0.2122
 5857SOL     OW29029   3.644   3.528   8.536  0.1497 -0.2691 -0.6077
 5857SOL    HW129030   3.677   3.450   8.581  0.6890 -1.0622 -2.3974
 5857SOL    HW229031   3.723   3.550   8.486 -1.1403  3.8040 -0.8588
 5858SOL     OW29032   2.047   0.103  13.606 -0.2188 -0.3512  0.3559
 5858SOL    HW129033   1.990   0.032  13.573 -0.2567  0.0727 -0.4900
 5858SOL    HW229034   1.986   0.148  13.664  0.9672  2.1866 -0.4133
 5859SOL     OW29035   1.522   2.857   6.671 -0.1182 -0.0366 -0.0427
 5859SOL    HW129036   1.587   2.896   6.729 -0.9882 -2.3067  2.4656
 5859SOL    HW229037   1.453   2.922   6.687  0.4369  0.5772 -0.1141
 5860SOL     OW29038   3.042   0.579   4.990  0.1823 -0.4339 -0.4354
 5860SOL    HW129039   2.966   0.536   5.029  1.9494 -3.5850 -0.4275
 5860SOL    HW229040   3.085   0.500   4.955 -0.0134 -1.8439  2.4511
 5861SOL     OW29041   0.451   2.263   1.472 -0.2541  0.3664  0.4701
 5861SOL    HW129042   0.372   2.218   1.442  0.5367 -1.7918  1.6753
 5861SOL    HW229043   0.459   2.226   1.560  1.3277 -1.0488 -0.2914
 5862SOL     OW29044   3.947   3.277  12.055  0.0832 -0.1811 -0.3469
 5862SOL    HW129045   3.952   3.358  12.005  1.6037 -1.7357 -2.7141
 5862SOL    HW229046   3.908   3.214  11.993  1.6916 -1.8000  0.2951
 5863SOL     OW29047   2.793   3.030  13.801 -0.6115 -0.0122 -0.2438
 5863SOL    HW129048   2.713   3.059  13.758 -2.1511 -1.5069  1.6235
 5863SOL    HW229049   2.764   2.994  13.884  1.7545  0.2676  0.7099
 5864SOL     OW29050   1.206   2.064   8.455 -0.3846  0.4178 -0.1897
 5864SOL    HW129051   1.285   2.118   8.448  0.3114 -0.7379 -1.3710
 5864SOL    HW229052   1.154   2.099   8.383 -0.0524 -0.8642 -1.0487
 5865SOL     OW29053   0.139   2.633   3.278 -0.7631  0.1473 -0.0383
 5865SOL    HW129054   0.074   2.700   3.255 -1.4996 -0.2143  0.9936
 5865SOL    HW229055   0.221   2.681   3.284  0.1248 -1.4842  0.8215
 5866SOL     OW29056   1.708   4.174   2.212 -0.2528 -0.0217  0.4340
 5866SOL    HW129057   1.715   4.084   2.180  1.9173  0.4268 -0.3044
 5866SOL    HW229058   1.787   4.212   2.175  0.3603 -0.6460  1.0995
 5867SOL     OW29059   0.205   0.757   2.331 -0.1331  0.3682 -0.1642
 5867SOL    HW129060   0.126   0.769   2.278  0.4180  0.7703 -0.8909
 5867SOL    HW229061   0.275   0.733   2.270 -0.7810  0.1995 -0.8334
 5868SOL     OW29062   1.413   2.409  15.882 -0.4905  0.4164 -0.8393
 5868SOL    HW129063   1.473   2.472  15.841  1.3635 -0.1345  1.0005
 5868SOL    HW229064   1.376   2.466  15.951 -0.0414 -2.8918  2.1193
 5869SOL     OW29065   2.045   1.775   3.720  0.0494 -0.6968 -0.6580
 5869SOL    HW129066   2.058   1.700   3.779 -0.5436 -1.2203 -1.1982
 5869SOL    HW229067   1.969   1.742   3.672 -0.8969 -0.0094  0.3630
 5870SOL     OW29068   0.448   2.356   4.524  0.2014 -0.2348  0.4111
 5870SOL    HW129069   0.393   2.324   4.453  0.4573  2.3584 -0.9868
 5870SOL    HW229070   0.494   2.420   4.469 -1.2050  1.2117  0.9110
 5871SOL     OW29071   2.263   4.215   5.946  0.2666  0.3851 -0.1682
 5871SOL    HW129072   2.253   4.217   5.850  1.6241  1.2276 -0.2992
 5871SOL    HW229073   2.346   4.169   5.952 -0.3991 -0.8668 -0.5554
 5872SOL     OW29074   4.238   4.490   6.441  0.3607 -0.0116 -0.1806
 5872SOL    HW129075   4.164   4.483   6.380  0.0629 -0.4305  0.2309
 5872SOL    HW229076   4.205   4.557   6.501 -0.5856  0.2242 -0.9531
 5873SOL     OW29077   0.979   3.029   4.940 -0.2249  0.0836  0.0324
 5873SOL    HW129078   0.907   3.032   4.876 -1.4436 -0.1531  1.4009
 5873SOL    HW229079   0.957   3.094   5.007  2.4304  3.2387 -2.1311
 5874SOL     OW29080   0.259   4.208   5.812  0.2107 -0.1194  0.0119
 5874SOL    HW129081   0.185   4.248   5.857  0.1480  0.3026 -0.4687
 5874SOL    HW229082   0.260   4.257   5.729  1.2557 -0.3446 -0.1096
 5875SOL     OW29083   4.373   0.823   4.163  0.0949  0.0237  0.4149
 5875SOL    HW129084   4.459   0.840   4.203 -0.0235  1.3956  0.0893
 5875SOL    HW229085   4.370   0.727   4.161  0.0362  0.0307  0.2067
 5876SOL     OW29086   2.002   2.624  10.932 -0.5145 -0.1940 -0.4657
 5876SOL    HW129087   1.961   2.541  10.908  0.1962 -0.8553  0.6170
 5876SOL    HW229088   2.068   2.603  10.999 -0.8460 -0.0588 -0.0985
 5877SOL     OW29089   2.212   1.174   6.420 -0.0120 -0.8066 -0.0262
 5877SOL    HW129090   2.195   1.110   6.350 -0.6050  0.6863 -1.2513
 5877SOL    HW229091   2.201   1.119   6.497 -0.6938 -0.4240  0.1414
 5878SOL     OW29092   1.170   4.094   7.946  0.5023  0.0351 -0.1365
 5878SOL    HW129093   1.221   4.151   7.888  1.1589 -1.7382 -1.3296
 5878SOL    HW229094   1.122   4.154   8.002 -1.6080 -1.1116 -0.7398
 5879SOL     OW29095   1.230   4.001   5.909 -0.1445  0.5884  0.4382
 5879SOL    HW129096   1.278   3.926   5.946  0.5049  1.3324  1.0963
 5879SOL    HW229097   1.287   4.023   5.836  1.5608  0.1409  1.6357
 5880SOL     OW29098   4.662   4.187   4.101  0.4519 -0.4568  0.1384
 5880SOL    HW129099   4.721   4.111   4.100  2.6170  1.2204 -0.7296
 5880SOL    HW229100   4.620   4.179   4.016 -0.2165 -0.4257  0.4665
 5881SOL     OW29101   2.368   4.364   7.821 -0.0934  0.1027 -0.2949
 5881SOL    HW129102   2.398   4.293   7.764  1.3175  1.4148 -1.2086
 5881SOL    HW229103   2.420   4.435   7.784 -3.8267  1.7118 -2.4986
 5882SOL     OW29104   1.108   3.216   3.059  0.1413 -0.0800  0.3503
 5882SOL    HW129105   1.095   3.214   3.154 -1.7345 -0.4819  0.0914
 5882SOL    HW229106   1.019   3.228   3.027 -0.5395  0.2659  2.3864
 5883SOL     OW29107   1.158   0.059   5.582  0.4317  0.1996  0.3407
 5883SOL    HW129108   1.189   0.125   5.521  0.9821 -0.1471  0.2419
 5883SOL    HW229109   1.109   0.114   5.644 -0.5036 -1.4453  1.0874
 5884SOL     OW29110   1.868   4.080   4.100  0.5647 -0.1501  0.0735
 5884SOL    HW129111   1.835   4.014   4.161 -0.9273 -1.0786 -1.7761
 5884SOL    HW229112   1.786   4.105   4.058  1.0639  0.3144 -0.6363
 5885SOL     OW29113   4.559   3.621   1.504 -0.5440  0.3742 -0.1402
 5885SOL    HW129114   4.480   3.641   1.454 -2.0945 -2.9086  1.0247
 5885SOL    HW229115   4.600   3.707   1.498 -3.0673  1.4168 -2.1665
 5886SOL     OW29116   1.190   3.145   0.736 -0.2420 -0.3885  0.2458
 5886SOL    HW129117   1.107   3.186   0.710  0.4647  2.1534  1.9942
 5886SOL    HW229118   1.221   3.107   0.653 -2.1284 -3.2678  0.8480
 5887SOL     OW29119   2.629   1.739   0.019 -0.1622 -0.6797  0.3332
 5887SOL    HW129120   2.543   1.774  17.686 -0.4858  0.2124  2.7199
 5887SOL    HW229121   2.679   1.819   0.005  0.7992 -1.2908  0.2917
 5888SOL     OW29122   0.611   4.508   6.014 -0.3712  0.1266  0.0195
 5888SOL    HW129123   0.634   4.601   6.005  0.6443 -0.4495 -3.2588
 5888SOL    HW229124   0.674   4.468   6.074 -0.1960  3.0657  1.7986
 5889SOL     OW29125   4.140   2.137   9.502 -0.3701 -0.1134  0.2172
 5889SOL    HW129126   4.084   2.168   9.574  0.0677 -0.3423  0.6580
 5889SOL    HW229127   4.199   2.080   9.551 -0.8425 -0.5356  0.2862
 5890SOL     OW29128   3.414   2.238   4.190 -0.3706 -0.1380  0.1050
 5890SOL    HW129129   3.348   2.280   4.244  1.0595  3.4630 -0.9491
 5890SOL    HW229130   3.460   2.188   4.257  2.1273  1.8799 -0.0958
 5891SOL     OW29131   4.621   1.039   2.358 -0.4106 -0.4632 -0.3545
 5891SOL    HW129132   4.683   0.987   2.307 -2.1123 -1.8685 -1.0067
 5891SOL    HW229133   4.589   1.092   2.285 -1.3910  0.3387  0.6714
 5892SOL     OW29134   3.448   0.206   4.405 -0.0435 -0.2796  0.6463
 5892SOL    HW129135   3.439   0.253   4.322 -2.9636  2.1789  2.3900
 5892SOL    HW229136   3.368   0.231   4.451  1.1837 -1.6595  3.5566
 5893SOL     OW29137   0.416   0.195   8.243 -0.2687 -0.5520 -0.2809
 5893SOL    HW129138   0.424   0.274   8.297  3.4239 -1.6610  0.7788
 5893SOL    HW229139   0.363   0.143   8.303 -0.4622  1.0239  0.9197
 5894SOL     OW29140   2.865   4.565   3.346  0.0757 -0.2224 -0.3685
 5894SOL    HW129141   2.939   4.602   3.299  0.8482  1.6017  2.2300
 5894SOL    HW229142   2.849   4.480   3.307 -0.2242 -1.2198  1.9219
 5895SOL     OW29143   2.426   2.525   9.574 -0.0031  0.1953  0.5639
 5895SOL    HW129144   2.432   2.605   9.626 -1.2042  0.8733 -0.3463
 5895SOL    HW229145   2.440   2.557   9.485 -2.3656  0.2994  0.2269
 5896SOL     OW29146   3.400   2.170  10.433 -0.0423 -0.0961 -0.0128
 5896SOL    HW129147   3.451   2.240  10.392  1.2955 -2.5724 -2.6175
 5896SOL    HW229148   3.472   2.110  10.451 -0.6011 -0.9769 -0.7344
 5897SOL     OW29149   1.640   3.129   4.658  0.2692  0.1490  0.1189
 5897SOL    HW129150   1.688   3.047   4.650 -2.2750 -1.3260 -0.1594
 5897SOL    HW229151   1.657   3.164   4.571  0.0068 -0.2271 -0.0833
 5898SOL     OW29152   2.032   2.656   9.391 -0.0852 -0.3199  0.2996
 5898SOL    HW129153   2.031   2.595   9.465 -1.3155 -1.0832 -0.3610
 5898SOL    HW229154   1.947   2.638   9.351 -0.5822  1.5241  0.5043
 5899SOL     OW29155   3.472   1.040  16.386 -0.4695 -0.5259 -0.2176
 5899SOL    HW129156   3.538   1.100  16.419  0.4642 -1.8075  0.2644
 5899SOL    HW229157   3.453   1.066  16.296  1.1653 -0.7669 -0.6453
 5900SOL     OW29158   2.474   1.527   1.513 -0.1147  0.6440 -0.6697
 5900SOL    HW129159   2.444   1.539   1.603 -0.5766  1.1034 -0.8884
 5900SOL    HW229160   2.403   1.474   1.478 -1.9138  1.9254  1.0614
 5901SOL     OW29161   2.643   2.171   6.878 -0.0738  0.4873 -0.2550
 5901SOL    HW129162   2.630   2.084   6.916 -0.1290  0.6248  0.0425
 5901SOL    HW229163   2.582   2.224   6.929  0.0078  0.5554 -0.2286
 5902SOL     OW29164   0.229   3.597   8.978  0.0603  0.2766 -0.2867
 5902SOL    HW129165   0.289   3.536   9.020 -0.9602  0.1408  0.9780
 5902SOL    HW229166   0.225   3.666   9.044  1.3410 -2.7405  2.9652
 5903SOL     OW29167   0.248   3.017   8.138 -0.8757 -0.1099 -0.1970
 5903SOL    HW129168   0.238   3.108   8.165  1.2104 -0.2921  1.1662
 5903SOL    HW229169   0.202   2.976   8.211 -0.8086 -0.6210 -0.4373
 5904SOL     OW29170   0.827   2.058   8.041 -0.5877 -0.3116 -0.6207
 5904SOL    HW129171   0.762   2.117   8.002  1.1837  2.1504  0.1415
 5904SOL    HW229172   0.886   2.036   7.969  1.7928 -1.2186  1.6119
 5905SOL     OW29173   4.424   2.343  10.007  0.6983 -0.0124  0.0071
 5905SOL    HW129174   4.361   2.415   9.997 -2.1545 -2.3398  1.2638
 5905SOL    HW229175   4.419   2.302   9.921 -0.4179  1.4305 -0.6317
 5906SOL     OW29176   1.480   2.697  16.271 -0.3472 -0.7339  0.7529
 5906SOL    HW129177   1.537   2.702  16.194  0.5412 -2.3980  1.3092
 5906SOL    HW229178   1.518   2.768  16.323  1.5266 -1.0741 -0.1271
 5907SOL     OW29179   2.855   4.715  11.573 -0.3212  0.0098 -0.1294
 5907SOL    HW129180   2.814   4.631  11.551 -0.5950  0.2705 -0.6078
 5907SOL    HW229181   2.865   4.693  11.665  0.0582 -3.6010 -1.0389
 5908SOL     OW29182   2.181   0.407   9.256 -0.4982 -0.0482 -0.0474
 5908SOL    HW129183   2.184   0.439   9.346 -1.0124  1.7194 -0.6587
 5908SOL    HW229184   2.098   0.360   9.246 -0.9231  0.5782  0.5538
 5909SOL     OW29185   2.243   4.532   3.644  0.0442  0.4420  0.2099
 5909SOL    HW129186   2.219   4.440   3.651 -0.2368  0.5222  0.2889
 5909SOL    HW229187   2.278   4.543   3.556  0.5462  0.2995  0.3901
 5910SOL     OW29188   3.622   3.073   1.592 -0.3214 -0.4098 -0.6541
 5910SOL    HW129189   3.624   3.086   1.497  0.9197  0.4924 -0.5123
 5910SOL    HW229190   3.703   3.118   1.618 -1.4051  0.2006  1.6112
 5911SOL     OW29191   4.712   1.007   2.059  0.0737  0.3779 -0.1078
 5911SOL    HW129192   0.059   1.072   2.068  0.5043  0.0925 -1.3180
 5911SOL    HW229193   4.637   1.053   2.096  1.4947  2.8146 -0.2569
 5912SOL     OW29194   0.392   0.305   4.591 -0.3303 -0.2713 -0.0041
 5912SOL    HW129195   0.424   0.295   4.501 -0.4469  2.8831 -0.3754
 5912SOL    HW229196   0.317   0.245   4.595  0.3737 -1.0917  0.8657
 5913SOL     OW29197   2.950   4.210  10.279 -0.5027  0.3875 -0.9856
 5913SOL    HW129198   2.956   4.122  10.317  1.1082  1.7398  1.8981
 5913SOL    HW229199   2.999   4.193  10.199 -2.7847 -0.1793 -2.2719
 5914SOL     OW29200   3.260   2.642   8.191 -0.6678 -0.2133  0.0359
 5914SOL    HW129201   3.266   2.738   8.197 -0.8669 -0.1834 -0.2370
 5914SOL    HW229202   3.282   2.613   8.280 -0.7776  0.1035  0.1657
 5915SOL     OW29203   2.498   3.906   8.175 -0.2196  0.3772  0.1522
 5915SOL    HW129204   2.421   3.891   8.120 -0.8133 -0.2984  1.1749
 5915SOL    HW229205   2.449   3.938   8.251 -0.5093  1.6445 -0.5561
 5916SOL     OW29206   4.469   1.081   7.231 -0.0216 -0.2601 -0.6391
 5916SOL    HW129207   4.516   1.083   7.147 -1.2182 -0.2664 -1.3078
 5916SOL    HW229208   4.537   1.089   7.298 -0.1128  3.3345 -0.9732
 5917SOL     OW29209   4.417   1.144   4.683 -0.1621 -0.1542 -0.0362
 5917SOL    HW129210   4.377   1.063   4.715  0.5498 -1.1849 -1.7768
 5917SOL    HW229211   4.499   1.113   4.646 -0.8273 -0.5044 -1.2138
 5918SOL     OW29212   0.510   2.285   6.368 -0.5511 -0.2542  0.0495
 5918SOL    HW129213   0.426   2.331   6.359 -0.2956  0.3504  0.7022
 5918SOL    HW229214   0.494   2.211   6.425  0.8656  1.4145  2.6247
 5919SOL     OW29215   2.475   2.653   6.038  0.1661 -0.1887  0.3282
 5919SOL    HW129216   2.505   2.742   6.053 -0.1969 -0.0036 -0.0511
 5919SOL    HW229217   2.380   2.654   6.029  0.2019 -0.5651 -0.1149
 5920SOL     OW29218   2.828   0.356   2.167 -0.1059  0.2469 -0.1181
 5920SOL    HW129219   2.893   0.413   2.208 -0.5978  0.8673 -0.1835
 5920SOL    HW229220   2.830   0.412   2.089 -2.5251  2.3230  1.3217
 5921SOL     OW29221   4.093   4.121   5.616 -0.0230 -0.3996 -0.3736
 5921SOL    HW129222   4.116   4.205   5.655  0.5737  0.0982 -1.8145
 5921SOL    HW229223   4.182   4.085   5.611  1.1166  2.0130  2.6791
 5922SOL     OW29224   3.593   3.047   2.995 -0.0619  0.1726 -0.0483
 5922SOL    HW129225   3.645   2.997   3.058  0.4403  0.0335 -0.5740
 5922SOL    HW229226   3.594   3.123   3.053 -1.3112 -2.2328  3.1702
 5923SOL     OW29227   2.758   2.346   5.799  0.7695  0.3385  0.1713
 5923SOL    HW129228   2.671   2.329   5.763  1.0430  1.1463 -0.8669
 5923SOL    HW229229   2.756   2.338   5.894  0.0481 -1.4208  0.0033
 5924SOL     OW29230   3.932   2.582   3.376 -0.2079  0.5201  0.1051
 5924SOL    HW129231   3.994   2.635   3.426  1.0978 -0.6471 -0.2565
 5924SOL    HW229232   3.978   2.552   3.297  1.0112 -0.2754  1.1105
 5925SOL     OW29233   4.351   0.887   6.406 -0.1220 -0.1032  0.4681
 5925SOL    HW129234   4.366   0.895   6.500 -0.5407  1.0204  0.4498
 5925SOL    HW229235   4.337   0.974   6.367 -0.7703 -0.2838  0.2953
 5926SOL     OW29236   3.292   4.406   8.865  0.0450  0.0447  0.5907
 5926SOL    HW129237   3.229   4.337   8.883 -0.1277 -0.3591 -1.6996
 5926SOL    HW229238   3.228   4.473   8.840  0.0172  0.0234  0.6044
 5927SOL     OW29239   2.624   0.240   2.368 -0.2217  0.4079 -0.0594
 5927SOL    HW129240   2.625   0.172   2.301 -0.3991  1.4276 -1.0927
 5927SOL    HW229241   2.710   0.280   2.359  0.0518  0.0341  0.9158
 5928SOL     OW29242   1.213   4.475   3.865  0.2078  0.1512  1.0179
 5928SOL    HW129243   1.159   4.446   3.792 -0.4937  1.1409  1.1309
 5928SOL    HW229244   1.300   4.453   3.832  0.5999 -0.0133  2.1369
 5929SOL     OW29245   0.525   3.773  12.533  0.2760  0.5183 -0.1947
 5929SOL    HW129246   0.495   3.857  12.567 -0.1794 -0.1902  1.1595
 5929SOL    HW229247   0.538   3.710  12.604  1.3054 -1.4413 -2.0865
 5930SOL     OW29248   4.477   3.623  13.471 -0.0124  0.7721  0.0920
 5930SOL    HW129249   4.440   3.587  13.390  0.0627 -1.2947  0.9713
 5930SOL    HW229250   4.547   3.560  13.490 -0.3986  0.0121 -1.0050
 5931SOL     OW29251   3.653   0.264  16.601 -0.4673  0.0743  0.0129
 5931SOL    HW129252   3.565   0.240  16.631 -0.4493 -0.2418 -0.1848
 5931SOL    HW229253   3.680   0.330  16.665 -1.2218  1.3957 -1.0321
 5932SOL     OW29254   3.833   3.551   4.836 -0.3103  0.7055  0.1956
 5932SOL    HW129255   3.831   3.635   4.790 -1.4438  0.2932 -0.5089
 5932SOL    HW229256   3.870   3.500   4.764  0.1796 -0.3968  1.2231
 5933SOL     OW29257   2.657   2.025   8.877 -0.0477 -0.3261  0.6249
 5933SOL    HW129258   2.660   2.036   8.782  0.9812 -0.9181  0.5788
 5933SOL    HW229259   2.574   1.978   8.884 -1.2733  1.8278  0.3189
 5934SOL     OW29260   1.582   1.988   6.045 -0.2601  0.5391  0.9288
 5934SOL    HW129261   1.513   1.940   5.998  0.1165  0.5123  0.4064
 5934SOL    HW229262   1.546   2.001   6.133 -1.4704  2.6949  0.1065
 5935SOL     OW29263   3.588   4.526  11.420 -0.4689 -0.5602  0.2110
 5935SOL    HW129264   3.599   4.588  11.492  0.0441 -0.0763 -0.2850
 5935SOL    HW229265   3.642   4.451  11.446 -0.9418 -0.8426  0.3700
 5936SOL     OW29266   0.127   2.395   2.623 -0.0102  0.2494 -0.2946
 5936SOL    HW129267   0.156   2.378   2.534 -2.4608  0.0418 -1.0677
 5936SOL    HW229268   0.176   2.473   2.649  0.0123 -0.2329  1.1329
 5937SOL     OW29269   3.111   4.707   5.201 -0.5035  0.3147 -0.3677
 5937SOL    HW129270   3.112   4.647   5.127  0.1733 -0.7806  0.5311
 5937SOL    HW229271   3.030   4.672   5.238  0.9496 -1.2527  1.3679
 5938SOL     OW29272   4.130   0.448   1.840  0.2368 -0.0205  0.4661
 5938SOL    HW129273   4.066   0.379   1.823  0.9135 -0.4164 -0.4773
 5938SOL    HW229274   4.200   0.412   1.785 -1.6351 -2.5248 -0.2543
 5939SOL     OW29275   2.354   0.613   4.086  0.4190 -0.1965  0.2348
 5939SOL    HW129276   2.272   0.612   4.036  1.9845  4.3387 -2.4842
 5939SOL    HW229277   2.331   0.637   4.176 -1.4392 -1.7448  0.1733
 5940SOL     OW29278   1.814   0.285   6.677  0.1332  0.1924  0.3575
 5940SOL    HW129279   1.770   0.205   6.707 -0.8472  0.3950 -0.5264
 5940SOL    HW229280   1.779   0.286   6.588 -1.9762  1.2178  1.1900
 5941SOL     OW29281   3.266   4.677   6.891 -0.0910 -0.0998  0.0056
 5941SOL    HW129282   3.182   4.711   6.863 -0.2095  0.2766  0.8170
 5941SOL    HW229283   3.236   4.629   6.968 -1.1928 -0.9033 -0.9376
 5942SOL     OW29284   3.882   2.637   6.475  0.3104  0.0645  0.4665
 5942SOL    HW129285   3.829   2.611   6.550 -0.0860  0.7636  0.4236
 5942SOL    HW229286   3.814   2.675   6.419 -1.9748 -2.4578  1.5388
 5943SOL     OW29287   1.114   1.438   5.203  0.4676  0.1077 -0.1786
 5943SOL    HW129288   1.117   1.378   5.278  2.7304  3.2761  2.2306
 5943SOL    HW229289   1.185   1.400   5.151  0.4562 -0.4534  0.2079
 5944SOL     OW29290   1.322   1.730   1.904  0.4439  0.6144 -0.2702
 5944SOL    HW129291   1.341   1.711   1.812 -0.3992 -0.2746 -0.2521
 5944SOL    HW229292   1.270   1.651   1.913 -0.4040  1.3449  1.2335
 5945SOL     OW29293   0.916   3.622  10.211  0.0033 -0.3503  0.2114
 5945SOL    HW129294   0.878   3.550  10.261 -1.3770 -1.1780 -2.0381
 5945SOL    HW229295   0.854   3.694  10.220 -2.7252 -2.4920 -1.6110
 5946SOL     OW29296   2.662   2.926   9.123  0.2649 -0.0858 -0.2482
 5946SOL    HW129297   2.584   2.882   9.090  2.0293 -2.8317 -0.7579
 5946SOL    HW229298   2.726   2.859   9.100  0.8997  0.7397 -0.8783
 5947SOL     OW29299   1.395   0.909  11.522  0.2002  0.5913 -0.0110
 5947SOL    HW129300   1.391   0.914  11.618  1.4242  1.1012  0.0162
 5947SOL    HW229301   1.472   0.854  11.505  0.6195  1.5405 -1.2183
 5948SOL     OW29302   1.944   3.692  16.531  0.7465  0.1106  0.2052
 5948SOL    HW129303   1.877   3.734  16.477  0.8413  1.1374  0.8829
 5948SOL    HW229304   1.938   3.604  16.493 -1.6403  1.3241 -2.2858
 5949SOL     OW29305   2.132   0.455   3.662  0.1878  0.7924 -0.0981
 5949SOL    HW129306   2.132   0.419   3.750  1.4828 -1.1414 -0.8779
 5949SOL    HW229307   2.039   0.473   3.651 -0.0478  0.4810  1.4476
 5950SOL     OW29308   0.112   0.563   6.756  0.3221  0.3499 -0.5493
 5950SOL    HW129309   0.128   0.652   6.723  1.5913 -0.4820 -2.2183
 5950SOL    HW229310   0.080   0.578   6.845 -0.5882  2.9564 -1.3006
 5951SOL     OW29311   2.902   3.149   6.584 -0.1229  0.2852  0.1861
 5951SOL    HW129312   2.840   3.181   6.648  0.0450 -1.2667  1.1315
 5951SOL    HW229313   2.986   3.166   6.627 -0.2727  1.5655 -0.0358
 5952SOL     OW29314   4.079   4.035  14.680  0.2127  0.5074  0.2779
 5952SOL    HW129315   4.122   3.988  14.608  0.0459  0.4719  0.2024
 5952SOL    HW229316   4.122   3.983  14.748 -2.3634 -1.7197  0.1975
 5953SOL     OW29317   1.412   1.303   2.576 -0.1995  0.0161 -0.0488
 5953SOL    HW129318   1.472   1.256   2.519  0.2203  1.0503 -0.4615
 5953SOL    HW229319   1.347   1.240   2.607  1.0163 -1.0575  0.2998
 5954SOL     OW29320   4.542   1.363   9.110 -0.0238  0.2902 -0.1536
 5954SOL    HW129321   4.553   1.334   9.020  1.9180  0.8504 -0.0922
 5954SOL    HW229322   4.550   1.458   9.103  0.0533  0.3560  0.8311
 5955SOL     OW29323   2.722   3.408   4.055 -0.0086  0.0890 -0.1033
 5955SOL    HW129324   2.673   3.326   4.054  4.1385 -2.3945  0.6488
 5955SOL    HW229325   2.713   3.430   3.962  0.2940 -1.8402 -0.5948
 5956SOL     OW29326   1.101   4.056   5.097  0.2714  0.1776 -0.3362
 5956SOL    HW129327   1.194   4.043   5.077  0.4578 -1.6233  1.7132
 5956SOL    HW229328   1.105   4.132   5.156  0.9226  0.2349 -0.4614
 5957SOL     OW29329   4.016   4.372   1.469 -0.2763  0.2044 -0.3522
 5957SOL    HW129330   4.092   4.431   1.476  0.9848 -1.6218  1.3714
 5957SOL    HW229331   4.066   4.315   1.411 -2.8687 -2.4898  0.1206
 5958SOL     OW29332   4.722   2.249   7.263 -0.5652 -0.6689 -0.4352
 5958SOL    HW129333   4.685   2.292   7.340  0.9100 -1.3243  0.6469
 5958SOL    HW229334   0.030   2.329   7.220 -1.8077  0.4231  0.7109
 5959SOL     OW29335   4.039   0.606   4.168 -0.0397  0.2237 -0.2058
 5959SOL    HW129336   4.046   0.633   4.076 -2.1350 -1.4021 -0.8601
 5959SOL    HW229337   3.997   0.688   4.196 -0.6093 -0.3486  0.6145
 5960SOL     OW29338   3.415   0.772   8.820 -0.2441 -0.1061  0.1134
 5960SOL    HW129339   3.441   0.814   8.737 -2.5978  1.4549  0.1596
 5960SOL    HW229340   3.474   0.697   8.815  0.4479  0.4322 -0.0251
 5961SOL     OW29341   3.109   4.106  16.370 -0.3587 -0.6331  0.3973
 5961SOL    HW129342   3.073   4.071  16.288 -0.8848 -2.6958  1.5009
 5961SOL    HW229343   3.037   4.135  16.427  0.5154 -0.1574  1.2552
 5962SOL     OW29344   0.876   3.887  17.342 -0.1887 -0.5159 -0.6834
 5962SOL    HW129345   0.944   3.932  17.392 -1.1425  0.8811 -0.6385
 5962SOL    HW229346   0.922   3.804  17.333 -1.1266 -0.6309 -4.4283
 5963SOL     OW29347   3.975   3.310  13.572 -0.3171 -0.1479 -0.5297
 5963SOL    HW129348   3.962   3.260  13.492 -0.6031 -1.0075  0.0529
 5963SOL    HW229349   3.902   3.373  13.567 -0.3110 -0.0122  1.1035
 5964SOL     OW29350   4.372   3.541   2.725  0.3039 -0.8782  0.2127
 5964SOL    HW129351   4.448   3.578   2.770  0.7701 -1.4797 -0.0876
 5964SOL    HW229352   4.411   3.477   2.666  0.2287 -1.0019  0.2970
 5965SOL     OW29353   0.124   2.291   1.989  0.8765  0.4964  0.3114
 5965SOL    HW129354   0.030   2.308   1.986  1.2510  2.5013 -0.1069
 5965SOL    HW229355   0.124   2.206   1.945  0.6933 -0.9205  3.0923
 5966SOL     OW29356   1.644   0.206  12.423 -0.6188 -0.2596  0.3596
 5966SOL    HW129357   1.602   0.281  12.466  0.8962  1.8022 -1.7751
 5966SOL    HW229358   1.607   0.214  12.335 -0.9872 -1.0161  0.4388
 5967SOL     OW29359   4.209   4.340   7.888  0.0925  0.0199 -0.4158
 5967SOL    HW129360   4.181   4.260   7.843 -1.5078  0.7794 -0.7566
 5967SOL    HW229361   4.217   4.396   7.810 -0.4422  1.2577  0.4233
 5968SOL     OW29362   3.700   1.156  10.171  0.1131 -0.0142  0.5896
 5968SOL    HW129363   3.618   1.177  10.126  0.2105 -0.6912  0.0979
 5968SOL    HW229364   3.687   1.061  10.175 -1.6570  0.2213  0.3505
 5969SOL     OW29365   0.509   1.765   6.034 -0.0734  0.1462  0.2103
 5969SOL    HW129366   0.458   1.791   5.957  0.1955 -1.9084 -0.6553
 5969SOL    HW229367   0.560   1.846   6.036 -1.2199  0.8475  2.1592
 5970SOL     OW29368   2.324   4.181   5.151  0.0100 -0.9849  0.2721
 5970SOL    HW129369   2.320   4.268   5.113 -1.1357 -0.6970  1.0497
 5970SOL    HW229370   2.247   4.142   5.111 -0.1523  0.7059 -1.0417
 5971SOL     OW29371   3.173   0.596   5.876 -0.0751  0.2038 -0.1272
 5971SOL    HW129372   3.122   0.675   5.892  0.0557  0.5251 -1.2433
 5971SOL    HW229373   3.212   0.624   5.793 -0.1529 -2.0887 -0.9493
 5972SOL     OW29374   3.465   1.426  10.297 -0.1416 -0.4581 -0.1050
 5972SOL    HW129375   3.453   1.331  10.303 -0.2596 -0.3252  1.8934
 5972SOL    HW229376   3.555   1.443  10.325 -0.7659  0.5628  1.3038
 5973SOL     OW29377   3.172   4.047  15.888 -0.1241 -0.4714 -0.6669
 5973SOL    HW129378   3.095   4.101  15.903  1.0314  0.9997  0.0012
 5973SOL    HW229379   3.203   4.079  15.803  0.1999  0.5210 -0.1760
 5974SOL     OW29380   2.641   3.033   2.582 -1.0316  0.1281 -0.1229
 5974SOL    HW129381   2.555   3.046   2.620  0.0870  1.3273  2.0239
 5974SOL    HW229382   2.614   2.990   2.500 -1.7230  0.3837 -0.0287
 5975SOL     OW29383   3.366   2.794   6.371  0.1951  0.0011  0.1625
 5975SOL    HW129384   3.349   2.858   6.301  1.9785  0.0791 -0.1960
 5975SOL    HW229385   3.449   2.824   6.407  1.0097  1.2047 -2.7131
 5976SOL     OW29386   0.251   1.447   8.523 -0.3171 -0.0296  0.2735
 5976SOL    HW129387   0.259   1.511   8.594  1.1443 -1.0911  1.0468
 5976SOL    HW229388   0.166   1.473   8.488 -0.0394 -1.1786 -1.2465
 5977SOL     OW29389   2.437   3.826   3.475 -0.4209 -0.2626 -0.7303
 5977SOL    HW129390   2.403   3.760   3.536  1.7077  0.5534  1.3267
 5977SOL    HW229391   2.530   3.833   3.499  0.0151  0.6793 -2.7454
 5978SOL     OW29392   0.294   1.929  10.551 -0.7177  0.3767  0.2494
 5978SOL    HW129393   0.379   1.932  10.507 -0.8260 -0.2153 -0.0082
 5978SOL    HW229394   0.309   1.856  10.612  0.3936 -0.3446 -0.8759
 5979SOL     OW29395   2.573   0.290   5.466  0.1262 -0.0992 -0.5155
 5979SOL    HW129396   2.621   0.257   5.391 -0.6119 -0.3614 -0.8712
 5979SOL    HW229397   2.643   0.310   5.528 -0.1807 -0.1304 -0.1511
 5980SOL     OW29398   2.381   0.979   3.144  0.0248 -0.3524 -0.2669
 5980SOL    HW129399   2.345   1.006   3.228  1.0988 -0.4983  0.2398
 5980SOL    HW229400   2.321   1.025   3.085 -1.0427 -1.9412 -0.3957
 5981SOL     OW29401   0.759   1.748  12.161 -0.3876 -0.0984 -0.1282
 5981SOL    HW129402   0.673   1.742  12.202  0.4925 -0.0733  1.7435
 5981SOL    HW229403   0.771   1.654  12.150  1.0449 -0.1416  1.8097
 5982SOL     OW29404   4.380   1.452   5.089 -0.1530 -0.6306  0.7256
 5982SOL    HW129405   4.416   1.506   5.019 -0.9065 -2.6951 -1.2511
 5982SOL    HW229406   4.459   1.429   5.137  1.9233  1.3111 -1.7135
 5983SOL     OW29407   1.852   0.087   1.965 -0.5627  0.1085 -0.0993
 5983SOL    HW129408   1.778   0.085   1.904 -1.4904 -0.0874  1.0160
 5983SOL    HW229409   1.931   0.077   1.912 -2.5592 -3.8745 -2.3346
 5984SOL     OW29410   4.386   1.501   1.236 -0.2342  0.0518 -0.0332
 5984SOL    HW129411   4.307   1.487   1.288  0.1208 -1.8774 -0.0144
 5984SOL    HW229412   4.405   1.409   1.223  2.1698  0.4902  0.2032
 5985SOL     OW29413   0.180   0.930  12.374  0.8913  0.0283  0.5860
 5985SOL    HW129414   0.249   0.936  12.308  0.0469  2.8339 -0.0235
 5985SOL    HW229415   0.202   1.005  12.430  0.6425  1.6936 -1.5633
 5986SOL     OW29416   4.039   1.080   3.034  0.3671  0.0015  0.3592
 5986SOL    HW129417   3.958   1.125   3.058  0.2742  0.6983 -1.2323
 5986SOL    HW229418   4.092   1.156   3.011 -0.0959  0.7369  1.7151
 5987SOL     OW29419   2.556   0.883   5.374  0.3192  0.3051  0.2307
 5987SOL    HW129420   2.546   0.976   5.396 -1.9391  0.3968 -1.1578
 5987SOL    HW229421   2.462   0.865   5.363  0.5100 -1.6215  1.7956
 5988SOL     OW29422   3.434   3.090  11.516  0.4443  0.1857 -0.7742
 5988SOL    HW129423   3.425   3.183  11.496 -1.6210  0.6315  2.2060
 5988SOL    HW229424   3.353   3.062  11.558  0.8343  0.8992  0.4616
 5989SOL     OW29425   3.903   3.086  13.714  0.5137  0.0707 -0.1679
 5989SOL    HW129426   3.930   3.107  13.804  0.4155 -2.7344  0.5000
 5989SOL    HW229427   3.938   3.160  13.664  0.6242  1.0164  1.2876
 5990SOL     OW29428   2.654   0.799   9.805 -0.0851  0.4237 -0.2874
 5990SOL    HW129429   2.671   0.790   9.899 -2.5661 -1.8051 -0.0581
 5990SOL    HW229430   2.702   0.719   9.780  1.1279  0.5983  1.4803
 5991SOL     OW29431   2.761   4.009  14.735 -0.4144 -0.0196 -0.0189
 5991SOL    HW129432   2.723   3.928  14.702 -1.4525  1.1235 -1.6412
 5991SOL    HW229433   2.768   4.070  14.661 -0.1754 -0.0705 -0.0367
 5992SOL     OW29434   0.950   3.930  11.948 -0.0484 -0.9939  0.0850
 5992SOL    HW129435   0.958   3.904  12.040  1.9095  1.4838  0.6304
 5992SOL    HW229436   0.958   3.843  11.910 -0.0952 -0.8302 -0.2991
 5993SOL     OW29437   0.941   3.928   8.342  0.2686  0.4752 -0.3808
 5993SOL    HW129438   0.890   3.852   8.314 -1.3329  0.9889  1.1065
 5993SOL    HW229439   1.013   3.918   8.280 -0.0303  0.2727 -0.6930
 5994SOL     OW29440   2.573   1.597   7.812  0.2460 -0.1710 -0.0626
 5994SOL    HW129441   2.536   1.558   7.891  1.0247  1.5219  1.1417
 5994SOL    HW229442   2.542   1.561   7.729  1.5872 -0.3992 -0.4575
 5995SOL     OW29443   3.923   1.166  14.012 -0.1876 -0.8331  0.1046
 5995SOL    HW129444   4.016   1.188  14.008 -0.8587  1.8515 -0.8132
 5995SOL    HW229445   3.931   1.072  14.031 -2.9055 -0.3070  3.9240
 5996SOL     OW29446   2.260   1.932   2.240  0.0979  0.0228 -0.3571
 5996SOL    HW129447   2.219   1.860   2.288  0.5593  1.9727  2.9801
 5996SOL    HW229448   2.223   1.910   2.154 -0.9062  0.9403 -0.1561
 5997SOL     OW29449   0.598   2.416   2.423  0.1251 -0.0725  0.2094
 5997SOL    HW129450   0.590   2.462   2.507  3.1450 -1.4398  1.2372
 5997SOL    HW229451   0.662   2.473   2.381 -0.4863  0.3683 -0.1233
 5998SOL     OW29452   0.006   2.876   3.811  0.3650 -0.5022  0.2188
 5998SOL    HW129453   4.707   2.949   3.868 -0.9659 -0.4334 -0.3725
 5998SOL    HW229454   0.081   2.913   3.764 -1.3846  2.4114 -0.2509
 5999SOL     OW29455   2.056   1.320   5.893  0.0861  0.5718  0.3645
 5999SOL    HW129456   2.123   1.360   5.837  0.5060 -2.5462 -1.3724
 5999SOL    HW229457   2.101   1.266   5.958 -1.8881 -0.9203  0.4813
 6000SOL     OW29458   0.320   0.723   0.947 -0.4945 -0.4780  0.0947
 6000SOL    HW129459   0.338   0.715   0.854  0.2217 -0.2577  0.2131
 6000SOL    HW229460   0.224   0.727   0.946 -0.4281  0.8026 -0.5057
 6001SOL     OW29461   0.425   1.032   5.948 -0.3040  0.3791  0.8872
 6001SOL    HW129462   0.350   1.022   5.889  0.5946 -1.0634 -0.0175
 6001SOL    HW229463   0.378   1.002   6.025 -1.0544 -0.0006  0.2858
 6002SOL     OW29464   4.208   0.975  17.210  0.6971  0.4415  0.1523
 6002SOL    HW129465   4.200   0.923  17.131  1.6772  3.4435 -1.9239
 6002SOL    HW229466   4.155   0.926  17.273 -0.2178  0.0448 -0.9428
 6003SOL     OW29467   3.089   3.659   6.395  0.1960  0.0574  0.1714
 6003SOL    HW129468   3.015   3.712   6.427 -1.7204 -1.8405 -1.1143
 6003SOL    HW229469   3.041   3.576   6.401 -0.5910  0.4208 -1.2289
 6004SOL     OW29470   2.935   3.269  13.094  0.6975  0.3656  0.4418
 6004SOL    HW129471   2.993   3.336  13.132 -0.7033  2.2964 -0.7927
 6004SOL    HW229472   2.870   3.287  13.161 -1.4615 -2.3426 -0.9310
 6005SOL     OW29473   2.210   3.071  13.197 -0.0686  0.2218 -0.3284
 6005SOL    HW129474   2.225   3.001  13.261  2.2243 -0.2238 -1.3528
 6005SOL    HW229475   2.119   3.052  13.178 -0.9092  2.8049  1.0470
 6006SOL     OW29476   3.759   4.157   7.374 -0.2196  0.5672  0.2095
 6006SOL    HW129477   3.668   4.137   7.353 -0.4875  2.0185 -0.0561
 6006SOL    HW229478   3.780   4.224   7.309  0.1277 -0.1981 -0.4539
 6007SOL     OW29479   0.406   2.865   5.537  0.1492 -0.0387 -0.0466
 6007SOL    HW129480   0.405   2.908   5.451  0.4369 -0.5367 -0.3064
 6007SOL    HW229481   0.428   2.936   5.597 -1.0505  2.6718 -2.8220
 6008SOL     OW29482   1.175   2.000  16.417  0.0393  0.0557  0.1031
 6008SOL    HW129483   1.230   1.964  16.486 -1.4252 -1.9212  0.2461
 6008SOL    HW229484   1.201   2.093  16.414 -1.7570  0.6365  2.4275
 6009SOL     OW29485   3.004   1.331   6.035  0.0812 -0.6362 -0.4154
 6009SOL    HW129486   3.090   1.322   5.993  0.2085 -1.6140  0.0533
 6009SOL    HW229487   3.027   1.417   6.071 -1.3102 -0.0928 -0.8392
 6010SOL     OW29488   0.214   3.387  10.916 -0.5697  0.4168  0.7247
 6010SOL    HW129489   0.237   3.443  10.990 -1.2816  0.1694  1.1359
 6010SOL    HW229490   0.144   3.330  10.949  1.1720 -0.4766  2.8336
 6011SOL     OW29491   1.958   4.065   2.373  0.4412  0.3935 -0.2309
 6011SOL    HW129492   1.874   4.109   2.360 -0.9351 -2.3913 -0.7485
 6011SOL    HW229493   1.926   3.975   2.372 -0.8121  0.8482 -1.1176
 6012SOL     OW29494   1.239   1.594   7.597  0.3975  0.0263 -0.3700
 6012SOL    HW129495   1.278   1.544   7.525 -1.1154 -0.6804 -0.6966
 6012SOL    HW229496   1.321   1.620   7.638  0.7585 -1.3398 -0.2459
 6013SOL     OW29497   2.462   3.222   8.518  0.5927 -0.0883  0.2694
 6013SOL    HW129498   2.467   3.318   8.518 -0.1692 -0.0430  0.3707
 6013SOL    HW229499   2.404   3.205   8.592  1.4135  1.1617  1.1998
 6014SOL     OW29500   2.673   3.095   7.040 -0.3178  0.1015  0.6939
 6014SOL    HW129501   2.634   3.008   7.041 -2.3002  0.9979  1.4093
 6014SOL    HW229502   2.725   3.091   7.120 -1.5454  4.2254  1.6784
 6015SOL     OW29503   3.312   3.761   2.123  0.2929 -0.0331 -0.0707
 6015SOL    HW129504   3.269   3.702   2.061 -0.0475  0.1518 -0.0135
 6015SOL    HW229505   3.327   3.840   2.072  1.5762 -0.5663 -0.4999
 6016SOL     OW29506   3.396   1.380   1.267 -0.3135  0.1717 -0.4754
 6016SOL    HW129507   3.304   1.373   1.291 -0.1993 -2.3679 -0.7985
 6016SOL    HW229508   3.390   1.460   1.214 -0.7043  3.3032  4.3316
 6017SOL     OW29509   0.002   0.370   4.732  0.0608  0.0610  0.3707
 6017SOL    HW129510   0.058   0.296   4.708 -1.5167 -0.9698 -0.1272
 6017SOL    HW229511   0.050   0.409   4.805  0.9215 -0.3616  0.0287
 6018SOL     OW29512   1.411   0.872   5.663 -0.4452 -0.3657 -0.2476
 6018SOL    HW129513   1.468   0.885   5.587 -1.3489  2.1677 -0.4993
 6018SOL    HW229514   1.461   0.805   5.708  0.3170 -1.9292 -3.3949
 6019SOL     OW29515   4.092   3.243   4.877  0.2400 -0.0039  0.5762
 6019SOL    HW129516   4.121   3.328   4.843 -1.3159 -0.4090 -1.7360
 6019SOL    HW229517   4.006   3.233   4.837 -1.2142 -0.1214  3.6872
 6020SOL     OW29518   4.018   4.317   9.296 -0.4143 -0.2813  0.5570
 6020SOL    HW129519   3.996   4.406   9.268  0.0799 -0.3060  0.0935
 6020SOL    HW229520   3.998   4.271   9.215  0.3518 -1.6611  1.1573
 6021SOL     OW29521   2.505   0.397   7.421 -0.5297  0.1152  0.4065
 6021SOL    HW129522   2.537   0.341   7.492 -2.1392  0.1654  1.1555
 6021SOL    HW229523   2.558   0.475   7.438 -1.4711  0.8881 -0.2687
 6022SOL     OW29524   4.273   1.030  16.151 -0.3078  0.0462  0.5805
 6022SOL    HW129525   4.207   0.999  16.089  1.3353 -0.8682 -0.7139
 6022SOL    HW229526   4.222   1.011  16.229 -0.2069 -1.3246  0.3062
 6023SOL     OW29527   1.266   1.873  10.171  0.2397  0.1966 -0.0452
 6023SOL    HW129528   1.216   1.814  10.227  0.1619  0.5723  0.2841
 6023SOL    HW229529   1.199   1.866  10.103  1.5035  0.1622 -1.2814
 6024SOL     OW29530   2.746   1.034   2.400  0.5133 -0.1651  0.7716
 6024SOL    HW129531   2.696   0.993   2.471 -0.1907 -2.5384 -1.1060
 6024SOL    HW229532   2.664   1.081   2.386 -0.3602 -2.0426 -0.4252
 6025SOL     OW29533   4.662   3.974  12.669 -0.4488 -0.5138  0.7658
 6025SOL    HW129534   4.703   4.019  12.595 -1.3883 -1.0848 -0.1086
 6025SOL    HW229535   0.005   3.963  12.738  0.0651 -1.0312  0.2128
 6026SOL     OW29536   1.142   0.408  16.913 -0.0370  0.7093 -0.0771
 6026SOL    HW129537   1.176   0.345  16.978 -0.2201  2.6123  1.8694
 6026SOL    HW229538   1.201   0.386  16.841  1.3967  1.9393  0.6951
 6027SOL     OW29539   0.658   3.141   5.779  0.0851 -0.2187 -0.4440
 6027SOL    HW129540   0.684   3.155   5.689 -0.6013 -2.2135 -0.9670
 6027SOL    HW229541   0.723   3.186   5.834  0.0094 -0.1409 -0.4177
 6028SOL     OW29542   2.760   1.924   8.185  0.1381  0.0033  0.5612
 6028SOL    HW129543   2.729   1.914   8.095  0.1788  3.1848  0.2202
 6028SOL    HW229544   2.813   1.846   8.201  1.0912  0.5884  0.2138
 6029SOL     OW29545   4.316   2.329   2.974  0.1862 -0.4330 -0.2518
 6029SOL    HW129546   4.383   2.396   2.990  0.0037 -0.3650  0.2315
 6029SOL    HW229547   4.338   2.295   2.888 -1.5691 -0.5610 -0.6459
 6030SOL     OW29548   1.668   0.582   3.906  0.1297  0.3580  0.1148
 6030SOL    HW129549   1.583   0.563   3.866  0.6903  0.0895 -0.9632
 6030SOL    HW229550   1.721   0.510   3.871  0.0707  0.6492 -0.5728
 6031SOL     OW29551   3.607   1.690   8.455  0.2482 -0.0015  0.1695
 6031SOL    HW129552   3.604   1.709   8.361 -0.7174 -1.8773 -0.1801
 6031SOL    HW229553   3.561   1.606   8.454  0.5820 -0.1872  0.3886
 6032SOL     OW29554   0.913   2.014   5.283  0.2467  0.6600 -0.2042
 6032SOL    HW129555   0.913   2.090   5.224  0.5296  1.2308  0.5229
 6032SOL    HW229556   1.007   2.018   5.301  0.0356 -2.2564  1.4613
 6033SOL     OW29557   3.721   4.083   7.803  0.1559  0.0058  0.3606
 6033SOL    HW129558   3.752   4.142   7.734 -2.7990 -0.5974 -1.4459
 6033SOL    HW229559   3.728   4.125   7.888  1.9128  0.1738  0.1524
 6034SOL     OW29560   0.999   4.154   3.219  0.1558  0.2433 -0.2575
 6034SOL    HW129561   0.987   4.094   3.292  0.5378  1.2588  0.6460
 6034SOL    HW229562   1.058   4.092   3.176  0.3413 -1.5352  2.6199
 6035SOL     OW29563   4.467   4.080   6.901  0.3650  0.1754 -0.1779
 6035SOL    HW129564   4.528   4.029   6.955 -0.8494  1.2183  2.1298
 6035SOL    HW229565   4.387   4.069   6.952  1.0824 -1.3189  0.6315
 6036SOL     OW29566   4.568   4.464   3.612  0.2236 -0.2028 -0.2011
 6036SOL    HW129567   4.523   4.381   3.594 -1.7943  1.2225 -1.7395
 6036SOL    HW229568   4.537   4.512   3.535 -0.3395 -1.9680 -1.0705
 6037SOL     OW29569   1.885   3.156   3.173  0.7065 -0.4608  0.2936
 6037SOL    HW129570   1.815   3.138   3.236  0.4155 -1.5341 -0.3351
 6037SOL    HW229571   1.903   3.250   3.177 -0.9672 -0.0568 -1.8591
 6038SOL     OW29572   4.574   3.130   4.381 -0.0328  0.1859 -0.5814
 6038SOL    HW129573   4.596   3.091   4.296 -3.1164 -0.8657 -0.8776
 6038SOL    HW229574   4.482   3.104   4.386  0.1716 -0.2651  0.7468
 6039SOL     OW29575   1.793   2.854   1.481 -0.1723 -0.3602  0.1917
 6039SOL    HW129576   1.720   2.907   1.512 -0.0308  0.1491 -0.3493
 6039SOL    HW229577   1.823   2.894   1.399  0.1396  1.3389  1.1370
 6040SOL     OW29578   2.206   2.661   6.018  0.2001 -0.3489  0.1793
 6040SOL    HW129579   2.152   2.730   6.058 -0.2897 -0.1468 -0.8200
 6040SOL    HW229580   2.171   2.661   5.929 -1.1622  0.7231  0.7152
 6041SOL     OW29581   0.672   0.797   5.456  0.1982  0.6182 -0.4230
 6041SOL    HW129582   0.684   0.862   5.525  0.9353  0.3001 -0.2537
 6041SOL    HW229583   0.686   0.847   5.375 -1.7288  2.9701  0.6993
 6042SOL     OW29584   1.590   2.130   4.283 -0.3954 -0.6643  0.0826
 6042SOL    HW129585   1.574   2.222   4.261  0.4294 -0.6915 -0.6623
 6042SOL    HW229586   1.681   2.122   4.253 -0.4121 -2.1377  0.4353
 6043SOL     OW29587   2.599   0.540   3.027 -0.4731 -0.5312  0.3226
 6043SOL    HW129588   2.601   0.635   3.021  1.0017 -0.5428  0.6552
 6043SOL    HW229589   2.539   0.525   3.100  0.3706  0.5761  1.2439
 6044SOL     OW29590   2.204   0.626  12.895  0.0637  0.0924 -0.1959
 6044SOL    HW129591   2.136   0.574  12.852 -0.0913  0.6094 -0.5799
 6044SOL    HW229592   2.258   0.551  12.920 -2.0176 -1.3422 -0.0747
 6045SOL     OW29593   3.591   3.632   6.738  0.0494  0.0586 -0.5409
 6045SOL    HW129594   3.652   3.699   6.769 -1.2078  1.0547 -0.2121
 6045SOL    HW229595   3.645   3.555   6.723 -1.7787 -1.3282  0.0530
 6046SOL     OW29596   3.309   4.066   1.464 -0.1351  0.1911  0.0698
 6046SOL    HW129597   3.239   4.079   1.400 -0.7132  0.6256  0.8077
 6046SOL    HW229598   3.277   3.981   1.496  1.6054 -1.2525 -1.9488
 6047SOL     OW29599   3.250   3.383   6.615 -0.2507 -0.1475  0.3194
 6047SOL    HW129600   3.265   3.475   6.635 -1.1438 -0.2383  1.4464
 6047SOL    HW229601   3.156   3.370   6.631 -0.8276  1.8445 -1.5743
 6048SOL     OW29602   3.221   2.111   0.372  0.3437  0.1369 -0.2511
 6048SOL    HW129603   3.294   2.062   0.335 -0.4466 -1.4901  0.3508
 6048SOL    HW229604   3.219   2.067   0.456  0.1944  0.9722  0.1868
 6049SOL     OW29605   1.795   3.044   4.446  0.0975  0.0981 -0.6614
 6049SOL    HW129606   1.833   2.996   4.519  1.2535  2.0264  0.0235
 6049SOL    HW229607   1.844   3.009   4.372  0.4011  0.3888 -0.5995
 6050SOL     OW29608   2.654   3.292  17.597  0.3812  0.1634  0.2341
 6050SOL    HW129609   2.744   3.307  17.627  0.8564 -1.8539 -0.2256
 6050SOL    HW229610   2.669   3.209  17.552  0.4326  0.3360 -0.0662
 6051SOL     OW29611   1.510   1.585   6.300  0.1344 -0.2716 -0.5470
 6051SOL    HW129612   1.447   1.517   6.276  1.9766 -2.4456  0.7569
 6051SOL    HW229613   1.452   1.661   6.288  0.2426  0.1303  1.5718
 6052SOL     OW29614   0.773   3.989   2.830 -0.1769 -0.1024 -0.1885
 6052SOL    HW129615   0.852   3.973   2.883  0.7108 -1.7250 -2.0177
 6052SOL    HW229616   0.802   3.937   2.755 -2.0380 -1.6923  0.1920
 6053SOL     OW29617   0.846   2.567  13.979  0.1078  0.2484  0.3320
 6053SOL    HW129618   0.896   2.596  14.055 -1.6108  2.3588  0.6337
 6053SOL    HW229619   0.898   2.608  13.910  0.0955  0.5955  0.5347
 6054SOL     OW29620   0.722   1.343   9.619  0.0929  0.4376 -0.2986
 6054SOL    HW129621   0.710   1.386   9.703  1.4757 -3.1035  1.6772
 6054SOL    HW229622   0.736   1.251   9.639 -2.5384  0.9299  3.7797
 6055SOL     OW29623   1.325   1.681   1.630  0.1608  0.1831 -0.1713
 6055SOL    HW129624   1.412   1.692   1.592  0.4379  1.4758  0.8185
 6055SOL    HW229625   1.323   1.586   1.619  2.4970  0.1411 -0.2215
 6056SOL     OW29626   3.734   3.810   2.029 -0.0325 -0.3024  0.1842
 6056SOL    HW129627   3.813   3.829   2.080  0.3290  0.2246 -0.5761
 6056SOL    HW229628   3.668   3.822   2.098 -1.5971  2.7810 -1.8495
 6057SOL     OW29629   1.063   2.221   7.562 -0.2404 -0.1597  0.7045
 6057SOL    HW129630   1.155   2.244   7.552  0.1963 -2.5288 -0.7735
 6057SOL    HW229631   1.056   2.161   7.487  0.9508 -1.0260  1.3018
 6058SOL     OW29632   0.864   1.918  17.392  0.0083 -0.2328  0.2161
 6058SOL    HW129633   0.915   1.863  17.333  0.1006  0.3568 -0.2584
 6058SOL    HW229634   0.807   1.962  17.328 -0.6839 -3.0274 -1.0764
 6059SOL     OW29635   3.121   2.270   6.255 -0.9610  0.3846 -0.4719
 6059SOL    HW129636   3.100   2.355   6.215 -0.4593  1.6890  2.0167
 6059SOL    HW229637   3.195   2.245   6.200  0.0641  0.9555  0.6719
 6060SOL     OW29638   1.743   1.431   8.582  0.3436 -0.1815 -0.0512
 6060SOL    HW129639   1.673   1.403   8.641  0.1985  1.7561  0.6926
 6060SOL    HW229640   1.787   1.346   8.585  1.0687  0.1526 -1.3421
 6061SOL     OW29641   2.726   4.442   8.048  0.0936 -0.2900 -0.1725
 6061SOL    HW129642   2.683   4.512   7.999  1.9582  0.9286 -0.0597
 6061SOL    HW229643   2.694   4.464   8.135  0.1335  0.2062 -0.2833
 6062SOL     OW29644   4.000   1.028   2.694 -0.1090  0.2508  0.0914
 6062SOL    HW129645   3.929   1.090   2.681  0.2221  0.4383 -0.8101
 6062SOL    HW229646   3.951   0.950   2.720  0.1051  0.5486  1.4052
 6063SOL     OW29647   3.257   3.264   4.652 -0.3632 -0.6308  0.6171
 6063SOL    HW129648   3.291   3.352   4.665  0.7086 -1.1429  1.1968
 6063SOL    HW229649   3.209   3.241   4.731  1.1960  1.0294  2.0381
 6064SOL     OW29650   4.539   0.010   2.724  0.5478 -0.6033 -0.4562
 6064SOL    HW129651   4.612   0.066   2.752 -0.3862 -0.5681  1.8687
 6064SOL    HW229652   4.494   0.079   2.675 -0.6757 -1.4353 -0.5091
 6065SOL     OW29653   3.949   1.549   8.383 -0.0922  0.1079 -0.1154
 6065SOL    HW129654   3.890   1.623   8.400  2.1962  2.1332 -1.0316
 6065SOL    HW229655   4.028   1.593   8.352  0.2604 -0.2384  0.3055
 6066SOL     OW29656   2.589   3.135   4.183 -0.4526 -0.2461  0.0153
 6066SOL    HW129657   2.651   3.172   4.245  0.8743  1.8647 -2.5422
 6066SOL    HW229658   2.604   3.041   4.191  2.7399  0.3776  1.5786
 6067SOL     OW29659   3.250   1.967   8.509  0.3473  0.5954  0.3671
 6067SOL    HW129660   3.265   1.997   8.599  0.5263 -2.1680  1.2681
 6067SOL    HW229661   3.207   1.885   8.531 -1.6220  0.9064 -2.2632
 6068SOL     OW29662   3.928   3.602   8.426  0.4380  0.1086  0.2982
 6068SOL    HW129663   3.892   3.676   8.474  2.8378  0.1471  2.0561
 6068SOL    HW229664   4.003   3.579   8.482 -0.5171 -0.7689  1.2065
 6069SOL     OW29665   4.396   2.058   4.904 -0.1547  0.0173 -0.5061
 6069SOL    HW129666   4.485   2.091   4.907 -0.9816  2.0606  1.3311
 6069SOL    HW229667   4.373   2.060   4.811  0.2018  1.8192 -0.5562
 6070SOL     OW29668   1.540   1.725   8.763 -0.1302 -0.2904 -0.0559
 6070SOL    HW129669   1.597   1.679   8.826  1.1306  0.1089 -0.9053
 6070SOL    HW229670   1.609   1.787   8.739  0.3751 -0.8175  0.0354
 6071SOL     OW29671   2.294   0.543  14.443  0.3001 -0.1445 -0.0397
 6071SOL    HW129672   2.264   0.535  14.352 -0.9420  0.4570  0.3141
 6071SOL    HW229673   2.236   0.608  14.481  0.5299 -0.7051  1.2586
 6072SOL     OW29674   3.233   2.769  12.197  1.1744 -0.1491 -0.1278
 6072SOL    HW129675   3.173   2.747  12.126 -0.5804 -0.4496  1.4575
 6072SOL    HW229676   3.236   2.862  12.176  0.1261 -0.6801 -2.6800
 6073SOL     OW29677   1.017   2.967   2.877  0.0741 -0.2303 -0.2416
 6073SOL    HW129678   1.082   2.985   2.945 -1.5443  2.4035  0.6197
 6073SOL    HW229679   1.048   3.017   2.802 -1.0309 -0.1784 -0.6622
 6074SOL     OW29680   2.804   2.708   9.062 -0.2560  0.0407  0.0960
 6074SOL    HW129681   2.800   2.669   8.975  0.5072 -1.4311  0.7167
 6074SOL    HW229682   2.799   2.628   9.115  0.6437 -0.0557  0.0274
 6075SOL     OW29683   3.745   0.364   7.924  0.7725  0.1211  0.1786
 6075SOL    HW129684   3.818   0.307   7.944 -0.2655 -0.7029  1.6414
 6075SOL    HW229685   3.713   0.378   8.013 -0.0892 -3.2809  0.4097
 6076SOL     OW29686   4.354   0.057   2.308  0.3047 -0.1458  0.3280
 6076SOL    HW129687   4.308   4.697   2.295 -0.3165  0.4098 -1.0483
 6076SOL    HW229688   4.289   0.108   2.258  0.3903 -1.3616 -1.0279
 6077SOL     OW29689   0.393   0.810   3.322  0.2275 -0.6335 -0.7555
 6077SOL    HW129690   0.400   0.795   3.227 -0.0954  1.9142 -1.1868
 6077SOL    HW229691   0.408   0.904   3.332 -2.7143 -0.5277  2.3141
 6078SOL     OW29692   2.157   1.531   7.040  0.0799  0.1988 -0.0607
 6078SOL    HW129693   2.208   1.464   7.086 -1.3942 -0.1975  0.9937
 6078SOL    HW229694   2.186   1.608   7.089  0.2042  0.9342 -1.2900
 6079SOL     OW29695   2.655   1.864   7.345 -0.4347  0.0791  0.1246
 6079SOL    HW129696   2.710   1.851   7.422  0.3190 -0.2672 -0.4741
 6079SOL    HW229697   2.598   1.787   7.342 -2.8680  1.9336 -1.0734
 6080SOL     OW29698   1.953   2.493   1.691  0.3997  0.1977  0.0480
 6080SOL    HW129699   1.890   2.465   1.757  0.8283  1.3743  0.9570
 6080SOL    HW229700   1.937   2.421   1.631  2.7745  1.1645 -1.7245
 6081SOL     OW29701   3.650   3.717  14.360  0.1361  0.6606  0.6025
 6081SOL    HW129702   3.628   3.645  14.301  3.7276  0.3308 -0.3495
 6081SOL    HW229703   3.560   3.743  14.378 -0.2016 -0.2068  0.1361
 6082SOL     OW29704   1.307   3.313   6.071  0.0644  0.0470  0.1825
 6082SOL    HW129705   1.305   3.407   6.089 -0.8332  0.2347 -0.8981
 6082SOL    HW229706   1.275   3.277   6.154  1.2686 -2.5085 -0.4457
 6083SOL     OW29707   2.973   3.972   3.355 -0.3447  0.3369 -0.0046
 6083SOL    HW129708   2.882   3.995   3.339 -0.2719 -0.6667 -1.8499
 6083SOL    HW229709   2.963   3.888   3.401 -0.4247 -0.0187 -0.6654
 6084SOL     OW29710   3.182   3.962   0.766  0.2424  0.2554  0.5356
 6084SOL    HW129711   3.242   3.947   0.692 -1.8458  0.0892 -1.1189
 6084SOL    HW229712   3.133   3.880   0.772  0.9299 -0.1511  0.5922
 6085SOL     OW29713   1.765   2.394  13.998 -0.3605 -0.6160  0.2282
 6085SOL    HW129714   1.817   2.434  13.928  0.0576  1.1607  1.5675
 6085SOL    HW229715   1.828   2.400  14.069  2.5212 -1.4402 -2.2846
 6086SOL     OW29716   0.351   2.569   3.002  0.2768  0.2496 -0.5018
 6086SOL    HW129717   0.374   2.478   2.980  3.4719  0.7189  0.9206
 6086SOL    HW229718   0.335   2.552   3.095  1.2732 -2.4026 -0.8087
 6087SOL     OW29719   2.843   0.627   7.730 -1.0769  0.0826 -0.2732
 6087SOL    HW129720   2.862   0.551   7.786 -1.6531  1.0445  1.2238
 6087SOL    HW229721   2.858   0.688   7.802  2.9432 -0.6096 -0.5136
 6088SOL     OW29722   2.656   1.844  10.589 -0.6084 -0.7468  0.7262
 6088SOL    HW129723   2.627   1.878  10.504  0.5893  0.8585  0.9553
 6088SOL    HW229724   2.571   1.820  10.627 -0.4119 -2.7118 -0.1293
 6089SOL     OW29725   0.857   3.190   5.129 -0.3372  0.2201  0.6396
 6089SOL    HW129726   0.775   3.221   5.169 -0.4288 -0.3968  0.9327
 6089SOL    HW229727   0.918   3.263   5.139 -2.1397  1.6577  1.2224
 6090SOL     OW29728   0.033   3.976   7.733 -0.0817  0.0288 -0.4551
 6090SOL    HW129729   0.100   4.022   7.784  0.7855  0.9808 -2.4465
 6090SOL    HW229730   4.672   4.019   7.750 -0.0220 -1.5747  3.8742
 6091SOL     OW29731   0.088   3.110   5.855 -0.4696 -0.0018 -0.2145
 6091SOL    HW129732   0.096   3.140   5.764  1.3861 -0.0384 -0.0499
 6091SOL    HW229733   0.012   3.157   5.890  1.3165  1.7198  1.3859
 6092SOL     OW29734   1.100   2.957  14.177  0.2847  0.2250  0.1188
 6092SOL    HW129735   1.100   3.049  14.150 -3.1745 -0.0961 -0.9275
 6092SOL    HW229736   1.038   2.960  14.250 -0.1906 -2.6969 -0.1927
 6093SOL     OW29737   1.045   1.934   4.138  0.4601 -0.0830  0.3122
 6093SOL    HW129738   1.099   1.861   4.169 -0.5102  0.2353  2.7618
 6093SOL    HW229739   1.112   1.996   4.109  0.3422 -0.1588 -0.1166
 6094SOL     OW29740   1.698   1.980  17.039 -0.3412  0.0025  0.3914
 6094SOL    HW129741   1.694   2.013  17.129  1.6829  2.0783 -0.2868
 6094SOL    HW229742   1.725   1.889  17.044  0.5754  0.3803  2.6267
 6095SOL     OW29743   0.640   2.180   7.910 -0.0068  0.2424  0.3447
 6095SOL    HW129744   0.566   2.147   7.860  0.7417 -1.7126  0.5468
 6095SOL    HW229745   0.593   2.251   7.954  0.0414  0.4215  0.1105
 6096SOL     OW29746   2.777   1.980   0.053  0.7921  0.5674 -0.1575
 6096SOL    HW129747   2.810   2.003  17.658 -0.7360  1.0821 -0.5991
 6096SOL    HW229748   2.694   2.027   0.054 -0.2069 -1.1928 -0.6348
 6097SOL     OW29749   1.227   1.615  11.262 -0.3105 -0.1970  0.1009
 6097SOL    HW129750   1.171   1.559  11.316  0.8349 -0.7686  0.6906
 6097SOL    HW229751   1.269   1.656  11.338  1.1206 -0.0318 -0.7892
 6098SOL     OW29752   2.670   2.640   2.382  0.0447 -0.0067  0.4727
 6098SOL    HW129753   2.589   2.615   2.336 -0.9538  1.7743  1.2777
 6098SOL    HW229754   2.736   2.613   2.317  0.0211 -0.7273  0.7502
 6099SOL     OW29755   1.964   1.697  13.831  0.4550 -0.0154 -0.2960
 6099SOL    HW129756   1.975   1.622  13.889 -0.1177  0.7975  0.8594
 6099SOL    HW229757   1.992   1.768  13.888  1.8905 -0.1302 -0.8423
 6100SOL     OW29758   3.987   1.120   2.077 -0.2259 -0.7056 -0.0435
 6100SOL    HW129759   3.933   1.068   2.018 -0.6510 -2.6513  2.0315
 6100SOL    HW229760   3.964   1.068   2.154 -0.8076  1.1498  1.0259
 6101SOL     OW29761   3.011   3.954   1.853  0.1591  0.7583 -0.6751
 6101SOL    HW129762   3.102   3.980   1.869  0.8194 -2.2971  0.5118
 6101SOL    HW229763   2.999   3.947   1.947 -2.7837  4.5279 -0.7699
 6102SOL     OW29764   3.536   2.736   3.840  0.5506  0.7474 -0.2107
 6102SOL    HW129765   3.625   2.728   3.806  1.1080  0.1885  1.3782
 6102SOL    HW229766   3.556   2.775   3.924  0.1990  2.8104 -1.0937
 6103SOL     OW29767   1.143   2.455  14.065  0.0316 -0.1282  0.1800
 6103SOL    HW129768   1.122   2.399  13.990  1.7043 -2.4429  1.4749
 6103SOL    HW229769   1.107   2.408  14.139  0.3601 -1.9790 -0.8301
 6104SOL     OW29770   0.714   4.547  13.301  0.4970  0.1161 -0.4961
 6104SOL    HW129771   0.725   4.586  13.388  2.6425  1.7997 -1.5162
 6104SOL    HW229772   0.636   4.492  13.313  1.1206 -0.3533  1.5463
 6105SOL     OW29773   1.170   0.150   8.797  0.4044 -0.3420  0.9207
 6105SOL    HW129774   1.190   0.190   8.712 -0.2050  1.4104  1.6210
 6105SOL    HW229775   1.075   0.140   8.783  0.5430  0.3360 -0.5523
 6106SOL     OW29776   3.005   0.735   6.360  0.1495 -0.5262  0.1647
 6106SOL    HW129777   3.083   0.684   6.339  0.9265  0.3197  1.0098
 6106SOL    HW229778   3.039   0.824   6.362  0.5697 -0.6405 -2.9964
 6107SOL     OW29779   4.382   4.259   0.592  0.3113 -0.4988  0.0294
 6107SOL    HW129780   4.450   4.307   0.546  0.7534  0.8595  2.0933
 6107SOL    HW229781   4.339   4.214   0.519 -1.3895  2.1338 -0.5892
 6108SOL     OW29782   3.414   3.228  10.560 -0.3002 -0.9267 -0.2836
 6108SOL    HW129783   3.456   3.146  10.531 -2.3306 -2.4119  0.9503
 6108SOL    HW229784   3.443   3.290  10.493  2.4869 -1.0746  0.8006
 6109SOL     OW29785   2.772   0.644   6.421  0.3108 -0.6464 -0.2874
 6109SOL    HW129786   2.818   0.598   6.491  0.9938 -0.4234 -0.5936
 6109SOL    HW229787   2.845   0.695   6.386  0.4675  0.1360  1.2119
 6110SOL     OW29788   0.596   4.364   9.254  0.4127  0.2721 -0.3693
 6110SOL    HW129789   0.637   4.429   9.310  1.0196 -0.4986  0.0713
 6110SOL    HW229790   0.537   4.322   9.317  0.7370 -2.1469 -1.6633
 6111SOL     OW29791   0.142   2.792   5.312  0.1453 -0.3760  0.3632
 6111SOL    HW129792   0.222   2.827   5.271  0.4361 -0.9660  0.4350
 6111SOL    HW229793   0.122   2.726   5.246  2.0650 -0.3057 -0.3025
 6112SOL     OW29794   0.410   2.461   5.964 -0.0338  0.2310  0.3421
 6112SOL    HW129795   0.441   2.533   5.909 -1.1571 -0.5090 -1.2701
 6112SOL    HW229796   0.314   2.464   5.960  0.0209  0.2973 -1.1415
 6113SOL     OW29797   0.488   4.594  13.585  0.4740 -0.0132  0.1841
 6113SOL    HW129798   0.428   4.528  13.619 -1.2457  0.6003 -1.6581
 6113SOL    HW229799   0.425   4.642  13.530 -1.0774 -1.0996  1.0087
 6114SOL     OW29800   3.560   0.454   2.199  0.0763  0.4404 -0.3411
 6114SOL    HW129801   3.646   0.451   2.242 -0.4102 -0.6263  0.5409
 6114SOL    HW229802   3.508   0.522   2.242 -0.8561 -0.7756  0.4622
 6115SOL     OW29803   3.357   1.215  11.620 -0.2821  0.1831  0.3769
 6115SOL    HW129804   3.355   1.153  11.547  0.8048  1.3165 -0.6103
 6115SOL    HW229805   3.263   1.231  11.622 -0.3045  0.1596 -1.2254
 6116SOL     OW29806   2.795   0.062   6.043  0.2209  0.7466  0.0966
 6116SOL    HW129807   2.766   0.066   5.951  0.9869 -0.9606 -0.2290
 6116SOL    HW229808   2.720   0.088   6.096  0.6703  2.7914 -0.2776
 6117SOL     OW29809   4.493   0.586   9.364  0.3488 -0.0763 -0.5499
 6117SOL    HW129810   4.549   0.513   9.392  0.5897  0.6800  0.9250
 6117SOL    HW229811   4.513   0.642   9.439  0.4569  0.6965 -1.1533
 6118SOL     OW29812   0.240   0.946   6.132  0.1541  0.3212 -0.1137
 6118SOL    HW129813   0.179   0.905   6.070 -0.2277  0.3002  0.2792
 6118SOL    HW229814   0.192   1.019   6.170 -1.1875 -0.6769  0.1325
 6119SOL     OW29815   4.450   4.131   4.588  0.5250  0.4428  0.2506
 6119SOL    HW129816   4.383   4.197   4.606 -0.5541  0.0283 -2.2455
 6119SOL    HW229817   4.419   4.094   4.505  5.0869  1.4918 -1.9276
 6120SOL     OW29818   0.818   3.092   6.619 -0.1426  0.1204 -0.7988
 6120SOL    HW129819   0.828   3.171   6.566  2.2375  0.1045 -0.3967
 6120SOL    HW229820   0.750   3.047   6.571 -1.7514 -0.4492  2.0137
 6121SOL     OW29821   2.950   4.050   3.099 -0.9503  0.6135  0.1768
 6121SOL    HW129822   2.934   3.956   3.092  2.3133  0.0211  0.8494
 6121SOL    HW229823   2.993   4.056   3.185  0.5434 -0.2918 -0.5035
 6122SOL     OW29824   3.351   1.753   7.175  0.1990  0.1483  0.3559
 6122SOL    HW129825   3.432   1.705   7.192  0.8299  0.9699 -0.3328
 6122SOL    HW229826   3.386   1.822   7.119  0.3662 -0.5113 -0.3437
 6123SOL     OW29827   1.740   0.782   2.474  0.0084 -0.2195 -0.3840
 6123SOL    HW129828   1.651   0.815   2.469 -0.7531 -2.3370 -0.9076
 6123SOL    HW229829   1.783   0.858   2.436 -0.7305 -0.4727 -1.7212
 6124SOL     OW29830   0.085   3.020  12.253  0.3649 -0.1971 -0.1113
 6124SOL    HW129831   4.718   3.034  12.223  0.3655  0.9524  0.4207
 6124SOL    HW229832   0.073   2.928  12.278  0.9365 -0.2920 -0.1745
 6125SOL     OW29833   1.320   3.750   7.520  0.6408 -0.2260  0.3857
 6125SOL    HW129834   1.309   3.829   7.466  0.7766  0.3407  1.1906
 6125SOL    HW229835   1.403   3.717   7.485  0.0037 -1.0419 -0.3412
 6126SOL     OW29836   2.961   0.104   5.538  0.2481  0.5443 -0.1636
 6126SOL    HW129837   2.936   0.039   5.603 -1.6576  0.6474 -0.7706
 6126SOL    HW229838   2.958   0.052   5.458  1.5363  2.5242 -1.4942
 6127SOL     OW29839   4.158   3.604   6.710  0.2118  0.1978  0.1005
 6127SOL    HW129840   4.121   3.537   6.767  1.2164 -1.3087 -1.0119
 6127SOL    HW229841   4.087   3.619   6.648  0.6584 -1.3496 -0.7753
 6128SOL     OW29842   2.900   1.202   1.950  0.1592  0.4761  0.1425
 6128SOL    HW129843   2.860   1.138   2.008  2.0271 -0.1092  0.7868
 6128SOL    HW229844   2.903   1.150   1.870  1.2968 -0.0901  0.5580
 6129SOL     OW29845   0.370   4.282  16.904 -0.4677  0.0980 -0.5087
 6129SOL    HW129846   0.461   4.312  16.903 -1.5545  3.4744 -0.4155
 6129SOL    HW229847   0.387   4.188  16.904 -1.0650 -0.0079 -1.2389
 6130SOL     OW29848   3.177   1.796  17.439  0.1051 -0.0133 -0.2105
 6130SOL    HW129849   3.176   1.749  17.522  0.8168 -1.5462 -1.0659
 6130SOL    HW229850   3.203   1.885  17.462 -0.5313  0.0263  0.3707
 6131SOL     OW29851   3.647   1.781   1.074 -0.3101 -0.1689 -0.3352
 6131SOL    HW129852   3.732   1.747   1.100 -1.1890 -0.9438  1.5020
 6131SOL    HW229853   3.647   1.860   1.128  3.2219 -1.2409  1.2375
 6132SOL     OW29854   3.944   0.282   9.822  0.3354 -0.0690  0.1282
 6132SOL    HW129855   4.039   0.275   9.819  0.2243 -0.9897 -1.0590
 6132SOL    HW229856   3.928   0.372   9.852 -1.8510  0.1374 -1.6688
 6133SOL     OW29857   3.516   0.108   8.350  0.2666 -0.0830 -0.0732
 6133SOL    HW129858   3.476   0.147   8.428  4.0570  3.6568 -0.0261
 6133SOL    HW229859   3.453   0.038   8.333 -2.0090  1.3676  2.3842
 6134SOL     OW29860   0.499   2.234   6.081  0.2440  0.3877  0.2961
 6134SOL    HW129861   0.467   2.321   6.056 -0.8041 -0.1206 -0.1171
 6134SOL    HW229862   0.514   2.261   6.172 -0.1348  0.9682  0.1852
 6135SOL     OW29863   4.146   4.335   0.761  0.2276 -0.0872 -0.3353
 6135SOL    HW129864   4.239   4.355   0.745  0.0950  1.0047  0.3213
 6135SOL    HW229865   4.142   4.330   0.856  1.7508  0.7506 -0.2245
 6136SOL     OW29866   1.334   1.295  10.525  0.1020 -0.0648  0.5888
 6136SOL    HW129867   1.391   1.224  10.496 -0.8631 -0.3191 -0.7016
 6136SOL    HW229868   1.317   1.263  10.614 -2.1413  1.2306  0.6165
 6137SOL     OW29869   1.921   3.302   0.365  0.0369  0.0675  0.0465
 6137SOL    HW129870   1.930   3.220   0.412 -0.7784  0.4967  0.9526
 6137SOL    HW229871   2.006   3.318   0.322  0.7692 -0.7837  1.2019
 6138SOL     OW29872   1.541   3.679   8.041 -0.2409  0.6183 -0.3936
 6138SOL    HW129873   1.560   3.700   7.950 -1.5722 -2.2128 -1.3164
 6138SOL    HW229874   1.525   3.763   8.084  0.7754  1.2129 -1.1933
 6139SOL     OW29875   2.611   0.165  14.517  0.1565  0.6948  0.0287
 6139SOL    HW129876   2.558   0.155  14.438  2.2607  0.4155 -1.3600
 6139SOL    HW229877   2.552   0.219  14.569 -0.9335  0.6242 -1.1334
 6140SOL     OW29878   2.912   1.988  10.555  0.6373 -0.0109 -0.1416
 6140SOL    HW129879   2.830   1.939  10.564 -0.1822  1.6805  1.4643
 6140SOL    HW229880   2.900   2.039  10.475 -0.8937 -0.4379 -0.1870
 6141SOL     OW29881   2.438   2.825   6.593  0.3453 -0.1315  0.2777
 6141SOL    HW129882   2.485   2.746   6.568  0.3907 -0.3416  1.0271
 6141SOL    HW229883   2.413   2.804   6.683 -1.0333  1.4549  0.2669
 6142SOL     OW29884   4.194   4.560   8.837  0.3483  0.3391  0.2467
 6142SOL    HW129885   4.202   4.524   8.925  3.2472 -1.0798 -0.6184
 6142SOL    HW229886   4.257   4.502   8.795 -0.5831 -0.3790 -0.1677
 6143SOL     OW29887   4.191   2.187  15.391  0.5237 -0.4857 -0.2438
 6143SOL    HW129888   4.189   2.269  15.343  1.0762  0.8193  1.9880
 6143SOL    HW229889   4.283   2.164  15.381  0.6396 -0.5820  0.9960
 6144SOL     OW29890   4.636   2.145   7.753 -0.7261  0.3400  0.1206
 6144SOL    HW129891   4.574   2.218   7.761 -0.7798  0.2756  0.2832
 6144SOL    HW229892   4.696   2.159   7.826  0.0652 -3.6948  0.2354
 6145SOL     OW29893   1.774   2.910   2.162 -0.5987 -0.0646  0.3114
 6145SOL    HW129894   1.822   2.859   2.227  0.0904 -2.7812 -2.3209
 6145SOL    HW229895   1.832   2.896   2.087  0.4084 -2.6881  1.5615
 6146SOL     OW29896   1.329   3.277   3.423 -0.0644 -0.0559 -0.3932
 6146SOL    HW129897   1.279   3.238   3.494 -0.8052  1.5698 -0.0305
 6146SOL    HW229898   1.372   3.343   3.478 -1.0796  0.3481 -0.0750
 6147SOL     OW29899   2.823   4.252   7.855 -0.1648  0.7927  0.3861
 6147SOL    HW129900   2.864   4.314   7.795  1.8596  0.2073  1.1554
 6147SOL    HW229901   2.782   4.308   7.920 -1.8183 -0.9523  0.8673
 6148SOL     OW29902   2.426   1.989   1.388  0.0221 -0.2508  0.7465
 6148SOL    HW129903   2.505   1.957   1.345 -0.7566 -2.3812  0.8611
 6148SOL    HW229904   2.443   2.083   1.381  1.1510 -0.5591 -0.6916
 6149SOL     OW29905   2.576   4.077  10.729 -0.5255  0.0561  0.0454
 6149SOL    HW129906   2.549   4.005  10.786  2.8495 -2.8581 -2.0614
 6149SOL    HW229907   2.665   4.105  10.751 -1.1534  1.6723  0.5549
 6150SOL     OW29908   2.399   4.036   0.761 -0.3218  0.0540  0.4281
 6150SOL    HW129909   2.399   4.053   0.855  0.4555 -1.4159  0.6873
 6150SOL    HW229910   2.369   4.120   0.725  1.9903 -0.3529 -2.3729
 6151SOL     OW29911   3.895   2.368   5.674 -0.2293 -0.3465 -0.0258
 6151SOL    HW129912   3.922   2.459   5.662  2.7765 -1.4123 -1.1488
 6151SOL    HW229913   3.799   2.373   5.683 -0.0338  0.0232  1.8713
 6152SOL     OW29914   3.471   3.140  10.813  0.7138  0.0908  0.2352
 6152SOL    HW129915   3.387   3.181  10.835 -0.2224 -0.1046 -2.9435
 6152SOL    HW229916   3.470   3.161  10.720 -2.3617  0.4201  0.3225
 6153SOL     OW29917   4.188   2.953   7.620  0.5955 -0.4577  0.4946
 6153SOL    HW129918   4.148   2.872   7.651 -0.6673 -0.8893 -2.2827
 6153SOL    HW229919   4.111   3.010   7.612  0.6717 -0.0477  2.8168
 6154SOL     OW29920   1.914   3.007  12.503  0.2698 -0.0600  0.7457
 6154SOL    HW129921   1.839   3.033  12.449  0.2333 -0.0178  0.8165
 6154SOL    HW229922   1.937   3.094  12.538  2.2150 -0.4887  0.5074
 6155SOL     OW29923   3.102   0.649   8.549 -0.6943  0.4328 -0.1158
 6155SOL    HW129924   3.067   0.738   8.538  0.3429  0.5759 -2.1268
 6155SOL    HW229925   3.184   0.662   8.502 -0.2287  2.1363  1.1257
 6156SOL     OW29926   2.009   3.638  13.294 -0.0447 -0.4215  0.0561
 6156SOL    HW129927   2.063   3.702  13.248 -0.6409 -0.9101 -1.3078
 6156SOL    HW229928   1.929   3.690  13.306  1.8782  2.2751  1.4907
 6157SOL     OW29929   1.253   2.853  12.119  0.2312 -0.0389 -0.1345
 6157SOL    HW129930   1.255   2.791  12.192  0.4669  1.3834  1.0520
 6157SOL    HW229931   1.188   2.812  12.062  0.7780 -1.7372  0.4607
 6158SOL     OW29932   3.692   2.450   9.147 -0.4535  0.0628 -0.1598
 6158SOL    HW129933   3.735   2.372   9.110  3.5097  1.1192  2.1737
 6158SOL    HW229934   3.737   2.519   9.097  0.1061  0.7632  1.3240
 6159SOL     OW29935   1.901   2.646   9.720  0.3249  0.3245  0.0280
 6159SOL    HW129936   1.931   2.736   9.721  1.4045 -0.0271 -1.1139
 6159SOL    HW229937   1.849   2.636   9.800 -1.9689 -1.7679 -1.7286
 6160SOL     OW29938   2.101   0.190  15.074  0.4507 -0.3855 -0.4292
 6160SOL    HW129939   2.026   0.131  15.067 -0.0874  0.0714  1.4482
 6160SOL    HW229940   2.078   0.231  15.158 -1.0975  1.4796 -1.7494
 6161SOL     OW29941   1.482   4.491   8.694 -0.1001 -0.1030 -0.5794
 6161SOL    HW129942   1.519   4.405   8.716  0.9147  0.4971  0.0577
 6161SOL    HW229943   1.550   4.527   8.637  0.9002 -0.9217  0.0862
 6162SOL     OW29944   0.982   2.435   6.703 -0.3941 -0.2264 -0.1152
 6162SOL    HW129945   0.960   2.347   6.734 -2.0111 -0.6429 -2.4274
 6162SOL    HW229946   1.077   2.434   6.706 -0.4082 -1.5107  0.1305
 6163SOL     OW29947   3.637   2.297   6.095 -0.2823  0.5091 -0.3426
 6163SOL    HW129948   3.667   2.385   6.073  2.1550 -0.2396 -0.0117
 6163SOL    HW229949   3.694   2.285   6.171 -0.7581  3.3789  0.4513
 6164SOL     OW29950   2.602   2.993   6.746  0.4119  0.3480  0.5153
 6164SOL    HW129951   2.604   3.089   6.747 -2.2017  0.4132 -0.0511
 6164SOL    HW229952   2.539   2.979   6.675 -0.0008  1.0965  0.7350
 6165SOL     OW29953   3.597   1.149   5.515 -0.1347  0.1911 -0.4295
 6165SOL    HW129954   3.536   1.217   5.543 -1.3783 -0.8023 -0.7532
 6165SOL    HW229955   3.650   1.204   5.457 -0.3481 -1.3539 -2.0723
 6166SOL     OW29956   4.368   0.837   3.044 -0.0017  0.4071  0.1453
 6166SOL    HW129957   4.355   0.881   3.128 -0.9570 -0.1356  0.2806
 6166SOL    HW229958   4.391   0.746   3.061  0.2663  0.4267 -0.1095
 6167SOL     OW29959   1.912   3.868   5.182 -0.3972 -0.5139  0.3859
 6167SOL    HW129960   1.993   3.838   5.223 -0.0317 -0.7580 -0.5134
 6167SOL    HW229961   1.960   3.916   5.114  0.0519 -2.1559 -0.4469
 6168SOL     OW29962   1.655   1.476   7.670  0.1698 -0.0274 -0.7222
 6168SOL    HW129963   1.615   1.562   7.678  1.7588  0.7734 -1.3786
 6168SOL    HW229964   1.681   1.455   7.760 -2.6299  1.2899  0.4101
 6169SOL     OW29965   1.234   1.638   2.720  0.6825 -0.6093  0.0658
 6169SOL    HW129966   1.311   1.624   2.664  1.4661  0.1076  0.9755
 6169SOL    HW229967   1.175   1.678   2.655  1.2822  1.1217  0.6006
 6170SOL     OW29968   1.838   0.546   7.364 -0.1155  0.0572  0.6133
 6170SOL    HW129969   1.895   0.602   7.416  0.1478  0.8574 -0.5574
 6170SOL    HW229970   1.782   0.506   7.431 -1.9916  1.1702 -0.2991
 6171SOL     OW29971   2.155   3.773  11.408 -0.1503 -0.0306 -0.0379
 6171SOL    HW129972   2.094   3.722  11.462  1.3142 -1.9762 -0.2487
 6171SOL    HW229973   2.237   3.761  11.455 -0.6384 -0.6645  0.6548
 6172SOL     OW29974   1.293   3.136  16.464  0.1488 -0.2352  0.0821
 6172SOL    HW129975   1.342   3.055  16.478  0.0131 -0.6595 -1.9578
 6172SOL    HW229976   1.368   3.194  16.453  0.0480 -0.1065  0.0699
 6173SOL     OW29977   3.681   0.328   9.707  0.0900  0.0653  0.4605
 6173SOL    HW129978   3.634   0.386   9.767  1.8473 -0.2866  2.1788
 6173SOL    HW229979   3.761   0.297   9.750  1.6787  2.7561 -0.5404
 6174SOL     OW29980   2.910   0.092   4.951 -0.1861 -0.1764 -0.2942
 6174SOL    HW129981   2.947   0.140   5.026  0.9829 -2.1221  0.3631
 6174SOL    HW229982   2.848   0.154   4.913 -0.7755 -1.1696 -0.9395
 6175SOL     OW29983   1.150   1.796   4.937  0.6604 -0.7470  0.2100
 6175SOL    HW129984   1.096   1.735   4.986  0.5950  0.7444  1.9958
 6175SOL    HW229985   1.235   1.758   4.916  1.4867  0.6387  1.0485
 6176SOL     OW29986   3.548   0.123   6.445  0.4976  0.1919 -0.2608
 6176SOL    HW129987   3.495   0.043   6.443  2.4088 -1.1618  2.5500
 6176SOL    HW229988   3.483   0.191   6.429  0.1903 -0.0627 -0.1042
 6177SOL     OW29989   1.246   1.003   3.379 -0.0654  0.1093 -0.3931
 6177SOL    HW129990   1.226   1.090   3.413 -2.5556 -0.8229  0.5657
 6177SOL    HW229991   1.282   0.957   3.455 -0.8557 -0.1279 -0.1584
 6178SOL     OW29992   4.084   2.386   6.641 -0.3560 -0.1377  0.1684
 6178SOL    HW129993   4.058   2.400   6.550 -2.3146 -1.1459  0.5775
 6178SOL    HW229994   4.007   2.341   6.675 -1.4197 -0.0021 -2.0979
 6179SOL     OW29995   3.963   3.535   1.464  0.1704  0.0728 -0.1548
 6179SOL    HW129996   3.998   3.447   1.475 -0.8878 -0.2561  0.5322
 6179SOL    HW229997   4.015   3.557   1.386 -0.2592  2.5425  0.2366
 6180SOL     OW29998   0.768   4.531   2.065  0.9705 -0.6907 -0.4354
 6180SOL    HW129999   0.845   4.573   2.103 -0.4346  1.7362 -0.2893
 6180SOL    HW230000   0.766   4.558   1.974  1.4855 -1.0073 -0.5383
 6181SOL     OW30001   2.673   1.107   8.696 -0.4298  0.2578 -0.5273
 6181SOL    HW130002   2.623   1.121   8.776  1.3314  0.3471  0.5597
 6181SOL    HW230003   2.762   1.096   8.731 -1.3588 -1.0089  1.4556
 6182SOL     OW30004   3.322   4.456  11.540  0.2162 -0.0422  0.2405
 6182SOL    HW130005   3.317   4.535  11.594 -3.1077  0.4385 -0.7332
 6182SOL    HW230006   3.289   4.496  11.459  3.5358  1.9020 -0.1504
 6183SOL     OW30007   4.086   3.597   7.951  0.0743 -0.1516  0.8243
 6183SOL    HW130008   4.116   3.660   8.016  0.5112 -0.2877  0.7573
 6183SOL    HW230009   4.037   3.538   8.008 -0.8279  1.1897  1.4243
 6184SOL     OW30010   1.457   2.671   2.549 -0.7678  0.4885 -0.1047
 6184SOL    HW130011   1.526   2.607   2.567 -0.2402  0.7644 -1.1718
 6184SOL    HW230012   1.504   2.729   2.489  0.1342  0.7532  0.8429
 6185SOL     OW30013   4.689   4.070   2.369  0.2189  0.1214 -0.1573
 6185SOL    HW130014   4.612   4.100   2.418 -0.1392 -2.0333  0.5808
 6185SOL    HW230015   0.034   4.063   2.436 -0.9552 -2.9758  0.7017
 6186SOL     OW30016   4.121   3.777   8.789 -0.4644 -0.8417  0.4270
 6186SOL    HW130017   4.103   3.728   8.708  2.0122 -0.9677 -0.0645
 6186SOL    HW230018   4.207   3.743   8.815  1.2037  3.3208  0.2852
 6187SOL     OW30019   4.168   0.654   9.933  0.1940 -0.6282  0.1278
 6187SOL    HW130020   4.116   0.615  10.004  0.6431  0.9364  1.2997
 6187SOL    HW230021   4.225   0.715   9.978 -1.1449  0.5476  0.2178
 6188SOL     OW30022   3.904   3.704   3.084 -0.3374  0.1184  0.6953
 6188SOL    HW130023   3.975   3.765   3.105 -1.0458  0.7676  1.2057
 6188SOL    HW230024   3.839   3.759   3.041 -0.7492  0.1851  1.3935
 6189SOL     OW30025   4.168   3.147   3.317 -0.3180 -0.2235  0.3752
 6189SOL    HW130026   4.182   3.237   3.348 -1.0692  0.8193 -2.3722
 6189SOL    HW230027   4.249   3.125   3.271  0.1580  1.4816  0.3733
 6190SOL     OW30028   2.451   1.836  10.978 -0.1629  0.0536  0.0158
 6190SOL    HW130029   2.532   1.884  10.963 -0.8557  1.0698 -0.4956
 6190SOL    HW230030   2.479   1.745  10.967 -1.2826 -0.2531 -0.3157
 6191SOL     OW30031   3.927   0.613   2.887  0.0863 -0.1903 -0.3815
 6191SOL    HW130032   3.865   0.641   2.820  2.7933  1.1832 -2.3356
 6191SOL    HW230033   3.982   0.690   2.905  0.6075 -0.3201 -1.4060
 6192SOL     OW30034   3.111   2.220  16.272 -0.1311  0.0039 -0.0923
 6192SOL    HW130035   3.057   2.161  16.325 -1.7790  1.5557 -0.0400
 6192SOL    HW230036   3.147   2.274  16.342  3.0675 -1.3297 -0.6898
 6193SOL     OW30037   3.584   3.240   5.172  0.7253 -0.3569  0.2564
 6193SOL    HW130038   3.635   3.320   5.182  0.4067 -0.0938 -0.2449
 6193SOL    HW230039   3.501   3.287   5.168  0.3608 -1.1120 -0.8588
 6194SOL     OW30040   4.019   2.544   3.111 -0.2707  0.4621  0.0655
 6194SOL    HW130041   4.065   2.627   3.105  1.9463 -0.4866  3.6791
 6194SOL    HW230042   3.997   2.523   3.020  2.7806  2.5392 -1.1435
 6195SOL     OW30043   0.068   1.084   2.967  0.0778  0.5994 -0.2960
 6195SOL    HW130044   0.077   1.088   2.872  1.4591 -1.1741 -0.2502
 6195SOL    HW230045   0.107   1.000   2.994  0.6206 -0.0474 -3.1005
 6196SOL     OW30046   0.265   4.551   5.134 -0.5143  0.8637 -0.1972
 6196SOL    HW130047   0.189   4.514   5.090  0.4292 -1.1018 -0.1637
 6196SOL    HW230048   0.327   4.479   5.126 -0.9999  0.2868  1.1523
 6197SOL     OW30049   1.069   4.250   6.004  0.1919 -0.1435  0.4151
 6197SOL    HW130050   1.110   4.190   5.941 -2.0697 -1.9584  0.6550
 6197SOL    HW230051   1.091   4.334   5.965 -0.3004 -0.3119 -0.2157
 6198SOL     OW30052   2.661   4.457   5.164 -0.0842  0.4424  0.1499
 6198SOL    HW130053   2.662   4.508   5.083 -1.4701  0.3990  0.1054
 6198SOL    HW230054   2.683   4.524   5.230  1.6006  3.1584 -3.1360
 6199SOL     OW30055   3.113   3.095   3.529 -0.0210  1.0334  0.1730
 6199SOL    HW130056   3.063   3.043   3.591 -0.9200  0.2593 -1.2141
 6199SOL    HW230057   3.167   3.152   3.584  2.1254  0.1566 -0.9908
 6200SOL     OW30058   1.729   1.790   2.980 -0.2930  0.2837 -0.2636
 6200SOL    HW130059   1.633   1.790   2.975 -0.4331  1.1161  2.3658
 6200SOL    HW230060   1.752   1.874   2.940  0.2036  0.1113 -0.3345
 6201SOL     OW30061   1.871   0.296   3.565 -0.6962  0.3185  0.7098
 6201SOL    HW130062   1.923   0.262   3.492 -1.1372 -1.3707  1.1957
 6201SOL    HW230063   1.785   0.298   3.524 -0.0517  3.0597 -0.5580
 6202SOL     OW30064   3.883   4.594   5.778 -0.2433  0.0242  0.2524
 6202SOL    HW130065   3.953   4.640   5.824 -0.9577  1.4132 -0.0394
 6202SOL    HW230066   3.819   4.665   5.764  1.1217  1.1964 -0.0526
 6203SOL     OW30067   0.873   0.597  10.484 -0.3103  0.2056  0.1404
 6203SOL    HW130068   0.842   0.543  10.556  2.2287 -2.2715 -0.6210
 6203SOL    HW230069   0.833   0.681  10.507 -1.0263 -0.5367  1.6177
 6204SOL     OW30070   3.310   2.589   1.965  0.3545  0.3056 -0.0664
 6204SOL    HW130071   3.315   2.493   1.955 -2.6062  0.2059 -0.4521
 6204SOL    HW230072   3.349   2.617   1.882  1.4092  0.6042  0.5346
 6205SOL     OW30073   3.927   3.616   6.256  0.0275  0.3689  0.7100
 6205SOL    HW130074   3.884   3.535   6.229 -1.5708  1.0513  1.2247
 6205SOL    HW230075   3.907   3.666   6.177  0.6793  2.1518  1.6827
 6206SOL     OW30076   3.169   1.605   5.248 -0.2026 -0.0777  0.1155
 6206SOL    HW130077   3.162   1.668   5.176  0.2139 -2.2651 -1.8409
 6206SOL    HW230078   3.082   1.610   5.289 -0.7028 -0.2803 -0.9093
 6207SOL     OW30079   0.809   0.949   8.129 -0.5456 -0.3073  0.3133
 6207SOL    HW130080   0.725   0.931   8.170 -0.2925 -1.2879  0.4197
 6207SOL    HW230081   0.861   0.878   8.169 -0.0072 -1.0058 -1.6070
 6208SOL     OW30082   3.022   4.022   2.154 -0.4489  0.3260  0.0309
 6208SOL    HW130083   3.037   4.116   2.157  0.7362  0.1022  1.3441
 6208SOL    HW230084   3.088   3.988   2.215  0.2897  2.5947  0.4702
 6209SOL     OW30085   4.524   0.428  15.818  0.1092  0.8814 -0.4534
 6209SOL    HW130086   4.580   0.384  15.753  2.8207  1.5726  1.4045
 6209SOL    HW230087   4.453   0.460  15.762 -1.5507 -1.3343  0.3642
 6210SOL     OW30088   4.239   0.977   5.226  0.7593  0.2211  0.1357
 6210SOL    HW130089   4.144   0.978   5.212  0.6857  0.6980  0.6484
 6210SOL    HW230090   4.260   0.946   5.138 -0.7979 -0.4370 -0.0102
 6211SOL     OW30091   1.104   0.180   6.582 -0.2522  0.0156 -0.0987
 6211SOL    HW130092   1.190   0.138   6.574  0.1067  0.2822  2.3285
 6211SOL    HW230093   1.047   0.105   6.599  0.1147  0.1653  1.8307
 6212SOL     OW30094   0.489   3.049   3.659  0.0537  0.4307  0.1724
 6212SOL    HW130095   0.498   3.143   3.642  0.0701  0.5090  0.6020
 6212SOL    HW230096   0.576   3.021   3.632 -0.9330 -2.6290  0.2062
 6213SOL     OW30097   2.942   3.922   3.675  0.1258 -0.1646  0.4638
 6213SOL    HW130098   3.010   3.933   3.741 -2.4898 -0.4482  3.1830
 6213SOL    HW230099   2.981   3.860   3.614  0.3198 -0.8095  1.2510
 6214SOL     OW30100   4.445   3.359   6.160 -0.4414  0.6412 -0.0297
 6214SOL    HW130101   4.369   3.416   6.151  0.1586  1.7256  1.9349
 6214SOL    HW230102   4.411   3.299   6.226  0.5089 -0.8788 -0.9299
 6215SOL     OW30103   4.721   0.433  10.203  0.6445 -0.1199  0.7993
 6215SOL    HW130104   0.092   0.415  10.194  0.5967  0.4816 -0.9095
 6215SOL    HW230105   4.689   0.356  10.250 -1.3753  0.7088  0.7809
 6216SOL     OW30106   0.801   0.920  14.595 -0.1259  0.1547  0.0560
 6216SOL    HW130107   0.768   0.857  14.531 -0.3182 -0.2248  0.5318
 6216SOL    HW230108   0.832   0.851  14.653  1.0649  0.5889 -0.0646
 6217SOL     OW30109   1.185   0.727   2.793 -0.0127 -0.1752  0.1789
 6217SOL    HW130110   1.176   0.821   2.812  1.8628 -0.1147  0.7535
 6217SOL    HW230111   1.213   0.742   2.702  0.2159  1.7818  0.5564
 6218SOL     OW30112   0.292   3.499   7.573  0.4618  0.0367 -0.3462
 6218SOL    HW130113   0.384   3.511   7.549  0.2875 -0.0879 -1.0956
 6218SOL    HW230114   0.288   3.404   7.565  1.6400  0.0080 -0.4831
 6219SOL     OW30115   0.023   2.746  12.299  0.3468  0.0865 -0.0758
 6219SOL    HW130116   0.002   2.662  12.259 -1.8935  0.8169 -0.4382
 6219SOL    HW230117   0.104   2.722  12.345  0.2792  0.8654  0.4743
 6220SOL     OW30118   2.291   0.629   9.151 -0.3733  0.0306  0.3177
 6220SOL    HW130119   2.240   0.548   9.154 -0.0931 -0.1461  0.3699
 6220SOL    HW230120   2.348   0.623   9.228 -0.9910 -3.2270  0.5083
 6221SOL     OW30121   1.378   3.163   6.830  0.2075 -0.2929 -0.1575
 6221SOL    HW130122   1.418   3.230   6.886 -1.4336 -1.3873  2.3481
 6221SOL    HW230123   1.406   3.079   6.866 -0.9585 -0.0098  1.4465
 6222SOL     OW30124   0.782   2.938  17.503 -0.2656  0.2004 -0.2295
 6222SOL    HW130125   0.755   3.029  17.514  0.5066  0.1580  2.0659
 6222SOL    HW230126   0.752   2.922  17.413  1.1636  1.3582 -0.9278
 6223SOL     OW30127   4.562   2.768   7.808  0.3270  0.1886  0.2438
 6223SOL    HW130128   4.508   2.711   7.753  1.6669 -3.0177  2.2351
 6223SOL    HW230129   4.503   2.800   7.876 -1.4957 -0.6841 -0.9087
 6224SOL     OW30130   0.098   3.518   5.033 -0.0915 -0.5120  0.4852
 6224SOL    HW130131   0.029   3.454   5.015  0.3191 -1.3661  1.9267
 6224SOL    HW230132   0.072   3.594   4.981  0.3731 -0.2163  0.6786
 6225SOL     OW30133   3.479   0.061   7.106 -0.2811 -0.0040  0.3021
 6225SOL    HW130134   3.441   0.036   7.022 -1.4128 -0.3385  0.9136
 6225SOL    HW230135   3.518   4.704   7.141 -1.8874 -0.5215  0.9217
 6226SOL     OW30136   0.202   0.648   3.507  0.2021 -0.0660 -0.3715
 6226SOL    HW130137   0.241   0.562   3.518  2.7883  0.9025 -1.7638
 6226SOL    HW230138   0.271   0.693   3.458  0.8951 -1.0683 -0.3176
 6227SOL     OW30139   1.605   2.122  10.920 -0.2147 -0.2242 -0.1888
 6227SOL    HW130140   1.562   2.177  10.854  0.2956  1.0847  0.5904
 6227SOL    HW230141   1.580   2.171  10.998 -1.7476  1.5039 -1.7523
 6228SOL     OW30142   0.647   2.127   2.735  0.0590 -0.4423  0.6911
 6228SOL    HW130143   0.629   2.038   2.763  1.0591 -1.4235 -1.7818
 6228SOL    HW230144   0.732   2.141   2.777  1.1557 -0.5544 -1.4833
 6229SOL     OW30145   4.419   0.049   5.793  0.0419  0.2122 -0.2616
 6229SOL    HW130146   4.397   0.039   5.886  0.8930  1.1067  0.0226
 6229SOL    HW230147   4.479   0.123   5.792  0.8122 -0.4139 -0.2485
 6230SOL     OW30148   1.704   2.771   7.898  0.0496  0.3524  0.8652
 6230SOL    HW130149   1.781   2.796   7.848 -0.0892  0.1698  0.5629
 6230SOL    HW230150   1.642   2.830   7.854  1.2985  0.1306 -1.2097
 6231SOL     OW30151   3.961   4.563   9.208  0.4230  0.5090 -0.7223
 6231SOL    HW130152   3.869   4.555   9.183  0.8184  1.1862 -2.3962
 6231SOL    HW230153   3.966   4.658   9.221  1.0607 -0.2528  4.6356
 6232SOL     OW30154   0.455   2.249   2.269  0.2003  0.4885 -0.4378
 6232SOL    HW130155   0.436   2.189   2.341 -0.0108 -0.4007 -1.2377
 6232SOL    HW230156   0.500   2.317   2.318  0.6668  0.8695 -1.3941
 6233SOL     OW30157   1.637   1.310   2.787 -0.5058  0.2266 -1.1995
 6233SOL    HW130158   1.551   1.276   2.760 -1.3354 -0.9288  2.9351
 6233SOL    HW230159   1.616   1.357   2.868 -1.3915 -0.7747 -0.8419
 6234SOL     OW30160   3.357   2.251   6.979  0.7201 -0.1194  0.0713
 6234SOL    HW130161   3.353   2.246   6.884 -1.2463 -1.0374  0.1967
 6234SOL    HW230162   3.272   2.212   7.002  0.6594  0.2430  0.4580
 6235SOL     OW30163   3.160   0.084  15.429  0.0100 -0.2159 -0.3186
 6235SOL    HW130164   3.251   0.077  15.400 -0.7402 -2.0657 -2.2367
 6235SOL    HW230165   3.141   0.176  15.449  0.4515 -0.0976 -0.4402
 6236SOL     OW30166   3.519   2.795  11.851  0.5158  0.2671  0.1167
 6236SOL    HW130167   3.503   2.787  11.945 -1.1660  1.5613 -0.0543
 6236SOL    HW230168   3.596   2.850  11.844  1.3496 -0.7034  1.7116
 6237SOL     OW30169   0.796   2.278   3.293 -0.3720 -0.1367  0.0310
 6237SOL    HW130170   0.838   2.242   3.215  1.1288  0.4052  0.5938
 6237SOL    HW230171   0.773   2.193   3.331 -1.1448  0.3438  0.6469
 6238SOL     OW30172   3.371   3.118   5.852  0.1538 -0.4682  0.5299
 6238SOL    HW130173   3.327   3.198   5.880  2.8157  0.4217  2.2166
 6238SOL    HW230174   3.347   3.104   5.760  4.4839  0.5885 -0.8184
 6239SOL     OW30175   0.914   1.204   8.122 -0.1519 -0.3477  0.3746
 6239SOL    HW130176   0.990   1.174   8.170  0.5808  0.4298 -0.3008
 6239SOL    HW230177   0.869   1.121   8.109 -0.8444  0.3230 -1.5263
 6240SOL     OW30178   1.359   3.053  13.909 -0.2479  0.1361 -0.9674
 6240SOL    HW130179   1.396   3.035  13.823  2.5169  1.8456 -0.1345
 6240SOL    HW230180   1.438   3.041  13.961 -0.6335 -0.1232 -0.4324
 6241SOL     OW30181   4.494   1.142  16.255  0.1953 -0.0706 -0.0939
 6241SOL    HW130182   4.536   1.058  16.274  0.4612  0.0826 -0.0013
 6241SOL    HW230183   4.418   1.116  16.204  1.2744  1.0183 -2.2515
 6242SOL     OW30184   2.346   3.548  15.465 -0.3170  0.3191 -0.7065
 6242SOL    HW130185   2.287   3.551  15.389 -2.6329 -0.7873  1.0537
 6242SOL    HW230186   2.383   3.636  15.472  2.0060 -0.6158 -1.2983
 6243SOL     OW30187   1.702   0.231   6.447  0.1407 -0.2784  0.3923
 6243SOL    HW130188   1.612   0.259   6.464 -0.0469 -1.0773  0.7294
 6243SOL    HW230189   1.687   0.154   6.393  1.0393 -0.2864  0.1541
 6244SOL     OW30190   1.959   1.923   7.608 -0.0218 -0.7370 -0.4061
 6244SOL    HW130191   1.904   1.984   7.558  1.5235  0.6825 -0.3461
 6244SOL    HW230192   2.029   1.982   7.635  0.3984 -1.7594  0.7512
 6245SOL     OW30193   3.173   0.996   0.436 -0.4401  0.3689  0.4013
 6245SOL    HW130194   3.254   0.950   0.458 -0.8445 -1.0208 -1.0987
 6245SOL    HW230195   3.173   1.008   0.341  1.3100  1.2506  0.5078
 6246SOL     OW30196   1.345   3.222   7.795 -0.3431 -0.5513  0.0972
 6246SOL    HW130197   1.375   3.133   7.815  2.1993  0.1423 -0.6715
 6246SOL    HW230198   1.252   3.202   7.799 -0.3289 -0.6141  0.1206
 6247SOL     OW30199   3.253   1.818  15.400 -0.2672  0.1973  0.5400
 6247SOL    HW130200   3.287   1.833  15.488  1.8488  0.6570 -0.3638
 6247SOL    HW230201   3.173   1.871  15.401 -0.6091 -0.3815  2.8694
 6248SOL     OW30202   4.370   3.450   7.698  0.0241  0.3321 -0.0403
 6248SOL    HW130203   4.450   3.427   7.650 -0.1810  0.1432 -0.2863
 6248SOL    HW230204   4.409   3.497   7.772 -2.4797  0.9317  0.8751
 6249SOL     OW30205   4.524   0.957  11.146  0.0485  0.1216 -0.1334
 6249SOL    HW130206   4.618   0.970  11.131 -0.0054  1.1651  0.3947
 6249SOL    HW230207   4.480   1.038  11.117  0.1416  0.3325  0.3115
 6250SOL     OW30208   4.356   4.568   7.001 -0.7151  0.1950  0.1268
 6250SOL    HW130209   4.343   4.494   6.942  1.3350 -0.0372 -0.0369
 6250SOL    HW230210   4.272   4.555   7.045 -1.9410  2.4949 -1.5147
 6251SOL     OW30211   1.169   1.612   5.723 -0.0872  0.0415  0.2839
 6251SOL    HW130212   1.257   1.622   5.687 -0.1579  2.2113  0.7046
 6251SOL    HW230213   1.150   1.521   5.698  2.0763 -0.9140  2.1214
 6252SOL     OW30214   2.977   1.987   0.581 -0.7313  0.0899  0.3563
 6252SOL    HW130215   2.921   2.063   0.598  0.2997  1.0447 -0.5980
 6252SOL    HW230216   2.978   1.983   0.486 -0.3023  3.8138  0.2160
 6253SOL     OW30217   3.189   4.514   5.624  0.1934  0.7291 -0.2845
 6253SOL    HW130218   3.232   4.590   5.583  0.9051 -0.1458 -1.1568
 6253SOL    HW230219   3.156   4.552   5.706 -1.5274 -1.5844  0.0726
 6254SOL     OW30220   0.914   1.728   5.400 -0.0697  0.1815 -0.2437
 6254SOL    HW130221   1.010   1.732   5.404 -0.1280 -1.0809  2.4049
 6254SOL    HW230222   0.895   1.821   5.386 -0.6578 -0.3653 -3.0262
 6255SOL     OW30223   0.329   1.850   8.874 -0.4288 -0.0305  0.2699
 6255SOL    HW130224   0.406   1.903   8.851  0.5611 -1.4414  0.3497
 6255SOL    HW230225   0.337   1.841   8.968  1.1073  0.4564  0.1857
 6256SOL     OW30226   2.684   0.841   4.946  0.2739  0.4755  0.1126
 6256SOL    HW130227   2.681   0.803   5.034  1.1111  0.9604  0.3532
 6256SOL    HW230228   2.778   0.845   4.926  0.3417  0.7333  0.4758
 6257SOL     OW30229   0.560   3.931  17.435  0.2006  0.4899  0.0737
 6257SOL    HW130230   0.513   3.948  17.517 -0.1162 -1.0922  0.2410
 6257SOL    HW230231   0.480   3.936  17.383  0.2307  0.7252  0.0501
 6258SOL     OW30232   3.453   0.883   1.669  0.1746  0.1041 -0.4294
 6258SOL    HW130233   3.516   0.827   1.714 -0.1887  0.4558  0.5179
 6258SOL    HW230234   3.468   0.967   1.713 -1.5016 -0.3249  0.9287
 6259SOL     OW30235   0.719   2.323   4.087  0.7365  0.4182 -0.1022
 6259SOL    HW130236   0.737   2.247   4.143  1.1623  0.2521 -0.4576
 6259SOL    HW230237   0.713   2.297   3.995 -0.4374  1.6751 -0.3771
 6260SOL     OW30238   3.085   2.233  11.659 -0.0796  0.2761 -0.3555
 6260SOL    HW130239   3.051   2.322  11.669 -1.8963 -0.2413 -1.9382
 6260SOL    HW230240   3.125   2.211  11.743  1.5695 -0.2261 -1.2608
 6261SOL     OW30241   3.917   3.982  12.348 -0.6277 -0.1558 -0.3644
 6261SOL    HW130242   3.941   4.015  12.261  0.1447  2.1248  0.6989
 6261SOL    HW230243   3.984   3.917  12.369  1.3745  2.2403  0.5940
 6262SOL     OW30244   2.200   3.910  13.830  0.0192  0.4883 -0.5584
 6262SOL    HW130245   2.163   3.992  13.861 -0.5166 -0.1291  0.4446
 6262SOL    HW230246   2.125   3.884  13.777 -0.0075 -0.0817 -0.2454
 6263SOL     OW30247   4.713   0.956  17.397 -0.4988  0.8657  0.3139
 6263SOL    HW130248   4.622   0.953  17.368  0.1757  1.5335 -1.8338
 6263SOL    HW230249   0.024   1.035  17.356 -0.2607  0.5528 -0.0995
 6264SOL     OW30250   2.501   3.642   5.272  0.8451  0.0399 -0.4146
 6264SOL    HW130251   2.454   3.569   5.231  1.2021  0.1201 -0.9767
 6264SOL    HW230252   2.588   3.617   5.241  0.4403 -0.1035 -1.4258
 6265SOL     OW30253   1.009   3.871   9.439  0.0400  0.0886 -0.2749
 6265SOL    HW130254   0.934   3.905   9.487 -1.1820 -1.6306 -0.9690
 6265SOL    HW230255   1.070   3.867   9.513 -0.6781  0.7922  0.3589
 6266SOL     OW30256   0.336   1.929   8.107  0.6739  0.4201  0.4071
 6266SOL    HW130257   0.329   1.999   8.172 -2.6892 -1.0189  1.6039
 6266SOL    HW230258   0.296   1.852   8.148  3.1145 -0.5778  0.9012
 6267SOL     OW30259   1.498   0.816   2.795  0.2563  0.0807 -0.0467
 6267SOL    HW130260   1.516   0.851   2.708 -2.1373 -3.0563 -1.7795
 6267SOL    HW230261   1.544   0.733   2.785 -1.0674 -0.6986  0.3727
 6268SOL     OW30262   4.334   3.042   3.100 -0.3069 -0.0777 -0.7463
 6268SOL    HW130263   4.344   2.960   3.052  0.3499 -0.3230 -0.1937
 6268SOL    HW230264   4.331   3.104   3.027 -0.4140 -1.3060 -1.7781
 6269SOL     OW30265   4.690   3.834   8.714 -0.2798  0.4559  0.0239
 6269SOL    HW130266   4.637   3.852   8.636  1.1751 -1.0326 -1.2926
 6269SOL    HW230267   4.637   3.839   8.793 -0.9691  0.5782 -0.4368
 6270SOL     OW30268   4.567   3.477   4.415 -0.6083  0.0469 -0.0693
 6270SOL    HW130269   4.561   3.569   4.440  3.0917 -0.4430  2.5740
 6270SOL    HW230270   4.528   3.443   4.495  1.1586 -3.4596 -0.6680
 6271SOL     OW30271   4.117   3.511   1.812  0.5469  0.0096 -0.1172
 6271SOL    HW130272   4.023   3.528   1.808  0.4319 -0.5394  0.1947
 6271SOL    HW230273   4.107   3.437   1.752  2.0852 -0.4597  0.2076
 6272SOL     OW30274   3.965   2.117   5.517  0.6415 -0.3222 -0.1860
 6272SOL    HW130275   3.946   2.198   5.565 -0.1083  0.3234 -1.5936
 6272SOL    HW230276   3.878   2.105   5.479  0.6401  0.3382 -0.4019
 6273SOL     OW30277   2.671   1.555   4.556  0.2135 -0.4426 -0.3507
 6273SOL    HW130278   2.663   1.572   4.462 -0.3898 -1.8690 -0.5435
 6273SOL    HW230279   2.767   1.555   4.561  0.2486  2.3029 -0.7133
 6274SOL     OW30280   4.421   0.936   8.587 -0.0610  0.5226  0.6000
 6274SOL    HW130281   4.342   0.907   8.633 -0.4065 -0.0463 -0.3509
 6274SOL    HW230282   4.401   0.901   8.500 -0.1158  3.2112 -0.4848
 6275SOL     OW30283   4.197   1.876   5.926  0.5743  0.0448 -0.4869
 6275SOL    HW130284   4.185   1.916   5.840 -1.5149 -0.0020 -0.2107
 6275SOL    HW230285   4.166   1.952   5.976 -1.5668 -0.1849 -1.4874
 6276SOL     OW30286   2.261   1.363   1.453  0.3783  0.0184 -0.0962
 6276SOL    HW130287   2.269   1.268   1.463 -1.4987 -0.4525 -3.2577
 6276SOL    HW230288   2.221   1.371   1.367 -1.6448 -4.6518  0.3942
 6277SOL     OW30289   2.248   0.793  11.301 -0.1601  0.5223  0.5406
 6277SOL    HW130290   2.341   0.817  11.301 -0.0329 -0.0248  2.2513
 6277SOL    HW230291   2.205   0.857  11.358 -1.5601 -1.4434  1.6463
 6278SOL     OW30292   2.128   0.696  14.601 -0.2589 -0.1873  0.1488
 6278SOL    HW130293   2.123   0.669  14.692 -0.4499  0.4780  0.3371
 6278SOL    HW230294   2.035   0.708  14.582 -0.6535 -1.2003  1.4843
 6279SOL     OW30295   1.687   3.495   7.861  0.2003  0.3215 -0.6459
 6279SOL    HW130296   1.763   3.477   7.916 -1.1748 -1.0350  0.8454
 6279SOL    HW230297   1.708   3.581   7.826  0.4482 -0.2218 -1.8600
 6280SOL     OW30298   3.414   4.633   2.913  0.2559  0.7214  0.6141
 6280SOL    HW130299   3.473   4.580   2.966 -1.9909 -0.9110  1.4740
 6280SOL    HW230300   3.472   4.705   2.890  0.7341  0.7601  1.9439
 6281SOL     OW30301   4.556   2.930   6.939 -0.2944 -0.1915  0.4956
 6281SOL    HW130302   4.648   2.905   6.938  0.4292  2.6245 -3.8113
 6281SOL    HW230303   4.563   3.019   6.975  3.3225 -0.9367  1.6178
 6282SOL     OW30304   1.245   3.303  12.121  0.4675  0.2878 -0.9789
 6282SOL    HW130305   1.332   3.338  12.141  0.6613 -0.0164 -1.2793
 6282SOL    HW230306   1.215   3.298  12.211 -1.9284  0.1832 -1.7692
 6283SOL     OW30307   3.562   3.397   5.668  0.4084 -0.1154  0.2849
 6283SOL    HW130308   3.517   3.468   5.621 -0.9245 -2.5141 -2.0909
 6283SOL    HW230309   3.582   3.348   5.588 -4.4339 -1.3411 -0.2012
 6284SOL     OW30310   1.605   0.662   8.364 -0.4133 -0.3409 -0.1247
 6284SOL    HW130311   1.676   0.727   8.369 -2.0645  1.4170  0.7138
 6284SOL    HW230312   1.537   0.720   8.329 -0.0685 -0.9152 -1.7247
 6285SOL     OW30313   1.579   0.901   8.910 -0.6740 -0.3719  0.2408
 6285SOL    HW130314   1.627   0.841   8.853 -1.7109 -1.1294  0.1720
 6285SOL    HW230315   1.606   0.877   8.999  0.8729  2.1116  0.4503
 6286SOL     OW30316   0.938   2.738  14.180  0.0610 -0.0439 -0.0470
 6286SOL    HW130317   0.918   2.794  14.255  1.4177  0.5977 -0.1547
 6286SOL    HW230318   1.008   2.778  14.129  0.8029 -3.1822 -1.5133
 6287SOL     OW30319   3.818   3.695  15.691 -0.2160 -0.1984 -0.3056
 6287SOL    HW130320   3.802   3.769  15.633  0.4664  0.5708  0.4819
 6287SOL    HW230321   3.845   3.620  15.638 -2.4524  0.3575 -2.1830
 6288SOL     OW30322   2.317   2.453   8.777 -0.5745 -0.4188 -0.6064
 6288SOL    HW130323   2.229   2.490   8.767 -0.1300  0.8439  0.2091
 6288SOL    HW230324   2.295   2.367   8.812 -0.6369 -0.7621 -1.4724
 6289SOL     OW30325   2.816   3.369   7.378  0.3764  0.0155 -0.0308
 6289SOL    HW130326   2.843   3.460   7.386  0.8100 -0.2990  2.0207
 6289SOL    HW230327   2.726   3.375   7.347 -0.0929 -0.2127  1.2863
 6290SOL     OW30328   2.271   0.374   8.805  0.2270  0.2688 -0.0443
 6290SOL    HW130329   2.289   0.300   8.748 -1.3870 -1.1579  1.3098
 6290SOL    HW230330   2.348   0.366   8.861 -0.3821 -0.2600  0.7174
 6291SOL     OW30331   1.826   2.417  10.972 -0.4665 -0.7547  0.2306
 6291SOL    HW130332   1.743   2.450  10.936 -1.2106 -1.6978  1.0522
 6291SOL    HW230333   1.825   2.433  11.066  1.7940  1.2435 -0.0797
 6292SOL     OW30334   2.314   4.359  12.490  0.4541 -0.2423 -0.1013
 6292SOL    HW130335   2.277   4.448  12.491 -2.5447 -1.4676 -1.2168
 6292SOL    HW230336   2.339   4.347  12.581 -1.5758  1.4607  0.6944
 6293SOL     OW30337   3.368   2.165   5.630 -0.4318 -0.7735  0.4016
 6293SOL    HW130338   3.428   2.091   5.624 -0.8277 -0.8502 -2.4945
 6293SOL    HW230339   3.388   2.214   5.710  0.1975  0.7153 -0.6688
 6294SOL     OW30340   3.244   2.724   8.622  0.0881  0.4526 -0.3557
 6294SOL    HW130341   3.257   2.789   8.553 -0.1670 -0.1630 -0.9835
 6294SOL    HW230342   3.162   2.745   8.667 -0.0907 -0.8469 -0.0795
 6295SOL     OW30343   2.791   2.294   3.560  0.0226  0.2020 -0.7496
 6295SOL    HW130344   2.742   2.376   3.553  1.4210  1.1029 -0.0129
 6295SOL    HW230345   2.741   2.244   3.496 -1.6415  0.8933  0.0347
 6296SOL     OW30346   4.388   1.795   5.617 -0.2986  0.1172 -0.2583
 6296SOL    HW130347   4.361   1.749   5.538 -2.9715  1.8051 -0.3177
 6296SOL    HW230348   4.321   1.863   5.622  0.8638  1.1959  0.6412
 6297SOL     OW30349   1.092   3.044   5.420 -0.7057  0.3001 -0.2723
 6297SOL    HW130350   1.040   3.056   5.500  0.0327  1.2789  0.0636
 6297SOL    HW230351   1.180   3.027   5.456 -1.3685 -0.2888  1.0756
 6298SOL     OW30352   3.414   3.012   7.485  0.0951  0.1828 -0.3646
 6298SOL    HW130353   3.473   3.070   7.436  0.0066  2.0248  1.7084
 6298SOL    HW230354   3.427   3.048   7.573  0.9215 -0.1790 -0.3345
 6299SOL     OW30355   2.707   3.423   3.752  0.0386  0.7527  0.3454
 6299SOL    HW130356   2.793   3.457   3.726  0.3413  0.0910  0.4864
 6299SOL    HW230357   2.735   3.333   3.767 -2.7022 -0.3762 -1.2962
 6300SOL     OW30358   1.657   3.459   2.201 -0.0607 -0.4455 -0.3918
 6300SOL    HW130359   1.617   3.372   2.194 -0.7172 -0.4295  3.1134
 6300SOL    HW230360   1.668   3.488   2.111 -0.7122 -0.3647 -0.4458
 6301SOL     OW30361   2.654   2.669   7.959 -0.4189  0.0146  0.3061
 6301SOL    HW130362   2.741   2.690   7.925  0.3969 -0.3660  2.1530
 6301SOL    HW230363   2.637   2.602   7.893 -0.3391 -1.1048  1.4031
 6302SOL     OW30364   2.188   4.321   4.871 -0.1836 -0.1873  0.0988
 6302SOL    HW130365   2.143   4.388   4.819 -1.5513 -0.7399  0.5764
 6302SOL    HW230366   2.265   4.368   4.905 -1.5200  1.9348  0.1800
 6303SOL     OW30367   3.814   3.471   0.631 -0.1819  0.1828  0.7096
 6303SOL    HW130368   3.769   3.539   0.581  0.2122 -1.8277 -2.3549
 6303SOL    HW230369   3.799   3.402   0.567 -1.1122  0.8242  0.2385
 6304SOL     OW30370   1.648   0.025   6.277 -0.4241 -0.7317 -0.4991
 6304SOL    HW130371   1.702   4.713   6.206  0.4119 -0.9085  0.2229
 6304SOL    HW230372   1.623   4.673   6.332 -2.3920  0.1820 -0.1494
 6305SOL     OW30373   0.973   1.558   7.482 -0.0935 -0.9751 -0.5370
 6305SOL    HW130374   0.990   1.628   7.419 -0.2611 -0.3175  0.1479
 6305SOL    HW230375   1.052   1.569   7.536  1.6298 -2.1953 -2.7979
 6306SOL     OW30376   3.092   2.140   7.996 -0.4854  0.5690  0.2884
 6306SOL    HW130377   3.127   2.174   7.913  1.6934  1.0272  1.3718
 6306SOL    HW230378   3.016   2.198   8.005 -0.2442  0.7299  1.2577
 6307SOL     OW30379   2.555   0.722   9.001 -0.4270  1.1762  0.4250
 6307SOL    HW130380   2.478   0.678   9.037 -0.9172  1.8893  0.2609
 6307SOL    HW230381   2.624   0.675   9.048 -0.4650  0.5647 -0.1283
 6308SOL     OW30382   1.635   2.568  10.720 -0.1888 -0.5118 -0.1426
 6308SOL    HW130383   1.621   2.554  10.626  0.4068 -0.5636 -0.2277
 6308SOL    HW230384   1.704   2.633  10.706  0.5425 -0.8347  2.0050
 6309SOL     OW30385   0.678   3.369   6.770  0.3031 -0.2062  0.2683
 6309SOL    HW130386   0.636   3.442   6.725 -0.3690 -0.3160  0.7115
 6309SOL    HW230387   0.726   3.323   6.701  1.3392 -0.0570  0.8893
 6310SOL     OW30388   0.263   0.779   5.659 -0.4289 -0.1823 -0.6055
 6310SOL    HW130389   0.191   0.839   5.637 -0.6259 -0.1725  0.0584
 6310SOL    HW230390   0.255   0.731   5.577  2.1480 -0.6077 -0.5909
 6311SOL     OW30391   0.555   3.134   6.926 -0.3898 -0.2761  0.3268
 6311SOL    HW130392   0.616   3.205   6.949 -1.1857  0.5340 -0.0486
 6311SOL    HW230393   0.626   3.074   6.905  0.6181  1.4507 -1.1548
 6312SOL     OW30394   0.782   1.103  16.771 -0.1300  0.0028  0.1637
 6312SOL    HW130395   0.877   1.116  16.781 -0.7018  1.4867  3.5728
 6312SOL    HW230396   0.767   1.069  16.683 -0.5020  0.6619 -0.0281
 6313SOL     OW30397   4.605   2.286  16.784 -0.0178 -0.4661  0.1163
 6313SOL    HW130398   4.697   2.271  16.759  0.3554  0.1541  1.1019
 6313SOL    HW230399   4.595   2.381  16.785 -1.6387 -0.6346 -0.3003
 6314SOL     OW30400   3.289   1.562   2.431  0.2442 -0.1741 -0.5801
 6314SOL    HW130401   3.310   1.469   2.433 -0.0346 -0.2159  0.6187
 6314SOL    HW230402   3.194   1.554   2.444 -0.0660  2.0104 -1.5118
 6315SOL     OW30403   3.800   4.555   2.004 -0.0190 -0.2611 -0.1603
 6315SOL    HW130404   3.779   4.640   1.964  1.1869  0.2105  0.1930
 6315SOL    HW230405   3.857   4.593   2.071 -0.8666 -0.6343  0.7700
 6316SOL     OW30406   1.466   2.011   2.742  0.2916 -0.4412 -0.0599
 6316SOL    HW130407   1.478   1.952   2.667  0.2066 -0.7476  0.1679
 6316SOL    HW230408   1.559   2.015   2.767 -0.3693 -2.3829  2.7559
 6317SOL     OW30409   0.404   3.761   4.153 -0.1834  0.3091  0.4995
 6317SOL    HW130410   0.371   3.814   4.226 -1.4264 -1.6526  1.3878
 6317SOL    HW230411   0.390   3.831   4.090 -0.0083 -1.0912 -1.0947
 6318SOL     OW30412   4.432   0.177   9.026  0.0008  0.0178  0.0780
 6318SOL    HW130413   4.351   0.172   8.975  0.7412  0.8958 -1.1924
 6318SOL    HW230414   4.422   0.096   9.076  1.1300 -0.0999  0.1043
 6319SOL     OW30415   0.734   4.349   4.849 -0.1155  0.5566 -0.7791
 6319SOL    HW130416   0.773   4.280   4.904 -0.6982  1.5038  0.8183
 6319SOL    HW230417   0.811   4.407   4.853 -1.2066  2.0942 -2.0409
 6320SOL     OW30418   1.585   1.563  15.090  0.6140 -0.0908 -0.0518
 6320SOL    HW130419   1.541   1.502  15.150 -0.6285  0.3093 -0.5556
 6320SOL    HW230420   1.538   1.563  15.006 -0.9529 -0.8692  0.8173
 6321SOL     OW30421   1.543   0.466   5.977  0.5450  0.7174  0.3071
 6321SOL    HW130422   1.631   0.486   5.946  0.5358  0.0490 -0.1510
 6321SOL    HW230423   1.557   0.380   6.017  2.4178  0.5246 -0.7571
 6322SOL     OW30424   4.608   4.242   2.602  0.1607 -0.1807 -0.2703
 6322SOL    HW130425   4.544   4.312   2.594 -0.6061 -0.6737  1.5759
 6322SOL    HW230426   4.695   4.283   2.602 -0.1306  0.4502  0.8404
 6323SOL     OW30427   2.686   2.512  16.016 -0.5820 -0.5255  0.2166
 6323SOL    HW130428   2.632   2.516  16.095 -2.6194  3.8191 -1.3717
 6323SOL    HW230429   2.629   2.465  15.954 -0.1693  0.7171 -1.1086
 6324SOL     OW30430   2.290   3.320  13.294  0.0277  0.5840 -0.1837
 6324SOL    HW130431   2.317   3.291  13.381  1.6149 -1.1719 -1.2642
 6324SOL    HW230432   2.262   3.242  13.247  0.3724 -0.1279  0.7830
 6325SOL     OW30433   2.551   0.837  11.586 -0.2025  0.2521  0.0507
 6325SOL    HW130434   2.593   0.895  11.523 -2.6092  1.6913 -0.2330
 6325SOL    HW230435   2.508   0.775  11.527 -1.6303 -0.7034  2.0821
 6326SOL     OW30436   2.008   3.774   3.387 -0.0602  0.3804  0.7677
 6326SOL    HW130437   1.993   3.747   3.478 -1.0559  0.0872  0.5169
 6326SOL    HW230438   1.927   3.820   3.363 -0.4679 -2.1561 -2.8114
 6327SOL     OW30439   1.479   3.593   5.081  0.2221 -0.6648 -0.0004
 6327SOL    HW130440   1.495   3.630   4.994  0.2728  0.8652  0.6551
 6327SOL    HW230441   1.551   3.530   5.085 -2.4582 -3.8871 -2.5516
 6328SOL     OW30442   1.002   2.822   0.941 -0.1841  0.1268  0.3238
 6328SOL    HW130443   0.918   2.864   0.960 -0.4014 -0.1115 -0.1273
 6328SOL    HW230444   1.022   2.781   1.025  2.0064 -0.7206 -0.6126
 6329SOL     OW30445   2.058   1.194   8.331 -0.0379  0.2590  0.3527
 6329SOL    HW130446   2.095   1.281   8.340  0.2696  0.0366  1.2630
 6329SOL    HW230447   2.131   1.133   8.347  0.6224  0.7348 -0.8766
 6330SOL     OW30448   3.360   2.019   1.209 -0.3786  0.1689 -0.6388
 6330SOL    HW130449   3.317   1.957   1.151 -1.0493 -2.3541  2.5419
 6330SOL    HW230450   3.298   2.010   1.282  1.2630 -0.6426  0.6391
 6331SOL     OW30451   4.218   0.453  10.174  0.0857  0.1827 -0.3592
 6331SOL    HW130452   4.251   0.445  10.263  0.7090  0.7867 -0.5323
 6331SOL    HW230453   4.299   0.462  10.124 -0.7106  0.9027 -1.5219
 6332SOL     OW30454   2.355   2.005   5.367 -0.4317  0.3484 -0.3197
 6332SOL    HW130455   2.270   1.967   5.345 -2.1244  3.6277  0.6266
 6332SOL    HW230456   2.389   1.937   5.425 -1.2244  1.7301  1.7714
 6333SOL     OW30457   2.135   0.095   7.705 -0.3481 -0.7526  0.5453
 6333SOL    HW130458   2.088   0.089   7.788  0.0590  4.0270  1.0808
 6333SOL    HW230459   2.229   0.084   7.724 -0.1816  1.4444  0.9838
 6334SOL     OW30460   2.588   2.452   7.824 -0.7845  0.4825  0.0302
 6334SOL    HW130461   2.601   2.385   7.756 -1.0454  0.6674 -0.2015
 6334SOL    HW230462   2.513   2.418   7.874 -1.9804  1.6873 -0.9321
 6335SOL     OW30463   1.633   0.599   4.175  0.0057 -0.1252  0.2302
 6335SOL    HW130464   1.651   0.595   4.081  1.0831 -0.8392  0.4772
 6335SOL    HW230465   1.716   0.618   4.218 -0.0303  1.8008 -0.5375
 6336SOL     OW30466   1.876   0.030   2.819 -0.0084  0.5635 -0.2263
 6336SOL    HW130467   1.792   0.045   2.776 -0.7177 -1.9275  0.2781
 6336SOL    HW230468   1.937   0.020   2.746  0.4303 -0.0560  0.2305
 6337SOL     OW30469   1.953   0.418  15.634 -0.1276 -0.7720 -0.1282
 6337SOL    HW130470   1.880   0.380  15.584  0.3739  0.4385 -1.8042
 6337SOL    HW230471   2.018   0.349  15.638  3.1222  2.2311 -0.8715
 6338SOL     OW30472   2.337   0.743   7.528 -0.0561 -0.6638 -0.0628
 6338SOL    HW130473   2.284   0.697   7.593  0.8306 -1.4091  0.1422
 6338SOL    HW230474   2.332   0.673   7.463  1.9328 -0.1193 -0.8311
 6339SOL     OW30475   3.308   2.249  10.140  0.2527 -0.4429  0.4201
 6339SOL    HW130476   3.268   2.173  10.098 -2.5142 -0.2100  2.6316
 6339SOL    HW230477   3.235   2.263  10.200 -2.0394  0.1107 -2.4996
 6340SOL     OW30478   3.155   0.679  14.287  0.0189 -0.2861  0.1367
 6340SOL    HW130479   3.157   0.756  14.231 -1.3762 -1.3304 -1.3348
 6340SOL    HW230480   3.111   0.717  14.363  0.6092 -1.0523  0.8631
 6341SOL     OW30481   0.738   0.706  15.266 -0.1837 -0.5052  0.5683
 6341SOL    HW130482   0.672   0.640  15.287 -0.3428 -1.0509 -1.6919
 6341SOL    HW230483   0.704   0.741  15.184 -2.6880  0.0158  1.8331
 6342SOL     OW30484   3.879   0.220   7.273 -0.1854 -0.5824 -0.1777
 6342SOL    HW130485   3.804   0.216   7.332  0.2636  0.4592  0.4734
 6342SOL    HW230486   3.841   0.249   7.190  1.0026 -3.0125 -1.5582
 6343SOL     OW30487   1.033   0.023   8.422  0.4424 -0.0522 -0.3491
 6343SOL    HW130488   0.997   0.092   8.478 -0.5765 -0.0283 -1.0209
 6343SOL    HW230489   1.020   0.069   8.339  1.2829  2.2227  0.7861
 6344SOL     OW30490   3.931   3.658  13.051  0.2223 -0.4411  0.4158
 6344SOL    HW130491   3.934   3.571  13.012 -3.4947 -1.1965  1.7462
 6344SOL    HW230492   3.840   3.682  13.033  0.6920  0.1396 -1.1510
 6345SOL     OW30493   3.787   0.395   3.122  0.1823 -0.2123 -0.8534
 6345SOL    HW130494   3.750   0.326   3.176 -0.2463  1.0617  0.4852
 6345SOL    HW230495   3.703   0.431   3.093  0.5805 -0.0909 -1.8670
 6346SOL     OW30496   1.313   4.653  12.171 -0.3345  0.1177 -0.1911
 6346SOL    HW130497   1.397   4.643  12.126  0.5176 -0.1491  1.4643
 6346SOL    HW230498   1.327   0.002  12.232  0.6145 -0.4385  0.2429
 6347SOL     OW30499   4.449   4.349   8.010  0.4833  0.0588  0.3320
 6347SOL    HW130500   4.447   4.261   8.048  1.0156 -1.1173 -2.3173
 6347SOL    HW230501   4.362   4.356   7.971  0.7543  0.5724 -0.1834
 6348SOL     OW30502   2.776   2.154   2.155 -0.5018  0.3439  0.4209
 6348SOL    HW130503   2.804   2.230   2.104 -0.3838  0.5504  0.7953
 6348SOL    HW230504   2.794   2.075   2.104 -0.5803  0.7100 -0.1676
 6349SOL     OW30505   0.094   2.583   7.474 -0.4494 -0.3749  0.0157
 6349SOL    HW130506   0.095   2.615   7.383  0.7402  0.5248  0.3430
 6349SOL    HW230507   0.017   2.527   7.481  0.0983 -0.9393  1.3993
 6350SOL     OW30508   3.804   0.155  14.650 -0.9847  0.4242  0.0448
 6350SOL    HW130509   3.885   0.111  14.624 -0.3831  1.6839 -0.1584
 6350SOL    HW230510   3.788   0.220  14.582 -1.0469  0.9289  0.5389
 6351SOL     OW30511   3.423   1.677  12.742 -0.1062  0.3057  0.2371
 6351SOL    HW130512   3.367   1.725  12.681 -0.4656 -0.0066  0.3288
 6351SOL    HW230513   3.381   1.692  12.827  1.0015  0.3219  0.7922
 6352SOL     OW30514   2.736   4.503  15.221  0.7334  0.4250  0.5637
 6352SOL    HW130515   2.657   4.513  15.275  0.7623 -0.0670  0.7017
 6352SOL    HW230516   2.735   4.407  15.229  0.6270  0.2716 -1.2455
 6353SOL     OW30517   1.503   3.722   4.847 -0.5644  0.3111  0.7754
 6353SOL    HW130518   1.507   3.774   4.767  0.3780 -1.4678 -0.3609
 6353SOL    HW230519   1.569   3.769   4.898 -0.0794  1.5264 -0.9643
 6354SOL     OW30520   3.713   0.436   6.826  0.0289  0.4432  0.0129
 6354SOL    HW130521   3.724   0.402   6.915  0.4302  0.5358 -0.0048
 6354SOL    HW230522   3.637   0.386   6.796 -0.3478  1.0262 -0.0140
 6355SOL     OW30523   4.226   2.226   5.636  0.5234  0.3175  0.0356
 6355SOL    HW130524   4.138   2.255   5.660 -0.4539 -2.0874 -0.7220
 6355SOL    HW230525   4.251   2.281   5.561 -1.6414  0.2726 -0.7118
 6356SOL     OW30526   0.745   1.291  16.967 -0.5906 -0.2506 -0.1493
 6356SOL    HW130527   0.742   1.245  16.884  1.2098 -0.0087 -0.3547
 6356SOL    HW230528   0.697   1.233  17.026 -2.1460  0.3443 -0.8177
 6357SOL     OW30529   3.969   4.059  12.647  0.5948 -0.1963  0.2922
 6357SOL    HW130530   3.904   4.104  12.701  0.8438 -0.1089  0.5177
 6357SOL    HW230531   3.918   4.055  12.566  3.4832  2.1407 -1.6475
 6358SOL     OW30532   1.070   4.034   8.882 -0.2192 -0.8178 -0.2808
 6358SOL    HW130533   1.101   3.978   8.810 -0.8173 -0.6883 -0.6443
 6358SOL    HW230534   0.975   4.042   8.870 -0.2728 -1.1351 -0.0691
 6359SOL     OW30535   4.369   0.527   7.072  0.2016  0.3919  0.0754
 6359SOL    HW130536   4.340   0.483   6.992 -2.0607  1.5797  0.2324
 6359SOL    HW230537   4.436   0.579   7.029 -0.6935  0.4834 -1.2294
 6360SOL     OW30538   0.600   2.222  17.614 -0.2707 -0.3084  0.1528
 6360SOL    HW130539   0.598   2.297  17.555 -1.4961  0.3429  1.0015
 6360SOL    HW230540   0.694   2.222  17.628 -0.4853 -0.5454  1.6393
 6361SOL     OW30541   0.895   0.025   7.466 -0.0009  0.2652 -0.3683
 6361SOL    HW130542   0.854   0.073   7.538 -1.1464  1.4156 -1.7949
 6361SOL    HW230543   0.957   4.689   7.509 -1.3630  1.0901  2.6873
 6362SOL     OW30544   2.107   0.743  13.183  0.2502  0.9556 -0.3329
 6362SOL    HW130545   2.162   0.671  13.213 -1.5181 -0.2189  0.0742
 6362SOL    HW230546   2.108   0.734  13.087  2.0946 -0.2258 -0.2076
 6363SOL     OW30547   3.021   3.193  13.862 -0.3530  0.3122 -0.6458
 6363SOL    HW130548   2.953   3.126  13.849  0.0355 -0.3621  0.7745
 6363SOL    HW230549   2.975   3.266  13.903 -0.1903  0.5536 -0.8932
 6364SOL     OW30550   2.144   0.193  14.285  0.1838  0.3078  0.2779
 6364SOL    HW130551   2.133   0.137  14.362 -0.1425  1.5336  1.1158
 6364SOL    HW230552   2.103   0.272  14.319 -1.1485 -0.0564 -0.4606
 6365SOL     OW30553   2.086   3.848  17.074 -0.0865  0.3937  0.0265
 6365SOL    HW130554   2.073   3.943  17.066 -0.6462  0.2321 -1.0779
 6365SOL    HW230555   1.998   3.816  17.051  0.4589 -0.1414 -1.2841
 6366SOL     OW30556   1.730   0.070   9.188  0.6720 -0.4335  0.3182
 6366SOL    HW130557   1.682   0.131   9.131  1.3730 -1.5906 -1.5040
 6366SOL    HW230558   1.674   4.716   9.184 -0.3900  0.3260  0.7374
 6367SOL     OW30559   2.739   1.124  15.854  0.5622 -0.2103  0.8146
 6367SOL    HW130560   2.741   1.058  15.785 -0.2284  0.8160 -0.2003
 6367SOL    HW230561   2.766   1.203  15.806  0.4030  0.2823  1.5283
 6368SOL     OW30562   3.825   2.825   2.241 -0.7277 -0.0380  0.6158
 6368SOL    HW130563   3.892   2.837   2.307  0.7305 -0.4087 -0.7930
 6368SOL    HW230564   3.740   2.836   2.283 -1.0599  1.6242 -0.4835
 6369SOL     OW30565   3.088   2.748   0.508  0.1610  0.9662  0.2170
 6369SOL    HW130566   3.039   2.671   0.539  0.7715  1.4709  2.4288
 6369SOL    HW230567   3.027   2.818   0.529  0.4068  2.1243 -2.9242
 6370SOL     OW30568   3.061   1.317   1.581  0.8488 -0.2273  0.4277
 6370SOL    HW130569   3.138   1.261   1.594  1.4580  0.4347 -0.2622
 6370SOL    HW230570   3.064   1.319   1.485 -1.2271 -2.9213  0.3004
 6371SOL     OW30571   3.403   1.666   0.626  0.3779 -0.4778  0.2740
 6371SOL    HW130572   3.453   1.696   0.701 -1.0659  0.6073  0.7999
 6371SOL    HW230573   3.341   1.612   0.676 -1.5839  0.7008 -0.8667
 6372SOL     OW30574   2.374   3.762  12.914 -0.2965  0.6755 -0.1041
 6372SOL    HW130575   2.436   3.703  12.956  1.0622  1.1117 -1.4993
 6372SOL    HW230576   2.295   3.766  12.967  1.0406  1.9011  1.7686
 6373SOL     OW30577   4.316   1.845  14.307 -0.2630 -0.0255 -0.1117
 6373SOL    HW130578   4.398   1.889  14.286 -0.7120  0.6274 -0.4734
 6373SOL    HW230579   4.258   1.918  14.286  0.2227 -0.0160 -1.4000
 6374SOL     OW30580   3.293   1.902   3.278 -0.8664  0.3420  0.1641
 6374SOL    HW130581   3.245   1.944   3.349 -1.0640  0.0736  0.1882
 6374SOL    HW230582   3.288   1.973   3.214 -2.5342  1.2796  1.3234
 6375SOL     OW30583   2.673   1.399  13.092 -0.3073  0.3565  0.0734
 6375SOL    HW130584   2.711   1.431  13.011 -0.5049 -1.6601 -0.8160
 6375SOL    HW230585   2.728   1.444  13.156  2.9327 -1.7344 -1.2631
 6376SOL     OW30586   0.422   1.353   6.138  0.3511 -0.2493 -0.0705
 6376SOL    HW130587   0.481   1.349   6.063  0.7697  2.4491  0.1105
 6376SOL    HW230588   0.364   1.416   6.096 -0.6657 -1.1922 -0.0743
 6377SOL     OW30589   1.501   2.201   8.174 -0.0791  0.0880  0.0098
 6377SOL    HW130590   1.558   2.125   8.160 -1.0314 -0.5703 -0.3255
 6377SOL    HW230591   1.487   2.187   8.268  0.8781 -0.9565 -0.0056
 6378SOL     OW30592   4.631   1.372  17.309 -0.3866  0.1934  0.7127
 6378SOL    HW130593   4.570   1.423  17.255  0.0906 -1.7482 -1.6978
 6378SOL    HW230594   4.571   1.352  17.381 -0.8948  0.8369  0.4655
 6379SOL     OW30595   1.373   3.980   5.423  0.4129 -0.5167  0.3357
 6379SOL    HW130596   1.395   3.891   5.394 -1.0808 -0.5202 -0.7432
 6379SOL    HW230597   1.449   4.032   5.398  1.7416 -2.1040  1.0788
 6380SOL     OW30598   2.053   0.435   2.778  0.6170 -0.2144  0.2521
 6380SOL    HW130599   2.143   0.417   2.751  0.5430  0.5097 -0.5076
 6380SOL    HW230600   2.000   0.405   2.705  1.8898 -1.9641  0.0533
 6381SOL     OW30601   3.597   4.618   4.005 -0.5418  0.2076 -0.6586
 6381SOL    HW130602   3.609   4.561   3.929 -2.9585  0.6563 -1.3849
 6381SOL    HW230603   3.507   4.592   4.025  0.0736 -0.9113  0.5995
 6382SOL     OW30604   2.142   4.428   2.480 -0.0637  0.0706 -0.1547
 6382SOL    HW130605   2.197   4.446   2.556 -0.6795  0.9810  0.0845
 6382SOL    HW230606   2.067   4.487   2.491  0.0083  0.2071 -0.3968
 6383SOL     OW30607   3.885   4.010   6.879  0.0318 -0.3109  0.3285
 6383SOL    HW130608   3.905   3.979   6.791 -0.1009  1.1541 -0.2054
 6383SOL    HW230609   3.901   4.103   6.865 -0.4180 -0.5927 -1.9626
 6384SOL     OW30610   2.242   0.149   9.539 -0.1666 -0.3798 -0.1263
 6384SOL    HW130611   2.190   0.069   9.542 -0.9207  0.1804  2.0647
 6384SOL    HW230612   2.168   0.210   9.535  1.5235  1.6681  0.0220
 6385SOL     OW30613   1.241   1.372   8.707 -0.1479 -0.0310 -0.4291
 6385SOL    HW130614   1.175   1.441   8.720 -1.2815 -1.2537  0.3735
 6385SOL    HW230615   1.175   1.302   8.704  0.6733 -0.7804 -0.8463
 6386SOL     OW30616   1.926   0.479   4.140  0.0999  0.0283  0.4444
 6386SOL    HW130617   1.847   0.468   4.192 -0.0924  1.4150  0.4434
 6386SOL    HW230618   1.927   0.574   4.130 -0.1352  0.1329  1.3746
 6387SOL     OW30619   0.588   0.570   8.609 -0.4233  0.7626 -0.1900
 6387SOL    HW130620   0.636   0.572   8.526 -0.1522  0.7929 -0.0326
 6387SOL    HW230621   0.527   0.644   8.607 -0.4745  0.6811 -2.0218
 6388SOL     OW30622   0.317   3.589   7.131  0.1011 -0.0817  0.2456
 6388SOL    HW130623   0.363   3.592   7.047  1.0724  0.8362  0.8054
 6388SOL    HW230624   0.337   3.502   7.164 -2.4092 -0.6224  0.3370
 6389SOL     OW30625   0.293   2.382   8.902 -0.3408 -0.0133 -0.3415
 6389SOL    HW130626   0.325   2.455   8.954  1.0853 -0.6076 -0.3950
 6389SOL    HW230627   0.367   2.371   8.843 -0.8944  0.8770 -1.2236
 6390SOL     OW30628   3.472   4.591  13.280  0.3429 -0.1326 -0.0278
 6390SOL    HW130629   3.535   4.663  13.276  0.7309 -0.5245 -1.2029
 6390SOL    HW230630   3.391   4.637  13.298  0.6237 -0.4955  2.0998
 6391SOL     OW30631   2.116   2.093  11.150  0.7605 -1.0540 -0.4128
 6391SOL    HW130632   2.117   2.024  11.216 -1.9650  1.0121  1.7962
 6391SOL    HW230633   2.172   2.070  11.076 -1.6783 -1.3017 -2.1726
 6392SOL     OW30634   2.957   1.669   5.368  0.9746 -0.3048  0.3518
 6392SOL    HW130635   2.912   1.612   5.431 -1.4502  0.1066 -0.9972
 6392SOL    HW230636   2.892   1.737   5.349  0.6318 -0.8199 -0.3187
 6393SOL     OW30637   2.617   1.256   8.236 -0.4455  0.5359 -0.2570
 6393SOL    HW130638   2.529   1.288   8.257 -2.4206 -4.1097 -1.6046
 6393SOL    HW230639   2.611   1.267   8.141  0.1715  0.3722 -0.3152
 6394SOL     OW30640   2.509   2.618  16.638 -0.5146 -0.0339 -0.5412
 6394SOL    HW130641   2.522   2.534  16.682 -0.2981  0.2750 -0.0261
 6394SOL    HW230642   2.416   2.603  16.620 -0.4577 -0.3376 -0.5824
 6395SOL     OW30643   0.963   0.396  17.234 -0.1230  0.1090 -0.2529
 6395SOL    HW130644   0.991   0.419  17.146  0.9009 -1.4349 -0.3420
 6395SOL    HW230645   0.947   0.303  17.220 -1.4763  0.4995 -1.2970
 6396SOL     OW30646   4.644   0.999   4.865  0.4425  0.3473 -0.2296
 6396SOL    HW130647   4.601   1.075   4.904 -0.0149  1.1226 -2.2794
 6396SOL    HW230648   0.011   1.028   4.848  1.1573 -1.2223  0.7578
 6397SOL     OW30649   1.681   1.880   8.056  0.4933 -0.3631  0.3488
 6397SOL    HW130650   1.724   1.962   8.079 -1.1324  0.1306  1.6967
 6397SOL    HW230651   1.670   1.882   7.961 -0.4670  0.8402  0.4871
 6398SOL     OW30652   2.173   4.277   3.699 -0.2079  0.4050 -0.4686
 6398SOL    HW130653   2.119   4.221   3.643 -0.5234 -0.5210  0.7515
 6398SOL    HW230654   2.121   4.262   3.778  0.4164 -0.5488 -0.2343
 6399SOL     OW30655   0.230   1.929   1.692  0.4374  0.1687 -0.7337
 6399SOL    HW130656   0.307   1.985   1.693 -0.4960  1.4348  1.0143
 6399SOL    HW230657   0.263   1.853   1.644 -0.2413 -0.5309 -0.0976
 6400SOL     OW30658   3.855   3.028  11.198 -0.8857  0.1186  0.1320
 6400SOL    HW130659   3.812   3.080  11.266  1.5658  2.7209 -0.3024
 6400SOL    HW230660   3.808   2.945  11.208  0.3673 -0.2281  3.2832
 6401SOL     OW30661   3.327   2.478   4.429 -0.4748  0.4007 -0.7623
 6401SOL    HW130662   3.421   2.461   4.434 -0.9576 -2.2104 -0.9289
 6401SOL    HW230663   3.298   2.409   4.488  0.8210 -0.4693 -1.1384
 6402SOL     OW30664   4.021   0.360   8.383  0.1774  0.2296  0.3459
 6402SOL    HW130665   4.108   0.349   8.345  0.3881 -1.7657  1.3709
 6402SOL    HW230666   4.026   0.303   8.460 -0.7598  0.2210  0.3998
 6403SOL     OW30667   1.951   3.318   2.140 -0.1259 -0.5942  0.4533
 6403SOL    HW130668   1.972   3.246   2.200 -0.0349 -1.8655 -1.1230
 6403SOL    HW230669   1.865   3.291   2.110 -0.5801  2.5374 -1.0090
 6404SOL     OW30670   4.559   3.361  12.014 -0.4063  0.5991  0.5644
 6404SOL    HW130671   4.651   3.337  12.026 -0.6241 -1.1333 -1.3285
 6404SOL    HW230672   4.512   3.332  12.092  1.6837 -0.2210  1.5264
 6405SOL     OW30673   3.775   1.579   8.638  0.4491 -0.3658 -0.0480
 6405SOL    HW130674   3.721   1.634   8.582 -1.0992  0.4672  2.2760
 6405SOL    HW230675   3.785   1.505   8.578 -0.3033 -0.3091 -0.2420
 6406SOL     OW30676   1.981   1.896   0.908 -0.0787 -0.4419 -0.1232
 6406SOL    HW130677   1.996   1.991   0.913 -0.3873 -0.3640 -0.6319
 6406SOL    HW230678   1.916   1.895   0.979 -0.0736  1.9809 -0.0616
 6407SOL     OW30679   3.608   3.451   1.626 -0.1515 -0.2738  0.4184
 6407SOL    HW130680   3.513   3.455   1.639  0.1406 -1.5418  2.8291
 6407SOL    HW230681   3.622   3.504   1.547 -3.4915 -0.9804 -0.6600
 6408SOL     OW30682   1.907   2.517  13.813  0.0646  0.4419  0.1636
 6408SOL    HW130683   1.857   2.550  13.738  1.7603 -0.5785 -1.4403
 6408SOL    HW230684   1.995   2.540  13.782  0.1517  0.9750  0.8134
 6409SOL     OW30685   2.202   0.502   2.139 -0.4021 -0.5473 -0.5623
 6409SOL    HW130686   2.278   0.444   2.143 -1.5710 -2.0684 -0.2993
 6409SOL    HW230687   2.143   0.460   2.076 -1.9032 -3.9420  3.0114
 6410SOL     OW30688   3.984   3.250   8.880 -0.2624 -0.2866  1.2082
 6410SOL    HW130689   3.947   3.218   8.962  1.4252 -1.0042  1.6876
 6410SOL    HW230690   3.976   3.179   8.816 -2.2458 -0.6416  1.8386
 6411SOL     OW30691   4.546   2.070   3.980 -0.3816 -0.0761 -0.1666
 6411SOL    HW130692   4.526   2.033   3.894 -0.7590  0.5386 -0.3443
 6411SOL    HW230693   4.641   2.065   3.974 -0.1702  3.2635  0.3859
 6412SOL     OW30694   3.777   2.706   3.736  0.2479  0.8920  0.4600
 6412SOL    HW130695   3.763   2.689   3.643 -1.5912  0.7051  0.7729
 6412SOL    HW230696   3.831   2.631   3.761 -0.4690  0.1342 -0.2720
 6413SOL     OW30697   2.788   1.862   4.750  0.0590  0.0935  0.5819
 6413SOL    HW130698   2.833   1.944   4.770  0.4026  0.0837 -0.1573
 6413SOL    HW230699   2.852   1.802   4.786 -0.6683 -0.6737  0.5967
 6414SOL     OW30700   1.367   2.598   8.433  0.0885 -0.6955 -0.4949
 6414SOL    HW130701   1.397   2.625   8.346  1.1036 -1.7680 -0.4736
 6414SOL    HW230702   1.441   2.626   8.487 -0.5342  0.5955 -0.3012
 6415SOL     OW30703   2.227   3.866   2.733 -0.2751  0.2804  0.1549
 6415SOL    HW130704   2.174   3.860   2.812 -0.3742  0.5814  0.1096
 6415SOL    HW230705   2.209   3.957   2.712  1.6758  1.0638  1.8388
 6416SOL     OW30706   3.347   1.406   5.175  0.2074  0.5985  0.3306
 6416SOL    HW130707   3.284   1.475   5.198 -1.0374 -0.1020 -0.9539
 6416SOL    HW230708   3.429   1.448   5.201  0.3990  1.0048 -0.9484
 6417SOL     OW30709   2.115   2.334   3.260 -0.1776  0.0556  0.2332
 6417SOL    HW130710   2.134   2.240   3.260  0.9801  0.2839  0.0268
 6417SOL    HW230711   2.027   2.335   3.222 -0.1425  2.4211  0.2016
 6418SOL     OW30712   0.925   3.274   4.287  0.4533  0.1709 -0.0886
 6418SOL    HW130713   0.909   3.199   4.230  0.7230 -0.2195  0.3454
 6418SOL    HW230714   0.894   3.224   4.362 -0.0925  1.9472  0.8876
 6419SOL     OW30715   4.647   1.967  11.906 -0.2525 -0.6369  0.2787
 6419SOL    HW130716   0.019   1.955  11.906 -0.1471  0.1917  2.2420
 6419SOL    HW230717   4.628   2.037  11.843  1.3609 -1.0274 -0.6227
 6420SOL     OW30718   2.712   3.019   7.556 -0.3713 -0.0540 -0.2244
 6420SOL    HW130719   2.687   3.102   7.596  1.5911  0.7877 -0.6960
 6420SOL    HW230720   2.680   2.954   7.618  1.7077  0.4685  1.4299
 6421SOL     OW30721   0.071   3.515  14.546  0.4608  0.3446  0.6518
 6421SOL    HW130722   0.049   3.486  14.634 -1.5530 -1.8023 -0.5469
 6421SOL    HW230723   0.138   3.581  14.559 -1.0857  1.7645  1.4695
 6422SOL     OW30724   4.502   3.122   0.007  0.3386  0.6010  0.8462
 6422SOL    HW130725   4.592   3.143  17.676  0.4814  0.3932  1.2140
 6422SOL    HW230726   4.451   3.201  17.679 -0.4979 -0.4006 -0.9546
 6423SOL     OW30727   4.025   0.028   4.834 -0.4575  0.3010  0.1619
 6423SOL    HW130728   4.055   4.659   4.830  0.1482  0.4360  1.4452
 6423SOL    HW230729   4.058   0.064   4.752  1.3011  1.9027  1.5701
 6424SOL     OW30730   4.589   3.783  10.014  0.4972  0.3932 -0.1352
 6424SOL    HW130731   4.577   3.864  10.063 -1.4902  0.0270 -0.0121
 6424SOL    HW230732   4.626   3.818   9.933  0.1981 -0.2718 -0.5551
 6425SOL     OW30733   0.899   1.585   3.841  0.1500  0.4069  0.2505
 6425SOL    HW130734   0.821   1.634   3.867 -0.0735  0.6526 -0.8683
 6425SOL    HW230735   0.936   1.557   3.924 -0.4541 -0.9836  0.0555
 6426SOL     OW30736   0.512   3.020  16.462  0.1135 -0.2583 -0.1632
 6426SOL    HW130737   0.480   2.934  16.488 -2.2480  0.5463 -0.4343
 6426SOL    HW230738   0.432   3.063  16.434  0.6341 -0.2729 -1.6717
 6427SOL     OW30739   4.714   4.603   9.719  0.0377 -0.0322  0.3694
 6427SOL    HW130740   4.625   4.633   9.702  0.5087  0.9012 -0.4628
 6427SOL    HW230741   4.688   4.519   9.755 -1.5762  1.0150  1.6332
 6428SOL     OW30742   0.854   1.653   6.971  0.0042 -0.0098  0.1736
 6428SOL    HW130743   0.946   1.641   6.991  0.1787  3.3327  1.4576
 6428SOL    HW230744   0.813   1.674   7.055 -0.4787 -1.8778  0.3942
 6429SOL     OW30745   1.839   3.614   4.318 -0.1096 -1.1617 -0.0209
 6429SOL    HW130746   1.809   3.533   4.277 -2.2398 -0.2016 -0.3703
 6429SOL    HW230747   1.804   3.596   4.405  1.5449 -0.6020  0.7632
 6430SOL     OW30748   3.403   0.011   4.992  0.1956 -0.6197  0.5170
 6430SOL    HW130749   3.324   0.059   4.967  0.5149 -0.8262 -0.8741
 6430SOL    HW230750   3.441   4.718   4.906  2.7520 -0.8877  1.6933
 6431SOL     OW30751   2.101   3.531   0.510  0.4476 -0.6849 -0.4514
 6431SOL    HW130752   2.009   3.513   0.528  0.4635  0.2857  0.5630
 6431SOL    HW230753   2.148   3.494   0.585  1.0056 -0.8805 -0.8948
 6432SOL     OW30754   2.074   1.295   0.572  0.3894  0.0130  0.0560
 6432SOL    HW130755   2.159   1.313   0.530  0.2686  2.6286  0.9516
 6432SOL    HW230756   2.030   1.264   0.493  1.4596  0.1461 -0.6044
 6433SOL     OW30757   3.851   0.811   4.212 -0.2279 -0.1630  0.3703
 6433SOL    HW130758   3.821   0.866   4.139  1.9426  1.4089  0.6327
 6433SOL    HW230759   3.844   0.870   4.287  1.6809 -0.1445  0.5444
 6434SOL     OW30760   4.641   4.409   4.726  0.3050  0.2114  0.3105
 6434SOL    HW130761   4.547   4.422   4.711  0.5535  1.0064 -0.6107
 6434SOL    HW230762   4.663   4.493   4.766 -0.1378  0.3917  0.1864
 6435SOL     OW30763   3.499   4.600  11.184 -0.7430  0.0873 -0.8011
 6435SOL    HW130764   3.425   4.643  11.227  0.3607  1.2463 -0.0619
 6435SOL    HW230765   3.534   4.563  11.265 -0.5712  1.3988 -0.2825
 6436SOL     OW30766   3.915   1.785  14.191  0.2845  0.7127  0.0185
 6436SOL    HW130767   3.967   1.836  14.252  0.4860  0.6137 -0.0708
 6436SOL    HW230768   3.976   1.767  14.120  1.1440 -2.4411  1.5627
 6437SOL     OW30769   1.392   0.813  12.341 -0.5317 -0.0399 -0.2661
 6437SOL    HW130770   1.421   0.745  12.281 -0.9356 -0.3740 -0.0883
 6437SOL    HW230771   1.399   0.884  12.277 -1.9963 -0.3099 -0.7285
 6438SOL     OW30772   3.929   3.347   6.385  0.2824 -0.0440  0.0388
 6438SOL    HW130773   3.864   3.367   6.317  0.6764  1.7551  0.1889
 6438SOL    HW230774   3.885   3.364   6.468  0.7214 -0.3860  0.3401
 6439SOL     OW30775   2.260   2.334  12.368  0.2122  0.0671 -0.7652
 6439SOL    HW130776   2.286   2.246  12.397 -0.5717 -0.0956 -0.5598
 6439SOL    HW230777   2.175   2.329  12.413  0.0270  0.7840 -1.0518
 6440SOL     OW30778   0.131   0.218  12.977 -0.0377 -0.3821  0.0260
 6440SOL    HW130779   0.098   0.282  12.915 -1.7419 -0.3913  0.9141
 6440SOL    HW230780   0.224   0.242  12.969  0.4791 -2.7857 -1.2087
 6441SOL     OW30781   1.623   3.097   2.999  0.2270  0.6117 -0.1682
 6441SOL    HW130782   1.710   3.093   3.039  1.0702 -0.1097 -2.0693
 6441SOL    HW230783   1.579   3.143   3.071 -1.2650 -0.1040 -0.6355
 6442SOL     OW30784   1.712   4.151   8.203  0.0940  0.0429  0.2490
 6442SOL    HW130785   1.734   4.068   8.245 -0.0866  0.6668  1.5745
 6442SOL    HW230786   1.784   4.204   8.236 -1.7177  2.1852  0.7862
 6443SOL     OW30787   4.439   3.532   9.642  0.2753 -0.6489  0.3751
 6443SOL    HW130788   4.383   3.455   9.656 -0.0281 -0.2664  1.2561
 6443SOL    HW230789   4.526   3.492   9.638  0.4986 -0.2685  1.3494
 6444SOL     OW30790   3.859   2.743  14.935  0.7228  0.5256  0.1979
 6444SOL    HW130791   3.828   2.688  14.862 -1.3172 -1.9491  2.9510
 6444SOL    HW230792   3.772   2.763  14.969  0.6018  0.3066  0.0198
 6445SOL     OW30793   2.321   1.233   4.334  0.6198  0.3172 -0.2274
 6445SOL    HW130794   2.245   1.177   4.351  1.7710 -0.4865  2.2815
 6445SOL    HW230795   2.280   1.306   4.288 -2.3687 -0.8386  0.6193
 6446SOL     OW30796   0.692   1.537  17.028 -0.1479 -0.7647  0.1531
 6446SOL    HW130797   0.699   1.444  17.008 -1.8987 -0.3567 -2.3629
 6446SOL    HW230798   0.673   1.567  16.939  0.8227  0.5995  0.4139
 6447SOL     OW30799   3.991   0.057  10.243  0.2255  0.7366  0.1251
 6447SOL    HW130800   3.949   0.140  10.220  0.3327  0.8786  0.4430
 6447SOL    HW230801   3.924   4.715  10.220  1.1908 -0.6404  1.1385
 6448SOL     OW30802   3.342   3.525   4.681 -0.9055 -0.0451  0.4469
 6448SOL    HW130803   3.320   3.587   4.613 -1.9699 -0.5625  0.3251
 6448SOL    HW230804   3.434   3.552   4.690 -1.0082 -0.1278  1.7889
 6449SOL     OW30805   2.533   2.567   5.569 -0.2005 -0.6015  0.3025
 6449SOL    HW130806   2.592   2.547   5.497  0.5891  0.4993  0.6521
 6449SOL    HW230807   2.521   2.478   5.603 -1.4965 -0.2586  0.7610
 6450SOL     OW30808   3.410   3.573   5.533 -0.4911  0.4358  0.3896
 6450SOL    HW130809   3.369   3.649   5.575 -2.8269 -1.1110  0.9087
 6450SOL    HW230810   3.392   3.594   5.441 -0.2253  2.0477  0.7008
 6451SOL     OW30811   2.576   0.137   1.005  0.5074  0.8641 -0.3052
 6451SOL    HW130812   2.589   0.196   1.080 -1.5807  0.6548  0.2197
 6451SOL    HW230813   2.665   0.141   0.971  1.0775  1.9545  1.3044
 6452SOL     OW30814   0.958   1.458   4.480  0.4911 -0.2678 -0.3213
 6452SOL    HW130815   0.950   1.456   4.575 -2.8732 -0.4359 -0.6065
 6452SOL    HW230816   1.052   1.440   4.479  0.7462  1.0234 -1.3733
 6453SOL     OW30817   0.712   4.539   2.472 -0.2561 -0.3816  0.2998
 6453SOL    HW130818   0.686   4.627   2.446  1.4046 -0.4196 -1.5130
 6453SOL    HW230819   0.801   4.553   2.503 -1.3097  1.4168  2.4588
 6454SOL     OW30820   4.361   0.845  14.532  0.1293 -0.3267 -0.3465
 6454SOL    HW130821   4.447   0.858  14.573 -0.2394  0.1167  0.2937
 6454SOL    HW230822   4.323   0.931  14.551 -0.3858 -0.0362 -2.6908
 6455SOL     OW30823   1.731   1.756   9.080  0.2042  0.2001  0.7800
 6455SOL    HW130824   1.734   1.759   9.176 -1.1292 -1.6630  0.8718
 6455SOL    HW230825   1.684   1.675   9.061  0.7971  0.0392  0.0194
 6456SOL     OW30826   2.905   4.229   1.008  0.2303 -0.5749 -0.8877
 6456SOL    HW130827   2.892   4.164   0.940 -0.4864 -1.5125  0.1473
 6456SOL    HW230828   2.939   4.294   0.947 -0.8946 -0.0946 -1.0180
 6457SOL     OW30829   3.308   3.618   1.895  0.0094  0.1530  0.2475
 6457SOL    HW130830   3.237   3.615   1.831 -0.3891 -0.4362  0.7163
 6457SOL    HW230831   3.376   3.672   1.856 -0.8295  1.2502  0.3003
 6458SOL     OW30832   0.771   2.843   8.741  0.9521 -0.0387  0.3189
 6458SOL    HW130833   0.727   2.897   8.675  1.4174  0.2570  0.2589
 6458SOL    HW230834   0.794   2.764   8.692  0.7039  0.9268 -1.3437
 6459SOL     OW30835   3.065   0.773  12.989 -0.2989  0.1923  0.6022
 6459SOL    HW130836   3.034   0.844  13.045 -2.3163 -1.0175  1.0431
 6459SOL    HW230837   2.990   0.774  12.931 -0.8739 -1.1346  1.3032
 6460SOL     OW30838   4.684   0.489  16.048  0.0002  0.3461 -0.1202
 6460SOL    HW130839   4.642   0.460  15.967 -2.7132  1.4087  0.9286
 6460SOL    HW230840   4.661   0.437  16.124  1.1100 -0.0838 -0.0782
 6461SOL     OW30841   2.933   4.028   8.591  0.1789 -0.1407  0.3300
 6461SOL    HW130842   2.987   3.949   8.586  1.9785  1.1917 -1.5352
 6461SOL    HW230843   2.965   4.081   8.517 -0.1610 -1.1982 -0.5810
 6462SOL     OW30844   3.524   4.646   3.310  0.1415  0.6288 -0.4057
 6462SOL    HW130845   3.438   4.655   3.351  0.7768 -0.7820  1.2223
 6462SOL    HW230846   3.512   4.560   3.270 -1.1243  0.5322  0.2017
 6463SOL     OW30847   0.701   1.431  14.422 -0.1879 -0.1915 -0.2132
 6463SOL    HW130848   0.747   1.400  14.345  2.6039  0.1843  1.3077
 6463SOL    HW230849   0.717   1.524  14.409 -1.7266  0.1523  0.3024
 6464SOL     OW30850   0.877   1.748  17.030 -0.3530 -0.7336 -0.2608
 6464SOL    HW130851   0.848   1.828  16.986 -1.2505 -0.4641  0.8048
 6464SOL    HW230852   0.809   1.684  17.009 -0.6197 -0.2710 -0.7985
 6465SOL     OW30853   2.025   1.815   2.587 -0.2403  0.1708  0.4726
 6465SOL    HW130854   2.112   1.822   2.626  0.5544  0.1854 -1.2913
 6465SOL    HW230855   2.004   1.733   2.631  1.2969  0.7210  2.2291
 6466SOL     OW30856   3.169   4.472   3.629 -0.0807 -0.0375  0.4370
 6466SOL    HW130857   3.164   4.557   3.673 -1.1414 -0.3639  0.9593
 6466SOL    HW230858   3.217   4.492   3.549 -0.2991  0.5037  0.4422
 6467SOL     OW30859   4.234   3.885  13.129 -0.2178 -0.5095  0.2383
 6467SOL    HW130860   4.193   3.912  13.047 -2.0975  0.3236  1.4509
 6467SOL    HW230861   4.243   3.968  13.177 -0.5822  1.9681 -3.9841
 6468SOL     OW30862   2.430   0.148  10.802  0.0715  0.2349 -0.3929
 6468SOL    HW130863   2.421   0.222  10.741 -1.7405  0.2400 -0.1169
 6468SOL    HW230864   2.338   0.146  10.825  0.3863 -2.0703  0.6670
 6469SOL     OW30865   0.763   0.553  11.264 -0.0646  0.5359  0.0337
 6469SOL    HW130866   0.833   0.522  11.206  1.4305  2.4065  0.8451
 6469SOL    HW230867   0.818   0.600  11.326  1.6228  0.8884 -1.7089
 6470SOL     OW30868   4.377   2.780   3.195 -0.4951 -0.1534  0.2192
 6470SOL    HW130869   4.398   2.789   3.288  2.3644  1.0934 -0.5551
 6470SOL    HW230870   4.463   2.809   3.163 -0.4537 -0.2017  0.2883
 6471SOL     OW30871   3.483   2.708   4.332  0.3362  0.1499  0.4076
 6471SOL    HW130872   3.536   2.640   4.375 -1.2281 -1.2558  0.1106
 6471SOL    HW230873   3.440   2.742   4.410  0.3675 -0.2807  0.6125
 6472SOL     OW30874   3.950   1.906   8.736  0.8997 -0.2592  0.0688
 6472SOL    HW130875   3.898   1.848   8.791 -0.8483  0.6582 -0.6439
 6472SOL    HW230876   3.926   1.876   8.648  2.6382  1.4479 -0.9751
 6473SOL     OW30877   2.120   4.496   3.106 -0.0009 -0.2005  0.6593
 6473SOL    HW130878   2.185   4.565   3.095 -0.6279  0.1042 -1.0967
 6473SOL    HW230879   2.042   4.552   3.105  1.0858  1.3444  2.6603
 6474SOL     OW30880   1.682   1.327   3.457  0.6057  0.1158 -0.2867
 6474SOL    HW130881   1.679   1.238   3.423  0.0007 -0.4555  1.2900
 6474SOL    HW230882   1.671   1.308   3.550 -1.5774 -0.1556 -0.6232
 6475SOL     OW30883   0.053   0.925   5.465 -0.2522  0.3054  0.0787
 6475SOL    HW130884   0.035   0.831   5.463 -1.5637  0.5778 -0.9405
 6475SOL    HW230885   0.012   0.954   5.383 -0.8824 -0.8886 -0.0351
 6476SOL     OW30886   2.577   1.636  14.990 -0.3915  0.3624  0.2214
 6476SOL    HW130887   2.488   1.604  15.006 -0.2245  0.4077  1.2001
 6476SOL    HW230888   2.559   1.724  14.957 -1.3480 -0.7191 -2.1589
 6477SOL     OW30889   1.404   2.047   7.632 -0.0792 -0.1757  0.1387
 6477SOL    HW130890   1.432   2.139   7.630  0.0261 -0.1933  1.0282
 6477SOL    HW230891   1.423   2.021   7.722 -5.0342  0.6078  1.4030
 6478SOL     OW30892   2.368   0.201  16.692  0.1051 -0.0773 -0.4155
 6478SOL    HW130893   2.415   0.176  16.612  1.8476  1.7344  0.0348
 6478SOL    HW230894   2.290   0.246  16.658  1.0769  1.5491 -0.5207
 6479SOL     OW30895   2.542   0.104  17.445  0.0641 -0.1440  0.8062
 6479SOL    HW130896   2.586   0.186  17.467 -0.8364 -0.0187  2.1619
 6479SOL    HW230897   2.465   0.126  17.394 -1.3159 -0.4640  2.7280
 6480SOL     OW30898   0.887   0.773   4.338 -0.3739 -0.5790  0.0072
 6480SOL    HW130899   0.908   0.848   4.282 -0.6403 -1.8952 -1.8782
 6480SOL    HW230900   0.801   0.799   4.371 -1.2459  0.8226 -3.3595
 6481SOL     OW30901   2.776   1.730  11.101  0.3150  0.1611  0.0128
 6481SOL    HW130902   2.814   1.817  11.116  1.6498 -0.3399 -0.4051
 6481SOL    HW230903   2.737   1.758  11.018  0.8841 -0.5917 -0.5059
 6482SOL     OW30904   1.502   3.174   7.305  0.0548 -0.5940  0.3033
 6482SOL    HW130905   1.496   3.238   7.375 -1.3802 -1.9517  1.4162
 6482SOL    HW230906   1.454   3.230   7.244  0.2894 -1.2316 -0.4664
 6483SOL     OW30907   0.291   1.809   8.545  0.2691  0.5330  0.1571
 6483SOL    HW130908   0.347   1.757   8.603 -0.6388 -1.8742 -1.1474
 6483SOL    HW230909   0.292   1.761   8.462  1.7973  2.6123 -1.0192
 6484SOL     OW30910   2.863   4.531   7.689 -0.4194  0.5749 -0.4112
 6484SOL    HW130911   2.911   4.535   7.607 -2.5344  0.5444 -1.6662
 6484SOL    HW230912   2.935   4.566   7.741 -1.2606  0.8024  0.6144
 6485SOL     OW30913   0.459   3.502   8.506  0.5051 -0.1307 -0.0235
 6485SOL    HW130914   0.543   3.545   8.489  0.8065 -1.4787 -1.9662
 6485SOL    HW230915   0.431   3.550   8.584  0.3953  0.9027 -0.6885
 6486SOL     OW30916   3.762   0.377  10.763  0.3890  0.1687 -0.2997
 6486SOL    HW130917   3.856   0.384  10.746  0.3471  0.1650 -0.5312
 6486SOL    HW230918   3.744   0.284  10.770  1.4418 -0.1502 -1.9029
 6487SOL     OW30919   2.538   3.889   9.119 -0.5502  0.4164 -0.3119
 6487SOL    HW130920   2.610   3.927   9.067 -0.4690  0.6832 -0.0079
 6487SOL    HW230921   2.473   3.955   9.095 -1.4303 -0.0420  0.8349
 6488SOL     OW30922   2.831   2.574   2.175 -0.2832  0.2738 -0.5838
 6488SOL    HW130923   2.903   2.562   2.114 -0.2149  1.2034 -0.6919
 6488SOL    HW230924   2.751   2.564   2.123 -0.4746  0.9688 -0.4253
 6489SOL     OW30925   2.316   3.864   1.773 -0.1674  0.5598  0.0283
 6489SOL    HW130926   2.387   3.896   1.717  2.3996 -0.5470  2.6017
 6489SOL    HW230927   2.275   3.795   1.720 -1.9110  1.4922  0.1932
 6490SOL     OW30928   1.359   2.494  14.881  0.0181  0.5218 -0.3259
 6490SOL    HW130929   1.356   2.559  14.951  1.5834 -1.2112  1.3519
 6490SOL    HW230930   1.341   2.409  14.921  1.2503  0.1554 -0.5626
 6491SOL     OW30931   0.462   1.887   2.314  0.0590 -0.4371  0.1925
 6491SOL    HW130932   0.484   1.939   2.392 -0.5774 -2.0997  1.4701
 6491SOL    HW230933   0.390   1.835   2.348 -0.4798  1.2557  1.6829
 6492SOL     OW30934   2.268   2.731   3.648 -0.4149  0.4483 -0.0041
 6492SOL    HW130935   2.286   2.822   3.670  0.3749  0.3483 -0.2260
 6492SOL    HW230936   2.260   2.726   3.552 -2.4977  0.7039  0.1524
 6493SOL     OW30937   3.971   3.416  14.368 -0.5709 -0.2086 -0.1334
 6493SOL    HW130938   4.016   3.465  14.298  0.2632 -0.6246  0.1102
 6493SOL    HW230939   3.957   3.484  14.433 -0.8638  1.0568 -1.5187
 6494SOL     OW30940   2.256   2.175   9.353  0.1145 -0.0950 -0.2727
 6494SOL    HW130941   2.238   2.260   9.393  0.0108  0.4150 -1.4078
 6494SOL    HW230942   2.172   2.129   9.355  0.3773 -0.5992 -0.6432
 6495SOL     OW30943   2.745   2.829  10.028 -0.0104 -0.1629  0.2584
 6495SOL    HW130944   2.730   2.745  10.072  0.0249  0.6652  1.8495
 6495SOL    HW230945   2.794   2.880  10.093 -0.7937  1.8013 -0.6884
 6496SOL     OW30946   3.198   4.267   2.104  0.2176  0.1245  0.0985
 6496SOL    HW130947   3.201   4.268   2.200  0.4248 -1.7765  0.1179
 6496SOL    HW230948   3.281   4.310   2.087  0.7940 -1.1832 -0.4432
 6497SOL     OW30949   2.257   2.590  14.017 -0.1779  0.5455  0.0354
 6497SOL    HW130950   2.348   2.585  14.046  0.8348  0.7355 -3.1024
 6497SOL    HW230951   2.259   2.534  13.940 -0.9005 -0.6074  0.8567
 6498SOL     OW30952   3.930   3.899   7.802 -0.4770  0.1011  0.1540
 6498SOL    HW130953   3.861   3.958   7.772 -2.3157 -0.1918  3.7060
 6498SOL    HW230954   3.914   3.893   7.896  1.4904 -1.0007  0.4070
 6499SOL     OW30955   4.094   4.336   2.585 -0.6118  0.1490 -0.0735
 6499SOL    HW130956   4.035   4.277   2.632  0.1094 -0.3586  0.2007
 6499SOL    HW230957   4.046   4.339   2.502  0.5558 -1.5712 -0.7975
 6500SOL     OW30958   4.271   0.015  15.861 -0.5719 -0.2748 -0.3586
 6500SOL    HW130959   4.347   0.066  15.888 -1.5971  1.3724 -0.5967
 6500SOL    HW230960   4.241   4.713  15.949  0.4909 -0.1111  0.0503
 6501SOL     OW30961   0.438   2.842   8.702 -0.0846  0.1696  0.0648
 6501SOL    HW130962   0.506   2.878   8.646 -0.5280 -0.3972 -0.8400
 6501SOL    HW230963   0.472   2.766   8.749  0.6185  1.4167  1.5649
 6502SOL     OW30964   4.141   1.021   6.150  0.8556  0.3800  0.2697
 6502SOL    HW130965   4.216   1.037   6.208  0.5618 -0.5683  0.9114
 6502SOL    HW230966   4.082   1.089   6.182 -1.3585 -0.8695 -1.2106
 6503SOL     OW30967   1.529   3.186   2.507 -0.3293  0.2377 -0.1443
 6503SOL    HW130968   1.505   3.103   2.467  2.2941 -0.9364  0.7174
 6503SOL    HW230969   1.619   3.194   2.476 -0.4275 -2.4844 -1.1265
 6504SOL     OW30970   0.808   3.872   4.317  0.2945 -0.4234 -0.5172
 6504SOL    HW130971   0.831   3.813   4.388 -1.1973  0.3951  0.6415
 6504SOL    HW230972   0.715   3.872   4.339 -0.1245  0.7792 -2.2715
 6505SOL     OW30973   3.677   1.072  11.930  0.2510  0.2507  0.4720
 6505SOL    HW130974   3.667   1.134  11.857 -0.0281  2.2705  2.2412
 6505SOL    HW230975   3.684   1.135  12.002 -1.6182 -0.8666  1.6180
 6506SOL     OW30976   1.712   1.361  15.456  0.5557 -0.1611 -0.7911
 6506SOL    HW130977   1.665   1.325  15.531  0.8519  0.6542 -0.2073
 6506SOL    HW230978   1.703   1.293  15.389 -0.2320 -0.7148 -0.1321
 6507SOL     OW30979   1.372   0.679  12.013  0.1139 -0.3126  0.6786
 6507SOL    HW130980   1.416   0.739  11.953 -1.9021  0.4745 -0.0225
 6507SOL    HW230981   1.359   0.614  11.943 -1.2368 -0.0247  0.6661
 6508SOL     OW30982   1.353   2.159   5.948 -0.3334  0.1997 -0.0603
 6508SOL    HW130983   1.325   2.108   6.023  0.4336  0.6641  0.5492
 6508SOL    HW230984   1.276   2.142   5.893 -0.4720 -1.4023  0.6533
 6509SOL     OW30985   0.315   2.269  17.348 -0.2479 -0.2793 -0.0277
 6509SOL    HW130986   0.253   2.197  17.362  1.5638 -2.0548 -1.1103
 6509SOL    HW230987   0.276   2.305  17.267 -3.2560 -1.6919  0.7715
 6510SOL     OW30988   0.593   2.000   8.826 -0.3483  0.3419  0.2560
 6510SOL    HW130989   0.560   2.056   8.896  1.3498  2.5374 -0.7039
 6510SOL    HW230990   0.627   2.065   8.764  0.1817 -0.5701 -0.4173
 6511SOL     OW30991   2.285   3.716   8.534  0.1567 -1.1453 -0.1519
 6511SOL    HW130992   2.378   3.699   8.552  0.1257 -2.1919 -1.0219
 6511SOL    HW230993   2.260   3.624   8.527 -1.4668 -0.6829 -0.4751
 6512SOL     OW30994   3.013   2.619   3.150 -0.3954 -0.8623 -0.2020
 6512SOL    HW130995   2.988   2.646   3.061  0.6810 -0.0725 -0.2638
 6512SOL    HW230996   2.995   2.525   3.145  2.1834 -1.2376 -2.8721
 6513SOL     OW30997   3.055   2.832  11.768 -0.6323  0.4131  0.0597
 6513SOL    HW130998   3.144   2.840  11.733 -1.1818  2.1079 -0.9252
 6513SOL    HW230999   2.996   2.806  11.698 -0.5235  1.2251 -0.3347
 6514SOL     OW31000   4.478   3.783   4.156 -0.1150  0.1056  0.0189
 6514SOL    HW131001   4.541   3.854   4.165  0.0275 -0.0646  0.3698
 6514SOL    HW231002   4.526   3.706   4.127 -0.1565  1.1354 -2.7406
 6515SOL     OW31003   2.341   4.262   8.430 -0.4092 -0.3949  0.8711
 6515SOL    HW131004   2.333   4.166   8.435 -0.8653 -0.3823  0.3989
 6515SOL    HW231005   2.355   4.279   8.524  1.3801 -3.4412  1.1602
 6516SOL     OW31006   0.078   0.882   5.936 -0.6552 -0.0717  0.2831
 6516SOL    HW131007   4.714   0.914   5.962 -0.4261  0.3314  0.5506
 6516SOL    HW231008   0.058   0.817   5.869  1.7549 -0.8388  0.3043
 6517SOL     OW31009   4.495   1.306   2.553  0.1834  0.0264  0.0125
 6517SOL    HW131010   4.473   1.331   2.463 -1.1492  1.5081  0.7422
 6517SOL    HW231011   4.585   1.338   2.556  0.3877 -0.3900 -2.0727
 6518SOL     OW31012   2.682   3.280  11.693  0.8516  0.0713  0.1219
 6518SOL    HW131013   2.767   3.238  11.682 -0.1142 -1.8716 -0.0507
 6518SOL    HW231014   2.634   3.242  11.619  1.1753  1.4776 -0.7888
 6519SOL     OW31015   0.547   0.814   2.486  0.3465 -0.2549  0.3124
 6519SOL    HW131016   0.599   0.874   2.432 -3.1089  1.5505 -0.9943
 6519SOL    HW231017   0.540   0.737   2.430  1.3229  0.7135 -1.1463
 6520SOL     OW31018   4.055   2.418  10.681 -0.1709 -0.0665 -0.4645
 6520SOL    HW131019   4.092   2.356  10.745 -0.2197 -1.3408 -1.6743
 6520SOL    HW231020   3.966   2.389  10.702  0.0362 -0.2078  0.2193
 6521SOL     OW31021   2.747   2.260  17.342  0.3091  0.3825  0.5767
 6521SOL    HW131022   2.820   2.257  17.403  0.5778 -2.0538  0.1090
 6521SOL    HW231023   2.681   2.223  17.400 -2.1668 -0.7822 -2.9929
 6522SOL     OW31024   4.242   1.457   2.620  0.0114 -0.3983  0.0018
 6522SOL    HW131025   4.334   1.441   2.599  0.2194  0.6910  0.0833
 6522SOL    HW231026   4.203   1.388   2.566 -2.5407  0.4309  0.7785
 6523SOL     OW31027   0.927   3.846   0.587  0.1755 -0.5344 -0.9401
 6523SOL    HW131028   0.950   3.880   0.674  0.3823 -0.4411 -1.0302
 6523SOL    HW231029   0.833   3.833   0.599 -0.1535  1.9691 -0.8385
 6524SOL     OW31030   0.572   2.231   1.962 -0.2157 -0.6009 -0.3040
 6524SOL    HW131031   0.544   2.230   2.053 -0.7570 -0.3165 -0.4629
 6524SOL    HW231032   0.505   2.291   1.930 -0.5833 -1.0147 -0.3216
 6525SOL     OW31033   4.666   1.757   9.469 -0.0992  0.4738 -0.7685
 6525SOL    HW131034   4.702   1.754   9.381  0.5300  0.0121 -0.4950
 6525SOL    HW231035   4.647   1.664   9.475  1.2185  0.3575  1.5638
 6526SOL     OW31036   1.186   2.720   3.936  0.1949  0.4042  0.4516
 6526SOL    HW131037   1.137   2.644   3.903  1.5722 -0.7932  1.1464
 6526SOL    HW231038   1.205   2.677   4.019 -2.8116 -1.5200  0.1550
 6527SOL     OW31039   3.557   3.563   9.295 -0.5424 -0.0413 -0.1056
 6527SOL    HW131040   3.462   3.576   9.290 -1.1250 -3.1783  2.5998
 6527SOL    HW231041   3.560   3.504   9.371  2.6750  0.0396 -0.1757
 6528SOL     OW31042   1.256   3.460   8.224  0.3778 -0.5182  0.2634
 6528SOL    HW131043   1.244   3.386   8.283 -2.3465 -0.4677 -0.2442
 6528SOL    HW231044   1.278   3.427   8.137 -2.2650  0.2095 -0.6903
 6529SOL     OW31045   3.356   4.352   3.798 -0.4253 -0.1894  0.6159
 6529SOL    HW131046   3.284   4.375   3.740  1.6807  1.6898 -1.2525
 6529SOL    HW231047   3.364   4.258   3.784 -1.0162  0.3866 -3.4453
 6530SOL     OW31048   3.998   1.552   2.718  0.7042  0.3762 -0.1815
 6530SOL    HW131049   3.995   1.463   2.753 -3.5692  1.0655  1.1509
 6530SOL    HW231050   4.091   1.552   2.695  0.4008 -0.0815 -1.4180
 6531SOL     OW31051   0.319   3.781  15.900  0.1534  0.1256 -0.6449
 6531SOL    HW131052   0.286   3.871  15.898  2.8986  1.1894  1.1582
 6531SOL    HW231053   0.354   3.763  15.988 -0.4987 -1.8790 -0.7976
 6532SOL     OW31054   1.982   2.128   6.299  0.8902 -0.8068  0.1413
 6532SOL    HW131055   1.965   2.066   6.370 -2.3898 -0.8336 -0.6367
 6532SOL    HW231056   1.898   2.173   6.307  0.7171 -0.9514 -0.8145
 6533SOL     OW31057   0.735   3.207   0.877  0.6876 -0.1863  0.0950
 6533SOL    HW131058   0.648   3.216   0.840  2.1106 -0.0968 -3.1968
 6533SOL    HW231059   0.744   3.289   0.926 -0.6236  0.9724 -1.5957
 6534SOL     OW31060   2.549   1.292   5.068 -0.3557  0.4416  0.3481
 6534SOL    HW131061   2.528   1.202   5.092  1.3664 -0.0387  0.0576
 6534SOL    HW231062   2.634   1.281   5.027 -0.2368  1.0662  0.4231
 6535SOL     OW31063   0.019   4.538   9.063  0.3262  0.0065 -0.2171
 6535SOL    HW131064   4.713   4.515   9.151 -0.8876  0.5861 -0.4577
 6535SOL    HW231065   4.709   4.627   9.048  0.9386  0.0249 -1.4473
 6536SOL     OW31066   2.819   0.405   3.103 -0.2530 -0.2605 -0.2207
 6536SOL    HW131067   2.830   0.478   3.165  0.9562  0.1102 -0.8615
 6536SOL    HW231068   2.742   0.444   3.061  0.2642  2.2588  1.1709
 6537SOL     OW31069   3.729   1.900   7.642 -0.0987 -0.4365  0.7994
 6537SOL    HW131070   3.757   1.979   7.597 -0.0260 -0.0422  1.5446
 6537SOL    HW231071   3.639   1.885   7.613 -0.1598  0.6862  0.4256
 6538SOL     OW31072   1.260   3.446  14.553  0.0929 -0.6824  0.1705
 6538SOL    HW131073   1.330   3.418  14.494  1.2560  0.7238  0.8476
 6538SOL    HW231074   1.207   3.367  14.543  0.1309 -0.7412  0.4346
 6539SOL     OW31075   1.293   0.300   6.076 -0.3042  0.4119 -0.8177
 6539SOL    HW131076   1.296   0.296   5.981  1.1679  0.2659 -0.7697
 6539SOL    HW231077   1.207   0.335   6.101  0.1078  1.1175 -0.3928
 6540SOL     OW31078   2.379   3.272   1.091  0.3525 -0.1222  0.3883
 6540SOL    HW131079   2.337   3.207   1.148  0.4431  0.5470  1.2137
 6540SOL    HW231080   2.468   3.245   1.069  0.6582  0.7101  0.5961
 6541SOL     OW31081   0.588   0.333   0.224 -0.1089  0.1512  0.4655
 6541SOL    HW131082   0.564   0.333   0.132  0.9986  0.5121  0.1710
 6541SOL    HW231083   0.504   0.338   0.269 -1.1143  3.1790 -1.7853
 6542SOL     OW31084   2.872   3.759   3.040  0.2926  0.2016 -0.0009
 6542SOL    HW131085   2.837   3.701   2.972 -2.8429  0.6023  1.2751
 6542SOL    HW231086   2.798   3.768   3.100 -0.0663 -1.8527 -0.1278
 6543SOL     OW31087   2.630   1.338   5.467 -0.7448 -0.3208  0.0056
 6543SOL    HW131088   2.644   1.390   5.546  2.7098 -1.4453  0.1202
 6543SOL    HW231089   2.714   1.305   5.435  0.9875  1.9098  2.1735
 6544SOL     OW31090   2.002   1.727   0.705 -0.3328 -0.1982  0.0805
 6544SOL    HW131091   1.912   1.713   0.674 -0.6586  0.7961  0.5729
 6544SOL    HW231092   1.994   1.802   0.764  0.8449  0.0057 -0.0306
 6545SOL     OW31093   3.860   3.145   9.076  0.6516 -0.0404 -0.0798
 6545SOL    HW131094   3.804   3.191   9.139  0.5643 -0.5565  0.2222
 6545SOL    HW231095   3.800   3.075   9.051  0.7131 -0.5927  1.3062
 6546SOL     OW31096   4.636   2.765   5.083 -0.8160 -0.0487  0.3326
 6546SOL    HW131097   4.675   2.725   5.005  2.5417 -0.0499  2.0286
 6546SOL    HW231098   4.604   2.843   5.037  0.0965 -1.4810 -2.7102
 6547SOL     OW31099   2.740   4.298   0.377  0.7025 -0.0885 -0.0229
 6547SOL    HW131100   2.751   4.215   0.423 -1.2034 -0.7744 -0.8348
 6547SOL    HW231101   2.645   4.307   0.385  0.5415 -1.9609 -0.0434
 6548SOL     OW31102   4.024   3.407   6.890  0.0199  0.5670  0.0903
 6548SOL    HW131103   3.941   3.404   6.936  0.0419 -2.4706 -0.0280
 6548SOL    HW231104   4.036   3.314   6.868  0.9367  0.3406  1.5035
 6549SOL     OW31105   2.575   0.028  16.190 -0.4683  0.1899 -0.2988
 6549SOL    HW131106   2.615   4.686  16.249 -0.7279 -0.9781 -1.4021
 6549SOL    HW231107   2.639   0.098  16.177  2.1378 -2.0937  0.3001
 6550SOL     OW31108   3.210   0.099   8.593  0.2720 -0.3665  0.3101
 6550SOL    HW131109   3.130   0.088   8.542 -0.4650  0.5447  1.2553
 6550SOL    HW231110   3.223   0.194   8.583 -1.1980 -0.2591 -0.6712
 6551SOL     OW31111   3.269   1.225   5.374 -0.3488 -0.1447 -0.2091
 6551SOL    HW131112   3.222   1.184   5.302  1.4483 -0.1365 -1.3893
 6551SOL    HW231113   3.272   1.317   5.344  2.7117  0.1885  1.1463
 6552SOL     OW31114   3.911   4.242   3.853  0.2166  0.5986  0.0713
 6552SOL    HW131115   3.924   4.148   3.840 -0.9207  0.4964 -0.3149
 6552SOL    HW231116   3.934   4.250   3.946 -2.3856 -1.6694  0.9188
 6553SOL     OW31117   3.546   1.730   0.840  0.5032 -0.2775 -0.5691
 6553SOL    HW131118   3.587   1.778   0.912 -0.2530  0.5919 -0.7155
 6553SOL    HW231119   3.516   1.646   0.875  0.3371  0.0892  0.1908
 6554SOL     OW31120   0.743   2.959  16.326  0.7759 -0.4379  0.1185
 6554SOL    HW131121   0.730   3.005  16.409 -0.4373 -0.4030 -0.1024
 6554SOL    HW231122   0.656   2.948  16.290  0.3964  2.8937  0.0018
 6555SOL     OW31123   0.880   0.890   6.711  0.2440 -0.5793  0.0036
 6555SOL    HW131124   0.906   0.809   6.666  0.4963  0.7204 -2.1849
 6555SOL    HW231125   0.932   0.952   6.661  1.4042 -1.6276 -0.0728
 6556SOL     OW31126   2.709   1.111  17.690 -0.1130 -0.5588 -0.2060
 6556SOL    HW131127   2.697   1.101   0.093  0.7348 -2.3181 -0.2773
 6556SOL    HW231128   2.704   1.021  17.659 -0.9440 -0.5231 -0.1604
 6557SOL     OW31129   4.464   1.589   4.871 -0.5739  0.3695 -0.0220
 6557SOL    HW131130   4.522   1.662   4.852  1.4030 -1.1064  0.3613
 6557SOL    HW231131   4.458   1.553   4.783  0.1134  0.3312 -0.0480
 6558SOL     OW31132   3.912   3.911   8.089 -0.0163  0.3380 -0.4897
 6558SOL    HW131133   3.985   3.849   8.091 -0.1194  0.2257 -0.2001
 6558SOL    HW231134   3.919   3.947   8.178 -0.4758 -0.3237 -0.1917
 6559SOL     OW31135   3.383   1.054   9.332  0.6162  0.5371  0.2267
 6559SOL    HW131136   3.362   1.144   9.307 -1.3307 -0.3630 -1.3843
 6559SOL    HW231137   3.334   0.999   9.271 -0.9984 -0.7610  2.7195
 6560SOL     OW31138   3.157   4.119   3.531  0.3501  0.1033  0.2954
 6560SOL    HW131139   3.104   4.179   3.584 -1.4227 -1.0470 -0.1855
 6560SOL    HW231140   3.091   4.086   3.471 -0.9762  0.3516  1.6245
 6561SOL     OW31141   3.209   2.376  16.458  0.0567 -0.4737 -0.5040
 6561SOL    HW131142   3.193   2.464  16.492 -0.1039 -1.2884  1.5273
 6561SOL    HW231143   3.244   2.325  16.531 -0.0571 -1.8289 -1.3917
 6562SOL     OW31144   4.323   2.935   4.196 -0.1608  0.0599 -0.1835
 6562SOL    HW131145   4.300   2.931   4.104  0.0049  0.9440 -0.2638
 6562SOL    HW231146   4.415   2.922   4.171 -0.6669 -2.0267 -0.9187
 6563SOL     OW31147   0.161   4.219   6.525 -0.6352 -0.3795  0.0135
 6563SOL    HW131148   0.078   4.265   6.529 -1.5378 -1.7611 -2.7187
 6563SOL    HW231149   0.203   4.260   6.449  0.9922  1.0759  1.7114
 6564SOL     OW31150   2.947   0.511  10.104 -0.2683 -0.5868  0.2763
 6564SOL    HW131151   2.879   0.447  10.085 -0.6339  0.1919 -1.0631
 6564SOL    HW231152   2.953   0.515  10.200 -0.6125 -0.8710  0.3064
 6565SOL     OW31153   0.387   2.839  17.225 -0.1073  0.6520 -0.5133
 6565SOL    HW131154   0.320   2.876  17.167  1.3974  1.6177 -1.6159
 6565SOL    HW231155   0.333   2.832  17.304 -1.1443  3.5118 -0.9960
 6566SOL     OW31156   2.153   4.605  15.896  0.1360 -0.1217  0.8851
 6566SOL    HW131157   2.203   4.578  15.819  0.2906 -0.4643  1.1032
 6566SOL    HW231158   2.228   4.631  15.950  0.5197 -0.0275  0.3057
 6567SOL     OW31159   2.496   1.573  10.892 -0.1434 -0.3447 -0.6421
 6567SOL    HW131160   2.461   1.554  10.979 -0.3240  1.2892 -0.3663
 6567SOL    HW231161   2.506   1.480  10.868 -1.5818  0.0336 -2.7157
 6568SOL     OW31162   0.566   2.448   7.390  0.3433  0.6841  0.6952
 6568SOL    HW131163   0.528   2.474   7.475 -0.2531 -0.4626  0.7816
 6568SOL    HW231164   0.526   2.503   7.323 -1.8240  1.3942  2.5616
 6569SOL     OW31165   3.575   0.697   5.704 -0.4372 -0.2070 -0.2559
 6569SOL    HW131166   3.609   0.715   5.792 -0.2621 -0.5789 -0.2507
 6569SOL    HW231167   3.638   0.732   5.641  1.6512 -0.3795  1.7521
 6570SOL     OW31168   0.257   4.098  17.140  0.0328  0.0056  0.3155
 6570SOL    HW131169   0.228   4.176  17.092  1.8422 -0.7042 -1.9209
 6570SOL    HW231170   0.305   4.059  17.066  1.1760  0.9559  0.5497
 6571SOL     OW31171   1.949   0.503   8.554  0.0309  0.2944 -0.0228
 6571SOL    HW131172   2.010   0.547   8.613 -1.0828 -1.6074  2.5255
 6571SOL    HW231173   1.891   0.445   8.602 -0.8269  1.9761  0.9842
 6572SOL     OW31174   0.185   0.644   1.350 -0.1608  0.1887  0.2757
 6572SOL    HW131175   0.126   0.689   1.411 -2.9929 -3.4700  0.2024
 6572SOL    HW231176   0.123   0.577   1.322 -0.7677  1.7593 -2.1526
 6573SOL     OW31177   4.699   2.676   4.845  0.2777  0.4105 -0.0003
 6573SOL    HW131178   0.047   2.640   4.791 -1.7286 -1.4184 -1.4067
 6573SOL    HW231179   4.632   2.632   4.792 -0.7845  2.4739 -0.3717
 6574SOL     OW31180   3.166   2.589   1.547  0.2057 -0.4791 -0.1394
 6574SOL    HW131181   3.121   2.662   1.503 -1.1003 -0.9874  0.3481
 6574SOL    HW231182   3.251   2.600   1.504 -0.3055  0.5481 -0.9034
 6575SOL     OW31183   1.862   1.634   7.972 -0.1494  0.4575 -0.1694
 6575SOL    HW131184   1.852   1.679   8.055  2.7988 -0.3922  0.6470
 6575SOL    HW231185   1.833   1.545   7.993  1.6367  0.0165  0.4198
 6576SOL     OW31186   2.797   0.741  10.041  0.0127  0.1353  0.0978
 6576SOL    HW131187   2.833   0.655  10.062 -2.3135 -0.1333  3.0222
 6576SOL    HW231188   2.845   0.791  10.107  0.7295 -1.9202  1.1504
 6577SOL     OW31189   3.002   2.495   3.692  0.2640 -0.1758  0.2322
 6577SOL    HW131190   2.921   2.516   3.646  1.4625  0.0465 -1.7467
 6577SOL    HW231191   2.975   2.446   3.770  1.3608 -0.0134  0.7096
 6578SOL     OW31192   1.157   3.874   6.896 -0.0067  0.8870  0.5405
 6578SOL    HW131193   1.117   3.791   6.921  1.7144  0.0724  0.6110
 6578SOL    HW231194   1.221   3.878   6.967 -0.2152  2.6128  0.6232
 6579SOL     OW31195   2.801   0.754   3.886 -0.5171 -0.0871 -0.1616
 6579SOL    HW131196   2.868   0.819   3.867  0.2977 -0.6255  0.8502
 6579SOL    HW231197   2.748   0.798   3.952  1.2565  0.2057  1.0855
 6580SOL     OW31198   4.091   1.889   0.354 -0.1556 -0.0868 -0.5011
 6580SOL    HW131199   4.179   1.903   0.319  0.8038 -2.8615  0.8229
 6580SOL    HW231200   4.108   1.906   0.447 -0.1547  0.4580 -0.6006
 6581SOL     OW31201   1.902   3.136  15.757  0.8084  0.2637  0.2168
 6581SOL    HW131202   1.867   3.185  15.682 -0.0404  0.3640  0.6780
 6581SOL    HW231203   1.995   3.149  15.742  0.8995 -0.7481 -0.1077
 6582SOL     OW31204   0.065   2.986  11.950 -0.0166  0.1027 -0.3743
 6582SOL    HW131205   0.097   2.980  12.040  1.3639 -1.4634 -0.9861
 6582SOL    HW231206   0.048   2.893  11.933 -0.2967 -0.1635  1.3282
 6583SOL     OW31207   3.659   4.114   3.548  0.1331  0.2652 -0.0360
 6583SOL    HW131208   3.569   4.082   3.562  0.9388 -3.3048 -2.8652
 6583SOL    HW231209   3.647   4.209   3.545 -1.0950  0.1535  1.1866
 6584SOL     OW31210   2.449   4.346   0.291 -0.1435 -1.0843 -0.1345
 6584SOL    HW131211   2.440   4.316   0.201  3.0321 -0.1506 -0.7850
 6584SOL    HW231212   2.405   4.431   0.293 -1.0303 -1.5781  1.7317
 6585SOL     OW31213   1.218   0.963   3.111  0.1220 -0.1071  0.2338
 6585SOL    HW131214   1.243   0.966   3.203  0.4043  0.0566  0.1505
 6585SOL    HW231215   1.133   0.922   3.125  0.2195 -0.3076  0.2443
 6586SOL     OW31216   2.080   0.871   6.772  0.2875 -0.4304 -0.0480
 6586SOL    HW131217   2.033   0.809   6.717  0.2962 -1.9391  1.6451
 6586SOL    HW231218   2.010   0.932   6.794 -0.0732 -2.2817  3.7614
 6587SOL     OW31219   3.185   0.739  15.209 -0.2126 -0.3874 -0.3663
 6587SOL    HW131220   3.172   0.825  15.250  2.3096 -1.0230  1.7793
 6587SOL    HW231221   3.106   0.730  15.156 -0.9118 -3.1490  1.1900
 6588SOL     OW31222   2.328   4.040   3.777 -0.0333 -0.5241 -0.8189
 6588SOL    HW131223   2.320   4.076   3.689  3.1712  0.8573 -0.5875
 6588SOL    HW231224   2.374   4.113   3.819  0.4271 -0.7061 -1.0086
 6589SOL     OW31225   1.326   3.489  15.926 -0.8514 -0.4826  0.0168
 6589SOL    HW131226   1.294   3.544  15.854  0.6669  0.7043  0.2577
 6589SOL    HW231227   1.331   3.406  15.879  0.7046  0.5264 -1.5875
 6590SOL     OW31228   1.646   2.275   2.617  0.3587 -0.3267  0.7407
 6590SOL    HW131229   1.580   2.252   2.551 -1.4926 -0.5166  2.6657
 6590SOL    HW231230   1.664   2.200   2.674  0.2018 -1.2845 -0.4455
 6591SOL     OW31231   2.033   3.414   6.652 -0.3542  0.1472 -0.1204
 6591SOL    HW131232   2.017   3.320   6.646  1.9806 -0.3333  1.0770
 6591SOL    HW231233   2.098   3.433   6.720  0.2348 -1.5179 -0.2269
 6592SOL     OW31234   2.852   4.578   7.208  0.1895  0.3995  0.0672
 6592SOL    HW131235   2.899   4.577   7.292 -0.0669 -0.4907  0.2068
 6592SOL    HW231236   2.759   4.587   7.229 -0.1513  1.9912 -2.2631
 6593SOL     OW31237   4.457   1.975  16.241  0.2133  0.0360 -0.2600
 6593SOL    HW131238   4.512   1.955  16.166  0.0844  2.1843 -0.9181
 6593SOL    HW231239   4.369   1.974  16.203  0.0971 -1.3585  0.0427
 6594SOL     OW31240   1.393   0.890  11.794  0.0971  0.8097 -0.4726
 6594SOL    HW131241   1.317   0.884  11.853  1.5607  0.7266  1.4079
 6594SOL    HW231242   1.448   0.942  11.852  0.0560  0.0365  0.2681
 6595SOL     OW31243   0.467   1.402   5.456  0.0729  0.5155 -0.3970
 6595SOL    HW131244   0.465   1.497   5.457 -1.1341  0.4925  0.6429
 6595SOL    HW231245   0.374   1.379   5.449  0.2210  0.1361 -1.1041
 6596SOL     OW31246   3.425   3.630  13.283  0.7141  0.1798 -0.1388
 6596SOL    HW131247   3.411   3.722  13.261  4.8482  0.3177 -2.2816
 6596SOL    HW231248   3.348   3.611  13.336 -0.1354  1.4610 -0.9380
 6597SOL     OW31249   0.746   1.337  10.105 -0.2961  0.5902  0.1428
 6597SOL    HW131250   0.659   1.339  10.146 -0.0017 -0.4040  0.8122
 6597SOL    HW231251   0.778   1.251  10.133 -0.2218 -0.2869 -2.6714
 6598SOL     OW31252   4.513   4.502  13.144 -0.4505  0.5158 -0.1939
 6598SOL    HW131253   4.486   4.571  13.205  2.0776  1.3201  0.0129
 6598SOL    HW231254   4.507   4.429  13.206 -0.8638  0.8626  0.1709
 6599SOL     OW31255   0.770   2.507  14.346  0.5667 -0.0825 -0.0062
 6599SOL    HW131256   0.738   2.443  14.282  1.5559 -0.9855  0.3955
 6599SOL    HW231257   0.697   2.569  14.351  0.7361  0.0676  0.5420
 6600SOL     OW31258   0.577   3.280   2.223  0.1624 -0.1016  0.0852
 6600SOL    HW131259   0.653   3.305   2.276 -0.4877  2.0004  0.0113
 6600SOL    HW231260   0.614   3.287   2.135  0.7773 -3.2631  0.0740
 6601SOL     OW31261   3.352   2.511   7.065  0.2972 -0.0064 -0.1802
 6601SOL    HW131262   3.371   2.420   7.040  1.7334  0.5781 -1.2342
 6601SOL    HW231263   3.369   2.513   7.159  1.8205 -1.4629 -0.4296
 6602SOL     OW31264   2.221   3.592   1.486  0.2484 -0.2869 -0.0877
 6602SOL    HW131265   2.220   3.575   1.580  0.4231  0.0753 -0.0200
 6602SOL    HW231266   2.305   3.552   1.466  1.4365  1.9902  0.4357
 6603SOL     OW31267   4.221   3.059  16.586  0.2862 -0.3147 -0.6549
 6603SOL    HW131268   4.231   3.128  16.652 -0.7661 -1.6761  0.9283
 6603SOL    HW231269   4.263   3.095  16.508  2.2091 -0.5825  0.2505
 6604SOL     OW31270   3.515   0.606   1.406  0.1444  0.2746 -0.2918
 6604SOL    HW131271   3.442   0.561   1.449  0.9608 -0.6766  0.1078
 6604SOL    HW231272   3.527   0.565   1.320 -0.9839 -0.0422 -0.3077
 6605SOL     OW31273   0.323   3.173  12.943  0.2454 -0.1244  0.0120
 6605SOL    HW131274   0.392   3.226  12.984  0.0653 -0.4048  0.6802
 6605SOL    HW231275   0.342   3.081  12.955 -0.7228 -0.4643 -0.9795
 6606SOL     OW31276   1.401   1.609   6.832  0.3007 -0.2017 -0.1106
 6606SOL    HW131277   1.495   1.626   6.839 -0.1682  2.6562 -0.6177
 6606SOL    HW231278   1.377   1.674   6.765 -0.3020 -2.1650 -1.8120
 6607SOL     OW31279   0.109   2.478   7.153 -0.2238 -0.2904 -0.2830
 6607SOL    HW131280   0.202   2.499   7.145 -0.1942 -1.1608 -2.1226
 6607SOL    HW231281   0.071   2.565   7.160 -1.2785 -0.6906 -1.0738
 6608SOL     OW31282   4.044   2.418  16.516  0.2576 -0.0122  0.0984
 6608SOL    HW131283   3.976   2.372  16.467 -0.7487  1.6761 -0.1018
 6608SOL    HW231284   4.016   2.504  16.485  0.0943  1.0036  3.0657
 6609SOL     OW31285   4.524   3.451   0.068 -0.2630  0.2816  0.3013
 6609SOL    HW131286   4.549   3.422   0.156 -1.3179 -0.1621  0.4489
 6609SOL    HW231287   4.605   3.439   0.018 -1.5827 -1.1569 -1.4474
 6610SOL     OW31288   4.522   4.341   3.221 -0.1376  0.4900  0.0993
 6610SOL    HW131289   4.617   4.330   3.223 -0.0858  1.0574  1.0420
 6610SOL    HW231290   4.495   4.279   3.289 -1.1673 -1.2815 -1.9432
 6611SOL     OW31291   2.506   0.675   4.573  0.3572 -0.1623 -0.5948
 6611SOL    HW131292   2.541   0.586   4.572 -2.0090 -1.1014  0.8574
 6611SOL    HW231293   2.583   0.729   4.592  0.7898 -0.6375 -1.0011
 6612SOL     OW31294   3.133   2.310   5.235 -0.2752 -0.5607 -0.0765
 6612SOL    HW131295   3.202   2.372   5.256  2.1077 -2.7788 -1.3939
 6612SOL    HW231296   3.067   2.351   5.291  0.3825 -0.3158  0.5039
 6613SOL     OW31297   1.180   2.556  16.004  0.6409  0.0926  0.1844
 6613SOL    HW131298   1.203   2.620  16.071 -1.9693  1.7490 -0.4746
 6613SOL    HW231299   1.085   2.571  16.002  0.2707 -2.1457  2.4166
 6614SOL     OW31300   0.332   0.436   6.006  0.4880 -0.0097 -0.1666
 6614SOL    HW131301   0.349   0.489   5.927 -0.0913 -1.1141 -1.0360
 6614SOL    HW231302   0.257   0.386   5.971  0.4119 -1.3444  1.9229
 6615SOL     OW31303   1.005   1.566  17.485 -0.1748 -0.2331  0.1129
 6615SOL    HW131304   0.959   1.588  17.404 -0.6656  0.2472  0.5133
 6615SOL    HW231305   1.006   1.651  17.528 -0.4089  1.0710 -2.4457
 6616SOL     OW31306   3.995   2.491   4.622 -0.1426 -0.2900 -0.4185
 6616SOL    HW131307   3.951   2.470   4.705  1.3151  1.0241  0.6868
 6616SOL    HW231308   3.946   2.437   4.560  0.8868  0.4666 -1.8865
 6617SOL     OW31309   1.940   4.051   9.843  0.3623 -0.0155 -0.5481
 6617SOL    HW131310   1.870   4.068   9.780  1.0381 -0.9987 -1.5556
 6617SOL    HW231311   1.897   4.039   9.928 -0.9505  1.3153 -1.0348
 6618SOL     OW31312   4.710   2.258   8.054 -0.3571 -0.1568  0.5942
 6618SOL    HW131313   0.059   2.321   8.057  1.3939 -2.0734 -0.6517
 6618SOL    HW231314   4.662   2.285   8.133  1.6641  3.0070  0.7126
 6619SOL     OW31315   3.144   3.988  11.116  0.7320 -0.0665 -0.2310
 6619SOL    HW131316   3.175   4.070  11.076 -1.8548  0.5355 -0.9622
 6619SOL    HW231317   3.068   3.973  11.061  1.9624  0.8172 -2.1568
 6620SOL     OW31318   2.515   1.360   4.681  0.5891 -0.0802  0.7336
 6620SOL    HW131319   2.559   1.432   4.637  0.0599  1.3337  2.5197
 6620SOL    HW231320   2.534   1.293   4.615 -0.6853  1.2493 -0.9664
 6621SOL     OW31321   0.676   1.615   5.230 -0.0521 -0.1185 -0.5180
 6621SOL    HW131322   0.720   1.562   5.296 -0.0749 -2.1475 -2.1352
 6621SOL    HW231323   0.632   1.685   5.279  2.3152  1.6405 -0.8946
 6622SOL     OW31324   1.641   4.310  14.186  0.2746  0.0588 -0.0011
 6622SOL    HW131325   1.735   4.325  14.178  0.4384 -1.5283 -1.0131
 6622SOL    HW231326   1.617   4.338  14.097  1.5078 -1.0377 -0.6657
 6623SOL     OW31327   0.724   0.167   8.275 -0.1569 -0.2451  0.1755
 6623SOL    HW131328   0.739   0.072   8.273  0.5120 -0.1169 -1.1220
 6623SOL    HW231329   0.630   0.174   8.261  0.1234  0.8813 -1.1153
 6624SOL     OW31330   3.000   0.905   8.493 -0.2085  0.3441 -0.4045
 6624SOL    HW131331   2.976   0.969   8.561  0.3422  1.2894 -1.1098
 6624SOL    HW231332   3.021   0.954   8.414 -1.0216  0.9512 -0.2442
 6625SOL     OW31333   3.745   3.733   3.455  0.3208 -0.3420  0.1671
 6625SOL    HW131334   3.698   3.724   3.538  0.5832  1.5213  0.5330
 6625SOL    HW231335   3.737   3.643   3.423 -1.9234  0.4949 -1.6216
 6626SOL     OW31336   4.521   1.899   6.213  0.3305 -0.4100  0.1161
 6626SOL    HW131337   4.544   1.898   6.121  2.3815  0.7662  0.6226
 6626SOL    HW231338   4.538   1.991   6.236  1.4969 -0.1099 -1.9744
 6627SOL     OW31339   4.097   0.303   6.617 -0.0843  0.1564 -0.1432
 6627SOL    HW131340   4.102   0.397   6.632  0.6986  0.0536  0.2500
 6627SOL    HW231341   4.005   0.287   6.595 -0.1971 -0.7230  0.9641
 6628SOL     OW31342   0.609   0.374  12.523  0.2742 -0.1233 -0.3987
 6628SOL    HW131343   0.645   0.374  12.612  0.4819 -3.5435 -0.4877
 6628SOL    HW231344   0.639   0.460  12.493  0.5418 -0.6296 -1.5406
 6629SOL     OW31345   2.535   2.180   5.290  0.1307 -0.3652  0.3499
 6629SOL    HW131346   2.450   2.222   5.299  0.1021 -0.4753  0.5739
 6629SOL    HW231347   2.500   2.096   5.318  0.8050 -0.9191 -0.4428
 6630SOL     OW31348   4.021   0.237   1.562  0.6434 -0.2471 -0.4985
 6630SOL    HW131349   4.105   0.210   1.598  1.2471  1.0573 -0.9444
 6630SOL    HW231350   3.978   0.151   1.562  1.2709 -0.5587 -0.9975
 6631SOL     OW31351   3.127   0.961  15.318 -0.3311  0.2402  0.1858
 6631SOL    HW131352   3.207   1.013  15.325 -0.4013  0.4063 -0.2030
 6631SOL    HW231353   3.059   1.010  15.363 -1.4045 -1.1220  0.0303
 6632SOL     OW31354   0.002   1.974  12.853 -0.3902  0.6256  0.0684
 6632SOL    HW131355   4.641   1.968  12.899 -0.3168  3.5800  0.6156
 6632SOL    HW231356   0.039   1.887  12.868 -1.6434 -0.0336 -0.5938
 6633SOL     OW31357   1.760   2.171   8.523 -0.1593  0.1666  0.1650
 6633SOL    HW131358   1.738   2.175   8.616  1.2249  2.1241  0.4118
 6633SOL    HW231359   1.841   2.220   8.531 -0.4359  0.5721  0.4522
 6634SOL     OW31360   0.658   1.056   1.474 -0.0876 -0.2386  0.0264
 6634SOL    HW131361   0.720   1.017   1.412 -0.5759 -0.5495 -0.2623
 6634SOL    HW231362   0.579   1.048   1.421  0.0386 -0.2856 -0.1585
 6635SOL     OW31363   3.962   4.034  16.416 -0.4428 -0.4767  0.3212
 6635SOL    HW131364   3.894   3.972  16.391 -0.4250  0.1369 -1.2335
 6635SOL    HW231365   4.034   4.020  16.355 -0.0197  4.3876 -0.2980
 6636SOL     OW31366   2.643   3.037  17.492  0.4181  0.4459  0.5970
 6636SOL    HW131367   2.575   2.971  17.500 -0.1428  0.7275 -1.8074
 6636SOL    HW231368   2.709   2.998  17.549 -0.9630 -0.4995  1.5397
 6637SOL     OW31369   2.626   2.689   3.304  0.3509  0.4380  0.1537
 6637SOL    HW131370   2.610   2.707   3.212 -2.1191 -2.2967  0.0635
 6637SOL    HW231371   2.543   2.717   3.342  0.2072 -0.2719  0.3596
 6638SOL     OW31372   3.302   1.425  13.399  0.7173 -0.0270  0.1499
 6638SOL    HW131373   3.324   1.454  13.488 -2.5261  1.2056  0.5266
 6638SOL    HW231374   3.367   1.483  13.359  0.9469 -1.7264 -1.9478
 6639SOL     OW31375   4.422   2.857   5.301 -0.0929  0.1958 -0.1153
 6639SOL    HW131376   4.432   2.787   5.365  1.4869  0.2529 -0.2901
 6639SOL    HW231377   4.511   2.886   5.281  0.0879  0.0043  0.4112
 6640SOL     OW31378   0.040   2.882   5.549  0.6692  0.1065  0.0649
 6640SOL    HW131379   0.059   2.976   5.556  2.4749 -0.1868 -0.7463
 6640SOL    HW231380   0.084   2.854   5.469 -0.0439 -0.0528 -0.2700
 6641SOL     OW31381   1.354   2.804   0.578 -0.2562 -0.1767  0.1788
 6641SOL    HW131382   1.287   2.865   0.546  1.3195  1.3971 -0.0850
 6641SOL    HW231383   1.426   2.858   0.611 -0.2589  1.2335 -2.0994
 6642SOL     OW31384   0.799   4.355  13.685  0.3499 -0.1973  0.1059
 6642SOL    HW131385   0.744   4.304  13.625  0.1944  0.3643 -0.2311
 6642SOL    HW231386   0.763   4.443  13.673  1.5021  0.2606  0.0282
 6643SOL     OW31387   1.230   2.887   6.700 -0.7171 -0.0890 -0.3186
 6643SOL    HW131388   1.232   2.810   6.643  1.6458 -0.7159  0.5909
 6643SOL    HW231389   1.271   2.854   6.780 -1.4050 -0.2186 -0.0221
 6644SOL     OW31390   2.017   4.173   3.204  0.1133  0.5896 -0.2349
 6644SOL    HW131391   2.037   4.199   3.294  0.2080  1.5613 -0.5487
 6644SOL    HW231392   1.922   4.182   3.192  0.2369  1.5164 -0.4956
 6645SOL     OW31393   4.144   3.823   3.028  0.0148  0.1156  0.3510
 6645SOL    HW131394   4.147   3.809   2.933 -2.5442 -0.7099  0.3811
 6645SOL    HW231395   4.188   3.907   3.038 -1.1468  0.9728 -1.7027
 6646SOL     OW31396   1.936   0.461  16.765  0.0195 -0.3586  0.0739
 6646SOL    HW131397   1.884   0.507  16.699  1.0145  1.0155  0.2675
 6646SOL    HW231398   2.012   0.439  16.711  0.4100 -0.1007  0.5174
 6647SOL     OW31399   4.326   2.670  14.241  0.0927  0.0879  0.1369
 6647SOL    HW131400   4.274   2.740  14.200  0.0593  0.3965  0.7055
 6647SOL    HW231401   4.381   2.670  14.163  1.7117  0.0325  1.2732
 6648SOL     OW31402   3.008   3.052   3.797  0.0380 -0.8066 -0.0137
 6648SOL    HW131403   3.048   3.137   3.779  1.7012 -1.4644  0.6572
 6648SOL    HW231404   3.040   3.027   3.883  0.6290  0.0599  0.0162
 6649SOL     OW31405   1.869   2.969   5.443  0.2910 -0.4877  0.1961
 6649SOL    HW131406   1.861   2.955   5.538 -1.2869 -0.5651  0.0427
 6649SOL    HW231407   1.917   3.052   5.448 -0.0020 -0.2151 -1.4518
 6650SOL     OW31408   3.198   1.093   4.330  0.3972 -0.5562  0.1720
 6650SOL    HW131409   3.292   1.103   4.345  0.3377  1.7789 -0.9656
 6650SOL    HW231410   3.166   1.071   4.418  2.4249 -1.4481  0.6892
 6651SOL     OW31411   1.616   2.326   0.123 -0.2322 -0.1944 -0.2331
 6651SOL    HW131412   1.535   2.363   0.090 -0.2786  1.4077  1.6467
 6651SOL    HW231413   1.663   2.408   0.138 -2.0381  0.9926 -1.1950
 6652SOL     OW31414   0.313   4.332   3.231 -0.4907 -0.3478  0.4343
 6652SOL    HW131415   0.324   4.239   3.212 -1.6195 -0.3820 -0.0570
 6652SOL    HW231416   0.376   4.371   3.171  0.4726 -0.6917  1.2296
 6653SOL     OW31417   0.928   0.121   7.882  0.3563 -0.0402  0.3402
 6653SOL    HW131418   0.922   0.040   7.933  2.2881  0.6985  1.7433
 6653SOL    HW231419   0.931   0.178   7.959  0.4373  0.0428  0.2761
 6654SOL     OW31420   0.166   0.898  15.744  0.1682  0.2194 -0.2581
 6654SOL    HW131421   0.186   0.899  15.837  1.9578  1.3699 -0.6571
 6654SOL    HW231422   0.154   0.989  15.717  1.5462 -0.0450 -1.7854
 6655SOL     OW31423   2.141   2.649  12.451 -0.0456  0.7774 -0.8449
 6655SOL    HW131424   2.202   2.577  12.435  0.1836  0.8260 -0.2198
 6655SOL    HW231425   2.082   2.616  12.519 -0.5086 -1.4411 -2.3071
 6656SOL     OW31426   2.631   1.964  11.638  0.4919 -0.0203 -0.3885
 6656SOL    HW131427   2.615   1.920  11.555 -0.1381  1.3552 -0.9831
 6656SOL    HW231428   2.658   2.052  11.613 -2.1726  0.5609 -1.1662
 6657SOL     OW31429   0.858   1.050  14.301  0.6579 -0.3294 -0.1720
 6657SOL    HW131430   0.807   0.988  14.353  0.0990  0.7575  0.5984
 6657SOL    HW231431   0.818   1.044  14.215 -1.5697  0.4891  0.8251
 6658SOL     OW31432   2.211   0.836   9.285 -0.2395 -0.4280 -0.5348
 6658SOL    HW131433   2.299   0.870   9.270  0.1206 -0.5924  1.2029
 6658SOL    HW231434   2.228   0.762   9.228 -1.4511 -1.8584  0.9458
 6659SOL     OW31435   3.618   0.901   7.718 -0.2314 -0.4324 -0.5312
 6659SOL    HW131436   3.551   0.844   7.680 -0.9983  0.4322 -0.4766
 6659SOL    HW231437   3.581   0.934   7.799 -0.0355 -2.2299  0.2894
 6660SOL     OW31438   4.049   1.839   3.601 -0.3469 -0.1240 -0.4728
 6660SOL    HW131439   4.029   1.746   3.590  1.3993 -0.4783 -0.5894
 6660SOL    HW231440   3.964   1.882   3.590 -0.6013  0.5101  3.9586
 6661SOL     OW31441   1.712   3.490   3.947 -0.4342  1.1059 -0.1790
 6661SOL    HW131442   1.732   3.469   4.038 -2.2560 -0.2678 -0.0958
 6661SOL    HW231443   1.641   3.430   3.923 -0.1588  0.8236 -0.2847
 6662SOL     OW31444   2.220   3.489   7.233  1.0705 -0.2277  0.2078
 6662SOL    HW131445   2.245   3.417   7.292  0.4756 -0.0008  0.7329
 6662SOL    HW231446   2.131   3.510   7.261  1.3923 -0.0787  1.1486
 6663SOL     OW31447   3.967   0.120  13.713  0.1074 -0.1034  0.2210
 6663SOL    HW131448   4.004   0.186  13.655 -0.9602 -1.5573 -2.0869
 6663SOL    HW231449   4.009   0.161  13.789 -0.2962 -1.8643  1.3983
 6664SOL     OW31450   0.982   0.656   5.221 -0.0694 -0.9753 -0.6434
 6664SOL    HW131451   1.051   0.718   5.201 -1.2712  0.8361  0.7718
 6664SOL    HW231452   0.903   0.697   5.185 -0.4780 -0.7311  0.5387
 6665SOL     OW31453   1.881   1.169   2.698  0.7048  0.1460 -0.4665
 6665SOL    HW131454   1.807   1.212   2.742  1.7002 -0.8341  2.0935
 6665SOL    HW231455   1.878   1.080   2.733  1.9809  0.6687  0.9347
 6666SOL     OW31456   0.971   4.170   5.633  0.1480 -0.2551  0.1931
 6666SOL    HW131457   1.024   4.250   5.641  0.1429 -0.1096 -1.2199
 6666SOL    HW231458   0.886   4.212   5.640  0.5663  0.6567 -0.1859
 6667SOL     OW31459   4.673   3.936   4.287  0.1559 -0.1649 -0.2504
 6667SOL    HW131460   0.015   3.959   4.220  0.0140  1.1255  0.0558
 6667SOL    HW231461   4.659   4.027   4.314  0.8603  0.0049 -0.4575
 6668SOL     OW31462   0.937   4.019   8.604 -0.0208 -0.0404 -0.3116
 6668SOL    HW131463   0.974   4.006   8.517  0.3876 -4.2160  0.5212
 6668SOL    HW231464   0.979   4.102   8.627  1.4507 -1.1184  0.8759
 6669SOL     OW31465   3.095   4.464  17.011  0.1023 -0.2455 -0.4108
 6669SOL    HW131466   3.117   4.542  16.961  1.4666 -0.3879 -0.0162
 6669SOL    HW231467   3.101   4.394  16.946 -0.3590 -1.1497  0.5097
 6670SOL     OW31468   1.276   0.335   9.982 -0.4018 -0.0282 -0.6919
 6670SOL    HW131469   1.209   0.333  10.050 -1.0159  3.4583 -1.2257
 6670SOL    HW231470   1.328   0.255   9.992 -0.1508  0.0341 -1.5124
 6671SOL     OW31471   4.222   1.223   2.171  0.4286  0.3220 -0.5291
 6671SOL    HW131472   4.236   1.259   2.084 -0.6260  0.5651 -0.5934
 6671SOL    HW231473   4.142   1.175   2.150  1.6658 -2.8693  1.9824
 6672SOL     OW31474   2.469   0.290   9.599  0.2268  0.3302 -0.3631
 6672SOL    HW131475   2.432   0.373   9.632  0.9966  0.8395 -0.7847
 6672SOL    HW231476   2.399   0.238   9.559  2.4833 -0.6044 -3.1170
 6673SOL     OW31477   3.576   2.008   1.555  0.1689 -0.1197 -0.0850
 6673SOL    HW131478   3.609   2.075   1.495 -1.1395  1.3799  0.8870
 6673SOL    HW231479   3.597   2.041   1.642 -1.0561 -3.0320  1.3114
 6674SOL     OW31480   0.988   2.962   3.214 -0.0764 -0.0975 -0.3626
 6674SOL    HW131481   0.929   3.011   3.156 -1.2381 -0.0321  0.8667
 6674SOL    HW231482   1.012   3.029   3.278 -1.2719 -1.0172  1.0519
 6675SOL     OW31483   1.713   3.820   3.701 -0.9010 -0.1524  0.0823
 6675SOL    HW131484   1.627   3.813   3.662 -1.7421 -0.6325  2.0184
 6675SOL    HW231485   1.767   3.756   3.654  1.1287  1.3194  0.3729
 6676SOL     OW31486   1.330   1.398   6.250 -0.6618  0.0926  0.3044
 6676SOL    HW131487   1.236   1.400   6.234 -0.7207 -0.1580  0.6042
 6676SOL    HW231488   1.334   1.311   6.290 -0.2272 -0.7583 -1.6110
 6677SOL     OW31489   0.744   3.257   8.453 -0.0379  0.0754  0.2275
 6677SOL    HW131490   0.733   3.292   8.541 -0.9959  1.4625 -0.4397
 6677SOL    HW231491   0.652   3.234   8.438  0.3314 -0.4232 -1.2887
 6678SOL     OW31492   3.620   3.244   8.635 -0.0693  0.2735  0.2649
 6678SOL    HW131493   3.541   3.193   8.651 -1.0783  1.2033 -1.7800
 6678SOL    HW231494   3.680   3.182   8.594 -1.9002 -0.9272 -0.5913
 6679SOL     OW31495   1.639   2.090   6.771  0.8314  0.4206 -0.6642
 6679SOL    HW131496   1.569   2.115   6.831 -0.5345 -1.6212 -1.3912
 6679SOL    HW231497   1.713   2.146   6.789  0.4765  0.8613 -0.5791
 6680SOL     OW31498   2.727   3.044   3.000  0.2498 -0.0247  0.7227
 6680SOL    HW131499   2.667   3.119   2.999 -0.3355 -0.4874  1.5782
 6680SOL    HW231500   2.802   3.079   3.049  0.5588 -1.1008  1.0142
 6681SOL     OW31501   3.645   0.502   2.680  0.2040 -0.4853  0.5249
 6681SOL    HW131502   3.580   0.432   2.683  0.5238 -0.8612 -1.0869
 6681SOL    HW231503   3.650   0.504   2.584 -0.2970  0.9948  0.5295
 6682SOL     OW31504   2.756   0.958   8.133  0.0449  0.3467  0.4229
 6682SOL    HW131505   2.835   0.963   8.080  0.4197  0.5713  0.9950
 6682SOL    HW231506   2.784   0.990   8.219  0.7834 -3.5162  1.6007
 6683SOL     OW31507   2.552   3.764   8.705 -0.1223  0.0880 -0.4918
 6683SOL    HW131508   2.608   3.837   8.681  0.1486  0.2875  0.7382
 6683SOL    HW231509   2.605   3.727   8.775  0.6580 -0.2854 -1.2787
 6684SOL     OW31510   2.199   3.116   5.942 -0.3549 -0.3658  0.0558
 6684SOL    HW131511   2.292   3.098   5.925 -0.2709  1.4260 -1.4768
 6684SOL    HW231512   2.183   3.140   5.851  0.7328  0.9248  0.2064
 6685SOL     OW31513   1.507   0.430   7.487 -0.4291 -0.5507 -0.2733
 6685SOL    HW131514   1.567   0.484   7.539  1.5006 -0.4794 -2.5975
 6685SOL    HW231515   1.551   0.446   7.404 -1.1190  1.9279 -0.1707
 6686SOL     OW31516   1.810   4.231   3.693 -0.1607  0.1713 -0.6497
 6686SOL    HW131517   1.802   4.317   3.651  0.1327 -0.1450 -1.3674
 6686SOL    HW231518   1.856   4.251   3.774  0.0489  0.0707 -0.7459
 6687SOL     OW31519   1.048   2.969   2.216  0.1549 -0.2556  0.4246
 6687SOL    HW131520   1.121   2.926   2.170 -1.0639  0.7933 -2.4954
 6687SOL    HW231521   1.032   3.035   2.149  0.1586 -0.7515 -0.0591
 6688SOL     OW31522   4.657   0.000  11.064 -0.1855 -0.0965 -0.3379
 6688SOL    HW131523   4.656   4.628  11.054 -0.9693 -0.2640  1.3462
 6688SOL    HW231524   4.563   0.017  11.056  0.0889  1.7936  0.2918
 6689SOL     OW31525   2.086   2.665  12.176  0.0582 -0.1172 -0.2357
 6689SOL    HW131526   2.091   2.664  12.271  0.1988  1.0519 -0.2296
 6689SOL    HW231527   2.175   2.638  12.154 -0.5379 -2.3471  0.0592
 6690SOL     OW31528   2.846   0.577   6.053 -0.5077 -0.4412  1.1010
 6690SOL    HW131529   2.759   0.539   6.040  0.0777 -1.5985  0.5564
 6690SOL    HW231530   2.831   0.671   6.057  0.2102 -0.1978 -2.0977
 6691SOL     OW31531   2.114   1.957   0.294 -0.4826 -0.5532 -0.3015
 6691SOL    HW131532   2.153   2.041   0.317 -1.1051  0.3858 -2.6941
 6691SOL    HW231533   2.160   1.925   0.217 -0.3127  1.7624 -1.1668
 6692SOL     OW31534   0.808   1.638  14.950 -0.7651  0.2725 -0.3210
 6692SOL    HW131535   0.891   1.664  14.912 -0.4497 -0.9563 -0.4866
 6692SOL    HW231536   0.781   1.574  14.884 -1.7117 -0.7396  1.0449
 6693SOL     OW31537   0.837   0.178   3.865 -0.3984  0.4198 -0.0091
 6693SOL    HW131538   0.848   0.166   3.960  2.4877  2.0728 -0.1310
 6693SOL    HW231539   0.757   0.127   3.854 -0.4826  1.0803 -2.3372
 6694SOL     OW31540   2.224   2.476   6.257  0.4857 -0.0693  0.0298
 6694SOL    HW131541   2.268   2.404   6.211  0.4258 -0.9281  1.3173
 6694SOL    HW231542   2.229   2.539   6.185  0.5592 -1.0974 -0.8677
 6695SOL     OW31543   0.030   1.744   8.340 -0.0175 -0.0562  0.0112
 6695SOL    HW131544   0.090   1.669   8.337  1.2802  0.9515  0.6914
 6695SOL    HW231545   0.002   1.734   8.249  1.1618 -0.4505 -0.3097
 6696SOL     OW31546   0.293   3.929  17.356 -0.6190  0.3266  0.7499
 6696SOL    HW131547   0.281   3.986  17.280 -1.3817  0.9303  1.3185
 6696SOL    HW231548   0.281   3.986  17.432 -0.1205  2.2257 -0.6021
 6697SOL     OW31549   2.825   1.537   5.605 -0.1277  0.5321  0.1220
 6697SOL    HW131550   2.759   1.586   5.654  1.1304  2.2284  0.1389
 6697SOL    HW231551   2.890   1.513   5.672  0.8033  1.3735 -0.4691
 6698SOL     OW31552   2.461   0.892  16.223 -0.3450  0.0319 -0.2566
 6698SOL    HW131553   2.495   0.917  16.309  1.6464  0.6438 -1.2211
 6698SOL    HW231554   2.477   0.976  16.180  0.4469 -0.5157 -1.0416
 6699SOL     OW31555   3.580   3.317   8.893 -0.4437 -0.3346 -0.0964
 6699SOL    HW131556   3.637   3.388   8.923  1.6346 -1.4982 -1.2730
 6699SOL    HW231557   3.614   3.297   8.805 -0.3829 -1.8143  0.2550
 6700SOL     OW31558   0.793   0.862   2.039 -0.0254 -0.4897  0.4108
 6700SOL    HW131559   0.762   0.801   1.972 -1.1329  1.5658 -0.9671
 6700SOL    HW231560   0.885   0.837   2.034  0.4419  1.2088  0.7578
 6701SOL     OW31561   3.960   1.195   6.270 -0.0560 -0.0795  0.6283
 6701SOL    HW131562   4.014   1.268   6.300 -0.6286  0.8817 -0.6759
 6701SOL    HW231563   3.874   1.230   6.295 -0.1531 -0.1915  0.4517
 6702SOL     OW31564   2.774   1.714   5.003  0.2221  0.0575  0.0090
 6702SOL    HW131565   2.859   1.674   4.983  0.4603  0.7477 -0.3565
 6702SOL    HW231566   2.712   1.655   4.961  0.2515 -1.0224  1.4591
 6703SOL     OW31567   1.769   0.029   0.901 -0.3291 -0.3571  0.2901
 6703SOL    HW131568   1.693   0.079   0.932 -0.5651 -1.0778  0.8902
 6703SOL    HW231569   1.783   0.061   0.812  2.3985  0.3998  1.0060
 6704SOL     OW31570   2.088   2.546   5.766 -0.6058 -0.1879  0.5452
 6704SOL    HW131571   2.006   2.559   5.717  0.0883 -0.8183 -0.7841
 6704SOL    HW231572   2.152   2.581   5.704 -0.3167  0.1967  1.0715
 6705SOL     OW31573   2.468   1.535   5.311  0.4034  0.1223  0.2688
 6705SOL    HW131574   2.554   1.503   5.340  0.3657 -0.5322 -0.3582
 6705SOL    HW231575   2.407   1.461   5.316 -0.1733  0.6965  1.6796
 6706SOL     OW31576   0.616   0.682  11.520  0.3727 -0.3515  0.2213
 6706SOL    HW131577   0.616   0.609  11.459  1.4790  0.7660 -1.1160
 6706SOL    HW231578   0.534   0.725  11.494 -0.0481 -0.2528  1.6892
 6707SOL     OW31579   1.782   0.575  16.588 -0.0615  0.4616  0.0186
 6707SOL    HW131580   1.697   0.532  16.573  0.1060  0.2058 -0.2050
 6707SOL    HW231581   1.772   0.656  16.539 -2.1099  0.5000  0.4951
 6708SOL     OW31582   3.965   2.312   5.172 -0.3998  0.5193 -0.2827
 6708SOL    HW131583   3.892   2.309   5.233 -0.0448 -0.0316  0.1163
 6708SOL    HW231584   4.001   2.400   5.174  1.4196 -0.2093 -0.6550
 6709SOL     OW31585   2.880   0.251   0.619  0.3470 -0.1892  0.1419
 6709SOL    HW131586   2.946   0.313   0.589 -3.2014  3.6280  0.1664
 6709SOL    HW231587   2.929   0.169   0.620  1.9984  0.8179  1.4857
 6710SOL     OW31588   2.179   0.394   4.362 -0.1865 -0.0579 -0.5967
 6710SOL    HW131589   2.150   0.312   4.320 -1.8753  0.2705 -0.0573
 6710SOL    HW231590   2.268   0.373   4.391  0.5700  1.3066 -1.8946
 6711SOL     OW31591   0.325   1.447  10.174 -0.4401 -0.3207  0.8253
 6711SOL    HW131592   0.372   1.367  10.197 -1.2713 -1.2623 -0.7505
 6711SOL    HW231593   0.360   1.470  10.089  1.3599 -0.0808  1.6341
 6712SOL     OW31594   0.138   2.727   8.870  0.1512 -0.4305 -0.1531
 6712SOL    HW131595   0.099   2.674   8.939  1.0190  0.8287  1.3084
 6712SOL    HW231596   0.180   2.801   8.914 -0.6337  0.0252 -0.1678
 6713SOL     OW31597   0.886   1.114  12.975 -0.2254  0.4503 -0.1526
 6713SOL    HW131598   0.899   1.142  13.066  0.1403 -0.6556  0.1443
 6713SOL    HW231599   0.880   1.200  12.934 -4.6373  1.2617  2.2389
 6714SOL     OW31600   1.908   0.993   3.621  0.0330 -0.3864 -0.4335
 6714SOL    HW131601   1.966   1.065   3.595  1.0292 -1.0954 -0.1719
 6714SOL    HW231602   1.955   0.952   3.693 -1.4725 -0.2550  0.6099
 6715SOL     OW31603   1.386   0.105   3.567 -0.3443  0.2243  0.3300
 6715SOL    HW131604   1.446   0.051   3.618 -0.1206  1.7388  1.6774
 6715SOL    HW231605   1.435   0.092   3.486 -2.1535 -0.9949 -0.5658
 6716SOL     OW31606   1.109   1.672  13.432 -0.1401  0.5388 -0.6761
 6716SOL    HW131607   1.154   1.615  13.494 -2.8816 -0.8210  0.1032
 6716SOL    HW231608   1.098   1.609  13.360  1.5538 -0.6649  0.1298
 6717SOL     OW31609   1.834   0.176  15.322 -0.3731 -0.3386  0.0660
 6717SOL    HW131610   1.818   0.084  15.345  1.5238  0.1194  3.1795
 6717SOL    HW231611   1.771   0.216  15.381 -0.2245 -0.6252  0.4183
 6718SOL     OW31612   1.702   1.120  16.489  0.2509 -0.3282  0.1715
 6718SOL    HW131613   1.624   1.175  16.480  0.6125 -0.1307 -1.8602
 6718SOL    HW231614   1.739   1.142  16.404  1.6113  1.0733  1.1467
 6719SOL     OW31615   0.730   4.003   3.207  0.5095  0.0191  0.2348
 6719SOL    HW131616   0.682   3.963   3.134  0.1346 -1.7392  1.4316
 6719SOL    HW231617   0.816   3.962   3.197 -0.4250 -1.9308  0.2219
 6720SOL     OW31618   1.170   0.563   1.019  0.1432  0.1909  0.1680
 6720SOL    HW131619   1.233   0.583   1.089 -0.0463 -0.1709  0.4401
 6720SOL    HW231620   1.113   0.502   1.066  1.2576  0.5155  1.9484
 6721SOL     OW31621   4.264   4.512   3.418  0.4062 -0.1829  0.4292
 6721SOL    HW131622   4.243   4.419   3.427  3.4761 -0.6013  2.9585
 6721SOL    HW231623   4.312   4.510   3.335  2.0986  2.3068  1.3204
 6722SOL     OW31624   4.617   3.154   9.846  0.0057 -0.0702  0.2232
 6722SOL    HW131625   4.605   3.097   9.771  1.6069 -0.0701 -0.0303
 6722SOL    HW231626   4.706   3.137   9.878 -0.5339  0.7196  2.1441
 6723SOL     OW31627   4.214   3.591   3.163 -0.4382 -0.2664 -0.4395
 6723SOL    HW131628   4.209   3.512   3.109  1.4418 -1.2154  0.8009
 6723SOL    HW231629   4.192   3.657   3.097  1.9032  0.3475 -0.5835
 6724SOL     OW31630   4.186   4.018   4.881  0.2110  0.1544 -0.7144
 6724SOL    HW131631   4.115   3.998   4.941 -0.0625  0.4513 -0.9368
 6724SOL    HW231632   4.147   3.998   4.796  1.2948 -0.1636 -1.1390
 6725SOL     OW31633   0.107   3.986   4.075 -0.0403 -0.5258 -0.0432
 6725SOL    HW131634   0.130   3.913   4.019  0.4248 -0.1565 -0.3306
 6725SOL    HW231635   0.170   4.053   4.049 -0.2638  0.2691  1.4438
 6726SOL     OW31636   1.104   2.842  10.415  0.4895 -0.2963  0.1357
 6726SOL    HW131637   1.018   2.799  10.409  1.0132 -1.6415  2.1984
 6726SOL    HW231638   1.081   2.932  10.439 -1.7725 -0.5967 -0.8444
 6727SOL     OW31639   0.048   2.812  11.285  0.5655 -0.0907 -0.2968
 6727SOL    HW131640   0.070   2.896  11.327 -0.1651  0.7310 -1.5727
 6727SOL    HW231641   0.126   2.757  11.292  0.7985  0.3142  0.2799
 6728SOL     OW31642   4.709   0.938   8.574 -0.1574 -0.6521  0.0769
 6728SOL    HW131643   4.618   0.959   8.595  0.2436  0.7796  0.3297
 6728SOL    HW231644   0.028   1.023   8.562  0.6380 -0.9481  0.7127
 6729SOL     OW31645   4.559   2.551   2.198 -0.0304  0.4021 -0.2573
 6729SOL    HW131646   4.599   2.490   2.135 -0.1305 -0.1751  0.2449
 6729SOL    HW231647   4.567   2.500   2.278 -1.1899  1.8077  0.7528
 6730SOL     OW31648   3.086   0.996   6.354 -0.0504 -0.2163  0.3039
 6730SOL    HW131649   3.110   1.070   6.410 -1.7053  0.1251  0.5590
 6730SOL    HW231650   3.171   0.964   6.322  0.3600  0.0596  1.1155
 6731SOL     OW31651   0.632   1.956   4.680  0.3746  0.1820 -0.3390
 6731SOL    HW131652   0.618   1.973   4.773  0.6330 -0.6932 -0.1485
 6731SOL    HW231653   0.570   1.886   4.659 -0.6979  1.0246 -0.0108
 6732SOL     OW31654   3.734   4.330  10.502  0.6091 -0.0993 -0.0053
 6732SOL    HW131655   3.787   4.253  10.480 -0.3124 -0.5097 -0.7711
 6732SOL    HW231656   3.799   4.396  10.479 -1.4446  1.3981 -1.4990
 6733SOL     OW31657   1.863   1.515  15.092  0.1226 -0.8129 -0.2180
 6733SOL    HW131658   1.897   1.427  15.075  2.8511  0.7348 -2.8570
 6733SOL    HW231659   1.772   1.507  15.063  0.0578 -1.0398  0.0477
 6734SOL     OW31660   3.323   1.437  12.669  0.5514 -0.2225 -0.6420
 6734SOL    HW131661   3.399   1.381  12.650  2.3202  2.2800 -0.9515
 6734SOL    HW231662   3.366   1.519  12.693  0.6962  0.1244 -2.0867
 6735SOL     OW31663   1.745   0.918   4.911  1.0496  0.0358 -0.1338
 6735SOL    HW131664   1.674   0.972   4.875 -0.6862 -0.1364  3.0612
 6735SOL    HW231665   1.689   0.844   4.932 -0.7752  1.6008  0.5695
 6736SOL     OW31666   4.338   0.403   6.836 -0.2051  0.0796  0.1365
 6736SOL    HW131667   4.382   0.422   6.753 -2.1409  0.7960 -0.7351
 6736SOL    HW231668   4.265   0.348   6.806  0.1481 -1.4362  2.1003
 6737SOL     OW31669   2.996   4.098   0.174 -0.5576 -0.4148  1.0213
 6737SOL    HW131670   2.908   4.090   0.213 -1.2466  0.9159 -0.2977
 6737SOL    HW231671   2.986   4.186   0.139  1.2126 -0.4616  0.4389
 6738SOL     OW31672   3.121   4.483   6.532  0.4066 -0.2868  0.3485
 6738SOL    HW131673   3.045   4.466   6.477  1.1576  0.4956 -0.9657
 6738SOL    HW231674   3.087   4.499   6.620 -2.4029 -0.8790 -0.6375
 6739SOL     OW31675   1.165   3.349   6.826 -0.0780 -0.3414  0.5413
 6739SOL    HW131676   1.081   3.305   6.818  0.2036 -0.6922 -0.5654
 6739SOL    HW231677   1.228   3.280   6.805 -0.0730  0.1641 -1.1084
 6740SOL     OW31678   0.190   4.625   9.408  0.7377  0.2572  0.0321
 6740SOL    HW131679   0.178   4.708   9.363  3.6608  1.1746  0.9804
 6740SOL    HW231680   0.237   4.569   9.346  0.4584 -2.0204  1.8419
 6741SOL     OW31681   4.119   2.085   6.079  0.5649  0.3386  0.3408
 6741SOL    HW131682   4.165   2.158   6.118 -0.3754  0.8903  0.4066
 6741SOL    HW231683   4.058   2.129   6.020 -0.5683 -0.3112  1.0277
 6742SOL     OW31684   2.416   1.919   9.033  0.2313  0.1621 -0.2564
 6742SOL    HW131685   2.437   1.914   9.126  0.1669  2.0212 -0.1403
 6742SOL    HW231686   2.361   1.841   9.024  0.6816 -0.2304  0.4250
 6743SOL     OW31687   3.426   2.800   1.013 -0.1611  0.0020 -0.4641
 6743SOL    HW131688   3.484   2.876   1.007 -0.1317  0.0859  0.8585
 6743SOL    HW231689   3.423   2.785   1.107  0.4599  1.4465 -0.2101
 6744SOL     OW31690   0.866   4.630   6.873  0.5243  0.0690  0.0809
 6744SOL    HW131691   0.808   4.690   6.919  1.7559 -0.1910  1.9471
 6744SOL    HW231692   0.870   4.653   6.780  3.5116 -1.2280 -0.1123
 6745SOL     OW31693   1.300   4.526   7.263  0.5303  0.4644 -0.2798
 6745SOL    HW131694   1.217   4.544   7.218  0.4838  2.6649  0.6944
 6745SOL    HW231695   1.338   4.613   7.274  1.1302  0.2695 -0.8035
 6746SOL     OW31696   4.397   4.517   4.642  0.3384  0.6621 -0.5632
 6746SOL    HW131697   4.390   4.568   4.723 -2.4775 -1.3033  0.4621
 6746SOL    HW231698   4.417   4.586   4.579  0.1267  1.1303 -0.1192
 6747SOL     OW31699   1.862   1.558   2.969  0.1038  0.6913 -0.6519
 6747SOL    HW131700   1.807   1.636   2.967 -0.6842  0.1362 -0.6591
 6747SOL    HW231701   1.805   1.485   2.992 -1.1470  1.8777 -0.0350
 6748SOL     OW31702   2.493   0.969   8.158 -0.1399  0.0845  0.7041
 6748SOL    HW131703   2.508   0.889   8.208 -0.1655 -0.8311 -0.7667
 6748SOL    HW231704   2.585   0.993   8.141 -0.6599  1.6119  0.0469
 6749SOL     OW31705   1.157   4.360   6.830  0.2076  0.3076  0.0398
 6749SOL    HW131706   1.101   4.349   6.754 -0.5965 -0.1388  0.7103
 6749SOL    HW231707   1.163   4.267   6.851  1.1519  0.7366  1.6586
 6750SOL     OW31708   0.704   0.225   6.657  0.6066  0.1309  0.5787
 6750SOL    HW131709   0.673   0.275   6.733  0.3933 -0.6403  0.9940
 6750SOL    HW231710   0.652   0.271   6.591  1.0520 -0.7832 -0.4024
 6751SOL     OW31711   2.606   1.789   8.578 -0.1014  0.3676  0.0712
 6751SOL    HW131712   2.599   1.851   8.505 -1.6644 -0.5618 -0.5903
 6751SOL    HW231713   2.542   1.827   8.638 -0.2618  0.2917 -0.0491
 6752SOL     OW31714   1.382   2.034   1.322 -0.0420 -0.2897  0.3599
 6752SOL    HW131715   1.354   1.947   1.349 -0.8524 -0.0894  0.1870
 6752SOL    HW231716   1.463   2.018   1.273  1.0923 -0.2165  2.2390
 6753SOL     OW31717   1.606   4.702   4.393  0.0737  0.5098  0.3551
 6753SOL    HW131718   1.596   4.700   4.298  0.2080  0.8867  0.3310
 6753SOL    HW231719   1.588   0.072   4.407 -1.5096  0.1985  0.3497
 6754SOL     OW31720   0.150   2.247  11.727 -0.2257  0.6052 -0.1471
 6754SOL    HW131721   0.209   2.186  11.772  0.1816  0.4209 -0.9256
 6754SOL    HW231722   0.075   2.198  11.694  0.7215 -1.2194  0.3892
 6755SOL     OW31723   2.887   1.620   7.160  0.6870 -0.1011  0.5761
 6755SOL    HW131724   2.976   1.627   7.192  1.4921 -1.9351 -1.2659
 6755SOL    HW231725   2.869   1.526   7.170 -2.1853  0.7132  3.3287
 6756SOL     OW31726   2.598   3.193   0.269 -0.0192  0.0197  0.1129
 6756SOL    HW131727   2.542   3.168   0.196  0.7337  2.7246 -1.3679
 6756SOL    HW231728   2.686   3.182   0.233  0.2853  2.0533  0.2708
 6757SOL     OW31729   2.276   3.557   9.158  0.3515  0.5505  0.6230
 6757SOL    HW131730   2.212   3.511   9.104 -1.3404 -0.2127  3.2865
 6757SOL    HW231731   2.238   3.645   9.161  0.8277  0.8023 -0.7504
 6758SOL     OW31732   1.553   1.900   7.442 -0.2525 -0.3758 -0.4449
 6758SOL    HW131733   1.535   1.927   7.352 -0.1347  1.5026  0.0997
 6758SOL    HW231734   1.471   1.936   7.475  0.4392  0.4840  0.3058
 6759SOL     OW31735   4.594   2.293  17.116  0.0925 -0.0401  0.2388
 6759SOL    HW131736   4.515   2.323  17.072 -0.5511 -0.8884  0.8178
 6759SOL    HW231737   4.584   2.322  17.206  1.9203 -3.8914  1.7010
 6760SOL     OW31738   4.637   2.848   2.587  0.1899 -0.5503 -0.4319
 6760SOL    HW131739   4.693   2.926   2.588 -1.0586  0.3255  1.3355
 6760SOL    HW231740   4.557   2.899   2.573  1.2790  0.5378 -2.7984
 6761SOL     OW31741   3.177   1.499  14.812 -0.4986 -0.2714 -0.1776
 6761SOL    HW131742   3.119   1.564  14.850  2.1114  1.2862  1.1661
 6761SOL    HW231743   3.261   1.518  14.855  0.1085 -0.0428 -1.4441
 6762SOL     OW31744   0.765   0.990   0.487 -0.1308  0.0264  0.0722
 6762SOL    HW131745   0.855   1.004   0.515 -0.7419  0.5991  1.7602
 6762SOL    HW231746   0.735   1.080   0.493 -0.0147  0.1078 -0.5902
 6763SOL     OW31747   2.512   1.860   2.926 -0.2220 -0.5587  0.3713
 6763SOL    HW131748   2.594   1.903   2.901 -1.1228  1.6649  1.1819
 6763SOL    HW231749   2.470   1.849   2.840  0.1960 -1.5208  0.3001
 6764SOL     OW31750   2.700   1.224   6.898  0.1829  0.7166 -0.4712
 6764SOL    HW131751   2.645   1.301   6.887  0.0732  0.7573  0.3210
 6764SOL    HW231752   2.639   1.154   6.925  1.0667  0.5576  1.1195
 6765SOL     OW31753   3.826   1.406   2.531  0.4527  0.6844  0.5910
 6765SOL    HW131754   3.844   1.496   2.558 -2.1443  0.5731  2.7771
 6765SOL    HW231755   3.761   1.409   2.461  1.1953 -0.5327 -0.1471
 6766SOL     OW31756   3.404   3.451   3.997  0.2902  0.9074  0.1860
 6766SOL    HW131757   3.322   3.450   3.947  0.3097  2.2824  0.1385
 6766SOL    HW231758   3.396   3.373   4.052  1.4952 -0.7005 -1.9016
 6767SOL     OW31759   0.187   4.268   4.341 -0.3224 -0.0814 -0.2668
 6767SOL    HW131760   0.117   4.266   4.407 -0.2412  1.8974 -0.1197
 6767SOL    HW231761   0.258   4.287   4.402 -1.3006  1.3005  0.4406
 6768SOL     OW31762   0.674   0.176   4.507 -0.5296 -0.0849 -0.1908
 6768SOL    HW131763   0.625   0.225   4.441  2.1932  3.0631  0.1786
 6768SOL    HW231764   0.742   0.241   4.523  0.2261 -1.2159  1.2322
 6769SOL     OW31765   3.440   1.127   8.151  0.1631 -0.4369  0.1110
 6769SOL    HW131766   3.380   1.111   8.078 -0.6611  1.5683  0.3442
 6769SOL    HW231767   3.443   1.223   8.153  1.5093 -0.4363 -1.4784
 6770SOL     OW31768   0.873   0.688  16.158  0.4719 -0.2107 -0.1348
 6770SOL    HW131769   0.902   0.642  16.237 -1.3225 -0.3542  0.4537
 6770SOL    HW231770   0.793   0.728  16.193  1.3579 -0.0228  1.7026
 6771SOL     OW31771   4.432   1.097  14.286 -0.1824  0.0417 -0.7313
 6771SOL    HW131772   4.337   1.097  14.287 -0.1665  3.2099 -1.7737
 6771SOL    HW231773   4.445   1.003  14.303 -2.0418  0.4011  2.6030
 6772SOL     OW31774   0.524   0.893   7.419 -0.3555  0.2216 -0.3838
 6772SOL    HW131775   0.617   0.879   7.437 -0.1830 -0.3742 -1.7390
 6772SOL    HW231776   0.497   0.954   7.488  1.4794 -1.8926  2.1828
 6773SOL     OW31777   2.194   4.021  15.909 -0.2989 -0.0300  0.1348
 6773SOL    HW131778   2.127   3.955  15.896 -1.5766  1.5334 -1.2282
 6773SOL    HW231779   2.259   3.982  15.851  0.5839  0.3031  0.8908
 6774SOL     OW31780   3.115   0.010   4.541 -0.2024  0.4235 -0.5372
 6774SOL    HW131781   3.130   4.661   4.479  0.3801  0.7098 -0.7312
 6774SOL    HW231782   3.108   0.089   4.487 -0.0140  1.1786  0.5502
 6775SOL     OW31783   2.468   1.591   3.009 -0.2172 -0.2579 -0.0440
 6775SOL    HW131784   2.414   1.666   2.983  0.0899  0.0011  0.0663
 6775SOL    HW231785   2.459   1.540   2.928  0.4961 -1.2054  0.4794
 6776SOL     OW31786   0.774   2.026  16.030  0.3367  0.6030 -0.0290
 6776SOL    HW131787   0.806   1.996  16.115 -1.6267 -2.4083 -0.3515
 6776SOL    HW231788   0.852   2.062  15.988 -0.4062 -0.0497 -1.9825
 6777SOL     OW31789   3.805   2.459   4.840 -0.5480 -0.1135 -0.2974
 6777SOL    HW131790   3.861   2.498   4.907  0.1752 -0.7857 -0.5144
 6777SOL    HW231791   3.743   2.423   4.904  0.0349  0.1148  0.4037
 6778SOL     OW31792   0.835   2.740   1.742  0.0235  0.0601  0.3481
 6778SOL    HW131793   0.860   2.692   1.821 -0.0900 -0.1045  0.2856
 6778SOL    HW231794   0.785   2.805   1.790 -2.0397 -0.7726 -0.6760
 6779SOL     OW31795   4.652   1.264   5.984 -0.2893 -0.0812  0.3874
 6779SOL    HW131796   4.686   1.344   5.946  1.0538 -1.4475 -1.3105
 6779SOL    HW231797   4.654   1.297   6.074  1.0075  0.2783  0.2177
 6780SOL     OW31798   0.939   3.245   0.699  0.6433 -0.2628 -0.3513
 6780SOL    HW131799   0.945   3.337   0.727  1.5328 -0.9346  1.6735
 6780SOL    HW231800   0.882   3.208   0.766  0.2330  0.3384 -0.3609
 6781SOL     OW31801   3.163   4.570   0.779 -0.5339 -0.2318 -0.6056
 6781SOL    HW131802   3.190   4.505   0.714  0.8598  0.6614 -0.9236
 6781SOL    HW231803   3.094   4.531   0.832 -1.1325 -0.7693 -1.7776
 6782SOL     OW31804   1.430   2.996   1.173 -0.3556  0.0517  0.3360
 6782SOL    HW131805   1.511   2.946   1.156 -1.2795 -1.7153  1.0979
 6782SOL    HW231806   1.404   3.014   1.083  1.6066 -0.8190 -0.4300
 6783SOL     OW31807   0.247   0.239   4.136  0.2651  0.6077 -0.0983
 6783SOL    HW131808   0.206   0.165   4.091 -2.2329  1.2069  1.1806
 6783SOL    HW231809   0.248   0.213   4.228  1.5401 -0.5588 -0.4464
 6784SOL     OW31810   3.637   2.597  11.652 -0.1768 -0.2039 -0.3273
 6784SOL    HW131811   3.562   2.653  11.673  1.5007  2.0536 -0.3670
 6784SOL    HW231812   3.678   2.578  11.736 -2.7512 -0.6441  0.8448
 6785SOL     OW31813   0.178   2.941   0.518  0.0490  0.0649 -0.0670
 6785SOL    HW131814   0.170   2.972   0.608 -1.3427 -2.0344  0.5357
 6785SOL    HW231815   0.161   2.847   0.530 -2.1483  0.3281 -1.0926
 6786SOL     OW31816   0.683   0.976  11.444  0.0329  0.1650 -0.2447
 6786SOL    HW131817   0.697   0.883  11.460 -3.0744 -0.4250 -0.9337
 6786SOL    HW231818   0.760   1.002  11.394  0.1975  0.7166  0.2953
 6787SOL     OW31819   0.077   0.647   7.004  0.2132  0.1099 -0.0758
 6787SOL    HW131820   0.071   0.702   7.082 -0.4440  2.6431 -1.9143
 6787SOL    HW231821   0.142   0.580   7.030  0.3928 -0.4921 -2.0740
 6788SOL     OW31822   0.565   4.482   3.281 -0.2338 -0.0159 -0.4814
 6788SOL    HW131823   0.642   4.535   3.298  0.3284 -1.1471  0.4725
 6788SOL    HW231824   0.577   4.405   3.337  2.1400 -0.4147 -1.5495
 6789SOL     OW31825   3.954   4.695   7.039  0.7444  0.1615 -0.2004
 6789SOL    HW131826   3.987   0.062   7.034  0.1311  0.4031  0.0226
 6789SOL    HW231827   3.887   4.703   6.971  0.0180  0.7036  0.5688
 6790SOL     OW31828   2.009   0.694  15.563 -0.4981 -0.4069 -0.3408
 6790SOL    HW131829   1.989   0.607  15.599  1.1482 -1.9842 -3.1695
 6790SOL    HW231830   2.099   0.674  15.537  0.4658  4.0984 -0.3826
 6791SOL     OW31831   2.196   4.191  12.321 -0.0448 -0.1948  0.1440
 6791SOL    HW131832   2.103   4.211  12.330 -0.0525 -0.3257  0.3477
 6791SOL    HW231833   2.225   4.262  12.380 -0.0830  0.6408 -0.8406
 6792SOL     OW31834   4.089   3.960  12.903  0.6719 -0.0365  0.1357
 6792SOL    HW131835   4.025   3.938  12.835  0.1178  2.4892 -0.1495
 6792SOL    HW231836   4.163   3.990  12.850  2.6660 -1.5736  2.0359
 6793SOL     OW31837   3.391   3.985  10.888 -0.2303 -0.1622 -0.4053
 6793SOL    HW131838   3.461   4.048  10.870 -0.5203 -0.3655 -2.2564
 6793SOL    HW231839   3.336   4.042  10.941 -0.4377  0.3459 -1.1617
 6794SOL     OW31840   2.547   1.969   0.874  0.5763 -0.0537 -0.7765
 6794SOL    HW131841   2.590   1.891   0.840  2.4446  0.6000  0.0382
 6794SOL    HW231842   2.456   1.940   0.875  0.2985  0.8312  0.4195
 6795SOL     OW31843   2.960   1.457   4.520 -0.3199 -0.1403 -0.2357
 6795SOL    HW131844   3.042   1.493   4.553  0.5978 -0.6683 -1.9516
 6795SOL    HW231845   2.963   1.478   4.426  0.6503  0.8746  0.0286
 6796SOL     OW31846   0.272   3.647   1.769 -0.2095 -0.3924  0.1919
 6796SOL    HW131847   0.216   3.579   1.806  0.8060 -0.4384  1.6375
 6796SOL    HW231848   0.356   3.624   1.808 -0.1294 -0.0877  0.1989
 6797SOL     OW31849   2.371   0.203   9.284 -0.1410 -0.1508 -0.0956
 6797SOL    HW131850   2.316   0.279   9.268  0.7763  0.6264  0.4257
 6797SOL    HW231851   2.344   0.184   9.374 -1.3330 -0.5885 -0.5416
 6798SOL     OW31852   2.780   4.022   7.983 -0.3482 -0.0798  0.1158
 6798SOL    HW131853   2.717   3.977   7.926  0.3662 -0.0710 -0.6881
 6798SOL    HW231854   2.796   4.096   7.924  2.9030 -1.7627 -1.1485
 6799SOL     OW31855   4.671   2.399   0.865 -0.3780 -0.4017  0.5290
 6799SOL    HW131856   4.647   2.478   0.912 -4.3972  0.6051 -3.1961
 6799SOL    HW231857   4.682   2.444   0.781 -0.4805 -0.9523  0.2214
 6800SOL     OW31858   1.234   0.261   5.421 -0.5650 -0.4682 -0.1556
 6800SOL    HW131859   1.176   0.332   5.396 -0.0644 -0.3811 -1.0679
 6800SOL    HW231860   1.286   0.315   5.481 -1.1242  0.0431 -0.1388
 6801SOL     OW31861   3.889   4.276   2.779  0.2547 -0.2648 -0.1717
 6801SOL    HW131862   3.811   4.329   2.795  1.0866  1.2503 -1.1562
 6801SOL    HW231863   3.859   4.241   2.696 -2.3750  0.8313  0.3129
 6802SOL     OW31864   3.700   0.554   5.329  0.0125  0.3458 -0.1847
 6802SOL    HW131865   3.614   0.590   5.348  1.1632  0.7057  4.3241
 6802SOL    HW231866   3.744   0.576   5.411 -0.2843 -0.6425  0.2352
 6803SOL     OW31867   4.062   3.163   3.666 -0.1398 -0.2238  0.3200
 6803SOL    HW131868   4.041   3.107   3.741  1.3962 -1.8687 -0.4993
 6803SOL    HW231869   3.971   3.171   3.638 -0.7012 -0.1716  2.1387
 6804SOL     OW31870   1.632   0.258  11.837 -0.1759  0.8500  1.0047
 6804SOL    HW131871   1.675   0.339  11.864  1.0696  0.2462  0.8091
 6804SOL    HW231872   1.711   0.206  11.827  0.6425  2.1453  0.7928
 6805SOL     OW31873   3.649   4.669   6.173 -0.2819  0.3351  0.2560
 6805SOL    HW131874   3.640   4.631   6.086  0.2282 -2.0278  1.2346
 6805SOL    HW231875   3.582   0.015   6.170 -0.6169  0.0180  0.4081
 6806SOL     OW31876   1.000   1.210   0.975  0.1573  0.3835  0.1011
 6806SOL    HW131877   1.005   1.189   0.882  2.7716  2.6920 -0.2608
 6806SOL    HW231878   0.934   1.279   0.975 -2.5231 -2.1343  0.8475
 6807SOL     OW31879   3.878   2.594   5.501 -0.5551 -0.5210  0.9120
 6807SOL    HW131880   3.813   2.625   5.564 -0.6769  3.5734 -1.1934
 6807SOL    HW231881   3.942   2.665   5.496  2.0653 -2.9364  0.0934
 6808SOL     OW31882   0.985   2.497   4.918 -0.2003  0.0942 -0.5254
 6808SOL    HW131883   0.912   2.520   4.861  0.9892 -0.9444 -2.4807
 6808SOL    HW231884   1.032   2.427   4.872  0.9486  1.8881 -2.0810
 6809SOL     OW31885   4.240   3.380   5.200  0.5922  0.2443  0.9091
 6809SOL    HW131886   4.147   3.368   5.178  0.9161  0.6067 -0.6168
 6809SOL    HW231887   4.242   3.360   5.294  1.3670 -0.3109  0.7695
 6810SOL     OW31888   0.378   4.720   5.869  0.1057  0.6049 -0.3607
 6810SOL    HW131889   0.291   4.702   5.906  1.2889 -1.6346  1.3480
 6810SOL    HW231890   0.360   0.026   5.780  0.3888 -0.8768 -0.8939
 6811SOL     OW31891   4.421   1.288   9.833 -0.0588  0.0166  1.1268
 6811SOL    HW131892   4.416   1.321   9.922  1.7119 -3.0196  2.3578
 6811SOL    HW231893   4.379   1.203   9.844 -0.1103 -0.3638 -1.9532
 6812SOL     OW31894   3.533   0.619  16.619 -0.5455 -0.0326 -0.1737
 6812SOL    HW131895   3.582   0.694  16.585 -0.6592  0.2884  0.3726
 6812SOL    HW231896   3.447   0.619  16.579  0.1869  0.3635 -1.7304
 6813SOL     OW31897   3.918   0.941   5.895 -0.6420  0.3816  0.1882
 6813SOL    HW131898   3.875   1.021   5.924  0.3114  0.2067  2.1279
 6813SOL    HW231899   3.976   0.990   5.836  0.3771  0.1378  0.9778
 6814SOL     OW31900   0.524   0.895   4.132 -0.3305  0.3827  0.2878
 6814SOL    HW131901   0.520   0.971   4.190  0.7600 -0.7466  1.8276
 6814SOL    HW231902   0.433   0.866   4.132  0.3322 -1.7164  2.0080
 6815SOL     OW31903   0.106   3.765  12.563  0.0999 -0.5750 -0.0190
 6815SOL    HW131904   0.028   3.790  12.613 -0.2038 -4.1626  1.2859
 6815SOL    HW231905   0.150   3.709  12.626 -1.5896 -1.2909  0.5241
 6816SOL     OW31906   1.639   4.284   8.759  0.0927 -0.0207  0.4592
 6816SOL    HW131907   1.731   4.311   8.751  0.1607 -0.0073  1.2368
 6816SOL    HW231908   1.639   4.246   8.847  0.6508  0.8150  0.8217
 6817SOL     OW31909   1.735   3.823   5.944 -0.6012 -0.1726 -0.0740
 6817SOL    HW131910   1.813   3.865   5.908  0.5171 -0.1945  2.3008
 6817SOL    HW231911   1.703   3.884   6.010  2.2947  0.8756  0.3551
 6818SOL     OW31912   4.721   1.719   4.026  0.6708  0.2668  0.6414
 6818SOL    HW131913   4.665   1.665   3.970 -0.1085  0.2568  1.4351
 6818SOL    HW231914   0.077   1.665   4.034  0.3814 -0.2331  0.0950
 6819SOL     OW31915   2.050   1.544   7.807  0.6961 -0.1451 -0.4398
 6819SOL    HW131916   2.040   1.453   7.836 -0.2419 -0.2987 -1.2277
 6819SOL    HW231917   1.976   1.581   7.855 -0.6123 -0.6157 -2.0747
 6820SOL     OW31918   0.734   1.043  16.194  0.7503  0.1096  0.6506
 6820SOL    HW131919   0.725   1.094  16.114 -0.9007  0.3792  1.0083
 6820SOL    HW231920   0.757   1.117  16.249  0.3885  0.3203  0.5196
 6821SOL     OW31921   1.456   1.215   2.156  0.0070  0.3057  0.0564
 6821SOL    HW131922   1.396   1.177   2.092  0.0922  4.7176 -2.6655
 6821SOL    HW231923   1.537   1.199   2.107 -0.3139 -2.3101  0.3976
 6822SOL     OW31924   2.223   1.719   7.290  0.0026  0.0306 -0.3863
 6822SOL    HW131925   2.229   1.811   7.316  0.4339 -0.1059  0.0013
 6822SOL    HW231926   2.161   1.683   7.353 -1.0321  0.9316 -0.8837
 6823SOL     OW31927   2.938   4.336   7.418  0.1495 -0.0858 -0.1905
 6823SOL    HW131928   2.999   4.410   7.425  0.0222  0.1043 -1.1394
 6823SOL    HW231929   2.966   4.307   7.332  0.5512  0.6284 -0.3066
 6824SOL     OW31930   4.295   2.421   7.921 -0.2028  0.0707 -0.0109
 6824SOL    HW131931   4.214   2.370   7.912 -0.1757 -0.0354  0.3699
 6824SOL    HW231932   4.348   2.368   7.980 -1.5857  0.1316  1.2833
 6825SOL     OW31933   2.773   3.229   4.371  0.1107  0.4557 -0.0930
 6825SOL    HW131934   2.722   3.239   4.451  0.6308  0.2844  0.2593
 6825SOL    HW231935   2.857   3.197   4.405 -0.0232 -0.2508 -0.4149
 6826SOL     OW31936   0.130   3.752   3.320  0.3873 -0.4114  0.2582
 6826SOL    HW131937   0.050   3.779   3.275  0.4892 -0.0218  0.3143
 6826SOL    HW231938   0.106   3.735   3.412  1.0879 -0.3307  0.4536
 6827SOL     OW31939   1.366   2.764   6.193  0.0046  0.1219 -0.1944
 6827SOL    HW131940   1.431   2.753   6.263 -0.7780  0.3564  0.5619
 6827SOL    HW231941   1.408   2.724   6.117  1.2432  1.0358  0.0095
 6828SOL     OW31942   4.493   4.711   4.113 -0.2620 -0.2539 -0.0022
 6828SOL    HW131943   4.436   4.658   4.169 -3.5207  1.9013 -1.2650
 6828SOL    HW231944   4.553   4.645   4.080 -0.1728 -1.2452  2.1791
 6829SOL     OW31945   1.563   2.854   6.408 -0.1064 -0.4761 -0.7285
 6829SOL    HW131946   1.565   2.843   6.503 -1.3562  0.6862 -0.5562
 6829SOL    HW231947   1.508   2.933   6.414 -0.7758 -1.2273  3.2814
 6830SOL     OW31948   3.699   0.484   6.431  0.2343  0.5542  0.7842
 6830SOL    HW131949   3.704   0.393   6.463  2.3309 -0.1136 -1.4275
 6830SOL    HW231950   3.788   0.486   6.395  0.2096 -0.2454  0.6605
 6831SOL     OW31951   1.597   2.615   6.803  0.5852  0.4779  0.4865
 6831SOL    HW131952   1.560   2.693   6.762  0.2166  1.0779  1.9648
 6831SOL    HW231953   1.519   2.563   6.783 -0.4791  2.4260 -0.3650
 6832SOL     OW31954   4.226   3.912   2.716 -0.3330 -0.4700 -0.3911
 6832SOL    HW131955   4.150   3.955   2.757 -2.1985 -2.8194 -1.4026
 6832SOL    HW231956   4.299   3.961   2.754 -1.0085  2.0741 -2.3526
 6833SOL     OW31957   0.314   3.894   4.781 -0.0358 -1.0736  0.1978
 6833SOL    HW131958   0.383   3.951   4.747 -1.2244  0.1032 -0.2460
 6833SOL    HW231959   0.359   3.813   4.800  1.7095  0.3591  2.1210
 6834SOL     OW31960   3.636   1.124   7.556 -0.6182  0.4486 -0.3250
 6834SOL    HW131961   3.581   1.089   7.484 -0.3493  2.5843 -1.5563
 6834SOL    HW231962   3.658   1.041   7.599  1.1572  2.0027  1.6920
 6835SOL     OW31963   1.971   2.960   4.234  0.4521 -0.5782  0.5495
 6835SOL    HW131964   2.026   3.011   4.175 -0.2626 -1.6877 -1.0683
 6835SOL    HW231965   1.992   2.868   4.219 -0.5344 -0.9002  1.1223
 6836SOL     OW31966   1.883   1.160  16.762 -0.1421  0.1751  0.6112
 6836SOL    HW131967   1.805   1.205  16.795 -0.4622 -0.2220  0.3951
 6836SOL    HW231968   1.855   1.087  16.706  2.0474  0.7568 -1.2343
 6837SOL     OW31969   0.965   2.899  10.684  0.8235  0.5049  0.1986
 6837SOL    HW131970   0.963   2.887  10.779  0.3827 -0.0938  0.1118
 6837SOL    HW231971   1.049   2.942  10.671  0.7942 -0.0653 -1.9926
 6838SOL     OW31972   0.340   0.337   0.301 -0.2666 -0.1254  0.0970
 6838SOL    HW131973   0.265   0.362   0.247 -0.2012  0.6068  0.3488
 6838SOL    HW231974   0.293   0.356   0.382 -1.1401 -1.1985 -0.1558
 6839SOL     OW31975   3.502   3.693   4.101  0.5695  0.1221  0.4622
 6839SOL    HW131976   3.580   3.665   4.148 -0.4925 -0.0542  2.1003
 6839SOL    HW231977   3.471   3.606   4.078 -0.8630  0.7012  0.2149
 6840SOL     OW31978   1.147   3.717  10.313 -0.4062 -0.0853 -0.4067
 6840SOL    HW131979   1.145   3.628  10.347 -2.6005  0.1808  0.0959
 6840SOL    HW231980   1.064   3.708  10.268 -0.7964  0.2099  0.2536
 6841SOL     OW31981   3.823   1.955   3.609  0.2600  0.1103 -0.0130
 6841SOL    HW131982   3.740   1.966   3.562  0.5333 -2.2965 -1.0597
 6841SOL    HW231983   3.782   1.926   3.690 -0.0744  1.5194  0.3090
 6842SOL     OW31984   0.078   0.700   2.574 -0.0319  0.0826  0.2998
 6842SOL    HW131985   0.142   0.648   2.622 -0.2367 -0.1085  0.3661
 6842SOL    HW231986   0.134   0.714   2.498  1.0675  1.4046  1.3387
 6843SOL     OW31987   3.943   0.975   5.159  0.6764  0.1015 -0.0492
 6843SOL    HW131988   3.929   0.903   5.097 -0.5484 -0.1199  0.4956
 6843SOL    HW231989   3.914   0.940   5.243 -0.4646  0.3395 -0.3541
 6844SOL     OW31990   3.311   1.592   2.800  0.0378 -0.5390  0.0600
 6844SOL    HW131991   3.364   1.651   2.747  1.5137 -0.5635  1.4874
 6844SOL    HW231992   3.378   1.565   2.863 -0.3886  1.0550  1.1946
 6845SOL     OW31993   0.995   0.038   9.258 -0.1022  0.5277 -0.5021
 6845SOL    HW131994   1.073   0.055   9.206  0.6406 -1.0411  0.1108
 6845SOL    HW231995   0.932   0.110   9.246  0.3845  0.9445 -0.5518
 6846SOL     OW31996   0.874   3.814   1.283 -0.4594 -0.3374 -0.1431
 6846SOL    HW131997   0.868   3.890   1.341  3.1322 -0.5714  0.5278
 6846SOL    HW231998   0.803   3.834   1.221  1.5704  1.9793 -1.6892
 6847SOL     OW31999   2.018   0.924   5.308 -0.0778 -0.2759  0.2563
 6847SOL    HW132000   2.002   0.837   5.345 -2.6549  0.5687  1.0824
 6847SOL    HW232001   1.933   0.956   5.278  0.2166  0.9817  0.7917
 6848SOL     OW32002   3.953   3.105   7.555  0.0748  0.2297 -0.1737
 6848SOL    HW132003   3.924   3.195   7.573  0.2849  0.6160 -1.7472
 6848SOL    HW232004   3.881   3.068   7.504 -0.8006 -0.0848  1.2814
 6849SOL     OW32005   0.054   1.486   5.209  0.6828 -0.5849  0.3656
 6849SOL    HW132006   0.056   1.394   5.234  1.7896 -0.2813  1.4297
 6849SOL    HW232007   0.148   1.506   5.207  0.6341 -0.3055  0.7454
 6850SOL     OW32008   3.844   4.256   7.597 -0.5925 -0.0352  0.3296
 6850SOL    HW132009   3.805   4.213   7.521  2.5588 -0.5462 -0.9984
 6850SOL    HW232010   3.822   4.348   7.586  1.8201  0.0976 -3.2058
 6851SOL     OW32011   2.872   4.077   2.850  0.8127  0.4443  0.2160
 6851SOL    HW132012   2.869   4.077   2.945  0.9431 -0.5553  0.2205
 6851SOL    HW232013   2.876   4.169   2.825 -0.5197 -0.9355 -5.0465
 6852SOL     OW32014   1.736   3.982   6.792 -0.4184 -0.1143  0.5251
 6852SOL    HW132015   1.710   3.906   6.740 -0.1165  0.3947 -0.3623
 6852SOL    HW232016   1.683   4.050   6.751  0.4150 -0.7316 -1.5892
 6853SOL     OW32017   4.101   4.509   1.783  0.2006  1.1066  0.6166
 6853SOL    HW132018   4.056   4.425   1.771  3.3344 -0.0371 -3.1279
 6853SOL    HW232019   4.172   4.477   1.839  1.0951  0.2159 -1.0579
 6854SOL     OW32020   0.804   3.014   8.956  0.0546  0.3937  0.4647
 6854SOL    HW132021   0.790   2.964   8.876  1.6733  0.6359  0.0352
 6854SOL    HW232022   0.715   2.996   8.988  0.8229  2.7358  3.9302
 6855SOL     OW32023   2.969   0.490   9.289  0.4275  0.1884 -0.5770
 6855SOL    HW132024   3.060   0.474   9.266  0.5087  0.3609 -0.3829
 6855SOL    HW232025   2.969   0.539   9.372 -0.6351 -0.1553 -0.3753
 6856SOL     OW32026   4.471   0.937   9.239 -0.2503 -1.1160  0.1276
 6856SOL    HW132027   4.477   0.912   9.331 -0.0351 -0.0766  0.4038
 6856SOL    HW232028   4.516   1.022   9.242  1.2793 -1.8909 -0.7588
 6857SOL     OW32029   0.133   1.221  15.917 -0.3212  0.7272 -0.4811
 6857SOL    HW132030   0.154   1.141  15.964  2.0854  0.4631 -2.0259
 6857SOL    HW232031   0.039   1.207  15.903 -0.2849 -1.8147  1.8989
 6858SOL     OW32032   2.964   0.008   0.663  0.8930  0.1358  0.2570
 6858SOL    HW132033   2.993   0.001   0.572  0.7589  0.2101  0.2070
 6858SOL    HW232034   2.896   4.663   0.664  1.7564 -0.7153 -0.0340
 6859SOL     OW32035   1.321   1.821   6.634 -0.0478  0.4203  0.5382
 6859SOL    HW132036   1.407   1.862   6.637 -0.3547  1.0715  0.4733
 6859SOL    HW232037   1.319   1.807   6.539  1.6346  0.8038  0.4470
 6860SOL     OW32038   4.144   3.841   6.312  0.2752  0.2080 -0.5736
 6860SOL    HW132039   4.176   3.897   6.242  0.8762 -1.1696 -1.4010
 6860SOL    HW232040   4.052   3.867   6.314  0.5973  1.2957  0.2541
 6861SOL     OW32041   0.272   0.928  17.498 -0.6224  0.4221  0.2067
 6861SOL    HW132042   0.180   0.926  17.473 -0.5834 -1.8712  0.1754
 6861SOL    HW232043   0.266   0.898  17.589 -1.4090  1.2171  0.4094
 6862SOL     OW32044   4.177   4.419  16.805 -1.1264  0.2276  0.2470
 6862SOL    HW132045   4.154   4.502  16.763 -0.9436 -0.0734 -0.4541
 6862SOL    HW232046   4.245   4.386  16.747 -0.3684  2.2249  0.0198
 6863SOL     OW32047   1.633   1.607   4.266 -0.0926 -0.1908 -0.5492
 6863SOL    HW132048   1.619   1.541   4.335  0.0804  1.7920  1.3874
 6863SOL    HW232049   1.621   1.547   4.193  3.2738 -1.5470  0.0105
 6864SOL     OW32050   2.598   0.901   4.027  0.3586 -0.0042  0.4176
 6864SOL    HW132051   2.544   0.913   3.949  0.8477  0.4341  0.1459
 6864SOL    HW232052   2.536   0.930   4.094  1.5142  0.1407  1.4250
 6865SOL     OW32053   3.951   1.449  12.797 -0.0081  0.2284  0.0989
 6865SOL    HW132054   3.924   1.538  12.820  0.5983  0.2245  0.8090
 6865SOL    HW232055   3.912   1.398  12.868 -1.8173  0.8460 -0.4457
 6866SOL     OW32056   4.550   4.197   4.954 -0.1749 -0.6013  0.0280
 6866SOL    HW132057   4.574   4.157   5.038 -2.7954  0.8196  1.4530
 6866SOL    HW232058   4.551   4.121   4.896  1.6549  1.4353 -2.5632
 6867SOL     OW32059   2.830   1.780   0.711 -0.1221 -0.2365 -0.0213
 6867SOL    HW132060   2.896   1.846   0.689  1.7056 -2.0671 -0.0446
 6867SOL    HW232061   2.782   1.776   0.629 -1.2263  0.0775  0.6146
 6868SOL     OW32062   4.119   2.082   9.243  0.3214 -0.1847  0.1065
 6868SOL    HW132063   4.029   2.052   9.232 -0.7133  3.6907 -2.1180
 6868SOL    HW232064   4.120   2.085   9.339  1.2415 -0.2703  0.0968
 6869SOL     OW32065   3.105   4.269  10.059 -0.0532 -0.4158  0.4828
 6869SOL    HW132066   3.197   4.281  10.081 -0.2952 -0.3226  1.4352
 6869SOL    HW232067   3.122   4.268   9.965  2.1086  3.2943  0.8266
 6870SOL     OW32068   3.204   2.354   9.297  0.1047  0.4062  0.1393
 6870SOL    HW132069   3.249   2.385   9.219 -0.8772  1.5665  0.0354
 6870SOL    HW232070   3.113   2.369   9.271 -0.0730  0.1627  0.6097
 6871SOL     OW32071   2.881   1.034  14.581  0.5046 -0.1191 -0.0126
 6871SOL    HW132072   2.865   1.120  14.620  0.7501 -0.7361  1.4253
 6871SOL    HW232073   2.790   1.021  14.554  0.4570  2.7736 -1.2035
 6872SOL     OW32074   0.576   4.407   8.704 -0.1144 -0.3480 -0.6419
 6872SOL    HW132075   0.590   4.400   8.799  1.4706  0.0592 -0.8399
 6872SOL    HW232076   0.665   4.400   8.669  0.2482  2.8569 -0.3644
 6873SOL     OW32077   2.105   3.799   4.948 -0.4998 -0.1652  0.0311
 6873SOL    HW132078   2.159   3.877   4.940 -0.9211 -0.2492 -3.7335
 6873SOL    HW232079   2.173   3.733   4.960  0.8524  1.4939  1.6404
 6874SOL     OW32080   3.126   0.622  12.504  0.0155  0.4112  0.2011
 6874SOL    HW132081   3.058   0.649  12.565  0.8918  0.9034  0.9565
 6874SOL    HW232082   3.135   0.705  12.457 -1.7939  2.2075  3.0483
 6875SOL     OW32083   1.802   1.578   3.324 -0.0267 -0.3097 -0.3169
 6875SOL    HW132084   1.749   1.590   3.245 -1.0588  2.5228  0.8183
 6875SOL    HW232085   1.752   1.502   3.355  1.4197 -0.8913  0.5732
 6876SOL     OW32086   1.637   0.097   2.676  0.0054 -0.2892  0.2964
 6876SOL    HW132087   1.576   0.030   2.646 -0.0101 -1.4923  2.9906
 6876SOL    HW232088   1.631   0.166   2.609 -0.1007 -0.9094 -0.3252
 6877SOL     OW32089   1.499   4.332   2.955 -0.4037  0.4324  0.5651
 6877SOL    HW132090   1.453   4.387   3.019 -1.0181 -1.1851  1.5135
 6877SOL    HW232091   1.575   4.295   3.000  0.2187  0.7160 -0.2568
 6878SOL     OW32092   2.107   0.539   2.401 -0.4958  0.3084  0.0659
 6878SOL    HW132093   2.195   0.503   2.410  0.2096  1.9040 -0.3898
 6878SOL    HW232094   2.105   0.551   2.306  0.7907 -1.0418 -0.1316
 6879SOL     OW32095   4.606   1.426   7.832 -0.4283 -0.3094 -0.6775
 6879SOL    HW132096   4.540   1.376   7.785 -3.1041  2.7459 -0.1688
 6879SOL    HW232097   4.564   1.511   7.822  0.4969  0.2002 -0.3220
 6880SOL     OW32098   0.943   4.338  16.939  0.0572 -0.4694 -0.1103
 6880SOL    HW132099   1.025   4.388  16.940 -1.4699  2.0172 -0.4443
 6880SOL    HW232100   0.967   4.288  16.861  0.7700 -1.7308  0.9299
 6881SOL     OW32101   3.933   1.457  10.690  0.1026 -0.4743 -0.1706
 6881SOL    HW132102   3.876   1.531  10.669 -1.6225 -1.4089  1.1679
 6881SOL    HW232103   3.882   1.385  10.654  1.5750 -0.6229 -1.9489
 6882SOL     OW32104   0.417   1.031   7.612 -0.0398 -0.0695 -0.3902
 6882SOL    HW132105   0.333   1.070   7.635  0.3305  0.0393  0.7744
 6882SOL    HW232106   0.474   1.085   7.668 -1.7795  0.5867  0.7515
 6883SOL     OW32107   0.692   0.834  13.842 -0.3193  0.0351 -0.3437
 6883SOL    HW132108   0.727   0.896  13.906  0.3392 -1.4437  0.7326
 6883SOL    HW232109   0.676   0.899  13.773 -0.6646  2.7453  2.3371
 6884SOL     OW32110   3.668   3.805   1.347 -0.0013  0.1150  1.1822
 6884SOL    HW132111   3.745   3.831   1.398  0.6357 -0.3603  0.4610
 6884SOL    HW232112   3.602   3.834   1.411  0.7834  1.1957  1.5043
 6885SOL     OW32113   0.978   2.563   4.597  0.5145  0.7930  0.0014
 6885SOL    HW132114   0.889   2.526   4.600  0.2504  1.4480  0.1046
 6885SOL    HW232115   1.024   2.500   4.541  1.2760  1.1145  0.2794
 6886SOL     OW32116   1.278   0.520   2.942  0.5927  0.2768 -0.3508
 6886SOL    HW132117   1.328   0.446   2.906 -2.2666 -2.0751  0.4794
 6886SOL    HW232118   1.266   0.580   2.868  0.8269  1.4978  0.6015
 6887SOL     OW32119   3.649   4.567  15.078 -0.0938  0.2715 -0.1017
 6887SOL    HW132120   3.726   4.594  15.129 -0.9036 -0.0381  1.2961
 6887SOL    HW232121   3.597   4.517  15.141 -1.3734  1.0215 -0.5558
 6888SOL     OW32122   4.355   4.324   2.918 -0.6050 -0.1023  0.1923
 6888SOL    HW132123   4.312   4.399   2.877 -1.3109 -1.1923 -1.0646
 6888SOL    HW232124   4.441   4.360   2.940 -0.2610  1.1750 -3.2259
 6889SOL     OW32125   0.179   3.962  12.803  0.3398 -0.2003 -0.1143
 6889SOL    HW132126   0.240   3.967  12.729  0.4441  4.3093  0.2725
 6889SOL    HW232127   0.233   3.908  12.859 -0.6968 -2.3664 -1.2156
 6890SOL     OW32128   2.595   3.587   4.242 -0.8931 -0.0802 -0.4597
 6890SOL    HW132129   2.660   3.555   4.179 -4.1104 -1.5488 -3.0673
 6890SOL    HW232130   2.525   3.626   4.189 -1.0294  2.0133  1.2842
 6891SOL     OW32131   3.213   2.706   4.243  0.0005 -0.3023  0.5711
 6891SOL    HW132132   3.233   2.752   4.161 -0.6057 -0.5951  0.2541
 6891SOL    HW232133   3.301   2.692   4.278  0.7306  0.6671 -0.8703
 6892SOL     OW32134   3.208   4.389   1.499  0.4832 -0.2196  0.1967
 6892SOL    HW132135   3.168   4.370   1.414 -0.9612  2.5418  0.2658
 6892SOL    HW232136   3.165   4.337   1.567 -0.1777  0.0582 -0.0102
 6893SOL     OW32137   1.338   2.672   2.793 -0.2289 -1.1230  0.1580
 6893SOL    HW132138   1.308   2.583   2.813 -0.0428 -0.9133  1.3815
 6893SOL    HW232139   1.380   2.660   2.709 -0.1686  2.0844 -0.2582
 6894SOL     OW32140   1.892   4.005   7.796  0.0294 -0.7005  0.6326
 6894SOL    HW132141   1.848   4.001   7.711  0.1727  1.5134  0.4569
 6894SOL    HW232142   1.835   4.067   7.842  1.1616  0.5832  0.3081
 6895SOL     OW32143   1.185   4.509   1.138  0.1305 -0.6398  0.5320
 6895SOL    HW132144   1.274   4.545   1.145  0.0242 -0.0703 -1.0279
 6895SOL    HW232145   1.201   4.428   1.090 -0.5032 -0.7919  0.5743
 6896SOL     OW32146   4.217   3.909   3.622 -0.0660  0.3577 -0.3366
 6896SOL    HW132147   4.166   3.850   3.567 -1.3596  0.9929  0.1675
 6896SOL    HW232148   4.300   3.920   3.576 -0.5034  1.0274 -0.9760
 6897SOL     OW32149   2.486   0.390   7.159 -0.0415 -0.2972 -0.6864
 6897SOL    HW132150   2.425   0.316   7.150 -2.9548  1.6601  2.7397
 6897SOL    HW232151   2.499   0.376   7.253 -1.5509 -0.9922 -0.5728
 6898SOL     OW32152   1.009   2.719  13.831 -0.6347 -0.3915  0.0345
 6898SOL    HW132153   0.952   2.796  13.825  0.3228  0.1149 -2.6981
 6898SOL    HW232154   1.082   2.769  13.867 -0.2248  0.1062 -1.5016
 6899SOL     OW32155   4.022   4.578   5.486  0.4033 -0.3806 -0.1976
 6899SOL    HW132156   4.066   4.664   5.486 -1.3015  0.5048 -1.7735
 6899SOL    HW232157   4.003   4.571   5.580  0.1623 -0.2948 -0.2392
 6900SOL     OW32158   0.246   2.010   6.552  0.3616  0.1812 -0.0268
 6900SOL    HW132159   0.180   1.950   6.586 -0.3992 -0.6606 -3.0283
 6900SOL    HW232160   0.331   1.986   6.588 -0.0211  0.6406  1.2019
 6901SOL     OW32161   1.866   2.552   5.598  0.4314  0.5811  0.9106
 6901SOL    HW132162   1.809   2.489   5.643  0.2413  0.1876  0.1169
 6901SOL    HW232163   1.902   2.497   5.529 -0.5320 -0.0368  0.9035
 6902SOL     OW32164   3.754   4.551   1.281  0.4192  0.1749  1.0137
 6902SOL    HW132165   3.659   4.539   1.289  0.3404 -0.0846 -0.2011
 6902SOL    HW232166   3.772   4.460   1.258  1.2770  0.1668  1.7624
 6903SOL     OW32167   4.147   1.610  10.651 -0.4427  0.3182 -0.0119
 6903SOL    HW132168   4.082   1.544  10.674 -0.4419  0.3305  0.0255
 6903SOL    HW232169   4.208   1.568  10.590 -1.1911  0.9176 -1.1555
 6904SOL     OW32170   3.641   0.669   7.421 -0.1131  0.2289  0.0622
 6904SOL    HW132171   3.561   0.639   7.378 -0.8897  1.2117  0.8306
 6904SOL    HW232172   3.662   0.610   7.494  2.5074 -0.4171 -1.2158
 6905SOL     OW32173   3.870   2.012   2.539  0.3801  0.5036 -0.0507
 6905SOL    HW132174   3.925   2.084   2.507  0.6326  0.0953 -0.5369
 6905SOL    HW232175   3.904   1.936   2.491  1.6232  1.3051 -0.4601
 6906SOL     OW32176   4.226   4.359   8.225 -0.0066 -0.3543 -0.2916
 6906SOL    HW132177   4.267   4.444   8.207 -0.3217 -0.3166 -0.8216
 6906SOL    HW232178   4.294   4.300   8.193 -1.1964 -2.9174  1.9313
 6907SOL     OW32179   0.055   0.622   0.890 -0.0238 -0.2433 -0.0846
 6907SOL    HW132180   0.029   0.655   0.976 -1.4910 -1.6293  0.0052
 6907SOL    HW232181   4.699   0.644   0.841  0.6273  1.4167 -0.3687
 6908SOL     OW32182   4.655   3.941   3.700  0.6329  0.1893  0.4262
 6908SOL    HW132183   4.641   3.878   3.770  1.2551  1.3452  1.5982
 6908SOL    HW232184   4.646   3.897   3.615 -1.3454 -0.3505  0.9183
 6909SOL     OW32185   0.770   4.544   4.368  0.3409  0.1674  0.2163
 6909SOL    HW132186   0.763   4.563   4.461 -2.1387  0.0235  0.0647
 6909SOL    HW232187   0.842   4.601   4.340 -0.8382  1.2345 -0.6750
 6910SOL     OW32188   2.860   2.996  11.378  0.1419 -0.1991  0.7287
 6910SOL    HW132189   2.933   3.044  11.416  0.2550 -0.1405  0.4399
 6910SOL    HW232190   2.854   3.039  11.292 -2.2127  0.0352  0.9917
 6911SOL     OW32191   4.525   3.724   8.002  0.0664 -0.3515 -0.3107
 6911SOL    HW132192   4.601   3.706   7.947 -0.3618  2.7348 -1.9111
 6911SOL    HW232193   4.461   3.728   7.931 -2.3308 -2.0308  1.7472
 6912SOL     OW32194   3.832   1.746   7.374  0.4412 -0.2311  0.1446
 6912SOL    HW132195   3.739   1.757   7.356  0.4380  0.6372  0.6837
 6912SOL    HW232196   3.848   1.652   7.368  2.1163  0.1334 -1.0013
 6913SOL     OW32197   0.064   3.368   0.478 -0.4416 -0.2465  0.5114
 6913SOL    HW132198   0.160   3.372   0.487 -0.4160 -1.6749  0.8118
 6913SOL    HW232199   0.034   3.446   0.525 -1.4546  1.1732 -2.5094
 6914SOL     OW32200   1.154   0.703   6.081 -0.0779 -0.1774 -0.0903
 6914SOL    HW132201   1.176   0.741   6.166  0.0857 -0.3310 -0.0647
 6914SOL    HW232202   1.135   0.782   6.030 -1.9523  0.6037  1.8243
 6915SOL     OW32203   1.479   2.341   7.636 -0.7663  0.2514 -0.0697
 6915SOL    HW132204   1.552   2.401   7.622 -0.9834  0.9891  1.9362
 6915SOL    HW232205   1.474   2.343   7.732 -1.4792 -0.4465 -0.0944
 6916SOL     OW32206   1.880   4.357   5.658  0.4244  0.3389  0.3865
 6916SOL    HW132207   1.870   4.372   5.752 -1.6183  0.8556  0.0877
 6916SOL    HW232208   1.973   4.351   5.638  0.2157  0.1383 -0.5662
 6917SOL     OW32209   1.081   1.827   1.555  0.1197  0.6320 -0.6413
 6917SOL    HW132210   1.095   1.906   1.608 -0.7122 -1.1773  2.2833
 6917SOL    HW232211   1.168   1.790   1.568  0.6770  1.5725 -1.7134
 6918SOL     OW32212   0.437   0.267   6.257  0.0755  0.1376 -0.0104
 6918SOL    HW132213   0.467   0.314   6.179  1.6724 -0.9609 -0.0742
 6918SOL    HW232214   0.367   0.213   6.220  0.8183 -1.7664  1.3500
 6919SOL     OW32215   1.799   2.538  15.967 -0.0970 -0.9512 -0.1789
 6919SOL    HW132216   1.810   2.445  15.984 -0.2233 -1.1290 -1.1060
 6919SOL    HW232217   1.891   2.558  15.985 -0.3322 -1.4435  1.5816
 6920SOL     OW32218   0.503   1.803   4.340  0.3634 -0.4653 -0.2890
 6920SOL    HW132219   0.467   1.731   4.289 -0.6764 -0.2842  0.2013
 6920SOL    HW232220   0.449   1.802   4.419  0.3584  0.0812 -0.2843
 6921SOL     OW32221   0.666   2.021   6.046  0.1474 -0.6567 -0.0769
 6921SOL    HW132222   0.743   2.044   6.099 -0.4865 -1.0196  1.0025
 6921SOL    HW232223   0.620   2.105   6.052 -1.0159 -1.4087  1.4461
 6922SOL     OW32224   2.022   1.400   3.382  0.1996  0.5910  0.3736
 6922SOL    HW132225   1.961   1.473   3.378  1.3074  1.3270 -2.5117
 6922SOL    HW232226   2.096   1.445   3.342 -0.5863 -0.6383 -2.4734
 6923SOL     OW32227   2.175   1.247   7.825 -0.2223  0.4790  0.0276
 6923SOL    HW132228   2.245   1.185   7.843 -1.1777 -0.3964  0.6833
 6923SOL    HW232229   2.121   1.259   7.903  0.3621  1.5340  0.2712
 6924SOL     OW32230   4.350   2.918   1.545 -0.4308 -0.0632 -0.4175
 6924SOL    HW132231   4.356   2.923   1.449  0.7243  0.1858 -0.3224
 6924SOL    HW232232   4.374   2.829   1.571 -1.1433 -0.5899 -1.5370
 6925SOL     OW32233   1.951   1.196   0.367 -0.3293  0.0666 -0.1940
 6925SOL    HW132234   1.925   1.112   0.330 -1.2389  1.9268 -3.7485
 6925SOL    HW232235   1.959   1.242   0.284  0.9483  3.4653  1.8262
 6926SOL     OW32236   0.489   0.245   4.303  0.2546 -0.1837 -0.1389
 6926SOL    HW132237   0.409   0.291   4.278  1.6725  2.1875 -0.3311
 6926SOL    HW232238   0.477   0.174   4.240  0.1926  0.2581 -0.6286
 6927SOL     OW32239   0.660   3.907   4.564  0.0931  0.4257  0.0155
 6927SOL    HW132240   0.583   3.961   4.582 -0.0324  0.4612 -0.6153
 6927SOL    HW232241   0.721   3.953   4.621  0.8849 -0.1415 -0.3703
 6928SOL     OW32242   3.509   0.899   7.410 -0.5888  0.0198  0.2380
 6928SOL    HW132243   3.504   0.882   7.316  0.8553  1.0390 -0.0236
 6928SOL    HW232244   3.569   0.833   7.444  0.9136  1.8847  1.1897
 6929SOL     OW32245   3.198   3.036   4.319  0.1918 -0.4281  0.1562
 6929SOL    HW132246   3.248   2.962   4.355 -0.7425 -2.3443 -2.4717
 6929SOL    HW232247   3.139   3.061   4.390  1.1982 -0.9900  1.1879
 6930SOL     OW32248   1.746   1.823  13.743  0.0354  0.5923 -0.3968
 6930SOL    HW132249   1.822   1.786  13.788 -0.3361 -0.3217 -0.5042
 6930SOL    HW232250   1.785   1.888  13.684 -0.2831  0.1417 -1.1044
 6931SOL     OW32251   0.728   1.712   7.203  0.1732  0.0100  0.1290
 6931SOL    HW132252   0.640   1.690   7.174  0.4547  0.0456 -0.7677
 6931SOL    HW232253   0.723   1.690   7.296 -0.9736  0.1496  0.1020
 6932SOL     OW32254   2.553   3.538  16.532 -0.2506 -0.7527 -0.7254
 6932SOL    HW132255   2.636   3.525  16.486  1.3996 -0.7828  2.2618
 6932SOL    HW232256   2.582   3.587  16.609  0.4354  0.7770 -1.9662
 6933SOL     OW32257   0.868   3.210   8.208 -0.1271  0.0594 -0.2163
 6933SOL    HW132258   0.849   3.278   8.273 -0.0421 -0.9632  0.8793
 6933SOL    HW232259   0.793   3.230   8.151  1.6944 -2.6014 -3.5114
 6934SOL     OW32260   4.155   3.918   1.915 -0.0760 -0.2847  0.3570
 6934SOL    HW132261   4.169   3.827   1.943  0.0344 -0.1731  0.6671
 6934SOL    HW232262   4.243   3.953   1.922  0.3256 -0.9036 -1.7801
 6935SOL     OW32263   3.305   2.847   2.444  0.3925  0.2317  0.2994
 6935SOL    HW132264   3.361   2.923   2.429 -1.5380  1.4331 -0.7670
 6935SOL    HW232265   3.258   2.839   2.360  0.1399 -1.9197  0.6335
 6936SOL     OW32266   0.791   0.369   6.153  0.3754 -0.0653 -0.0067
 6936SOL    HW132267   0.755   0.307   6.217  1.5173 -0.3823  0.3307
 6936SOL    HW232268   0.789   0.332   6.065  0.1820  1.2515 -0.5486
 6937SOL     OW32269   0.784   2.404   4.748 -0.1786  0.0255  0.2792
 6937SOL    HW132270   0.693   2.409   4.777 -0.1625 -1.2358  0.5527
 6937SOL    HW232271   0.817   2.327   4.795  1.1028  0.7986  0.6229
 6938SOL     OW32272   1.322   0.334   5.800 -0.4051  0.0888 -0.2896
 6938SOL    HW132273   1.308   0.426   5.825 -0.1526 -0.1708  0.8131
 6938SOL    HW232274   1.353   0.349   5.711  1.7326  0.5678  0.5232
 6939SOL     OW32275   2.062   1.533   1.848 -0.1945  0.2678  0.6828
 6939SOL    HW132276   2.136   1.541   1.788 -0.1636  0.8941  0.8059
 6939SOL    HW232277   2.103   1.484   1.919  1.8393 -1.2632 -1.5184
 6940SOL     OW32278   4.457   0.995   1.276  0.2252  0.2845 -0.1503
 6940SOL    HW132279   4.458   0.927   1.343  2.4027  0.6431  0.1815
 6940SOL    HW232280   4.460   0.935   1.202 -1.0071  0.7849 -0.6047
 6941SOL     OW32281   3.770   0.691   5.908  0.1537  0.2726  0.1362
 6941SOL    HW132282   3.807   0.692   5.997  0.0986  1.9272  0.1478
 6941SOL    HW232283   3.804   0.777   5.883  0.6103 -0.3459 -1.3360
 6942SOL     OW32284   0.569   2.868   4.559  0.0180 -0.0676  0.6052
 6942SOL    HW132285   0.558   2.934   4.491 -0.8291  1.2667  2.0270
 6942SOL    HW232286   0.652   2.829   4.533 -0.9440 -1.1003 -0.9083
 6943SOL     OW32287   3.395   4.108   8.296  0.5034  0.5482 -0.0102
 6943SOL    HW132288   3.430   4.157   8.370 -1.2897  1.0821  0.4977
 6943SOL    HW232289   3.404   4.184   8.239 -0.8237  0.5278 -0.2530
 6944SOL     OW32290   0.522   1.604  13.437 -0.1596  0.2077  0.3127
 6944SOL    HW132291   0.516   1.580  13.345  2.9076  3.0980 -0.6205
 6944SOL    HW232292   0.612   1.578  13.456 -0.1244 -0.9200 -1.3986
 6945SOL     OW32293   3.748   0.384   8.467  0.1517  0.1819 -0.1067
 6945SOL    HW132294   3.770   0.294   8.491 -0.7567 -0.0025  0.0043
 6945SOL    HW232295   3.837   0.411   8.443 -0.6439  3.0231  0.0708
 6946SOL     OW32296   4.686   4.271   2.183 -0.0761 -0.0961 -0.1524
 6946SOL    HW132297   0.057   4.272   2.162 -0.2959 -0.1189 -1.1221
 6946SOL    HW232298   4.681   4.193   2.239  2.1434  0.0548  0.2439
 6947SOL     OW32299   1.448   1.986   6.287  0.0951 -0.6998  0.2642
 6947SOL    HW132300   1.409   2.049   6.349  0.3500 -0.7929  0.5195
 6947SOL    HW232301   1.397   1.906   6.303 -0.4935 -0.1519  1.1436
 6948SOL     OW32302   4.555   2.517   5.246  0.4610  0.3335 -0.0037
 6948SOL    HW132303   4.472   2.511   5.199 -0.8978 -0.5754  2.5147
 6948SOL    HW232304   4.581   2.604   5.216  0.5190 -0.6158 -2.7279
 6949SOL     OW32305   0.772   4.366  14.682 -0.5962 -0.2466 -0.2969
 6949SOL    HW132306   0.817   4.288  14.648  2.2595  0.8695  0.9278
 6949SOL    HW232307   0.776   4.415  14.600  3.1150 -0.3019 -0.1483
 6950SOL     OW32308   2.455   3.476   1.373 -0.2858  0.3102  0.6041
 6950SOL    HW132309   2.545   3.508   1.374  0.4649 -1.7946  0.7907
 6950SOL    HW232310   2.460   3.424   1.453 -0.8679 -0.4651  0.1319
 6951SOL     OW32311   3.331   2.622  13.958 -0.3705  0.1553 -0.6257
 6951SOL    HW132312   3.399   2.583  14.013  0.6812  0.0032 -2.0339
 6951SOL    HW232313   3.338   2.710  13.994 -1.0574 -0.5797  1.3084
 6952SOL     OW32314   4.460   3.208   7.397  0.4710 -0.1238 -0.1722
 6952SOL    HW132315   4.526   3.183   7.333  0.7798  1.3982 -0.4355
 6952SOL    HW232316   4.488   3.293   7.431  0.9781 -1.2571  2.2105
 6953SOL     OW32317   4.007   2.414   6.346  0.0585 -0.5069  0.1459
 6953SOL    HW132318   3.986   2.497   6.388  0.0099 -0.4744  0.0552
 6953SOL    HW232319   4.031   2.455   6.263 -1.6453 -0.8591 -0.5149
 6954SOL     OW32320   1.436   2.056   6.981  0.5248  0.3250 -0.6258
 6954SOL    HW132321   1.489   2.123   7.024  0.7886 -0.6338  0.5741
 6954SOL    HW232322   1.429   1.988   7.048  0.0037 -1.3903 -2.4185
 6955SOL     OW32323   2.184   2.819  13.758 -0.0910 -0.2355  0.3401
 6955SOL    HW132324   2.271   2.813  13.719 -0.4541  1.0025 -0.6518
 6955SOL    HW232325   2.189   2.843  13.850  0.8882  0.4143  0.1175
 6956SOL     OW32326   2.401   2.824   0.047 -0.2324 -0.5145  0.3258
 6956SOL    HW132327   2.393   2.918   0.063 -3.1792 -1.0418  1.9078
 6956SOL    HW232328   2.437   2.825  17.650  1.1886 -1.3985  0.8808
 6957SOL     OW32329   4.075   1.140   6.595  0.0529 -0.2269  0.0696
 6957SOL    HW132330   4.015   1.096   6.655 -0.1449 -1.9086 -1.3590
 6957SOL    HW232331   4.054   1.227   6.631  2.4685 -0.8043  2.8759
 6958SOL     OW32332   1.330   3.020   5.559 -0.7473 -0.2008  0.5531
 6958SOL    HW132333   1.381   2.954   5.605 -0.0458  0.8218  1.2316
 6958SOL    HW232334   1.389   3.091   5.535  1.9287 -2.7979 -0.4992
 6959SOL     OW32335   0.644   1.433   7.354 -0.2383 -0.2123  0.4521
 6959SOL    HW132336   0.627   1.522   7.386 -0.7870 -0.3927  0.6634
 6959SOL    HW232337   0.709   1.394   7.412  0.5012 -1.0499 -0.9589
 6960SOL     OW32338   1.741   3.840   4.961  0.3524  0.3829  0.4669
 6960SOL    HW132339   1.799   3.906   4.923 -2.4232  1.2028 -2.3537
 6960SOL    HW232340   1.793   3.795   5.028 -0.5385 -0.4930  0.5649
 6961SOL     OW32341   1.564   2.700   7.092  0.1673  0.4103  0.1110
 6961SOL    HW132342   1.622   2.673   7.021  1.0916  1.9894  0.2679
 6961SOL    HW232343   1.557   2.617   7.138  1.5271  0.8189  1.0694
 6962SOL     OW32344   2.039   4.597  11.706 -0.3187 -0.1136  0.6193
 6962SOL    HW132345   2.074   4.686  11.696 -1.1149  0.0719 -0.5636
 6962SOL    HW232346   2.046   4.602  11.801 -1.3880  1.6573  0.6095
 6963SOL     OW32347   2.544   2.460   6.229 -0.1482 -1.0271 -0.7008
 6963SOL    HW132348   2.480   2.397   6.196 -2.2406  0.7003  0.0623
 6963SOL    HW232349   2.528   2.532   6.168 -1.6192 -0.9313 -0.2051
 6964SOL     OW32350   3.812   3.240   1.672  0.0691  0.2269 -0.3458
 6964SOL    HW132351   3.872   3.314   1.683  2.8194 -1.9924 -0.6779
 6964SOL    HW232352   3.733   3.293   1.661  1.2581  1.7767 -1.4732
 6965SOL     OW32353   3.984   2.702  13.512  0.0579 -0.0483  0.2857
 6965SOL    HW132354   3.888   2.702  13.501 -0.0515 -0.7315  1.1797
 6965SOL    HW232355   4.005   2.776  13.455  0.5138  0.0536  0.5907
 6966SOL     OW32356   0.885   1.269   5.848  0.3585 -1.0742  0.0372
 6966SOL    HW132357   0.904   1.210   5.921  1.0741 -0.1030  0.6380
 6966SOL    HW232358   0.795   1.242   5.830 -0.5389  0.9101  1.5036
 6967SOL     OW32359   0.803   1.725   4.131  0.5457 -0.4786  0.1308
 6967SOL    HW132360   0.886   1.769   4.113  0.1755  0.0167 -0.3521
 6967SOL    HW232361   0.798   1.729   4.227  3.3076  0.7395  0.2382
 6968SOL     OW32362   2.612   1.085   7.155  0.1176  0.2222 -0.4683
 6968SOL    HW132363   2.668   1.101   7.231  0.8430 -0.2258 -0.9099
 6968SOL    HW232364   2.525   1.083   7.195  1.2844  0.3575  2.0613
 6969SOL     OW32365   3.024   0.367   7.745  0.4656  0.3092 -0.5015
 6969SOL    HW132366   3.100   0.344   7.798 -0.0321  0.4900  0.2962
 6969SOL    HW232367   3.065   0.448   7.714  0.1442  0.1104 -1.4437
 6970SOL     OW32368   2.059   0.125   7.074 -0.4458 -0.4196  0.1808
 6970SOL    HW132369   2.072   0.188   7.003  0.4599  0.1036  0.8210
 6970SOL    HW232370   1.972   0.155   7.100 -0.2414  0.9135 -0.6647
 6971SOL     OW32371   0.880   4.268   8.001  0.3666  0.4937 -0.2056
 6971SOL    HW132372   0.912   4.268   7.911  2.7490  0.3946  0.6587
 6971SOL    HW232373   0.837   4.182   8.003  1.4830 -0.0550  0.4310
 6972SOL     OW32374   3.722   3.015   4.530  0.2033 -0.1779 -0.0103
 6972SOL    HW132375   3.738   2.937   4.584 -3.2224 -0.6915  0.2435
 6972SOL    HW232376   3.816   3.030   4.517  0.4256 -0.8640  0.7590
 6973SOL     OW32377   0.164   2.621   0.957  0.3249  0.0414 -0.9153
 6973SOL    HW132378   0.070   2.608   0.967  0.7663 -1.8891  0.5987
 6973SOL    HW232379   0.202   2.547   1.004 -0.5876 -0.6408 -1.2587
 6974SOL     OW32380   1.871   3.640  14.937 -0.4596 -0.3437 -0.7063
 6974SOL    HW132381   1.963   3.623  14.916 -0.3471  0.0977 -0.5890
 6974SOL    HW232382   1.834   3.629  14.850 -0.7160  2.2939 -0.9518
 6975SOL     OW32383   2.770   2.225  15.354  0.4382  0.2100 -0.1957
 6975SOL    HW132384   2.770   2.176  15.437 -3.1882 -1.3990 -1.1273
 6975SOL    HW232385   2.739   2.310  15.385  1.4196  0.7746 -0.7691
 6976SOL     OW32386   3.924   0.004  17.593  0.2867 -0.2805 -0.3661
 6976SOL    HW132387   3.995   0.041  17.646 -0.3155  0.4244 -0.0553
 6976SOL    HW232388   3.904   4.656  17.654  2.1256  0.8231  1.5425
 6977SOL     OW32389   4.617   3.559   8.925  0.0742 -0.1213 -0.0311
 6977SOL    HW132390   4.582   3.589   9.009 -1.6271  1.5301 -1.3208
 6977SOL    HW232391   4.710   3.580   8.932  0.2709 -0.9737 -0.1444
 6978SOL     OW32392   4.379   2.070  11.309 -0.0894  0.0077 -0.0466
 6978SOL    HW132393   4.357   2.054  11.217  1.0582  0.3242 -0.3759
 6978SOL    HW232394   4.446   2.137  11.300  0.2411 -0.0323  2.0306
 6979SOL     OW32395   3.038   1.911  15.019 -0.0469 -0.3300  0.5793
 6979SOL    HW132396   2.983   1.967  15.075  0.7326 -0.0968  1.1125
 6979SOL    HW232397   3.106   1.973  14.996 -1.1742  0.9517  0.7159
 6980SOL     OW32398   2.574   1.827  13.426  0.2606 -0.6536 -0.1816
 6980SOL    HW132399   2.544   1.771  13.354  0.8061  1.5940 -2.1742
 6980SOL    HW232400   2.495   1.820  13.480  0.3688 -0.2822  0.0207
 6981SOL     OW32401   0.464   1.890   0.997  0.0009 -0.3264  0.5572
 6981SOL    HW132402   0.408   1.847   1.061 -2.6776  0.0533 -1.5115
 6981SOL    HW232403   0.423   1.976   0.997  0.4504 -0.1122  0.0072
 6982SOL     OW32404   2.003   2.301   8.589  0.2139 -0.1730  0.3463
 6982SOL    HW132405   2.008   2.371   8.655 -0.7793  0.5653 -0.3512
 6982SOL    HW232406   2.083   2.253   8.611 -0.6382 -2.8444 -2.4290
 6983SOL     OW32407   1.200   1.103   4.845  0.4257 -0.4742  0.2679
 6983SOL    HW132408   1.243   1.183   4.876  0.3011 -0.0509 -0.6501
 6983SOL    HW232409   1.125   1.092   4.904  0.0561 -1.4169 -0.3797
 6984SOL     OW32410   2.040   0.213   2.582  0.8831  0.4592  0.2017
 6984SOL    HW132411   2.114   0.256   2.540  0.5873  0.4169 -0.3739
 6984SOL    HW232412   2.000   0.176   2.503  1.5589 -1.5333  0.8126
 6985SOL     OW32413   3.034   2.824   8.772 -0.2811  0.4696  0.4952
 6985SOL    HW132414   3.057   2.837   8.864 -3.4457 -0.4750  1.4358
 6985SOL    HW232415   2.953   2.875   8.761 -1.7992 -1.8023  1.1522
 6986SOL     OW32416   2.312   3.628   3.652  0.5967 -0.2927  0.1362
 6986SOL    HW132417   2.361   3.693   3.703 -0.4003  2.5952 -2.5725
 6986SOL    HW232418   2.239   3.605   3.708 -0.2205  1.9489  0.0068
 6987SOL     OW32419   3.015   2.637   4.646  0.7528  0.5202  0.2522
 6987SOL    HW132420   3.099   2.684   4.652  0.1101  1.5512  1.1715
 6987SOL    HW232421   2.995   2.656   4.555 -0.9012  1.1947  0.7675
 6988SOL     OW32422   1.057   2.629   5.173 -0.6098 -0.6398  0.0386
 6988SOL    HW132423   1.108   2.702   5.140 -0.1065 -0.7890  0.4783
 6988SOL    HW232424   1.042   2.589   5.087  0.3004 -1.9352  0.4663
 6989SOL     OW32425   2.021   1.959   7.928 -0.2510 -0.2368  0.6031
 6989SOL    HW132426   2.083   1.896   7.891  0.7134  0.3989  1.1088
 6989SOL    HW232427   2.078   2.014   7.983  0.8753  0.3303 -1.1302
 6990SOL     OW32428   1.533   0.392  13.156 -0.3136 -0.0136 -0.4764
 6990SOL    HW132429   1.566   0.472  13.114  0.0254 -0.0271 -0.2402
 6990SOL    HW232430   1.581   0.394  13.239 -0.3402 -0.8822 -0.4377
 6991SOL     OW32431   0.997   2.987  16.267 -0.0846 -0.2676  0.2939
 6991SOL    HW132432   0.905   2.982  16.292  0.0125  0.3352  0.7914
 6991SOL    HW232433   1.012   3.082  16.265  2.8271 -0.7049  0.2675
 6992SOL     OW32434   4.398   3.720   6.483 -0.0658 -0.4887 -0.3398
 6992SOL    HW132435   4.409   3.640   6.535 -1.4601 -2.4145 -2.9811
 6992SOL    HW232436   4.384   3.781   6.554 -0.7727 -1.3890  0.2927
 6993SOL     OW32437   4.107   0.966  15.959 -0.3595 -0.2984 -0.1986
 6993SOL    HW132438   4.032   0.958  16.018 -1.0616  0.6204 -0.9700
 6993SOL    HW232439   4.066   0.955  15.874 -0.5016 -1.6718  0.0483
 6994SOL     OW32440   3.930   0.984  11.691  0.5000  0.1041  0.0434
 6994SOL    HW132441   3.973   1.068  11.671  2.3837 -0.3447  2.1111
 6994SOL    HW232442   3.938   0.991  11.786 -0.4841 -1.8463  0.2604
 6995SOL     OW32443   2.103   3.173   5.679  0.0168  0.1192  0.5516
 6995SOL    HW132444   2.021   3.126   5.698  0.2120 -0.6241 -0.4681
 6995SOL    HW232445   2.075   3.218   5.599 -0.2375 -0.6298  0.2163
 6996SOL     OW32446   2.229   2.540   1.676 -0.1612 -0.3537  0.1007
 6996SOL    HW132447   2.154   2.490   1.708  0.4013 -1.6768 -0.6791
 6996SOL    HW232448   2.190   2.628   1.678  1.7140  0.4607  1.5456
 6997SOL     OW32449   0.580   2.486   4.261  0.2913  0.0295  0.4664
 6997SOL    HW132450   0.621   2.443   4.186 -0.6009  1.2464 -0.7067
 6997SOL    HW232451   0.648   2.462   4.324  0.4420  1.2810  0.7900
 6998SOL     OW32452   4.562   1.139  10.775 -0.1643 -0.3456 -0.4521
 6998SOL    HW132453   4.523   1.081  10.710  1.3102 -1.1335 -0.6288
 6998SOL    HW232454   4.589   1.210  10.718 -0.5161 -0.1972 -0.4329
 6999SOL     OW32455   2.064   3.859   2.948  0.1984 -0.3118 -0.1022
 6999SOL    HW132456   1.984   3.821   2.914 -0.3076 -0.4211  1.1958
 6999SOL    HW232457   2.065   3.847   3.043 -0.0756 -1.0933 -0.2049
 7000SOL     OW32458   4.391   2.578   9.132 -0.0020 -0.6124  0.3085
 7000SOL    HW132459   4.296   2.582   9.140 -0.1036  1.4453 -1.8688
 7000SOL    HW232460   4.410   2.589   9.225  1.6544 -3.3967  0.3071
 7001SOL     OW32461   2.722   3.162   9.268 -0.2105 -0.5541 -0.0372
 7001SOL    HW132462   2.647   3.142   9.324  0.2562 -2.7206 -0.1725
 7001SOL    HW232463   2.717   3.086   9.209  1.3632 -1.6555  1.2425
 7002SOL     OW32464   1.443   2.996   3.772 -0.1094  0.4742 -0.0331
 7002SOL    HW132465   1.520   3.047   3.797 -0.0164 -0.7263  2.0932
 7002SOL    HW232466   1.441   2.996   3.676 -0.4580  1.4560 -0.0336
 7003SOL     OW32467   0.741   3.496   5.036 -0.0643  0.2950 -0.6144
 7003SOL    HW132468   0.826   3.470   5.001  0.5795  1.7096 -0.1005
 7003SOL    HW232469   0.677   3.433   5.005  0.0708 -1.4949  2.8469
 7004SOL     OW32470   2.654   2.557   9.249  0.6268  0.2785 -0.1753
 7004SOL    HW132471   2.643   2.637   9.300  0.5108  1.2063 -1.6423
 7004SOL    HW232472   2.636   2.589   9.161  0.0076 -0.5024 -0.3345
 7005SOL     OW32473   2.862   3.788   4.034  0.5257  0.4955 -0.0330
 7005SOL    HW132474   2.784   3.741   4.004  2.1931 -1.0723 -1.8807
 7005SOL    HW232475   2.855   3.787   4.130  2.0112 -0.8910  0.0513
 7006SOL     OW32476   0.802   2.955  11.572  0.7214  0.1837 -0.2349
 7006SOL    HW132477   0.888   2.994  11.590  0.5578  0.5709 -0.2949
 7006SOL    HW232478   0.753   2.964  11.654 -0.0984 -0.3746 -0.6624
 7007SOL     OW32479   4.193   1.803   9.819  0.3457 -0.2131 -0.1572
 7007SOL    HW132480   4.181   1.883   9.870 -2.1407  0.6366 -2.0885
 7007SOL    HW232481   4.107   1.810   9.779  0.9598 -0.8547 -1.5802
 7008SOL     OW32482   4.416   4.063   2.461 -0.7660 -0.5684 -0.0499
 7008SOL    HW132483   4.442   4.149   2.496  0.2270 -1.1577  0.6595
 7008SOL    HW232484   4.391   4.024   2.545 -0.6720 -2.4190 -0.8988
 7009SOL     OW32485   2.698   2.664   4.564 -0.0922  0.5306 -0.3433
 7009SOL    HW132486   2.726   2.660   4.473  0.7934  1.6258 -0.1243
 7009SOL    HW232487   2.760   2.602   4.605 -0.2228  0.1038 -0.7999
 7010SOL     OW32488   3.953   4.019   2.839 -0.2464 -0.2930 -0.3019
 7010SOL    HW132489   3.935   4.110   2.815 -0.2469 -0.2830 -0.2629
 7010SOL    HW232490   4.015   4.036   2.910 -1.3333 -2.4570  1.1689
 7011SOL     OW32491   2.631   0.874   7.791 -0.3203  0.1319 -0.4759
 7011SOL    HW132492   2.607   0.786   7.822  1.1916 -0.9355 -2.3553
 7011SOL    HW232493   2.666   0.911   7.873  1.2405  0.4573 -1.2894
 7012SOL     OW32494   2.415   1.641  17.346  0.3376 -0.6304  1.4124
 7012SOL    HW132495   2.510   1.656  17.348  0.7692 -3.4427  1.9198
 7012SOL    HW232496   2.384   1.731  17.357  1.1456 -0.4751  2.3919
 7013SOL     OW32497   3.742   4.219   8.031  0.5237 -0.0028  0.2401
 7013SOL    HW132498   3.811   4.279   8.002  1.8637 -1.7388 -0.2162
 7013SOL    HW232499   3.781   4.198   8.117  0.8914 -1.5129 -0.2813
 7014SOL     OW32500   1.681   1.312   9.093 -0.8945  0.4338  0.0659
 7014SOL    HW132501   1.594   1.293   9.059 -0.4858 -1.0632 -0.1303
 7014SOL    HW232502   1.676   1.281   9.183  0.4210 -0.1676 -0.0645
 7015SOL     OW32503   4.601   4.476   2.847 -0.3362  0.4927 -0.1929
 7015SOL    HW132504   4.666   4.448   2.783  0.5216  1.1248  0.3953
 7015SOL    HW232505   4.563   4.550   2.800  0.3197  0.6928 -0.4044
 7016SOL     OW32506   0.716   1.424   4.876 -0.1649 -0.4667  0.2350
 7016SOL    HW132507   0.777   1.398   4.945  0.2549 -0.2438 -0.0580
 7016SOL    HW232508   0.643   1.363   4.887 -1.3199  0.9898  0.6115
 7017SOL     OW32509   1.529   4.166   6.057 -0.3216  0.3232 -0.0436
 7017SOL    HW132510   1.608   4.160   6.003  1.9092 -0.7142  3.3580
 7017SOL    HW232511   1.459   4.167   5.992  1.6630 -2.6967 -2.2080
 7018SOL     OW32512   0.596   0.263   7.279 -0.2949 -0.3182 -0.0819
 7018SOL    HW132513   0.571   0.244   7.369 -0.2867 -1.8444 -0.4059
 7018SOL    HW232514   0.513   0.240   7.237 -0.9601  0.6370  0.7377
 7019SOL     OW32515   2.331   1.452   0.913  0.4197  0.7214 -0.5475
 7019SOL    HW132516   2.336   1.486   1.002 -2.7248  0.8163 -0.3995
 7019SOL    HW232517   2.347   1.524   0.853 -2.1133  2.5904  0.9976
 7020SOL     OW32518   2.221   0.189   2.169 -0.1536 -0.5566  0.3517
 7020SOL    HW132519   2.151   0.181   2.233 -0.2171  1.7380  0.5969
 7020SOL    HW232520   2.283   0.118   2.187  1.8414  1.1585  0.4121
 7021SOL     OW32521   0.697   4.185   2.492 -0.1810  0.6297 -0.3924
 7021SOL    HW132522   0.722   4.240   2.418 -0.2845  2.8584  1.1906
 7021SOL    HW232523   0.784   4.147   2.503  0.7837  3.2637  1.1117
 7022SOL     OW32524   3.334   1.296   9.089 -0.0691  0.4337  0.3346
 7022SOL    HW132525   3.298   1.277   9.175  1.7364  0.0437  0.9900
 7022SOL    HW232526   3.297   1.383   9.080 -4.6280 -1.6144 -0.7121
 7023SOL     OW32527   0.804   2.261   2.502 -0.4916 -0.0583 -0.3843
 7023SOL    HW132528   0.797   2.264   2.598  1.5265 -2.1854 -0.1825
 7023SOL    HW232529   0.716   2.287   2.475 -1.3130 -0.4479  1.8749
 7024SOL     OW32530   3.771   2.378   5.348 -0.4518 -0.1172 -0.2587
 7024SOL    HW132531   3.810   2.457   5.385 -1.6457 -0.1766  1.1379
 7024SOL    HW232532   3.694   2.420   5.311 -1.0419 -0.3607  0.6840
 7025SOL     OW32533   2.153   4.357   2.211  0.5601 -0.1272  0.2444
 7025SOL    HW132534   2.182   4.372   2.301  0.2213  0.0255  0.3267
 7025SOL    HW232535   2.149   4.446   2.178  2.4681 -0.7912 -1.7356
 7026SOL     OW32536   4.512   2.473   1.644 -0.2810  0.1358  0.0808
 7026SOL    HW132537   4.603   2.483   1.614 -1.0277  0.4870 -2.0478
 7026SOL    HW232538   4.499   2.559   1.685 -1.7546 -1.2116  2.3808
 7027SOL     OW32539   2.067   4.535   6.323 -0.3501  0.4540  0.2348
 7027SOL    HW132540   2.101   4.622   6.343  2.2847 -0.3911 -0.5403
 7027SOL    HW232541   2.112   4.523   6.239  0.7764 -0.9854  1.0359
 7028SOL     OW32542   3.812   2.549  11.953 -0.4170  0.4642  0.3267
 7028SOL    HW132543   3.808   2.458  11.921 -3.5837  0.5009  0.6762
 7028SOL    HW232544   3.787   2.542  12.045  0.0642 -2.1295  0.2779
 7029SOL     OW32545   0.862   4.179  17.175  0.4008  0.0780  0.4850
 7029SOL    HW132546   0.949   4.177  17.214  0.6404 -0.5538 -0.0694
 7029SOL    HW232547   0.879   4.225  17.093 -3.1897  1.2109  0.3679
 7030SOL     OW32548   3.334   4.169   4.143 -0.1500 -0.5682 -0.0214
 7030SOL    HW132549   3.403   4.218   4.097 -1.0456  0.0664 -0.6790
 7030SOL    HW232550   3.267   4.232   4.119 -0.1208  1.2683  4.5961
 7031SOL     OW32551   2.032   2.100   9.184  0.0644 -0.4270  0.0212
 7031SOL    HW132552   2.065   2.180   9.143  0.8817 -0.0257  1.4949
 7031SOL    HW232553   2.014   2.044   9.108 -0.6276 -0.1919  0.0102
 7032SOL     OW32554   1.366   3.926  14.974  0.3789  0.2299  0.4332
 7032SOL    HW132555   1.458   3.937  14.950 -0.3951  0.7188 -2.3561
 7032SOL    HW232556   1.356   3.845  15.023  0.5565 -0.1336 -0.1358
 7033SOL     OW32557   4.203   3.768   8.162  0.0523 -0.3101  0.1859
 7033SOL    HW132558   4.196   3.842   8.223  2.0229  0.2341 -0.2336
 7033SOL    HW232559   4.250   3.703   8.215  1.0068  0.2399  0.0284
 7034SOL     OW32560   1.896   1.657   4.709  0.0559  0.3453 -0.5556
 7034SOL    HW132561   1.937   1.701   4.635 -1.9936  1.5829 -0.9534
 7034SOL    HW232562   1.947   1.577   4.711 -1.5156 -0.6443  0.3314
 7035SOL     OW32563   4.519   1.947   8.778 -0.0532 -0.6082  0.0220
 7035SOL    HW132564   4.576   1.910   8.710  0.1688 -2.3968  1.1910
 7035SOL    HW232565   4.574   2.011   8.823  1.9221 -2.9598  0.9480
 7036SOL     OW32566   0.116   2.073  17.349 -0.3240  0.7530 -0.0796
 7036SOL    HW132567   0.097   1.993  17.299  0.1014  1.0345 -0.6935
 7036SOL    HW232568   0.063   2.060  17.427  0.2738 -0.1244  0.1775
 7037SOL     OW32569   0.585   1.864   2.786 -0.2439 -0.4205  0.0348
 7037SOL    HW132570   0.514   1.834   2.729  1.5443  0.0909 -2.4915
 7037SOL    HW232571   0.627   1.790   2.828  0.0120 -0.3864 -0.1572
 7038SOL     OW32572   1.659   4.503   6.783  0.4357 -0.3190 -0.5623
 7038SOL    HW132573   1.573   4.466   6.762  1.3724 -1.6514 -2.0989
 7038SOL    HW232574   1.691   4.438   6.845  2.2720  0.8830 -0.2371
 7039SOL     OW32575   3.595   2.375   4.987 -0.2261 -0.6416 -0.1201
 7039SOL    HW132576   3.513   2.361   4.939  0.8126  2.0958 -2.7094
 7039SOL    HW232577   3.578   2.311   5.057  2.1255  2.4760  3.2783
 7040SOL     OW32578   4.454   1.471  11.861 -0.2428 -0.0700  0.3916
 7040SOL    HW132579   4.448   1.567  11.868  0.7987  0.0861 -0.8023
 7040SOL    HW232580   4.369   1.452  11.822 -0.0800 -0.6876  0.3425
 7041SOL     OW32581   3.164   0.645   8.831  0.4982  0.4524 -0.1663
 7041SOL    HW132582   3.245   0.696   8.820  0.2044  1.2384  1.2713
 7041SOL    HW232583   3.146   0.623   8.740  1.1742 -2.0571  0.3007
 7042SOL     OW32584   1.137   2.406  12.989 -1.0614  0.1759  0.2432
 7042SOL    HW132585   1.208   2.389  13.050  0.2105 -1.1478 -1.6153
 7042SOL    HW232586   1.082   2.471  13.033 -1.0714  0.1612  0.2523
 7043SOL     OW32587   2.256   2.678   0.971 -0.3694  0.0165 -0.0712
 7043SOL    HW132588   2.229   2.604   0.917  0.0632  0.4624 -0.9091
 7043SOL    HW232589   2.238   2.742   0.903 -0.2012  1.3520  1.1400
 7044SOL     OW32590   1.395   0.405   8.942  0.2351  0.1009  0.5435
 7044SOL    HW132591   1.301   0.390   8.955  0.4433 -1.5558  0.1805
 7044SOL    HW232592   1.392   0.490   8.897  1.0057  1.9057  3.9077
 7045SOL     OW32593   0.727   3.497  10.344 -0.1630  0.0065 -0.2501
 7045SOL    HW132594   0.750   3.515  10.435  0.7545  1.6324 -0.7949
 7045SOL    HW232595   0.647   3.446  10.356 -0.4978  1.3762  3.4395
 7046SOL     OW32596   4.528   4.454   6.434 -0.4451  0.1214  0.7179
 7046SOL    HW132597   4.436   4.453   6.461 -0.3697 -0.0351  0.9755
 7046SOL    HW232598   4.546   4.533   6.383 -2.0735  1.7429  2.6641
 7047SOL     OW32599   3.415   3.316   1.075 -0.5755  0.1386  0.3212
 7047SOL    HW132600   3.485   3.304   1.139 -1.5786 -3.0206  0.8248
 7047SOL    HW232601   3.469   3.312   0.996 -1.3105  0.2708 -0.1909
 7048SOL     OW32602   2.976   2.695   8.343  0.4669 -0.2020  0.0420
 7048SOL    HW132603   2.929   2.778   8.333  3.1033  0.9167 -2.8310
 7048SOL    HW232604   3.044   2.713   8.279 -0.7801  1.4858 -0.8220
 7049SOL     OW32605   2.726   0.377  10.024 -0.2613 -0.1076  0.1009
 7049SOL    HW132606   2.640   0.415  10.042  0.4734  0.6033  2.0807
 7049SOL    HW232607   2.720   0.357   9.931 -0.2213 -0.9204  0.2676
 7050SOL     OW32608   3.668   2.632   3.494  0.2936 -0.2476 -0.3480
 7050SOL    HW132609   3.745   2.636   3.438  0.5086 -1.3629 -0.1393
 7050SOL    HW232610   3.597   2.638   3.431  0.9882 -3.0599 -1.4000
 7051SOL     OW32611   3.855   0.927  12.897 -0.0479 -0.6187  0.1301
 7051SOL    HW132612   3.793   0.887  12.837 -1.3150 -0.1342  1.1261
 7051SOL    HW232613   3.792   0.995  12.920 -0.0672 -0.4918 -0.3028
 7052SOL     OW32614   1.431   4.692   2.527 -0.1358 -0.0065 -0.2828
 7052SOL    HW132615   1.467   4.610   2.493  0.2203  0.8089 -1.8953
 7052SOL    HW232616   1.401   0.010   2.446 -0.4400  1.8833  0.7945
 7053SOL     OW32617   2.537   2.271   4.778 -0.0892 -0.4321 -0.2984
 7053SOL    HW132618   2.602   2.298   4.843  1.4113  0.3682 -2.1536
 7053SOL    HW232619   2.586   2.278   4.696  1.2207 -1.4032  0.3944
 7054SOL     OW32620   4.051   3.031   6.571  0.4657  0.3431  0.2657
 7054SOL    HW132621   4.144   3.047   6.556  0.4132  1.1945  0.8425
 7054SOL    HW232622   4.032   3.033   6.477 -1.3040  1.4800  0.6425
 7055SOL     OW32623   3.221   4.522   0.389  0.0621 -0.7335  0.2158
 7055SOL    HW132624   3.292   4.555   0.444 -0.9921 -0.0660  1.1664
 7055SOL    HW232625   3.191   4.445   0.437  0.5244  1.0067  3.2793
 7056SOL     OW32626   4.596   2.148  11.690  0.3274  0.4791 -0.2421
 7056SOL    HW132627   4.519   2.184  11.647  0.9081  1.1466 -0.7040
 7056SOL    HW232628   4.643   2.131  11.609  0.8424  0.4182  0.0689
 7057SOL     OW32629   3.737   1.807   4.940 -0.0001 -0.6271  0.1654
 7057SOL    HW132630   3.810   1.750   4.914  0.9219  2.1811 -3.4745
 7057SOL    HW232631   3.781   1.879   4.986  0.0071  1.3821 -2.9328
 7058SOL     OW32632   2.325   1.546  15.068 -0.3573 -0.3393 -0.3156
 7058SOL    HW132633   2.289   1.460  15.044 -0.6046 -1.0200  2.3940
 7058SOL    HW232634   2.259   1.609  15.041  0.5831  0.0221 -1.7560
 7059SOL     OW32635   1.782   1.921   4.480  0.2983 -0.0307 -0.0727
 7059SOL    HW132636   1.848   1.852   4.489 -0.2367 -0.6890 -1.0946
 7059SOL    HW232637   1.756   1.901   4.390 -0.0057 -1.2641  0.2891
 7060SOL     OW32638   0.634   1.004   6.738  0.2456 -0.7867 -0.2415
 7060SOL    HW132639   0.716   0.955   6.737  0.7043 -0.0046 -0.5944
 7060SOL    HW232640   0.645   1.055   6.819  0.3511  1.0531 -1.4333
 7061SOL     OW32641   1.868   0.516   3.156  0.6611 -0.1659 -0.0350
 7061SOL    HW132642   1.848   0.560   3.073 -0.7521 -0.5100  0.1153
 7061SOL    HW232643   1.948   0.559   3.185  0.6536 -1.0156  1.2090
 7062SOL     OW32644   1.672   2.528   4.734 -0.1156  0.5856  0.1922
 7062SOL    HW132645   1.635   2.574   4.659 -0.9307  1.3783  1.0846
 7062SOL    HW232646   1.601   2.514   4.796 -0.3950  0.0251 -0.2566
 7063SOL     OW32647   3.929   3.929  15.249  0.2245 -0.6188  0.0213
 7063SOL    HW132648   3.899   4.020  15.252 -0.2468 -0.8741  2.4286
 7063SOL    HW232649   4.015   3.932  15.207  0.3497 -0.9942  0.2541
 7064SOL     OW32650   2.424   0.650   2.475 -0.8978 -0.4422  0.4139
 7064SOL    HW132651   2.451   0.648   2.383  0.9430 -2.1836  0.9920
 7064SOL    HW232652   2.498   0.613   2.524 -0.1034  0.6541  0.0380
 7065SOL     OW32653   2.957   2.991  10.160  0.4935 -0.1659 -0.6423
 7065SOL    HW132654   3.009   2.966  10.083  1.2460 -0.8805  0.1085
 7065SOL    HW232655   3.008   2.981  10.240  0.6547  2.2076 -0.4315
 7066SOL     OW32656   0.950   3.420  12.321 -0.8990 -0.1839  0.1615
 7066SOL    HW132657   1.018   3.471  12.277 -3.2229  1.0607 -1.9944
 7066SOL    HW232658   1.008   3.352  12.353 -3.4110 -2.0816  0.6810
 7067SOL     OW32659   4.278   4.327   4.495  0.3181  0.5113 -0.2127
 7067SOL    HW132660   4.286   4.408   4.546 -1.1659 -0.2846  1.2477
 7067SOL    HW232661   4.356   4.328   4.439 -0.2213 -0.1680 -0.9697
 7068SOL     OW32662   3.642   0.926   9.287  0.0352  0.2578  0.0872
 7068SOL    HW132663   3.669   0.894   9.373  0.6552  0.8972  0.1359
 7068SOL    HW232664   3.574   0.988   9.314  1.4256  1.0361  1.7955
 7069SOL     OW32665   1.805   0.258   6.121 -0.2718 -0.1021  0.0626
 7069SOL    HW132666   1.711   0.238   6.115 -0.2254  0.2679 -1.8750
 7069SOL    HW232667   1.841   0.185   6.070  2.5593  0.4491  1.2582
 7070SOL     OW32668   2.657   0.253   0.380  0.3369  0.2215 -0.3227
 7070SOL    HW132669   2.575   0.280   0.421  2.0805  0.2017  3.1887
 7070SOL    HW232670   2.716   0.246   0.455 -0.1774  0.0943  0.0629
 7071SOL     OW32671   0.735   0.192  11.247  0.1265 -0.0331 -0.0060
 7071SOL    HW132672   0.789   0.271  11.246 -0.5319  0.4173 -0.4894
 7071SOL    HW232673   0.727   0.191  11.343  0.2842  1.3562  0.0161
 7072SOL     OW32674   3.942   4.400   8.013  0.7690  0.4493  0.1894
 7072SOL    HW132675   4.021   4.379   7.963  1.1195 -1.3430  1.4866
 7072SOL    HW232676   3.957   4.482   8.061 -0.9465  1.9287 -1.8216
 7073SOL     OW32677   3.368   1.979  16.526  0.2863 -0.3973  0.0601
 7073SOL    HW132678   3.317   1.964  16.447 -0.0658  0.3719  0.1391
 7073SOL    HW232679   3.343   2.070  16.542  1.0021 -0.0205 -0.9653
 7074SOL     OW32680   4.417   2.657   8.868  0.0501 -0.4152 -0.0377
 7074SOL    HW132681   4.348   2.722   8.887  1.4344  0.8743  0.5739
 7074SOL    HW232682   4.431   2.621   8.955  0.6362  0.3899  0.2083
 7075SOL     OW32683   3.771   0.038   6.857 -0.4890 -0.7046  0.0747
 7075SOL    HW132684   3.682   0.038   6.821 -0.4115 -1.4914 -0.1230
 7075SOL    HW232685   3.821   0.000   6.785 -1.3390  1.1849 -1.4933
 7076SOL     OW32686   2.761   1.544   2.780 -0.2334 -0.3888  0.2931
 7076SOL    HW132687   2.739   1.571   2.869 -0.8616  0.4812 -0.1355
 7076SOL    HW232688   2.849   1.581   2.771  0.7070 -3.0496 -1.3437
 7077SOL     OW32689   0.708   4.625   8.329 -0.3695  0.1698 -0.0202
 7077SOL    HW132690   0.792   4.594   8.363  0.6720  3.1507  0.1124
 7077SOL    HW232691   0.691   4.566   8.256 -2.8917  0.8823 -0.0120
 7078SOL     OW32692   1.517   1.476   8.107 -0.1910 -0.2254  0.3601
 7078SOL    HW132693   1.546   1.472   8.198  1.1467  1.6033  0.0096
 7078SOL    HW232694   1.480   1.564   8.111  1.0989  0.2883  0.8543
 7079SOL     OW32695   0.768   0.842   4.758  0.0942 -0.2445  0.0711
 7079SOL    HW132696   0.752   0.779   4.688 -1.9363  1.3068 -0.8597
 7079SOL    HW232697   0.861   0.821   4.765  0.2350  1.1815  2.3684
 7080SOL     OW32698   3.483   2.001   6.638 -0.4379  0.3781 -0.1866
 7080SOL    HW132699   3.471   1.930   6.575 -0.2995 -1.5268  1.9611
 7080SOL    HW232700   3.414   1.979   6.701  0.5380  0.5017  0.9202
 7081SOL     OW32701   2.516   1.069  10.950 -0.1957  0.1481  0.5845
 7081SOL    HW132702   2.472   1.140  10.903 -0.9739  0.1815  1.3826
 7081SOL    HW232703   2.581   1.033  10.889 -1.6391 -1.5430  0.0608
 7082SOL     OW32704   2.378   1.115   7.972 -0.1074  0.4443  0.3445
 7082SOL    HW132705   2.368   1.037   7.917 -0.9123  2.0204 -1.7700
 7082SOL    HW232706   2.417   1.074   8.049  0.5761 -0.3045 -0.4048
 7083SOL     OW32707   2.250   3.671   6.773 -0.1048  0.2512 -0.7014
 7083SOL    HW132708   2.253   3.681   6.868 -0.0750  0.4184 -0.7202
 7083SOL    HW232709   2.175   3.730   6.766  0.4926  1.3530  2.3265
 7084SOL     OW32710   0.820   3.615  15.220  0.2726  0.2214 -0.1313
 7084SOL    HW132711   0.886   3.564  15.268 -1.0884 -1.6227 -0.2272
 7084SOL    HW232712   0.832   3.584  15.130 -3.0103  0.3551 -0.6195
 7085SOL     OW32713   4.383   2.585   6.186 -0.5835  0.2031 -0.2902
 7085SOL    HW132714   4.342   2.668   6.160  0.4091  0.9011  0.3530
 7085SOL    HW232715   4.340   2.586   6.272  0.4072  0.9173  0.1985
 7086SOL     OW32716   0.828   3.077   1.870  0.1636  0.3850  0.2937
 7086SOL    HW132717   0.751   3.020   1.867 -0.8929  1.8841 -1.1518
 7086SOL    HW232718   0.862   3.068   1.781 -2.1065 -1.2775 -0.4200
 7087SOL     OW32719   0.052   1.920   2.074 -0.3540  0.1097 -0.1128
 7087SOL    HW132720   0.108   1.957   2.007  1.0646  1.7027  1.9500
 7087SOL    HW232721   4.688   1.957   2.054 -0.3921  0.8263  1.3517
 7088SOL     OW32722   0.757   0.285   2.753  0.2718  0.2542  0.3293
 7088SOL    HW132723   0.838   0.302   2.704 -1.3294 -0.3004 -2.4742
 7088SOL    HW232724   0.714   0.369   2.767 -2.9292 -1.4000  0.2361
 7089SOL     OW32725   0.163   3.133   5.575  1.1631  0.3425  0.2863
 7089SOL    HW132726   0.125   3.212   5.536  1.5070  0.9172  1.1123
 7089SOL    HW232727   0.254   3.159   5.584  0.6401  2.1197  0.3609
 7090SOL     OW32728   0.241   3.892   8.689 -0.4124 -0.1022  0.5548
 7090SOL    HW132729   0.149   3.891   8.662  0.1489  1.0619 -1.3925
 7090SOL    HW232730   0.241   3.906   8.784 -2.2674  1.3652  0.3274
 7091SOL     OW32731   1.981   2.193   7.788 -0.2248 -0.0998  0.6991
 7091SOL    HW132732   1.916   2.244   7.836 -0.8306  0.1001 -0.3245
 7091SOL    HW232733   1.986   2.110   7.835  1.6082  0.5458  1.6379
 7092SOL     OW32734   3.658   3.357  14.505  0.2287 -0.0631 -0.1718
 7092SOL    HW132735   3.670   3.375  14.412 -0.7269 -1.1653 -0.5077
 7092SOL    HW232736   3.667   3.444  14.544  0.5235 -0.1440 -0.0583
 7093SOL     OW32737   0.237   3.727   2.686 -0.0468  0.5594 -0.1206
 7093SOL    HW132738   0.327   3.739   2.715  0.2482 -0.8854 -0.4086
 7093SOL    HW232739   0.199   3.727   2.773  1.0795 -2.7463  0.3921
 7094SOL     OW32740   3.595   0.188   0.512 -0.1006 -0.0949  0.3574
 7094SOL    HW132741   3.594   0.277   0.547  1.4738  0.0085  0.1317
 7094SOL    HW232742   3.626   0.205   0.423  0.8020  1.8059  1.0461
 7095SOL     OW32743   0.503   3.233   0.765  0.2705  0.6836 -0.2109
 7095SOL    HW132744   0.517   3.316   0.719  0.4683  0.7800  0.0239
 7095SOL    HW232745   0.408   3.231   0.781  0.0574 -0.5094 -1.6284
 7096SOL     OW32746   3.342   0.820  13.691 -0.2176  0.1642  0.0022
 7096SOL    HW132747   3.266   0.872  13.717 -1.3866 -1.0718 -0.9291
 7096SOL    HW232748   3.416   0.875  13.717 -1.7404  2.8563 -1.3660
 7097SOL     OW32749   4.541   0.802   7.310  0.1638  0.0736  0.4473
 7097SOL    HW132750   4.545   0.894   7.284 -0.6373  0.1745  0.6643
 7097SOL    HW232751   4.543   0.766   7.222  3.0552  1.5516 -0.0882
 7098SOL     OW32752   3.949   2.856   2.497 -0.5633  0.3092  0.1986
 7098SOL    HW132753   3.962   2.951   2.493  0.9721 -0.0166 -2.8066
 7098SOL    HW232754   3.854   2.847   2.488 -0.4144 -0.3208 -0.7816
 7099SOL     OW32755   1.450   4.709  11.592 -0.0302  0.2851 -0.7635
 7099SOL    HW132756   1.476   4.658  11.669  1.3443  0.9784 -0.7653
 7099SOL    HW232757   1.384   4.655  11.550 -0.3002  0.8163 -1.0234
 7100SOL     OW32758   2.905   0.620   3.296  0.3550  0.2893 -0.2788
 7100SOL    HW132759   2.926   0.657   3.211 -1.1117  0.7903 -0.4268
 7100SOL    HW232760   2.988   0.623   3.344 -0.3840 -0.1565  1.0407
 7101SOL     OW32761   0.516   0.469   8.935 -0.0712  0.2310 -0.2606
 7101SOL    HW132762   0.511   0.424   9.019  3.0105 -0.4015 -0.4197
 7101SOL    HW232763   0.473   0.552   8.956 -1.7550 -0.4512 -1.0320
 7102SOL     OW32764   1.176   4.246   6.291  0.2768 -0.0737 -0.1720
 7102SOL    HW132765   1.139   4.164   6.322 -0.7738 -1.3163 -4.7338
 7102SOL    HW232766   1.116   4.256   6.217  1.0454  2.3844 -0.4741
 7103SOL     OW32767   3.672   3.689   7.428 -0.1632  0.6471 -0.2260
 7103SOL    HW132768   3.623   3.740   7.493 -0.6576 -0.3798  0.2097
 7103SOL    HW232769   3.763   3.701   7.454 -0.1894  2.9534 -1.2349
 7104SOL     OW32770   1.079   1.175  14.864  0.1355 -0.4214  0.4136
 7104SOL    HW132771   1.049   1.239  14.800  2.3439 -0.0735 -0.2697
 7104SOL    HW232772   1.047   1.223  14.941 -1.1881  1.2440 -1.1860
 7105SOL     OW32773   2.177   2.883   0.795 -0.4789 -0.2722 -0.7634
 7105SOL    HW132774   2.197   2.968   0.836  0.1142 -0.6594 -0.2443
 7105SOL    HW232775   2.213   2.888   0.706  3.1921  1.3100  0.7677
 7106SOL     OW32776   0.366   0.133   3.503  0.7122  0.5719 -0.1516
 7106SOL    HW132777   0.302   0.198   3.475  0.1193 -0.1907 -0.5496
 7106SOL    HW232778   0.399   0.099   3.419  1.4036  1.1579 -0.1205
 7107SOL     OW32779   0.838   4.464  10.610  0.3132 -0.0602 -0.1420
 7107SOL    HW132780   0.788   4.453  10.529  2.0476 -4.0216 -0.7036
 7107SOL    HW232781   0.765   4.443  10.667 -0.5836  0.7834 -0.9837
 7108SOL     OW32782   1.893   4.710   3.597  0.4298  0.4984 -0.3737
 7108SOL    HW132783   1.974   0.026   3.633 -0.1285  0.4636  0.8955
 7108SOL    HW232784   1.917   0.013   3.507 -2.1790  2.8890 -0.3753
 7109SOL     OW32785   0.215   0.232   7.485  0.6037  0.4807 -0.2283
 7109SOL    HW132786   0.154   0.187   7.543  1.0150 -0.2813 -0.3869
 7109SOL    HW232787   0.151   0.296   7.453  0.4540 -0.2903 -1.4875
 7110SOL     OW32788   3.584   3.915   3.925 -0.0273 -0.4584  0.2091
 7110SOL    HW132789   3.675   3.899   3.951 -0.9001 -0.3774  3.2990
 7110SOL    HW232790   3.546   3.854   3.988 -3.2211  1.3242 -0.0283
 7111SOL     OW32791   2.894   3.897  10.156 -0.1376  0.7064 -0.3932
 7111SOL    HW132792   2.958   3.826  10.162 -1.6844 -0.7352 -1.0364
 7111SOL    HW232793   2.931   3.948  10.083 -1.8615 -1.2634 -2.6526
 7112SOL     OW32794   4.666   2.635   0.200 -0.6724  0.0164 -0.8578
 7112SOL    HW132795   4.660   2.572   0.128 -0.2125 -0.2254 -0.6802
 7112SOL    HW232796   4.630   2.713   0.157  0.1997  1.3566  0.8207
 7113SOL     OW32797   0.187   4.640   3.557 -0.1106 -0.0798  0.2699
 7113SOL    HW132798   0.247   4.714   3.548 -1.7362  1.4740  2.0673
 7113SOL    HW232799   0.246   4.567   3.543  0.8836  0.4082  1.8695
 7114SOL     OW32800   4.496   3.895  11.642  0.0893  0.8782  0.1498
 7114SOL    HW132801   4.586   3.929  11.641  0.5578 -0.3392  0.3855
 7114SOL    HW232802   4.456   3.956  11.580 -2.6110 -1.1606 -0.1133
 7115SOL     OW32803   1.774   3.364   6.859 -0.3497 -0.4753  0.0962
 7115SOL    HW132804   1.743   3.294   6.802 -1.3778  1.1665 -1.3540
 7115SOL    HW232805   1.827   3.415   6.798 -1.0838 -0.4896 -0.5453
 7116SOL     OW32806   1.694   0.044  16.076 -0.1254  0.1563  0.0393
 7116SOL    HW132807   1.721   0.068  15.987 -0.7974  1.6565  0.2531
 7116SOL    HW232808   1.772   0.003  16.112 -0.3337  0.1154  0.4376
 7117SOL     OW32809   2.015   3.775   4.184 -0.0209  0.1342 -0.4415
 7117SOL    HW132810   1.971   3.797   4.102 -2.6332  0.3794  1.0398
 7117SOL    HW232811   1.952   3.714   4.221  0.3717 -1.8783 -3.0685
 7118SOL     OW32812   3.443   1.210  10.972 -0.0896 -0.3275  0.1953
 7118SOL    HW132813   3.418   1.228  11.062  1.0932  0.4385  0.3813
 7118SOL    HW232814   3.500   1.138  11.000 -0.6108 -1.2833 -1.2018
 7119SOL     OW32815   3.484   0.103   9.190 -0.2715  0.5155 -0.6540
 7119SOL    HW132816   3.541   0.039   9.233 -2.3257  0.2061  1.6275
 7119SOL    HW232817   3.430   0.044   9.137  0.5962 -0.4022 -0.5248
 7120SOL     OW32818   2.466   3.645  12.668 -0.7489  0.1445  0.1326
 7120SOL    HW132819   2.512   3.606  12.743 -0.4995 -0.3011 -0.2514
 7120SOL    HW232820   2.388   3.680  12.711 -0.9882  0.2682 -0.4105
 7121SOL     OW32821   4.452   1.644   7.837 -0.3314 -0.1148 -0.4695
 7121SOL    HW132822   4.486   1.732   7.854  0.6691 -0.5154 -0.4209
 7121SOL    HW232823   4.393   1.629   7.911  1.3546 -1.6028  0.5582
 7122SOL     OW32824   4.389   4.621  11.926 -0.1388 -0.3600  0.7346
 7122SOL    HW132825   4.420   4.696  11.875  1.0971 -0.7150  0.9443
 7122SOL    HW232826   4.433   4.546  11.885  2.9847  1.0150  1.5688
 7123SOL     OW32827   4.006   4.072  12.119 -0.0932  0.2882  0.7623
 7123SOL    HW132828   4.088   4.024  12.124  2.4708  4.7145  0.6841
 7123SOL    HW232829   3.997   4.107  12.030  0.0638 -1.4425  0.0601
 7124SOL     OW32830   2.907   0.863  16.671 -0.0193 -0.0756  0.5802
 7124SOL    HW132831   2.855   0.938  16.640 -1.7968 -1.2535  0.6968
 7124SOL    HW232832   2.901   0.808  16.593  1.4065 -0.8048  0.9961
 7125SOL     OW32833   0.281   0.693   7.981 -0.1718 -0.1355 -0.3626
 7125SOL    HW132834   0.298   0.743   8.061  1.6820  0.4564 -1.1351
 7125SOL    HW232835   0.362   0.644   7.969 -0.5299 -0.1544 -2.7130
 7126SOL     OW32836   4.585   1.217   5.002  0.3969 -0.5085 -0.0234
 7126SOL    HW132837   4.621   1.261   5.079 -0.5041  1.0254 -0.4719
 7126SOL    HW232838   4.501   1.183   5.032 -0.0124  1.7893  1.4229
 7127SOL     OW32839   4.070   3.147   6.839 -0.0672  0.3836 -0.3952
 7127SOL    HW132840   4.080   3.101   6.755  0.8064 -0.1989  0.0261
 7127SOL    HW232841   4.046   3.072   6.894  0.4212 -1.2201 -2.3598
 7128SOL     OW32842   0.940   3.805   5.127  0.5343  0.0949 -0.4171
 7128SOL    HW132843   0.977   3.884   5.087  1.0003 -0.7005 -1.5652
 7128SOL    HW232844   0.846   3.818   5.135  0.8744  1.3196  1.5260
 7129SOL     OW32845   3.221   0.510   9.216  0.3673  0.3917 -0.1314
 7129SOL    HW132846   3.286   0.577   9.193  2.2277 -2.0891 -2.0844
 7129SOL    HW232847   3.271   0.443   9.264  0.5586 -1.2425 -2.6064
 7130SOL     OW32848   3.341   3.329   5.301 -0.6451 -1.0614  0.4812
 7130SOL    HW132849   3.274   3.367   5.358 -1.0514 -0.9854 -0.0371
 7130SOL    HW232850   3.296   3.250   5.271 -0.3998 -1.4907  1.2742
 7131SOL     OW32851   1.996   3.698   3.680  0.1539  0.3497 -0.3229
 7131SOL    HW132852   2.040   3.638   3.740  2.7309  0.8104 -1.7698
 7131SOL    HW232853   2.034   3.784   3.698 -2.1688  1.2032  0.5694
 7132SOL     OW32854   1.588   1.489   9.364 -0.1297  0.3023  0.1262
 7132SOL    HW132855   1.574   1.582   9.347 -2.3562 -0.3549 -1.5491
 7132SOL    HW232856   1.565   1.448   9.280 -2.1102 -0.6166  1.1199
 7133SOL     OW32857   1.137   1.256   4.137 -0.1302  0.3161 -0.4917
 7133SOL    HW132858   1.053   1.246   4.093  0.0316  0.8378 -0.9139
 7133SOL    HW232859   1.151   1.162   4.146 -0.6185  0.1040 -1.9322
 7134SOL     OW32860   1.163   4.643  17.186  0.8077 -0.6400  0.6261
 7134SOL    HW132861   1.084   4.655  17.240  0.1899  0.1643 -0.4704
 7134SOL    HW232862   1.146   4.569  17.129 -0.0905 -0.2494  0.3902
 7135SOL     OW32863   2.949   0.759   5.713  0.5526 -0.2295  0.1912
 7135SOL    HW132864   2.939   0.793   5.802 -0.3661  1.4086 -0.5146
 7135SOL    HW232865   2.857   0.755   5.684  0.1143 -0.5387  1.6377
 7136SOL     OW32866   2.331   1.051  17.329 -0.0988 -0.1200 -0.0165
 7136SOL    HW132867   2.247   1.094  17.315  0.1160  0.2834 -0.0694
 7136SOL    HW232868   2.389   1.117  17.365 -0.2504 -1.1379  2.0694
 7137SOL     OW32869   2.995   2.624   4.384  0.2274  0.0283  0.6182
 7137SOL    HW132870   3.002   2.529   4.377  0.4616  0.1045 -0.2484
 7137SOL    HW232871   3.085   2.646   4.361 -0.0151  1.5711  1.1257
 7138SOL     OW32872   3.788   2.626   1.915  0.7889 -0.1439 -0.0572
 7138SOL    HW132873   3.785   2.711   1.871  1.1488 -0.5693 -0.9148
 7138SOL    HW232874   3.876   2.640   1.952  0.6145  0.0873  0.2707
 7139SOL     OW32875   1.362   3.720   8.500  0.0374 -0.3047 -0.5707
 7139SOL    HW132876   1.339   3.810   8.480  3.4777  0.6266 -0.3229
 7139SOL    HW232877   1.312   3.678   8.430 -1.3735  0.1221  0.1808
 7140SOL     OW32878   2.217   2.206   2.287  0.4929  0.2911 -0.2113
 7140SOL    HW132879   2.233   2.117   2.256  2.4769  0.4313  0.4443
 7140SOL    HW232880   2.127   2.220   2.257  0.4212 -0.4707 -0.3473
 7141SOL     OW32881   2.029   0.159   8.254  0.6264 -0.3315  0.0486
 7141SOL    HW132882   2.047   0.196   8.341  0.0345  0.5919 -0.2226
 7141SOL    HW232883   2.093   0.209   8.205  1.9265  0.2405  2.3249
 7142SOL     OW32884   3.883   1.847   7.081 -0.7067 -0.0968  0.1455
 7142SOL    HW132885   3.927   1.783   7.136  1.1901  1.5826  0.5955
 7142SOL    HW232886   3.921   1.925   7.122  0.7970 -1.9802  2.3557
 7143SOL     OW32887   4.348   2.721   0.111  0.0567  0.4813  0.0229
 7143SOL    HW132888   4.331   2.760   0.025  1.7783  2.3281  0.5072
 7143SOL    HW232889   4.414   2.784   0.141 -1.1003  1.5534  0.3215
 7144SOL     OW32890   1.376   0.822   5.096 -0.6052  0.0936  0.4960
 7144SOL    HW132891   1.297   0.802   5.045  0.0148  1.7513 -1.1251
 7144SOL    HW232892   1.345   0.838   5.185  1.6843 -0.3296  1.3582
 7145SOL     OW32893   3.722   0.226   7.043 -0.5491  0.1778  0.0770
 7145SOL    HW132894   3.645   0.179   7.075 -1.6909  2.4261  0.5791
 7145SOL    HW232895   3.762   0.159   6.987 -0.9516 -0.3160  0.3807
 7146SOL     OW32896   1.433   1.122  14.933  0.4864 -0.0529  0.2245
 7146SOL    HW132897   1.394   1.058  14.874  1.3218 -0.4122  0.0645
 7146SOL    HW232898   1.520   1.149  14.902 -0.9238  1.5353 -2.2940
 7147SOL     OW32899   1.903   0.976   6.012  0.0399 -0.2938  0.3720
 7147SOL    HW132900   1.873   1.048   5.957  3.0200 -0.6612 -1.6964
 7147SOL    HW232901   1.824   0.965   6.065  0.3414  0.1682  0.9146
 7148SOL     OW32902   4.679   2.749   3.091 -0.3676 -0.0487 -0.1647
 7148SOL    HW132903   0.008   2.826   3.066  0.6567 -0.2310  1.4045
 7148SOL    HW232904   4.704   2.688   3.021 -0.2370  0.1919 -0.3261
 7149SOL     OW32905   1.025   3.887   4.605  0.5784 -0.1289  0.4785
 7149SOL    HW132906   1.019   3.917   4.515 -0.7130 -0.3621  0.4858
 7149SOL    HW232907   0.944   3.910   4.649 -0.4653 -1.7396 -0.5823
 7150SOL     OW32908   2.702   0.439   0.711 -0.0212  0.3183 -0.2083
 7150SOL    HW132909   2.754   0.361   0.690 -0.6668 -0.1360 -0.1014
 7150SOL    HW232910   2.767   0.491   0.758 -0.9327 -0.8974  2.3846
 7151SOL     OW32911   1.903   1.954  10.936 -0.5137 -0.2389 -0.1275
 7151SOL    HW132912   1.856   1.883  10.979  3.1312 -1.3368  2.0900
 7151SOL    HW232913   1.902   1.920  10.846  1.8769  1.5563 -0.8491
 7152SOL     OW32914   0.934   2.501   1.102 -0.3780  0.1119 -0.1186
 7152SOL    HW132915   0.969   2.582   1.138  0.1431 -0.0894 -0.1712
 7152SOL    HW232916   1.011   2.472   1.052 -0.5370 -0.6483  0.0732
 7153SOL     OW32917   2.280   1.259  16.991  0.2722 -0.7157 -0.2310
 7153SOL    HW132918   2.324   1.192  17.043  4.4521  1.1851 -1.2751
 7153SOL    HW232919   2.197   1.216  16.968 -0.2385  0.6202 -0.8982
 7154SOL     OW32920   3.096   4.251   9.774  0.0777 -0.3864 -0.7770
 7154SOL    HW132921   3.165   4.310   9.744 -0.8869  0.5095 -1.2153
 7154SOL    HW232922   3.017   4.285   9.732  0.5722  2.6379  0.7708
 7155SOL     OW32923   2.812   3.906  10.436  0.2466 -0.5440  0.3430
 7155SOL    HW132924   2.731   3.956  10.433  1.1145  0.9130  1.0912
 7155SOL    HW232925   2.815   3.868  10.348 -0.2428 -0.5311  0.3216
 7156SOL     OW32926   3.955   3.116  14.025  0.3953  0.0299  0.3036
 7156SOL    HW132927   3.911   3.195  14.056 -0.6012 -0.0385 -0.9317
 7156SOL    HW232928   3.996   3.088  14.107 -0.6871 -2.4651 -0.0048
 7157SOL     OW32929   1.574   0.612   5.378  0.1613  0.0398 -0.0811
 7157SOL    HW132930   1.628   0.618   5.300  0.1652  2.0300  0.0714
 7157SOL    HW232931   1.589   0.696   5.422 -0.1648 -1.0215  2.0674
 7158SOL     OW32932   0.086   2.462   5.538  0.1568 -0.1283  0.7098
 7158SOL    HW132933   0.102   2.386   5.594 -0.6594 -0.5577  0.3716
 7158SOL    HW232934   0.163   2.515   5.556 -0.2989  0.8619 -0.2947
 7159SOL     OW32935   0.968   3.381  14.694  0.9869 -0.3635  0.1131
 7159SOL    HW132936   0.998   3.469  14.719 -1.1980  0.0546  1.2769
 7159SOL    HW232937   0.886   3.400  14.647 -0.7316 -2.2019  2.3582
 7160SOL     OW32938   2.624   4.379  14.142 -1.1984  0.3201 -0.0669
 7160SOL    HW132939   2.591   4.424  14.064 -0.8158  2.6697  1.1216
 7160SOL    HW232940   2.579   4.429  14.209  0.7994 -0.7034  2.0239
 7161SOL     OW32941   3.555   2.579  10.500  0.3093 -0.0573  0.4011
 7161SOL    HW132942   3.465   2.552  10.520 -0.0107 -0.7760 -2.0205
 7161SOL    HW232943   3.600   2.568  10.584 -0.4691 -2.4186  0.4906
 7162SOL     OW32944   2.292   2.076   8.344 -0.0092 -0.2918  0.2293
 7162SOL    HW132945   2.272   2.139   8.413 -1.8802 -0.7519  0.0795
 7162SOL    HW232946   2.372   2.047   8.388 -2.4053 -3.3953  2.4386
 7163SOL     OW32947   0.098   0.537   7.859 -0.6368  0.0312 -0.6037
 7163SOL    HW132948   0.171   0.590   7.890 -2.0445  0.9974  1.0826
 7163SOL    HW232949   0.037   0.563   7.928  0.3938 -1.5659  0.9016
 7164SOL     OW32950   4.076   2.576   5.284  0.0383  0.6499  0.5990
 7164SOL    HW132951   4.171   2.587   5.283  0.3873 -2.4226 -1.0244
 7164SOL    HW232952   4.061   2.635   5.357 -1.8346 -0.6456  1.2613
 7165SOL     OW32953   2.235   2.586   3.247 -0.8751  0.5009  0.1994
 7165SOL    HW132954   2.176   2.598   3.173 -0.1122 -1.8176 -0.7684
 7165SOL    HW232955   2.227   2.490   3.252 -1.8409  0.5971  0.6889
 7166SOL     OW32956   4.586   2.050   0.267 -0.0269 -0.1257 -0.3458
 7166SOL    HW132957   4.638   2.050   0.347 -1.4519  0.3379  0.5633
 7166SOL    HW232958   4.619   2.133   0.233 -0.4217  0.4546  0.7074
 7167SOL     OW32959   3.734   0.242  14.028 -0.6563  0.1289  0.2069
 7167SOL    HW132960   3.704   0.269  14.115 -1.3628  0.4261 -0.1370
 7167SOL    HW232961   3.647   0.218  13.996 -0.9810  1.2482  0.2604
 7168SOL     OW32962   2.143   0.353  10.555  0.1249 -0.1671  1.0881
 7168SOL    HW132963   2.122   0.312  10.471  0.1117 -0.2253  1.1198
 7168SOL    HW232964   2.124   0.444  10.533  0.6382 -0.0000  1.3454
 7169SOL     OW32965   3.642   1.372   3.596 -0.1469  0.3560  0.3088
 7169SOL    HW132966   3.648   1.280   3.570 -0.5043  0.5025 -0.2978
 7169SOL    HW232967   3.675   1.369   3.686  0.1082  0.0744  0.2082
 7170SOL     OW32968   2.606   4.343   5.484  0.1251  0.6239 -0.0651
 7170SOL    HW132969   2.693   4.318   5.455 -0.1700 -1.6336  1.0021
 7170SOL    HW232970   2.542   4.292   5.435  1.3924  0.2742 -1.3600
 7171SOL     OW32971   3.150   0.434   2.855  0.1107  0.8456  1.1501
 7171SOL    HW132972   3.204   0.510   2.838  1.9900 -0.2542  2.1717
 7171SOL    HW232973   3.169   0.420   2.947  0.9364  0.2595  0.8839
 7172SOL     OW32974   4.444   1.057   1.788 -0.2840 -0.2107  0.1311
 7172SOL    HW132975   4.445   0.977   1.736  0.4147  0.5669 -1.0488
 7172SOL    HW232976   4.530   1.055   1.829 -0.8043  1.7955  1.3596
 7173SOL     OW32977   0.163   1.419   2.556  0.2413  0.8311  0.0137
 7173SOL    HW132978   0.143   1.497   2.608 -2.5833 -0.8034  1.3527
 7173SOL    HW232979   0.134   1.447   2.469 -1.8105 -0.8285  0.1755
 7174SOL     OW32980   3.186   2.758  12.794 -0.2521 -0.0714  0.0506
 7174SOL    HW132981   3.257   2.717  12.744 -1.5177 -1.2861 -0.7505
 7174SOL    HW232982   3.121   2.688  12.782 -2.4812  1.9079  0.5442
 7175SOL     OW32983   3.563   0.728   6.362  0.5693  0.4386 -0.0694
 7175SOL    HW132984   3.597   0.654   6.413 -1.2509  0.0675  0.6074
 7175SOL    HW232985   3.624   0.729   6.288 -0.6470  0.5947 -1.0663
 7176SOL     OW32986   4.077   2.122   3.763 -0.1989 -0.8658 -0.2766
 7176SOL    HW132987   4.110   2.123   3.673 -0.4256  0.9627 -0.3413
 7176SOL    HW232988   3.986   2.105   3.739 -0.0121  0.3003 -1.8683
 7177SOL     OW32989   0.044   0.923   6.515 -0.3241  0.4932 -0.3828
 7177SOL    HW132990   0.112   0.864   6.483 -0.7289 -0.5220  0.6128
 7177SOL    HW232991   0.029   0.978   6.438 -0.5850  0.9863  0.0171
 7178SOL     OW32992   1.005   1.193   8.708 -0.2730 -0.3315  0.0437
 7178SOL    HW132993   0.937   1.228   8.651 -0.4787  0.2482  0.6422
 7178SOL    HW232994   0.956   1.169   8.786  2.0800 -0.2953  1.5497
 7179SOL     OW32995   1.048   2.393   6.165  0.0201 -0.1496 -0.2393
 7179SOL    HW132996   1.002   2.477   6.165  0.3608  0.0442 -1.5782
 7179SOL    HW232997   1.124   2.428   6.212  1.6164  0.8593 -3.6021
 7180SOL     OW32998   2.717   1.646   0.246 -0.3886 -0.3845 -0.0143
 7180SOL    HW132999   2.686   1.671   0.159 -1.5007  1.1332  0.8114
 7180SOL    HW233000   2.810   1.634   0.230 -0.3400  0.6382 -0.4910
 7181SOL     OW33001   3.672   4.047  12.378  0.4497 -0.7076 -0.1409
 7181SOL    HW133002   3.766   4.031  12.383  0.2561 -2.0410 -0.6349
 7181SOL    HW233003   3.650   4.064  12.286 -0.3518  0.7327  0.3272
 7182SOL     OW33004   3.858   2.568   8.970 -0.1092  0.3903 -0.1653
 7182SOL    HW133005   3.928   2.529   8.918 -1.1340  0.1678 -1.4108
 7182SOL    HW233006   3.889   2.652   9.004  0.2917  0.3193 -0.3514
 7183SOL     OW33007   3.576   1.495   3.152  0.1876 -0.4022  0.3206
 7183SOL    HW133008   3.539   1.581   3.174 -1.3348 -1.0762  0.3990
 7183SOL    HW233009   3.651   1.492   3.211  0.5622  0.2742 -0.1127
 7184SOL     OW33010   3.315   1.519   3.981  0.3376  0.0041  0.3129
 7184SOL    HW133011   3.408   1.521   3.958  0.2922  2.3438  0.4194
 7184SOL    HW233012   3.314   1.442   4.039 -1.5898  0.1971  0.5444
 7185SOL     OW33013   3.884   4.711  15.150  0.5552 -0.6579 -0.1702
 7185SOL    HW133014   3.898   0.024  15.063 -0.2660 -0.8307 -0.3720
 7185SOL    HW233015   3.970   4.670  15.163  1.2767  0.2877 -2.0147
 7186SOL     OW33016   4.165   0.785   8.346 -0.6895  0.1324  0.0326
 7186SOL    HW133017   4.256   0.800   8.320 -0.3473 -1.9320  0.0361
 7186SOL    HW233018   4.180   0.729   8.422  0.5748  0.4479  0.0249
 7187SOL     OW33019   3.767   3.272  14.919  0.2543 -0.5670  0.1692
 7187SOL    HW133020   3.819   3.332  14.973 -2.9174  3.2619 -1.0278
 7187SOL    HW233021   3.828   3.202  14.896 -0.5909 -1.0150 -0.7101
 7188SOL     OW33022   1.398   1.434   3.475  0.8600  0.1915  0.1079
 7188SOL    HW133023   1.483   1.391   3.467  0.7739 -0.3189  1.9505
 7188SOL    HW233024   1.343   1.364   3.512  2.3043 -0.7735  0.4215
 7189SOL     OW33025   1.843   0.429  16.212 -0.8635 -0.4829  0.4114
 7189SOL    HW133026   1.826   0.416  16.119 -0.2287  1.2159  0.0585
 7189SOL    HW233027   1.759   0.466  16.240  1.9194  3.5474  3.5470
 7190SOL     OW33028   2.595   1.334  10.819  0.1661 -0.1426  0.0324
 7190SOL    HW133029   2.609   1.338  10.724  0.0011  1.0703  0.0527
 7190SOL    HW233030   2.671   1.280  10.838  0.6639  0.1293 -1.1675
 7191SOL     OW33031   2.224   0.556  14.127  0.2942 -0.5480  0.2005
 7191SOL    HW133032   2.238   0.648  14.104  1.4580 -1.2106 -1.7961
 7191SOL    HW233033   2.246   0.508  14.047 -1.7878  0.4794 -0.9637
 7192SOL     OW33034   3.910   4.713  14.305 -0.4134  0.3322  0.0081
 7192SOL    HW133035   3.859   4.666  14.239 -1.1654  1.1606  0.0060
 7192SOL    HW233036   3.931   0.071  14.257 -0.8072  1.3614  1.5768
 7193SOL     OW33037   4.420   2.640   7.626 -0.0318 -0.2496  0.2427
 7193SOL    HW133038   4.447   2.716   7.574  1.0511 -1.8657 -1.5960
 7193SOL    HW233039   4.325   2.646   7.622  0.0322  1.0571  0.9316
 7194SOL     OW33040   4.474   4.093   5.246  0.2405  0.3465  0.5858
 7194SOL    HW133041   4.405   4.108   5.182  0.6379 -0.9475 -0.1306
 7194SOL    HW233042   4.501   4.183   5.267  0.8741  0.2374  0.2444
 7195SOL     OW33043   2.001   3.858  15.786 -0.1738  0.8041 -0.1092
 7195SOL    HW133044   1.978   3.765  15.780  1.2702  0.2807  2.1077
 7195SOL    HW233045   1.932   3.902  15.737  1.1467  1.8775 -0.9962
 7196SOL     OW33046   2.159   4.478  15.380  0.7273  0.4154 -0.1290
 7196SOL    HW133047   2.165   4.384  15.362 -1.5050 -0.1706  2.1968
 7196SOL    HW233048   2.174   4.518  15.295  1.8163  2.2489  0.9185
 7197SOL     OW33049   0.200   4.231   4.018 -0.0903  0.0653  0.0563
 7197SOL    HW133050   0.174   4.275   4.098  2.2471  1.7362 -0.0855
 7197SOL    HW233051   0.211   4.307   3.960  0.0816  0.2147  0.2858
 7198SOL     OW33052   3.183   1.068   4.854 -0.7150  0.0806 -0.1240
 7198SOL    HW133053   3.152   0.978   4.859 -0.9673  0.1704 -0.0665
 7198SOL    HW233054   3.132   1.114   4.787 -0.5365  1.2254  0.5231
 7199SOL     OW33055   2.649   1.372  17.685  0.4778  0.2811 -0.3613
 7199SOL    HW133056   2.613   1.373   0.081 -0.1653 -0.9563 -0.5962
 7199SOL    HW233057   2.693   1.287  17.682  0.2802  0.1502  0.4906
 7200SOL     OW33058   1.382   4.198   3.542 -0.0911  0.0388 -0.6802
 7200SOL    HW133059   1.308   4.151   3.580  0.2103  1.4961  1.7008
 7200SOL    HW233060   1.382   4.154   3.456 -0.1966 -1.8723  0.3022
 7201SOL     OW33061   2.280   0.125   3.478 -0.2222  0.2122  0.0743
 7201SOL    HW133062   2.325   0.068   3.416 -0.6976 -1.3944  1.2100
 7201SOL    HW233063   2.326   0.112   3.561 -1.7032 -1.9292  0.5599
 7202SOL     OW33064   3.249   3.055   6.416 -0.1555  0.3148 -0.0435
 7202SOL    HW133065   3.285   3.041   6.328 -0.3492 -0.6106  0.0168
 7202SOL    HW233066   3.177   2.991   6.416  0.2061 -0.0971  0.9633
 7203SOL     OW33067   2.474   0.364   8.979  0.4815  0.0768  0.2061
 7203SOL    HW133068   2.451   0.311   9.056  0.0515 -0.5727 -0.3667
 7203SOL    HW233069   2.511   0.442   9.020 -0.3984  1.7371 -2.1851
 7204SOL     OW33070   3.709   1.292   4.385 -0.9002 -0.3792 -0.3233
 7204SOL    HW133071   3.784   1.273   4.441 -0.7905 -2.0389 -1.0224
 7204SOL    HW233072   3.753   1.357   4.330 -0.2661 -0.3251  0.2469
 7205SOL     OW33073   4.515   0.449   5.638  0.2591  0.6480 -0.2270
 7205SOL    HW133074   4.479   0.472   5.553 -2.4984  1.6041  1.1861
 7205SOL    HW233075   4.444   0.409   5.689 -0.2783 -1.0192 -2.2893
 7206SOL     OW33076   0.556   2.212   1.155  0.0499  0.7095 -0.3648
 7206SOL    HW133077   0.587   2.220   1.245 -1.4667  2.0306  0.0437
 7206SOL    HW233078   0.473   2.170   1.177  1.1295 -0.5407  1.2887
 7207SOL     OW33079   3.140   0.545   7.157 -0.1748 -0.5014  0.3285
 7207SOL    HW133080   3.169   0.516   7.070  1.4183  0.5583  0.5178
 7207SOL    HW233081   3.084   0.620   7.137 -0.4051 -1.2606 -1.8939
 7208SOL     OW33082   4.144   0.038   7.839 -0.0807  0.1467  0.5218
 7208SOL    HW133083   4.134   0.122   7.794  0.7349 -0.3482 -0.5687
 7208SOL    HW233084   4.237   0.045   7.861  0.0206  0.9296 -0.1551
 7209SOL     OW33085   4.077   1.011   8.810 -0.1540 -1.0209  0.1416
 7209SOL    HW133086   4.131   1.078   8.852 -4.0265  1.0592  1.8372
 7209SOL    HW233087   4.121   0.929   8.832 -1.0270 -1.0307  1.8815
 7210SOL     OW33088   3.747   0.519   3.531 -0.0792 -0.4624  0.3700
 7210SOL    HW133089   3.829   0.560   3.502  0.0062 -0.6918  0.2840
 7210SOL    HW233090   3.674   0.543   3.474 -0.0230  0.3956  0.6654
 7211SOL     OW33091   4.365   2.305  10.313  0.0721 -0.0113 -0.1622
 7211SOL    HW133092   4.457   2.296  10.336 -0.1608 -2.9263 -0.3659
 7211SOL    HW233093   4.388   2.309  10.220  2.3019  1.1465  0.4471
 7212SOL     OW33094   3.036   0.898   3.850 -0.4178  0.6388 -0.3391
 7212SOL    HW133095   3.128   0.913   3.832  0.2998 -2.5962  0.6574
 7212SOL    HW233096   3.037   0.898   3.946 -0.7694  0.8817 -0.3332
 7213SOL     OW33097   4.342   0.531   8.037 -0.4164 -0.3687 -0.1271
 7213SOL    HW133098   4.372   0.621   8.050  0.2003 -0.2333 -2.5283
 7213SOL    HW233099   4.390   0.484   8.105 -0.4598 -2.1603 -1.3225
 7214SOL     OW33100   4.155   0.332   4.870 -0.6621 -0.1439 -0.1600
 7214SOL    HW133101   4.251   0.330   4.876 -0.7481 -0.6836  1.1393
 7214SOL    HW233102   4.131   0.358   4.960 -0.9712  2.1240 -0.8860
 7215SOL     OW33103   4.436   2.320   5.933  0.2531  0.4933  0.1932
 7215SOL    HW133104   4.347   2.356   5.937  0.5746  1.3268 -0.0731
 7215SOL    HW233105   4.493   2.394   5.910 -0.3475  0.2292 -2.1561
 7216SOL     OW33106   0.295   4.716  14.753  0.0565  0.7030 -0.4745
 7216SOL    HW133107   0.273   4.624  14.766  0.3590  0.5188 -1.2731
 7216SOL    HW233108   0.221   0.028  14.703 -0.0617 -1.3231 -1.7035
 7217SOL     OW33109   4.558   3.050  10.995 -0.3682  1.2480 -0.3328
 7217SOL    HW133110   4.515   3.133  10.978 -2.2828  0.2573 -0.3156
 7217SOL    HW233111   4.651   3.071  10.986 -0.6100  2.6285  0.4047
 7218SOL     OW33112   0.878   4.321  11.734  0.2528 -0.4480 -0.8058
 7218SOL    HW133113   0.787   4.346  11.752  0.3369  0.1069 -1.1458
 7218SOL    HW233114   0.866   4.226  11.740 -1.4508 -0.1599  0.3667
 7219SOL     OW33115   1.833   1.849   1.964  0.1315 -0.5369  0.1112
 7219SOL    HW133116   1.761   1.893   2.010  1.1116 -0.2532  1.3535
 7219SOL    HW233117   1.808   1.757   1.973  0.5062 -0.6202  0.2999
 7220SOL     OW33118   2.614   4.233   4.402  0.4536  0.2031  0.0460
 7220SOL    HW133119   2.566   4.268   4.477  0.1431  2.2603 -1.1070
 7220SOL    HW233120   2.553   4.165   4.374  1.1542 -0.5977  0.4631
 7221SOL     OW33121   1.669   4.139   7.331 -0.3148 -0.5792  0.2978
 7221SOL    HW133122   1.581   4.172   7.349 -0.1829 -0.8356  1.4231
 7221SOL    HW233123   1.718   4.220   7.320 -0.3283 -0.3555  1.8699
 7222SOL     OW33124   4.571   1.110   5.530  0.3899  0.1834  0.1507
 7222SOL    HW133125   4.476   1.105   5.529  0.3088  1.8323 -0.3427
 7222SOL    HW233126   4.587   1.033   5.474  2.9174 -0.1471  1.3058
 7223SOL     OW33127   3.917   0.633  10.699  0.0762 -0.5506  0.1271
 7223SOL    HW133128   3.826   0.624  10.670  0.6572  0.3092 -1.9792
 7223SOL    HW233129   3.899   0.679  10.781  1.1159 -0.1998  0.1565
 7224SOL     OW33130   1.714   3.108   7.106 -0.2518  0.6400 -0.2587
 7224SOL    HW133131   1.646   3.125   7.172  0.3623 -0.6203  0.7063
 7224SOL    HW233132   1.781   3.170   7.135 -0.6246  0.8100  0.2345
 7225SOL     OW33133   3.086   2.796   6.094 -0.3911 -0.0569 -0.4502
 7225SOL    HW133134   3.076   2.832   6.182  1.8271  0.2617 -0.3323
 7225SOL    HW233135   2.993   2.776   6.081 -0.5932  0.4114  0.2429
 7226SOL     OW33136   0.649   2.303   8.487 -0.0188 -0.0732 -0.0464
 7226SOL    HW133137   0.635   2.243   8.414 -1.2631 -0.9831  0.9549
 7226SOL    HW233138   0.711   2.254   8.541 -0.2305 -0.6930 -0.3711
 7227SOL     OW33139   3.611   2.034   1.842  0.2516  0.0272  0.3460
 7227SOL    HW133140   3.605   2.053   1.936 -0.7672  0.9247  0.0895
 7227SOL    HW233141   3.543   1.967   1.841  1.1480 -0.8936 -0.3810
 7228SOL     OW33142   0.117   3.824  11.489 -0.2437  0.0497  0.0187
 7228SOL    HW133143   0.134   3.822  11.583  0.4329 -1.4688 -0.1246
 7228SOL    HW233144   0.053   3.753  11.487  1.2092 -1.1438 -2.9996
 7229SOL     OW33145   4.619   4.179  17.292  0.1735 -0.1625 -0.6234
 7229SOL    HW133146   4.695   4.176  17.351  0.3378 -0.4975 -0.8506
 7229SOL    HW233147   4.553   4.220  17.348 -0.8930 -0.3452 -1.7706
 7230SOL     OW33148   3.886   2.693  11.454 -0.1426 -0.1216 -0.0218
 7230SOL    HW133149   3.882   2.788  11.466 -0.4427 -0.1781  0.3396
 7230SOL    HW233150   3.830   2.674  11.530 -0.4827  2.0457  0.2798
 7231SOL     OW33151   1.116   2.806   0.119  0.2482  0.0101  0.3236
 7231SOL    HW133152   1.180   2.793   0.048 -1.8993  2.1613 -2.0022
 7231SOL    HW233153   1.031   2.799   0.076  0.1865 -1.3456  0.6733
 7232SOL     OW33154   0.485   2.433  15.531  0.4122  0.2338 -0.4282
 7232SOL    HW133155   0.478   2.494  15.458  0.0195 -0.0220 -0.6052
 7232SOL    HW233156   0.579   2.417  15.540  0.3646 -0.7972 -1.7582
 7233SOL     OW33157   1.307   1.158  17.414  0.6999 -0.3417  0.5690
 7233SOL    HW133158   1.285   1.096  17.483  1.5246 -0.5985  0.5955
 7233SOL    HW233159   1.301   1.240  17.464 -0.9742 -0.9311  1.3477
 7234SOL     OW33160   3.732   3.952   3.074 -0.0203  0.7871 -0.3051
 7234SOL    HW133161   3.784   3.987   3.146  0.7873 -0.7811 -0.1313
 7234SOL    HW233162   3.671   3.895   3.121  0.6055  0.5803  0.2469
 7235SOL     OW33163   2.926   0.795   4.500  0.0315  0.1983  0.0122
 7235SOL    HW133164   2.881   0.718   4.466 -2.3305  1.5461  0.0986
 7235SOL    HW233165   2.963   0.827   4.417 -1.1049 -1.3870 -1.0871
 7236SOL     OW33166   3.095   1.506   6.987 -0.3294  0.0943  0.7770
 7236SOL    HW133167   3.009   1.467   7.006 -0.8996  2.2277  2.5948
 7236SOL    HW233168   3.146   1.452   7.048 -1.3599 -1.2105  0.4883
 7237SOL     OW33169   0.124   2.288  15.342 -0.0656 -0.0487  0.5377
 7237SOL    HW133170   0.208   2.242  15.342 -0.6505 -1.1152  0.8548
 7237SOL    HW233171   0.084   2.264  15.426 -1.3872 -0.3977 -0.2038
 7238SOL     OW33172   0.303   2.113   1.098 -0.2568 -0.1227  0.4765
 7238SOL    HW133173   0.215   2.075   1.088 -1.0660  1.1416  2.6756
 7238SOL    HW233174   0.278   2.206   1.094 -0.1997 -0.1216  0.1566
 7239SOL     OW33175   4.561   0.818  10.162 -0.0977 -0.3423 -0.3699
 7239SOL    HW133176   4.513   0.852  10.237  0.6959  2.6331 -1.2060
 7239SOL    HW233177   4.654   0.810  10.187 -0.3372  1.7954  1.1515
 7240SOL     OW33178   1.056   2.172   8.233 -0.1436 -0.6857  0.4470
 7240SOL    HW133179   0.972   2.216   8.220 -0.3285 -1.1608 -0.0069
 7240SOL    HW233180   1.078   2.128   8.150 -1.3040 -0.6729  0.1241
 7241SOL     OW33181   0.329   0.790   6.691  0.1107  0.4336  0.1586
 7241SOL    HW133182   0.363   0.710   6.731 -0.3757 -0.9761 -2.2251
 7241SOL    HW233183   0.348   0.845   6.767 -1.4726  0.7323  0.3390
 7242SOL     OW33184   0.339   2.694   3.693  0.2593 -0.9042  0.5844
 7242SOL    HW133185   0.267   2.655   3.643  1.6784 -1.2694 -1.1736
 7242SOL    HW233186   0.405   2.701   3.624  0.0563 -1.4580  0.3312
 7243SOL     OW33187   2.662   1.553  17.463 -0.0294 -0.7853  0.1310
 7243SOL    HW133188   2.640   1.464  17.490 -1.3285 -0.5892 -0.2530
 7243SOL    HW233189   2.666   1.601  17.546 -0.3024  0.0533 -0.3383
 7244SOL     OW33190   2.134   2.102   0.717  0.2409 -0.3072 -0.1432
 7244SOL    HW133191   2.125   2.127   0.625  3.7411  1.2830 -0.0734
 7244SOL    HW233192   2.090   2.175   0.760 -0.4683 -1.0861  0.4587
 7245SOL     OW33193   4.272   3.378   2.444  0.5590 -0.8996 -0.1145
 7245SOL    HW133194   4.282   3.464   2.486  2.2726 -0.9396 -0.4557
 7245SOL    HW233195   4.354   3.339   2.473  0.7285  1.0065  1.9869
 7246SOL     OW33196   2.937   4.011   4.403  0.1870 -0.6617 -0.3660
 7246SOL    HW133197   2.887   3.929   4.398 -2.7384  0.9581  2.1422
 7246SOL    HW233198   3.008   3.989   4.343  0.1935  0.9710 -0.9527
 7247SOL     OW33199   4.450   1.994   4.233  0.5598  0.2930  0.2050
 7247SOL    HW133200   4.487   2.010   4.146  2.4040 -0.6391  0.8180
 7247SOL    HW233201   4.361   2.020   4.211  0.6803 -0.4079 -1.1202
 7248SOL     OW33202   3.979   4.701   2.155  0.0703  0.2233 -0.0775
 7248SOL    HW133203   4.069   4.688   2.125 -0.3709 -0.0413 -1.3203
 7248SOL    HW233204   3.962   0.063   2.111 -1.1352  0.0431  0.0364
 7249SOL     OW33205   3.770   1.905   1.325  0.2228 -0.0337 -0.4819
 7249SOL    HW133206   3.720   1.986   1.331 -1.5599 -1.0375 -1.9064
 7249SOL    HW233207   3.718   1.843   1.376 -0.7659  0.3465 -1.0348
 7250SOL     OW33208   3.745   3.434  13.077 -0.2460  0.8085  0.1089
 7250SOL    HW133209   3.703   3.492  13.013 -2.6012  0.0467  0.9501
 7250SOL    HW233210   3.757   3.496  13.149  0.2099  0.4706  0.3174
 7251SOL     OW33211   3.678   0.716   4.638  0.6046  0.6418 -0.2851
 7251SOL    HW133212   3.603   0.694   4.693 -0.9256 -0.5371 -2.8977
 7251SOL    HW233213   3.661   0.811   4.640 -0.9387  0.3254  1.8453
 7252SOL     OW33214   0.288   1.974  14.093  0.0038  0.1671 -0.4470
 7252SOL    HW133215   0.280   1.894  14.145 -1.2096  0.4032 -0.2645
 7252SOL    HW233216   0.208   2.020  14.117  0.5297  1.1860 -0.6266
 7253SOL     OW33217   1.095   2.371  13.443 -0.2979  0.4599  0.2849
 7253SOL    HW133218   1.063   2.418  13.520 -0.4304 -0.2542  0.6614
 7253SOL    HW233219   1.055   2.429  13.378 -0.9949  1.4676  1.6128
 7254SOL     OW33220   3.548   4.181   8.933  0.0441 -0.0269  0.5129
 7254SOL    HW133221   3.521   4.104   8.984 -1.6160  0.3123  0.1439
 7254SOL    HW233222   3.587   4.145   8.853  2.9433  0.8654  1.5617
 7255SOL     OW33223   1.329   0.049   0.057  0.4652 -0.2068  0.0240
 7255SOL    HW133224   1.417   0.016   0.041 -0.3998 -2.2792 -0.4419
 7255SOL    HW233225   1.286   4.704   0.109 -0.7281 -1.1470 -2.1687
 7256SOL     OW33226   1.201   0.086   4.594  0.4246 -0.3229  0.0453
 7256SOL    HW133227   1.226   0.024   4.662  2.2795 -0.9570 -1.1932
 7256SOL    HW233228   1.226   0.165   4.643  2.9802  0.1929 -2.0819
 7257SOL     OW33229   3.781   3.458   3.598 -0.0513  0.0369  0.1641
 7257SOL    HW133230   3.712   3.495   3.653  1.2221 -1.0982  2.4863
 7257SOL    HW233231   3.728   3.418   3.530 -1.1170 -0.4488  1.3017
 7258SOL     OW33232   0.980   2.637  17.580 -0.1310 -0.0610 -0.0734
 7258SOL    HW133233   0.922   2.675  17.646  1.3441  1.0520  0.5766
 7258SOL    HW233234   0.996   2.711  17.522  0.0020  0.8574  1.1467
 7259SOL     OW33235   3.056   0.402  11.545  0.4345  0.3685  0.7621
 7259SOL    HW133236   3.107   0.458  11.487  1.1600  0.2197  1.2546
 7259SOL    HW233237   3.128   0.362  11.593  0.8341  0.1992  0.0172
 7260SOL     OW33238   4.138   0.886   1.399 -0.6294  0.2392 -0.0079
 7260SOL    HW133239   4.091   0.818   1.448  0.7227 -0.4231  0.3810
 7260SOL    HW233240   4.068   0.886   1.334  0.4433 -1.1395 -1.1747
 7261SOL     OW33241   2.266   2.749  14.614 -0.0601  0.2566  0.7049
 7261SOL    HW133242   2.300   2.836  14.596 -0.6773  0.5031  0.7366
 7261SOL    HW233243   2.210   2.772  14.687 -0.3549 -1.4519  1.0191
 7262SOL     OW33244   3.704   2.288   4.649 -0.2317 -0.2275  0.5756
 7262SOL    HW133245   3.745   2.351   4.709 -0.4168 -0.0917  0.5620
 7262SOL    HW233246   3.677   2.221   4.712  1.0026 -2.7396 -1.5667
 7263SOL     OW33247   0.203   2.329   0.574 -0.7185  0.5973 -0.5559
 7263SOL    HW133248   0.223   2.348   0.666 -0.4497 -5.5256  0.6673
 7263SOL    HW233249   0.210   2.414   0.531  1.5071  0.0525 -1.2384
 7264SOL     OW33250   4.617   3.091   1.587 -0.7154  0.0314  0.6730
 7264SOL    HW133251   4.657   3.023   1.532  4.1366  1.8119  2.0229
 7264SOL    HW233252   4.534   3.053   1.617 -0.9854  1.7449  2.1000
 7265SOL     OW33253   1.781   1.762  14.525 -0.0435  0.5773 -0.2646
 7265SOL    HW133254   1.849   1.699  14.500 -1.2320  0.2115 -2.5467
 7265SOL    HW233255   1.727   1.706  14.581 -0.6100  2.3701  0.9779
 7266SOL     OW33256   2.693   3.829   9.873  0.4015  0.5302  0.3676
 7266SOL    HW133257   2.685   3.917   9.836 -0.7601  0.7703  1.1990
 7266SOL    HW233258   2.787   3.825   9.892  0.9007  2.9983 -1.5228
 7267SOL     OW33259   1.301   4.652   0.479 -0.4979  0.5742 -0.0263
 7267SOL    HW133260   1.259   4.687   0.558  2.2241  0.5443  1.4396
 7267SOL    HW233261   1.386   4.617   0.506  0.2889  1.8853 -0.8307
 7268SOL     OW33262   4.570   0.844   2.860 -0.2052 -0.4601 -0.2287
 7268SOL    HW133263   4.600   0.918   2.807  2.3662 -0.0984  1.6957
 7268SOL    HW233264   4.489   0.878   2.897 -0.7050  1.3910 -3.0667
 7269SOL     OW33265   4.038   0.191   9.051 -0.2131 -0.3557  0.2302
 7269SOL    HW133266   4.016   0.237   9.132 -1.2403  1.7989 -1.2902
 7269SOL    HW233267   3.952   0.162   9.022 -0.3088  0.4762 -0.2995
 7270SOL     OW33268   4.145   3.171   0.626  1.0463 -0.0363 -0.4447
 7270SOL    HW133269   4.185   3.169   0.539  2.5962  0.1211  0.2578
 7270SOL    HW233270   4.057   3.140   0.606  0.8031  0.3509  0.0184
 7271SOL     OW33271   1.693   0.539   6.650  0.4016  0.5460  0.1451
 7271SOL    HW133272   1.680   0.540   6.745 -2.2870  0.9773 -0.2519
 7271SOL    HW233273   1.739   0.455   6.644 -0.5432  0.1201 -1.1551
 7272SOL     OW33274   0.996   3.338   2.641 -1.0475  0.0162 -0.3302
 7272SOL    HW133275   0.902   3.337   2.627 -1.0685  1.5783 -0.3042
 7272SOL    HW233276   1.029   3.302   2.559 -0.9952  0.5470 -0.5426
 7273SOL     OW33277   0.444   3.375   5.934 -0.6365 -0.0297 -0.0756
 7273SOL    HW133278   0.498   3.452   5.949  1.5714 -1.0439 -2.7902
 7273SOL    HW233279   0.357   3.410   5.954 -1.0474 -0.1034 -1.7250
 7274SOL     OW33280   3.801   2.556   1.378 -0.3583  0.2934 -0.0454
 7274SOL    HW133281   3.767   2.492   1.316  1.0283 -0.0669 -0.4438
 7274SOL    HW233282   3.782   2.640   1.337  0.1133  0.0638 -0.7268
 7275SOL     OW33283   2.497   2.488  11.483 -0.4165  0.3454 -0.4093
 7275SOL    HW133284   2.589   2.469  11.504 -0.5880  0.5297  0.4973
 7275SOL    HW233285   2.456   2.416  11.530  0.1816  0.4696  0.3036
 7276SOL     OW33286   0.061   1.531   4.291 -0.4726  0.9492 -0.4676
 7276SOL    HW133287   0.102   1.534   4.378 -1.3520 -1.4603  0.0296
 7276SOL    HW233288   0.003   1.603   4.316 -1.2631 -0.3679  1.4648
 7277SOL     OW33289   0.151   3.630   1.509  0.1389  0.8436 -0.2023
 7277SOL    HW133290   0.192   3.628   1.595 -0.2057  0.3752 -0.0527
 7277SOL    HW233291   0.114   3.718   1.517  0.4219  1.1467 -2.2148
 7278SOL     OW33292   1.589   3.512   7.494 -1.0240 -0.5412 -0.1579
 7278SOL    HW133293   1.671   3.476   7.526 -0.6236  0.6021  0.0974
 7278SOL    HW233294   1.518   3.465   7.537 -1.8434  0.6047 -0.2430
 7279SOL     OW33295   1.302   2.139   4.119 -1.1447  0.1623  0.3433
 7279SOL    HW133296   1.315   2.231   4.143 -0.7827 -0.0282  0.8827
 7279SOL    HW233297   1.341   2.144   4.032  0.0994  1.1004  0.9577
 7280SOL     OW33298   2.147   2.744  16.847  0.1675 -0.0775  1.0880
 7280SOL    HW133299   2.136   2.724  16.940  0.8980  1.7863  1.5747
 7280SOL    HW233300   2.134   2.839  16.846  0.2632 -0.0804 -2.1877
 7281SOL     OW33301   3.231   2.594   6.418  1.0107 -0.1564  0.2456
 7281SOL    HW133302   3.293   2.522   6.409  1.2151 -0.0760  0.9666
 7281SOL    HW233303   3.295   2.664   6.413 -0.0024  0.8405  1.2294
 7282SOL     OW33304   1.691   1.416   5.681 -0.5748 -0.4306 -0.0995
 7282SOL    HW133305   1.736   1.436   5.598  1.2201  0.3246  1.0522
 7282SOL    HW233306   1.627   1.352   5.649 -1.0184 -0.4622  0.8657
 7283SOL     OW33307   2.165   1.031  11.454 -0.5590 -0.2705 -0.4247
 7283SOL    HW133308   2.141   1.123  11.468  2.1658  0.0120  2.4340
 7283SOL    HW233309   2.137   0.996  11.539 -0.2199 -1.2343 -0.7153
 7284SOL     OW33310   1.626   4.167  11.051 -0.3184  0.4882 -0.2295
 7284SOL    HW133311   1.711   4.185  11.011  0.6869  1.2251  2.1873
 7284SOL    HW233312   1.589   4.255  11.060 -1.1232 -0.1203  2.6476
 7285SOL     OW33313   4.461   4.193   2.031  0.0378  0.1638  0.8813
 7285SOL    HW133314   4.534   4.224   2.086  1.7120  0.3781 -1.4621
 7285SOL    HW233315   4.441   4.105   2.063 -0.6843  0.0387  0.0587
 7286SOL     OW33316   1.963   2.521   6.380 -0.8246 -0.2146  0.2244
 7286SOL    HW133317   2.044   2.494   6.337 -0.4385 -0.1534  0.9063
 7286SOL    HW233318   1.907   2.526   6.303  0.7165 -3.1078 -1.0606
 7287SOL     OW33319   3.433   1.604   4.538 -0.5339 -0.1020 -0.0929
 7287SOL    HW133320   3.455   1.595   4.445 -4.0240  1.9347 -1.0907
 7287SOL    HW233321   3.506   1.563   4.586 -1.5448 -2.3969 -0.5226
 7288SOL     OW33322   1.173   3.148   2.714  0.6242  0.3484 -0.0773
 7288SOL    HW133323   1.229   3.207   2.764 -0.9206  2.2713 -0.6406
 7288SOL    HW233324   1.109   3.213   2.685  0.5859 -0.2359 -1.2707
 7289SOL     OW33325   0.441   2.203  14.475 -0.0287 -0.6223  0.0084
 7289SOL    HW133326   0.454   2.173  14.385  1.0627 -1.6729  0.5256
 7289SOL    HW233327   0.368   2.265  14.470  0.2770 -0.0810  2.1662
 7290SOL     OW33328   1.078   0.344   7.631  0.3015 -0.0286  0.1589
 7290SOL    HW133329   1.000   0.305   7.591  0.2822  1.0512 -0.8546
 7290SOL    HW233330   1.029   0.410   7.680 -0.0810  0.8589 -1.4081
 7291SOL     OW33331   2.325   0.250   2.441  0.4229  0.3100 -0.5834
 7291SOL    HW133332   2.417   0.275   2.437  0.4717 -0.1360 -2.0721
 7291SOL    HW233333   2.330   0.155   2.430  0.0251  0.4947 -2.3600
 7292SOL     OW33334   0.624   2.316  14.177 -0.2879  0.0272  0.5794
 7292SOL    HW133335   0.544   2.359  14.148  0.9539  0.4265 -2.3036
 7292SOL    HW233336   0.594   2.231  14.208 -0.5749  0.6811  2.0897
 7293SOL     OW33337   2.470   2.954   8.576  0.0333 -0.2766  0.0752
 7293SOL    HW133338   2.376   2.942   8.590 -0.2207  1.6324  0.1024
 7293SOL    HW233339   2.476   3.045   8.545  0.1905  0.2149  1.5510
 7294SOL     OW33340   2.588   3.829   3.112  0.3415  0.4182 -0.0081
 7294SOL    HW133341   2.577   3.924   3.116 -0.0096  0.4043 -0.6111
 7294SOL    HW233342   2.639   3.821   3.031  1.0950 -0.6346  0.5637
 7295SOL     OW33343   3.863   1.421   4.209  0.4265 -0.2803 -0.0386
 7295SOL    HW133344   3.899   1.509   4.220  0.6448 -0.3205 -0.4194
 7295SOL    HW233345   3.877   1.391   4.119  2.9454 -0.3507  0.3786
 7296SOL     OW33346   2.476   1.394   8.674  0.2056 -0.0491  0.2584
 7296SOL    HW133347   2.570   1.407   8.690  0.1210 -0.7043  1.3282
 7296SOL    HW233348   2.461   1.303   8.700 -0.3523  0.0405  0.2491
 7297SOL     OW33349   1.770   3.617  14.661  0.3864  0.6540  0.1084
 7297SOL    HW133350   1.735   3.701  14.632  1.5571  0.9721 -0.3787
 7297SOL    HW233351   1.766   3.572  14.577 -0.5759  2.4726 -0.7990
 7298SOL     OW33352   3.250   0.593   5.247 -0.0062 -0.1032  0.0910
 7298SOL    HW133353   3.221   0.627   5.331  0.5034  0.0049  0.2239
 7298SOL    HW233354   3.185   0.628   5.186  0.0536  0.0207  0.0976
 7299SOL     OW33355   3.053   3.342   8.421 -0.5790  0.3077  0.0315
 7299SOL    HW133356   3.115   3.324   8.491 -1.0942  0.1077  0.4328
 7299SOL    HW233357   3.116   3.341   8.348 -1.0984 -1.9747 -0.3985
 7300SOL     OW33358   3.303   4.701  14.722  0.2556 -0.6404  0.2371
 7300SOL    HW133359   3.368   0.033  14.766 -2.0412  0.7452  1.9063
 7300SOL    HW233360   3.360   4.626  14.703  2.5606  0.8183  1.3299
 7301SOL     OW33361   2.196   2.810   8.913  0.2501  0.5767  0.1170
 7301SOL    HW133362   2.178   2.877   8.979 -2.8774  1.5984 -1.7895
 7301SOL    HW233363   2.291   2.806   8.922  0.2483  2.2401  0.9333
 7302SOL     OW33364   3.270   4.379   3.093 -0.2183  0.2886 -0.3526
 7302SOL    HW133365   3.248   4.299   3.045 -2.6970 -0.2553  1.6949
 7302SOL    HW233366   3.354   4.398   3.050 -0.1752 -1.4594 -1.0539
 7303SOL     OW33367   0.473   2.856   6.178  0.1708 -0.3768  0.8786
 7303SOL    HW133368   0.453   2.947   6.199  1.5548  0.4147 -1.2465
 7303SOL    HW233369   0.537   2.860   6.108 -1.9089  2.5746 -0.8311
 7304SOL     OW33370   1.796   4.082   8.619  0.6539 -0.7288  0.6890
 7304SOL    HW133371   1.790   4.019   8.547  1.6319 -0.0444  0.0043
 7304SOL    HW233372   1.723   4.058   8.676  1.2789 -0.3421  1.6480
 7305SOL     OW33373   4.002   0.930   4.838 -0.3828 -0.0882 -0.1928
 7305SOL    HW133374   4.036   0.925   4.748 -0.8680 -0.5141 -0.3513
 7305SOL    HW233375   4.038   1.011   4.875 -1.4697  0.7396 -0.9334
 7306SOL     OW33376   4.074   2.867   4.293 -0.4480 -0.4439 -0.7845
 7306SOL    HW133377   4.053   2.775   4.282 -0.7351 -0.7714  2.4310
 7306SOL    HW233378   4.161   2.884   4.258 -0.0514  0.1213  0.4563
 7307SOL     OW33379   0.394   3.015   1.922  0.1170  0.2765  0.0162
 7307SOL    HW133380   0.382   3.107   1.897 -2.2041 -0.3961 -1.2894
 7307SOL    HW233381   0.302   2.991   1.927  0.2334  0.0206  0.9309
 7308SOL     OW33382   2.235   1.165   8.754  0.3255  0.0928  0.2795
 7308SOL    HW133383   2.291   1.125   8.687  0.9821 -1.1119  1.5524
 7308SOL    HW233384   2.301   1.215   8.801 -1.4260  1.7586  0.9490
 7309SOL     OW33385   0.707   0.280  15.665 -0.6777 -0.1505 -0.6837
 7309SOL    HW133386   0.781   0.331  15.631 -0.4965  1.4277  2.0647
 7309SOL    HW233387   0.699   0.217  15.593 -1.6842 -0.7096 -0.0778
 7310SOL     OW33388   0.347   1.886   2.036  0.8034 -0.2143  0.4633
 7310SOL    HW133389   0.267   1.847   2.070  1.0806  1.6854  3.2729
 7310SOL    HW233390   0.366   1.939   2.113  0.8231  0.6062 -0.1059
 7311SOL     OW33391   3.447   4.265   9.663 -0.5414  0.0501  0.5961
 7311SOL    HW133392   3.388   4.194   9.636 -0.6608  0.4175 -0.1229
 7311SOL    HW233393   3.516   4.214   9.706  0.0930 -1.3016 -2.0137
 7312SOL     OW33394   2.377   4.669   8.587  0.4340 -0.0838 -0.7127
 7312SOL    HW133395   2.345   4.692   8.674  2.0294 -1.7899  0.3341
 7312SOL    HW233396   2.302   4.631   8.542  0.0899  0.8107 -0.8792
 7313SOL     OW33397   3.173   3.253   5.679 -0.2958 -0.6453  0.1388
 7313SOL    HW133398   3.089   3.206   5.677 -0.4043 -0.4660  0.4252
 7313SOL    HW233399   3.159   3.303   5.599  0.8475 -0.1254  0.2687
 7314SOL     OW33400   1.428   0.273  10.802  0.4941  0.0545 -0.0357
 7314SOL    HW133401   1.466   0.214  10.868 -0.1244 -0.5642 -0.2293
 7314SOL    HW233402   1.380   0.217  10.741 -0.4597  0.5841  0.2214
 7315SOL     OW33403   2.467   2.497   2.249 -0.6416 -0.4752  0.1016
 7315SOL    HW133404   2.516   2.416   2.261  2.7853  1.3840 -1.3215
 7315SOL    HW233405   2.407   2.472   2.179 -1.1886 -0.4005  0.5433
 7316SOL     OW33406   1.201   0.110   9.083 -0.2493 -0.2293  0.0660
 7316SOL    HW133407   1.216   0.037   9.024 -0.1539 -1.1713  1.2423
 7316SOL    HW233408   1.174   0.179   9.023  2.3693 -2.0889 -3.2444
 7317SOL     OW33409   0.792   2.040   1.798  0.0104  0.3948  0.1355
 7317SOL    HW133410   0.834   2.050   1.883  1.3513  0.6289 -0.5660
 7317SOL    HW233411   0.712   1.987   1.810  0.8065  0.1410  4.3317
 7318SOL     OW33412   1.651   3.693   7.308 -0.1735 -0.0721  0.3676
 7318SOL    HW133413   1.613   3.629   7.369  2.5705  0.0993  2.2988
 7318SOL    HW233414   1.684   3.635   7.239  1.1430  0.2082  0.7601
 7319SOL     OW33415   2.483   2.029  17.157 -0.0758 -0.3716 -0.8334
 7319SOL    HW133416   2.494   1.977  17.237 -1.8503 -0.5854 -0.7358
 7319SOL    HW233417   2.411   1.987  17.109 -0.3375  1.0736 -1.7161
 7320SOL     OW33418   4.641   1.320   3.428  0.4683 -0.3034 -0.2235
 7320SOL    HW133419   4.623   1.412   3.446 -1.2620 -0.2939 -1.9461
 7320SOL    HW233420   4.669   1.321   3.336  0.8994  2.4621 -0.0759
 7321SOL     OW33421   3.071   1.031   8.231 -0.2256 -0.0132 -0.0325
 7321SOL    HW133422   3.022   1.102   8.190 -0.8292 -1.4280 -1.7339
 7321SOL    HW233423   3.139   1.089   8.265 -0.0617 -0.8709  1.1265
 7322SOL     OW33424   3.543   3.536   8.139 -0.0494  0.0085 -0.3481
 7322SOL    HW133425   3.540   3.488   8.221  2.6252  1.0949  0.3970
 7322SOL    HW233426   3.597   3.611   8.165 -1.4788  0.7471  0.4430
 7323SOL     OW33427   1.341   3.164   4.400 -0.6095 -0.0761  0.1341
 7323SOL    HW133428   1.353   3.188   4.492 -0.0223  2.8889 -0.7160
 7323SOL    HW233429   1.397   3.223   4.350 -1.4753 -0.7241 -1.5991
 7324SOL     OW33430   0.453   0.318   2.996  0.1025 -0.1489 -0.2363
 7324SOL    HW133431   0.477   0.280   3.081  1.0639 -1.2011 -0.9759
 7324SOL    HW233432   0.507   0.396   2.987  1.3825 -0.6211  3.4401
 7325SOL     OW33433   3.799   4.302   7.037  0.1498 -0.6781 -0.1350
 7325SOL    HW133434   3.718   4.255   7.016  0.0839 -0.7313  0.2488
 7325SOL    HW233435   3.822   4.347   6.956 -2.5192 -0.3021 -0.6841
 7326SOL     OW33436   3.422   1.342   8.829 -0.1128 -0.5487 -0.3456
 7326SOL    HW133437   3.371   1.327   8.909 -2.5159  2.8731 -1.2226
 7326SOL    HW233438   3.484   1.270   8.841  1.2062  0.6151 -0.1570
 7327SOL     OW33439   2.233   0.661  17.298 -0.3761 -0.5256 -0.0614
 7327SOL    HW133440   2.277   0.723  17.239 -0.1624 -0.1329  0.5112
 7327SOL    HW233441   2.139   0.678  17.295 -0.3966 -0.6003  0.1558
 7328SOL     OW33442   0.650   1.112  12.857 -0.6578  0.0257  0.2133
 7328SOL    HW133443   0.642   1.073  12.945  1.9454  0.5306  0.6494
 7328SOL    HW233444   0.729   1.067  12.827 -0.2492  0.5606  0.5038
 7329SOL     OW33445   0.651   3.260   8.071  0.0015 -0.2890 -0.4510
 7329SOL    HW133446   0.561   3.285   8.093 -0.4031 -0.1051 -2.2681
 7329SOL    HW233447   0.649   3.303   7.985 -1.5692  2.6337  1.0578
 7330SOL     OW33448   0.318   2.116   8.317  0.4182 -0.4764  0.0601
 7330SOL    HW133449   0.305   2.211   8.309 -0.0033 -0.5380  0.0512
 7330SOL    HW233450   0.262   2.085   8.389 -0.6127 -1.7310 -1.2905
 7331SOL     OW33451   4.278   1.459   6.517  0.1921  0.0511  0.3434
 7331SOL    HW133452   4.218   1.441   6.590 -1.9970  0.8068 -1.2698
 7331SOL    HW233453   4.222   1.462   6.440  1.6851 -0.4891 -0.7652
 7332SOL     OW33454   4.710   2.515  16.473 -0.2468 -0.0916  0.0879
 7332SOL    HW133455   0.021   2.544  16.388 -0.6066 -3.1481 -1.0840
 7332SOL    HW233456   4.616   2.511  16.457  0.0094  1.3446 -1.8879
 7333SOL     OW33457   1.566   4.455   2.478  0.0922  0.3129  0.2543
 7333SOL    HW133458   1.541   4.433   2.389  0.7225  1.7036 -0.2701
 7333SOL    HW233459   1.609   4.373   2.502  2.9496  1.6985 -0.0109
 7334SOL     OW33460   2.697   0.849  15.797 -0.3053 -0.0321 -0.1958
 7334SOL    HW133461   2.746   0.893  15.866 -1.6506  1.1829 -0.0161
 7334SOL    HW233462   2.672   0.764  15.834 -0.5358  0.1620  0.0941
 7335SOL     OW33463   0.414   3.666  16.951  0.1851 -0.1805 -0.6822
 7335SOL    HW133464   0.367   3.605  17.009  0.6569  0.5782  0.4869
 7335SOL    HW233465   0.500   3.651  16.989  0.0629 -1.1263 -0.7670
 7336SOL     OW33466   1.363   0.140  12.374 -0.0674 -0.3689  0.3281
 7336SOL    HW133467   1.336   0.107  12.460 -0.0753 -1.0159  0.0800
 7336SOL    HW233468   1.281   0.186  12.355 -1.2714 -2.3354  0.7647
 7337SOL     OW33469   3.815   0.997   4.448  0.0827  0.1866 -0.2339
 7337SOL    HW133470   3.896   1.031   4.412 -0.0481  3.6702  2.7511
 7337SOL    HW233471   3.803   1.062   4.517  0.7330 -1.2632  1.2409
 7338SOL     OW33472   1.009   4.280   4.685  0.2774 -0.2530 -0.2273
 7338SOL    HW133473   1.104   4.274   4.695  0.1796 -1.1434  0.1337
 7338SOL    HW233474   0.991   4.363   4.730 -0.6373 -0.0147 -1.0338
 7339SOL     OW33475   4.626   2.257   5.144  0.4683  0.3061  0.2179
 7339SOL    HW133476   4.543   2.213   5.160  0.9720 -1.1683 -1.1957
 7339SOL    HW233477   4.596   2.328   5.088  2.4327  1.3309  0.4444
 7340SOL     OW33478   2.798   4.397   2.080  0.4905  0.0977  0.0416
 7340SOL    HW133479   2.832   4.358   2.160 -0.0613  1.7208  1.0518
 7340SOL    HW233480   2.874   4.445   2.048 -0.7447  1.1443 -1.3360
 7341SOL     OW33481   2.396   4.547   3.883  0.0590 -0.1607  0.0949
 7341SOL    HW133482   2.469   4.562   3.822  0.9217  1.4858  1.5475
 7341SOL    HW233483   2.318   4.551   3.828  2.3339  3.3678 -2.8368
 7342SOL     OW33484   2.143   0.516   5.664 -0.2971  0.4338  0.3287
 7342SOL    HW133485   2.212   0.502   5.729  1.2542  1.8609 -1.0234
 7342SOL    HW233486   2.119   0.429   5.632  1.3989 -0.4086  1.3745
 7343SOL     OW33487   0.880   4.409  12.843 -0.1604  0.5169  0.4041
 7343SOL    HW133488   0.922   4.382  12.924 -1.0677  0.9764  1.0217
 7343SOL    HW233489   0.815   4.471  12.877 -4.1451 -1.9812 -2.5577
 7344SOL     OW33490   2.994   3.453  12.220  0.5294  0.1475  0.6689
 7344SOL    HW133491   2.934   3.517  12.259 -1.9879 -1.9767  0.2987
 7344SOL    HW233492   2.932   3.381  12.207  1.4978 -1.0886  2.8402
 7345SOL     OW33493   0.677   1.692   3.465 -0.0263  0.0437  0.2029
 7345SOL    HW133494   0.647   1.704   3.375  4.4233  1.4082 -1.0526
 7345SOL    HW233495   0.615   1.747   3.514 -0.0789  1.3737 -1.3534
 7346SOL     OW33496   2.549   3.535  12.909  0.5642 -0.0650  0.5147
 7346SOL    HW133497   2.638   3.517  12.938  0.8658 -0.9905 -0.9983
 7346SOL    HW233498   2.504   3.463  12.954  1.8270 -1.2037 -0.0377
 7347SOL     OW33499   3.488   0.387  12.764 -0.0544 -0.1527 -0.3588
 7347SOL    HW133500   3.423   0.402  12.832  0.3428  0.7414 -0.1683
 7347SOL    HW233501   3.458   0.427  12.683  1.0415 -1.5206 -1.4554
 7348SOL     OW33502   4.205   4.634   5.694  0.3803  0.2575  0.1851
 7348SOL    HW133503   4.155   4.682   5.759  0.6438  2.7190 -1.4305
 7348SOL    HW233504   4.290   4.662   5.728  1.0319  0.2815 -1.4403
 7349SOL     OW33505   1.032   3.007  11.687  0.2315  0.1105 -0.0300
 7349SOL    HW133506   1.036   2.913  11.707 -0.2612  0.2567  0.7518
 7349SOL    HW233507   1.085   3.011  11.607 -2.3555  0.7927 -1.6951
 7350SOL     OW33508   4.371   2.627   5.483  0.0113 -0.0688  0.2392
 7350SOL    HW133509   4.459   2.633   5.519 -0.3304  1.8663  0.7158
 7350SOL    HW233510   4.321   2.692   5.531 -1.2592 -1.7794  1.2064
 7351SOL     OW33511   4.550   1.672   2.743 -0.6437 -0.5173  0.0053
 7351SOL    HW133512   4.456   1.657   2.749 -0.6889  0.4031  1.6729
 7351SOL    HW233513   4.550   1.749   2.685  3.0836 -1.3774 -1.1267
 7352SOL     OW33514   4.118   4.642   2.501  0.3592 -0.0219 -0.4426
 7352SOL    HW133515   4.172   4.587   2.444  0.9400  0.9044 -0.7789
 7352SOL    HW233516   4.144   4.612   2.588 -1.7173  1.9405  0.8527
 7353SOL     OW33517   0.016   0.377   7.382 -0.4692 -0.4853 -0.0608
 7353SOL    HW133518   0.033   0.307   7.319  3.6385 -0.4448  0.9774
 7353SOL    HW233519   4.648   0.394   7.357 -0.3953  1.3533  0.9784
 7354SOL     OW33520   2.038   2.508   2.319  0.4879  0.0446 -0.1679
 7354SOL    HW133521   2.113   2.512   2.379  1.6145  2.5016 -1.7089
 7354SOL    HW233522   1.988   2.445   2.370  0.9339 -2.0238 -2.3281
 7355SOL     OW33523   0.124   3.749   2.245  0.4081 -0.1170  0.1509
 7355SOL    HW133524   0.144   3.760   2.152  1.1321 -1.6153  0.1240
 7355SOL    HW233525   0.134   3.654   2.251 -1.1501 -0.2883 -0.1895
 7356SOL     OW33526   1.910   4.562   1.665 -0.2023  0.0411 -1.1689
 7356SOL    HW133527   1.946   4.483   1.624 -1.8171 -0.7178 -1.1202
 7356SOL    HW233528   1.959   4.574   1.746  0.1329  2.0389 -1.6827
 7357SOL     OW33529   3.289   3.882   4.173 -0.2535 -0.2654 -0.3159
 7357SOL    HW133530   3.369   3.834   4.151  0.9753  1.6205  0.0896
 7357SOL    HW233531   3.324   3.970   4.165  0.0535 -0.2559  1.2122
 7358SOL     OW33532   2.074   1.220  10.043  0.1074  0.3856 -0.4358
 7358SOL    HW133533   1.986   1.252  10.063  0.0918 -0.4675  0.8511
 7358SOL    HW233534   2.088   1.273   9.964 -1.5890  1.0762 -0.2797
 7359SOL     OW33535   0.120   2.003   7.952 -0.0464  0.5983 -0.2624
 7359SOL    HW133536   0.208   2.006   7.992  0.2694  0.5541 -0.9532
 7359SOL    HW233537   0.071   2.065   8.006  0.8273 -0.2741  1.5396
 7360SOL     OW33538   0.539   1.559  14.652 -0.0349 -0.0555  0.3999
 7360SOL    HW133539   0.624   1.517  14.636 -0.0674  0.0194  0.0349
 7360SOL    HW233540   0.490   1.489  14.695  0.3376  0.8863  2.3826
 7361SOL     OW33541   2.934   4.423   0.799  0.4449  1.0299  0.1519
 7361SOL    HW133542   2.849   4.459   0.823 -0.8741 -1.1551 -1.2777
 7361SOL    HW233543   2.937   4.438   0.705  1.7602  1.8256  0.3151
 7362SOL     OW33544   4.471   1.435   4.630 -0.0910  0.1145  0.1630
 7362SOL    HW133545   4.495   1.425   4.538  0.2873 -0.9799  0.3878
 7362SOL    HW233546   4.469   1.345   4.662 -1.2359  0.5525  1.3555
 7363SOL     OW33547   2.732   4.160   2.527 -0.0498  0.1212 -0.3289
 7363SOL    HW133548   2.699   4.162   2.437  1.1701 -1.6064 -0.8316
 7363SOL    HW233549   2.653   4.143   2.579 -0.0975  3.7627  0.8061
 7364SOL     OW33550   1.241   3.872   4.775 -0.4231 -0.0487 -0.3602
 7364SOL    HW133551   1.150   3.878   4.746 -1.3404  0.2783  2.5947
 7364SOL    HW233552   1.241   3.779   4.799 -0.6900 -0.2473 -1.1383
 7365SOL     OW33553   0.442   0.821  11.366 -0.0435 -0.4125 -0.0882
 7365SOL    HW133554   0.490   0.904  11.366  0.0022 -0.4348 -0.9849
 7365SOL    HW233555   0.398   0.833  11.282  1.0752 -0.9467 -0.7464
 7366SOL     OW33556   0.299   1.475  11.478  0.1794  0.0396 -0.4358
 7366SOL    HW133557   0.300   1.528  11.557 -1.6203  0.5924 -0.7670
 7366SOL    HW233558   0.348   1.539  11.427  1.2656 -0.4447  0.0135
 7367SOL     OW33559   0.648   3.717   5.824  0.2007  0.0151  0.3244
 7367SOL    HW133560   0.723   3.661   5.806  0.4611  0.2919  0.5411
 7367SOL    HW233561   0.672   3.799   5.782  0.8652 -0.9961 -1.2349
 7368SOL     OW33562   3.638   3.236   3.199  0.9387 -0.1361 -0.2331
 7368SOL    HW133563   3.698   3.310   3.197  1.7999 -0.8439 -0.4733
 7368SOL    HW233564   3.700   3.164   3.210  3.0707  2.0024  1.7843
 7369SOL     OW33565   4.535   2.603   9.646 -0.5593 -0.0165  0.0859
 7369SOL    HW133566   4.455   2.644   9.679 -0.9937 -0.6538 -0.1947
 7369SOL    HW233567   4.532   2.516   9.686 -0.9128 -1.1681 -2.5068
 7370SOL     OW33568   3.899   1.304  16.885 -0.7531 -0.2324 -0.0102
 7370SOL    HW133569   3.975   1.261  16.845 -0.8979  0.5319 -1.1125
 7370SOL    HW233570   3.889   1.385  16.836  5.1879  0.2215 -0.4458
 7371SOL     OW33571   1.989   3.178   2.861 -0.6656 -0.3509 -0.1352
 7371SOL    HW133572   2.048   3.186   2.935  1.6888 -0.1211 -2.0416
 7371SOL    HW233573   2.024   3.250   2.809  0.2880 -0.7110  0.0075
 7372SOL     OW33574   1.787   0.181  12.798 -0.3321 -0.2990  0.0236
 7372SOL    HW133575   1.707   0.175  12.852  0.7394 -1.1370  1.5279
 7372SOL    HW233576   1.836   0.234  12.861  3.2696 -1.8223 -1.5378
 7373SOL     OW33577   3.925   0.888   6.632  0.2455 -0.5406  0.0071
 7373SOL    HW133578   3.896   0.832   6.704  0.6973 -0.5633  0.1720
 7373SOL    HW233579   4.021   0.884   6.641  0.3783 -0.5540 -1.4171
 7374SOL     OW33580   0.479   2.643   4.786  0.6230  0.6766 -0.2523
 7374SOL    HW133581   0.573   2.655   4.799  0.4957  2.8064 -1.4156
 7374SOL    HW233582   0.465   2.548   4.780  0.1352  0.6243  1.8563
 7375SOL     OW33583   3.159   3.801  15.473 -0.0794 -0.4531 -0.2649
 7375SOL    HW133584   3.068   3.771  15.465 -0.6833  0.7596  2.1423
 7375SOL    HW233585   3.175   3.820  15.381  1.7649  1.3848  0.4505
 7376SOL     OW33586   3.737   3.682   2.387 -0.7389  0.2390 -0.2920
 7376SOL    HW133587   3.792   3.758   2.366 -0.9021  0.5085  0.2372
 7376SOL    HW233588   3.793   3.638   2.451 -1.4752 -0.4953 -0.1587
 7377SOL     OW33589   0.091   3.742  17.063  0.2217  0.1330 -0.1307
 7377SOL    HW133590   0.062   3.827  17.031  1.8783  0.5771 -0.4367
 7377SOL    HW233591   0.090   3.692  16.981 -0.9536 -0.5750  0.2982
 7378SOL     OW33592   0.683   0.382  12.778 -0.0744  0.3885 -0.7108
 7378SOL    HW133593   0.624   0.448  12.814 -0.7933 -0.8036  0.3170
 7378SOL    HW233594   0.771   0.421  12.779 -0.7287  1.8252  0.7539
 7379SOL     OW33595   2.689   1.324  16.236 -0.6049  0.5278 -0.3136
 7379SOL    HW133596   2.639   1.394  16.276 -0.5493  0.0660  0.5704
 7379SOL    HW233597   2.695   1.357  16.147 -2.7554  0.7154 -0.3881
 7380SOL     OW33598   3.788   3.410  10.661 -0.1354  0.6983  0.0575
 7380SOL    HW133599   3.763   3.318  10.654  1.1868  0.4119 -0.7584
 7380SOL    HW233600   3.712   3.444  10.709 -1.0093  0.2916 -1.0261
 7381SOL     OW33601   1.960   4.269   4.672 -0.5080  0.5956  0.2089
 7381SOL    HW133602   2.044   4.254   4.628 -0.1398 -3.3232  2.1628
 7381SOL    HW233603   1.961   4.364   4.684 -3.4531  0.5907  0.4932
 7382SOL     OW33604   2.840   4.677   8.264  0.2406 -0.3061 -0.3304
 7382SOL    HW133605   2.898   4.638   8.199  0.3323  0.3804 -0.6578
 7382SOL    HW233606   2.772   4.610   8.277 -1.4928  1.8396  1.7543
 7383SOL     OW33607   4.352   0.889   5.717 -0.1059 -0.4188 -0.5193
 7383SOL    HW133608   4.367   0.957   5.783 -0.5557 -0.5359 -0.2895
 7383SOL    HW233609   4.338   0.934   5.634 -0.9238  2.3044  1.0875
 7384SOL     OW33610   3.980   3.001   3.893 -0.1403  0.3290  0.0687
 7384SOL    HW133611   3.941   2.995   3.980 -1.2133 -0.3524 -0.4631
 7384SOL    HW233612   3.903   2.973   3.844  0.6101 -1.1038 -0.2760
 7385SOL     OW33613   0.834   3.094  16.036  0.5393 -0.1115  0.2291
 7385SOL    HW133614   0.866   3.173  16.079  0.6114 -0.0378  0.0371
 7385SOL    HW233615   0.747   3.085  16.077  0.1911 -0.5168 -0.5963
 7386SOL     OW33616   1.348   2.596   6.686 -0.5082  0.2257  0.3390
 7386SOL    HW133617   1.285   2.629   6.622 -0.2885  1.5276  0.7865
 7386SOL    HW233618   1.316   2.506   6.689 -0.2654  0.1941  2.0210
 7387SOL     OW33619   2.244   1.475   8.304 -0.4374 -0.4211  0.4689
 7387SOL    HW133620   2.285   1.501   8.387  2.4843 -1.2792 -0.7042
 7387SOL    HW233621   2.296   1.534   8.249  0.6372 -1.4791  0.3655
 7388SOL     OW33622   2.102   2.233   6.616  0.6262  0.5373  0.1287
 7388SOL    HW133623   2.136   2.230   6.527 -2.9132  0.6593 -1.2398
 7388SOL    HW233624   2.177   2.203   6.667  0.5660 -1.2393 -0.8352
 7389SOL     OW33625   0.467   0.594   6.803  0.1855 -0.0670 -0.8139
 7389SOL    HW133626   0.466   0.621   6.894  0.6201 -1.7926 -0.2836
 7389SOL    HW233627   0.507   0.508   6.819 -0.7017 -0.5211 -1.0667
 7390SOL     OW33628   1.976   4.234   3.890 -0.1319  0.2578  0.0180
 7390SOL    HW133629   1.944   4.163   3.945  2.9040 -1.2113 -0.1165
 7390SOL    HW233630   1.960   4.310   3.947  2.5662  1.1226 -0.3690
 7391SOL     OW33631   4.710   1.463   3.768 -0.1388  0.2348  0.2378
 7391SOL    HW133632   0.045   1.505   3.704  0.2460  0.3344  0.6501
 7391SOL    HW233633   0.010   1.371   3.753  0.8101  0.4666  0.2396
 7392SOL     OW33634   1.752   3.256   6.274  0.0185 -0.4400 -0.7195
 7392SOL    HW133635   1.726   3.238   6.365 -0.4302 -1.8723 -1.1393
 7392SOL    HW233636   1.843   3.226   6.274  0.3277  0.4669  0.2639
 7393SOL     OW33637   1.880   0.745   7.083 -0.6483 -0.1508 -0.0321
 7393SOL    HW133638   1.915   0.663   7.050  1.8951  0.7430  0.4126
 7393SOL    HW233639   1.826   0.711   7.155 -0.4503 -1.8127 -0.6652
 7394SOL     OW33640   2.854   3.696   8.643 -0.3636  0.4647 -0.1313
 7394SOL    HW133641   2.937   3.738   8.667 -0.8442  1.2822  0.1008
 7394SOL    HW233642   2.824   3.664   8.729  0.9164  0.4796  0.3246
 7395SOL     OW33643   2.836   4.378   1.225 -0.0179 -0.4473 -0.1853
 7395SOL    HW133644   2.866   4.338   1.143  1.2246  1.1374 -0.5068
 7395SOL    HW233645   2.914   4.429   1.248  1.7729 -1.3548 -4.1714
 7396SOL     OW33646   3.969   4.002   8.332 -0.2996  0.6079 -0.4846
 7396SOL    HW133647   3.900   3.969   8.389  1.5661 -0.6544  1.0503
 7396SOL    HW233648   3.953   4.096   8.335 -1.3312  0.3836  1.3175
 7397SOL     OW33649   3.266   1.266  16.751  0.2904 -0.7297 -0.1260
 7397SOL    HW133650   3.242   1.217  16.830 -3.4841  0.6463 -0.3813
 7397SOL    HW233651   3.230   1.205  16.687 -0.4785  1.6870 -2.0074
 7398SOL     OW33652   1.860   2.026   4.819  0.0666 -0.0681  0.1148
 7398SOL    HW133653   1.793   2.066   4.875  0.4931 -0.0990  0.6470
 7398SOL    HW233654   1.877   1.944   4.865 -1.2358 -0.4454 -0.0817
 7399SOL     OW33655   2.058   2.560   7.089  0.2010 -0.1889  0.2302
 7399SOL    HW133656   2.026   2.472   7.071 -1.1720  0.5891 -1.0657
 7399SOL    HW233657   1.975   2.606   7.101  0.6234  0.6790 -0.1922
 7400SOL     OW33658   3.145   0.979   3.231  0.4196  0.2652 -0.3363
 7400SOL    HW133659   3.167   0.889   3.209 -1.0093 -0.2972  0.5766
 7400SOL    HW233660   3.138   1.010   3.141 -0.7829  1.6049  0.2113
 7401SOL     OW33661   4.442   1.760   2.010 -0.2433  0.6384  0.0708
 7401SOL    HW133662   4.430   1.665   2.012  1.3727  0.4172 -1.1940
 7401SOL    HW233663   4.351   1.781   1.988 -1.2600 -3.6700  0.1279
 7402SOL     OW33664   3.515   1.952   5.701 -0.2393 -0.1425 -0.5402
 7402SOL    HW133665   3.433   1.926   5.742  0.1467 -2.4211 -1.1930
 7402SOL    HW233666   3.580   1.902   5.751 -0.8251 -1.0807 -0.7193
 7403SOL     OW33667   1.714   2.306   6.348 -0.1187 -1.0837  0.2699
 7403SOL    HW133668   1.758   2.346   6.274  0.3507  0.2920  1.2965
 7403SOL    HW233669   1.648   2.372   6.366  0.3702 -0.9054  1.4607
 7404SOL     OW33670   0.606   2.851   9.264 -0.7212  0.0592 -0.3047
 7404SOL    HW133671   0.539   2.840   9.331 -0.1259  0.8718  0.4200
 7404SOL    HW233672   0.561   2.851   9.180  0.6410 -1.1715 -1.0525
 7405SOL     OW33673   3.311   3.169  14.926 -0.4022  0.7257  0.3589
 7405SOL    HW133674   3.249   3.183  14.854 -1.6839  2.7372  1.8799
 7405SOL    HW233675   3.251   3.131  14.990 -0.7035 -0.0844 -0.4027
 7406SOL     OW33676   4.276   4.142   0.958  0.1701 -0.0631  0.1704
 7406SOL    HW133677   4.332   4.180   0.890 -0.5223  0.9100  0.1493
 7406SOL    HW233678   4.208   4.201   0.991  0.6758  0.7903 -0.2991
 7407SOL     OW33679   0.016   0.398   2.377 -0.1287  0.4036 -0.0084
 7407SOL    HW133680   0.022   0.306   2.402 -2.2343  0.3289  0.1948
 7407SOL    HW233681   0.061   0.440   2.450 -1.2440  0.4714  0.6437
 7408SOL     OW33682   2.559   2.905   2.366 -0.8815 -0.1374 -0.8831
 7408SOL    HW133683   2.484   2.905   2.306 -2.2904 -2.5156  0.9219
 7408SOL    HW233684   2.584   2.813   2.367  2.4118  0.7616 -0.2999
 7409SOL     OW33685   4.506   3.343   2.615 -0.0389 -0.1226  0.6801
 7409SOL    HW133686   4.560   3.400   2.560 -1.6032 -0.5469 -1.2986
 7409SOL    HW233687   4.529   3.261   2.571  0.2961 -0.8794  2.2738
 7410SOL     OW33688   3.702   2.043   8.846  0.0166 -0.2906 -0.3346
 7410SOL    HW133689   3.698   1.947   8.844  2.2142 -0.3988  0.6824
 7410SOL    HW233690   3.718   2.051   8.940  0.8327  0.3510 -0.5294
 7411SOL     OW33691   0.379   3.248   1.791  0.0297  0.3937  0.3423
 7411SOL    HW133692   0.405   3.322   1.735 -0.1224  0.8240  0.8408
 7411SOL    HW233693   0.285   3.237   1.772 -0.2035  0.6058  1.3953
 7412SOL     OW33694   2.895   3.533   4.546 -0.8011 -0.3861  0.0960
 7412SOL    HW133695   2.958   3.506   4.479  2.5758  0.1072  3.0685
 7412SOL    HW233696   2.943   3.591   4.606  0.3910 -2.2249  0.9284
 7413SOL     OW33697   0.532   3.762   6.227 -0.5351  0.4379 -0.1412
 7413SOL    HW133698   0.450   3.759   6.278 -0.9715  0.0672 -0.8679
 7413SOL    HW233699   0.519   3.839   6.172 -1.1270  0.8942  0.6355
 7414SOL     OW33700   1.118   3.244   0.096  1.0162 -0.2191  0.0099
 7414SOL    HW133701   1.125   3.186   0.020 -1.9057 -1.3551  0.5988
 7414SOL    HW233702   1.154   3.186   0.162 -1.1269 -2.3065 -0.6720
 7415SOL     OW33703   3.099   2.088   7.145  0.0722 -0.2999  0.1345
 7415SOL    HW133704   3.106   2.128   7.232 -1.0103 -1.0458  0.5615
 7415SOL    HW233705   3.033   2.021   7.160  0.6851 -0.7021  0.9935
 7416SOL     OW33706   0.653   4.358   4.582  0.3762 -0.2324  0.4980
 7416SOL    HW133707   0.677   4.451   4.577  2.1198 -0.7143 -0.1918
 7416SOL    HW233708   0.665   4.337   4.675 -1.2607  0.9397  0.9815
 7417SOL     OW33709   0.205   0.166   6.174 -0.3998 -0.5299 -0.1764
 7417SOL    HW133710   0.138   0.231   6.195 -2.6624 -2.2835 -2.0081
 7417SOL    HW233711   0.189   0.167   6.080 -0.1799 -1.0009 -0.2188
 7418SOL     OW33712   0.227   2.099   1.398  0.2666  0.4890  0.5101
 7418SOL    HW133713   0.254   2.065   1.312  1.0418  2.4407 -0.0131
 7418SOL    HW233714   0.163   2.159   1.361  0.7516  0.2987 -0.6578
 7419SOL     OW33715   3.857   4.157   2.522 -0.1389  0.7756 -0.4344
 7419SOL    HW133716   3.907   4.187   2.445 -2.9352 -2.4845 -3.5285
 7419SOL    HW233717   3.791   4.097   2.488 -0.0019  0.8210 -0.7875
 7420SOL     OW33718   4.676   2.019  15.867 -0.2755 -0.0441 -0.1446
 7420SOL    HW133719   0.037   2.019  15.915 -0.2615 -1.4140 -0.1750
 7420SOL    HW233720   4.636   1.954  15.924  0.7093  0.1275  0.7563
 7421SOL     OW33721   3.041   2.934  17.179 -0.0721 -0.3516 -0.3812
 7421SOL    HW133722   3.048   2.901  17.269  0.4317  0.6912 -0.0245
 7421SOL    HW233723   3.092   3.015  17.184 -1.0305  0.1465  1.3026
 7422SOL     OW33724   0.728   0.378  10.321  0.4800  0.3606 -0.3138
 7422SOL    HW133725   0.709   0.362  10.414  3.0871  0.4254  0.2245
 7422SOL    HW233726   0.808   0.430  10.324 -1.0952  2.7893 -0.4392
 7423SOL     OW33727   2.989   4.030   8.936 -0.6125 -0.0070 -0.2495
 7423SOL    HW133728   3.060   4.031   9.000 -1.4957  0.6212  0.7138
 7423SOL    HW233729   3.000   4.102   8.873  0.8104  0.4113  0.4584
 7424SOL     OW33730   3.381   2.682   5.403 -0.6867  0.1111 -0.0266
 7424SOL    HW133731   3.362   2.775   5.413  1.2230  0.3671  1.3516
 7424SOL    HW233732   3.395   2.662   5.495 -1.9606  1.5109  0.4639
 7425SOL     OW33733   1.706   3.699  17.566  0.2507 -0.1703  0.4638
 7425SOL    HW133734   1.615   3.728  17.557  0.2790  0.0681  0.9682
 7425SOL    HW233735   1.742   3.786  17.587  1.8620 -0.6972 -0.1003
 7426SOL     OW33736   4.026   0.873   3.228  0.6221  0.0628  0.0922
 7426SOL    HW133737   4.036   0.947   3.169  1.3465 -0.6272 -0.6371
 7426SOL    HW233738   4.111   0.873   3.273  0.4574  0.0240  0.4075
 7427SOL     OW33739   3.862   0.905   7.900 -0.0499  0.0527 -0.3020
 7427SOL    HW133740   3.802   0.972   7.934  0.1731 -0.9329  2.0660
 7427SOL    HW233741   3.947   0.947   7.915  0.8215 -1.4996 -0.9502
 7428SOL     OW33742   1.410   1.015   7.873 -0.1349  0.5004  0.0605
 7428SOL    HW133743   1.421   1.107   7.897 -0.3310  0.6982 -0.6034
 7428SOL    HW233744   1.400   1.021   7.778 -0.4881 -1.5249 -0.0292
 7429SOL     OW33745   4.214   1.202   7.184 -0.3184  0.0673 -0.2992
 7429SOL    HW133746   4.172   1.131   7.135 -1.0236 -0.7971  1.5691
 7429SOL    HW233747   4.282   1.148   7.224 -1.2331 -0.8121  0.0565
 7430SOL     OW33748   1.515   3.703  11.288  0.1885 -0.0706  0.3058
 7430SOL    HW133749   1.507   3.795  11.259  3.1651 -0.2319 -1.1027
 7430SOL    HW233750   1.610   3.694  11.288  0.3672  1.6816  0.1687
 7431SOL     OW33751   0.602   3.620   1.314  0.5239 -0.0024 -0.0583
 7431SOL    HW133752   0.619   3.703   1.270 -1.4303 -0.2486 -1.2499
 7431SOL    HW233753   0.511   3.604   1.290  1.0920 -1.8424 -0.9479
 7432SOL     OW33754   2.063   0.401   7.272  0.5768  0.0356  0.5865
 7432SOL    HW133755   1.988   0.459   7.257 -1.3578 -2.1623  1.8784
 7432SOL    HW233756   2.041   0.366   7.358 -1.1688 -0.0483  0.0995
 7433SOL     OW33757   3.112   3.622   1.690 -0.6451 -0.0982 -0.1752
 7433SOL    HW133758   3.077   3.546   1.643 -0.5574  0.0777 -0.5239
 7433SOL    HW233759   3.147   3.672   1.616 -0.4634 -0.3970 -0.2965
 7434SOL     OW33760   3.752   2.974   3.211 -0.2777  0.2666  0.3255
 7434SOL    HW133761   3.772   2.884   3.188  0.9607  0.0831  2.1187
 7434SOL    HW233762   3.819   2.992   3.277 -1.7153 -1.1745  2.1769
 7435SOL     OW33763   1.043   1.900   3.273  0.2877 -0.5829  0.6477
 7435SOL    HW133764   1.030   1.843   3.349 -0.1845 -1.5916 -0.1775
 7435SOL    HW233765   1.094   1.974   3.306  1.1558 -0.6988 -0.4387
 7436SOL     OW33766   3.586   3.081   3.945 -0.2296  0.1636 -0.7201
 7436SOL    HW133767   3.605   3.034   4.026 -1.9504  1.3403  0.3626
 7436SOL    HW233768   3.649   3.035   3.889 -0.2013 -0.0434 -0.5145
 7437SOL     OW33769   2.481   0.871   6.167 -0.3524  0.3264  0.0640
 7437SOL    HW133770   2.406   0.815   6.190  0.4168  0.3297  2.5439
 7437SOL    HW233771   2.528   0.882   6.249  0.1738 -1.8737  0.0599
 7438SOL     OW33772   1.670   3.967  12.013  0.3895  0.2487  0.1651
 7438SOL    HW133773   1.702   3.995  12.098  0.2418  3.4033 -0.8321
 7438SOL    HW233774   1.705   3.878  12.016  0.2099  0.1837  0.3083
 7439SOL     OW33775   1.911   4.056   4.904 -0.0189 -0.0277 -0.1001
 7439SOL    HW133776   1.913   4.114   4.828  0.7790 -0.3998 -0.3653
 7439SOL    HW233777   2.000   4.068   4.938 -0.5415  0.5080  1.0704
 7440SOL     OW33778   1.370   0.830   3.589  0.5110 -0.3908  0.0948
 7440SOL    HW133779   1.463   0.810   3.583  0.4045 -1.0764  0.7314
 7440SOL    HW233780   1.367   0.844   3.684 -1.7743 -1.6388  0.2046
 7441SOL     OW33781   0.334   1.973   0.652  0.1053  0.1308 -0.3599
 7441SOL    HW133782   0.254   2.007   0.693  0.0138  0.1876 -0.5825
 7441SOL    HW233783   0.353   1.897   0.708 -0.3060  0.5943  0.4106
 7442SOL     OW33784   3.794   4.414   6.748  0.4761  0.2564 -0.1467
 7442SOL    HW133785   3.877   4.385   6.709 -0.4683 -0.3557 -1.6995
 7442SOL    HW233786   3.757   4.473   6.682 -0.6663  0.5244  0.7377
 7443SOL     OW33787   0.314   1.717   7.429 -0.2046 -0.5312 -0.0384
 7443SOL    HW133788   0.387   1.676   7.383 -1.1381 -0.0008 -2.0173
 7443SOL    HW233789   0.281   1.763   7.352 -1.2886  0.6439  1.1258
 7444SOL     OW33790   2.931   1.286   2.727  0.2979 -0.9770 -0.7020
 7444SOL    HW133791   2.972   1.308   2.644  2.4834 -4.6379 -0.5967
 7444SOL    HW233792   2.879   1.216   2.687 -1.6976 -0.1820  0.5162
 7445SOL     OW33793   3.002   2.596   4.979  0.4663 -0.0700 -0.2574
 7445SOL    HW133794   3.048   2.627   5.057 -2.3779 -0.7398  1.6833
 7445SOL    HW233795   2.992   2.670   4.919 -0.5996  0.5232  0.6470
 7446SOL     OW33796   3.531   4.457   7.386  0.0874 -0.3016 -0.4257
 7446SOL    HW133797   3.460   4.514   7.356  0.1832 -0.6080 -1.2393
 7446SOL    HW233798   3.591   4.457   7.311 -1.0246 -0.9747 -1.3114
 7447SOL     OW33799   0.323   1.734   5.209  0.1747 -0.0233  0.7332
 7447SOL    HW133800   0.326   1.639   5.196  2.9073  0.2920 -0.7362
 7447SOL    HW233801   0.389   1.742   5.278 -0.4459  1.5736  1.1408
 7448SOL     OW33802   3.821   0.499   0.426 -0.5439 -0.2161 -0.7691
 7448SOL    HW133803   3.820   0.438   0.352 -0.3691 -0.6058 -0.4506
 7448SOL    HW233804   3.812   0.580   0.376  0.4798  0.5878  0.3378
 7449SOL     OW33805   0.344   4.680   5.401  0.1811 -0.5660  0.2076
 7449SOL    HW133806   0.439   4.665   5.407  0.5341  2.0645  1.4591
 7449SOL    HW233807   0.314   4.605   5.351 -0.0590 -0.0209 -0.4686
 7450SOL     OW33808   0.327   0.108   5.095  0.5009 -0.2298  0.8811
 7450SOL    HW133809   0.276   0.082   5.018  1.7622 -0.3131  0.0558
 7450SOL    HW233810   0.320   0.034   5.156  1.1177 -0.3683  0.7879
 7451SOL     OW33811   4.487   2.144   7.074  0.0543 -0.6150  0.4880
 7451SOL    HW133812   4.560   2.197   7.041  0.6512 -2.0283 -0.4774
 7451SOL    HW233813   4.458   2.097   6.996 -1.1770  0.8924  0.0324
 7452SOL     OW33814   3.695   4.006  17.518  0.0498 -0.9584 -0.0135
 7452SOL    HW133815   3.605   4.002  17.483  0.2250  1.5311 -0.7142
 7452SOL    HW233816   3.738   3.924  17.494  0.9639  0.4426 -3.1059
 7453SOL     OW33817   4.562   4.498   6.708 -0.1720 -0.4087  0.2767
 7453SOL    HW133818   4.561   4.594   6.706  2.2705 -0.3771  0.7089
 7453SOL    HW233819   4.567   4.475   6.615  1.4509  0.4032  0.1734
 7454SOL     OW33820   3.013   1.756   6.873 -0.6228 -0.1809 -0.2224
 7454SOL    HW133821   3.059   1.686   6.920  0.1606 -0.2465 -1.0926
 7454SOL    HW233822   3.082   1.820   6.852 -3.2820  3.0939  0.9599
 7455SOL     OW33823   1.876   3.000   5.727  0.2164 -0.0889 -0.2148
 7455SOL    HW133824   1.882   2.949   5.808  1.7260  0.4935  0.0239
 7455SOL    HW233825   1.782   3.014   5.718  0.1316 -0.5083 -0.0109
 7456SOL     OW33826   1.212   1.606  11.634 -0.2148  0.4827 -0.2801
 7456SOL    HW133827   1.287   1.586  11.578  0.1182  0.4300  0.1844
 7456SOL    HW233828   1.138   1.567  11.588  0.7292 -0.4682 -1.0065
 7457SOL     OW33829   1.973   1.908   1.635  0.4248  0.3141  0.3453
 7457SOL    HW133830   1.955   1.956   1.554 -4.4317 -1.0798  0.6030
 7457SOL    HW233831   1.918   1.945   1.704  2.2323 -0.3870  2.1757
 7458SOL     OW33832   1.183   4.373   3.094  0.0235  0.1052 -0.3165
 7458SOL    HW133833   1.128   4.296   3.104 -0.3556 -0.0399 -3.4891
 7458SOL    HW233834   1.137   4.419   3.024  0.7879 -0.7933 -1.4003
 7459SOL     OW33835   0.560   1.648  16.245  0.1793 -0.5982 -0.2124
 7459SOL    HW133836   0.627   1.668  16.180  0.6407  0.7198  0.6703
 7459SOL    HW233837   0.555   1.553  16.252 -0.1534 -0.7598 -2.7107
 7460SOL     OW33838   3.926   4.387   8.903 -0.1456  0.0083  0.0729
 7460SOL    HW133839   4.020   4.375   8.893  0.0875  3.9855 -2.2115
 7460SOL    HW233840   3.900   4.296   8.920  0.8571 -0.2760  0.0836
 7461SOL     OW33841   3.863   1.782   1.616  0.3080 -0.3656  0.3564
 7461SOL    HW133842   3.779   1.770   1.572 -0.3000 -2.7414  2.1927
 7461SOL    HW233843   3.927   1.763   1.547  1.0884 -1.7584  1.4720
 7462SOL     OW33844   3.325   1.256   1.647  0.3663 -0.0579  0.6355
 7462SOL    HW133845   3.404   1.252   1.701  1.0603 -0.6212 -0.4267
 7462SOL    HW233846   3.319   1.349   1.623 -0.6994 -0.3692 -0.3074
 7463SOL     OW33847   1.037   3.396   8.526  0.2626  0.9807  0.2808
 7463SOL    HW133848   0.981   3.324   8.554  1.4853  0.5051  1.4753
 7463SOL    HW233849   1.101   3.346   8.476  1.0555  0.9388  1.3338
 7464SOL     OW33850   2.029   3.133   6.150 -0.1519 -0.6464  0.2744
 7464SOL    HW133851   1.973   3.156   6.075 -1.1900 -1.4633  0.7996
 7464SOL    HW233852   2.094   3.095   6.091  0.7259  1.1058  0.1070
 7465SOL     OW33853   3.868   3.989  11.547  0.5158  0.4808  0.0353
 7465SOL    HW133854   3.849   3.914  11.604 -0.0337  1.1559  0.7352
 7465SOL    HW233855   3.963   3.993  11.534  0.2422  2.0456 -1.4681
 7466SOL     OW33856   0.910   3.371   3.790 -0.3701 -0.8575  0.1968
 7466SOL    HW133857   0.946   3.361   3.878  1.3598  0.9467 -0.3014
 7466SOL    HW233858   0.832   3.425   3.804  0.0809 -0.0420 -0.4148
 7467SOL     OW33859   3.569   1.097   4.694 -0.4049 -0.3969  0.1957
 7467SOL    HW133860   3.485   1.118   4.651 -0.7650 -0.0754  1.0474
 7467SOL    HW233861   3.544   1.013   4.733  1.0854  0.6022  3.2698
 7468SOL     OW33862   4.577   2.620   2.741  0.4072 -0.0472 -0.3018
 7468SOL    HW133863   4.665   2.620   2.780  0.5401  1.1323 -0.6076
 7468SOL    HW233864   4.596   2.685   2.674 -0.9230 -0.0111 -0.6315
 7469SOL     OW33865   2.805   0.324   5.622  0.3381 -0.2762  0.0444
 7469SOL    HW133866   2.843   0.240   5.595  0.9939  0.9603 -2.8676
 7469SOL    HW233867   2.863   0.342   5.697  2.6438 -3.7394 -0.9188
 7470SOL     OW33868   3.505   1.370   2.452 -0.0497  0.1631  0.0103
 7470SOL    HW133869   3.501   1.276   2.431  1.0587  0.4542 -1.5293
 7470SOL    HW233870   3.571   1.408   2.394 -1.0428 -1.6684 -2.3273
 7471SOL     OW33871   0.707   3.583  12.425  0.0458 -0.6275  0.0645
 7471SOL    HW133872   0.783   3.527  12.408  0.3473  0.2598 -1.4766
 7471SOL    HW233873   0.696   3.579  12.520 -0.7222  0.7161  0.0332
 7472SOL     OW33874   3.630   0.557  10.934  0.0591  0.3371 -0.6116
 7472SOL    HW133875   3.709   0.610  10.945 -0.3061  0.6752  0.2966
 7472SOL    HW233876   3.664   0.489  10.875 -1.9817 -1.2800  0.0639
 7473SOL     OW33877   2.821   1.237  15.605  0.0815 -0.5106 -0.9268
 7473SOL    HW133878   2.895   1.184  15.575  0.1142  0.0342 -1.8143
 7473SOL    HW233879   2.810   1.290  15.526  0.3149 -1.0186 -1.2966
 7474SOL     OW33880   4.530   4.040  10.125  0.4495  0.3157 -0.0341
 7474SOL    HW133881   4.526   4.132  10.096 -0.8137  1.3929  3.5110
 7474SOL    HW233882   4.440   4.027  10.154  0.7361 -1.2528  0.1348
 7475SOL     OW33883   2.226   2.746   2.783 -0.3035  0.5756  0.0492
 7475SOL    HW133884   2.174   2.775   2.708  0.1105  0.4916 -0.2715
 7475SOL    HW233885   2.295   2.812   2.783 -1.3078  1.6242 -3.3330
 7476SOL     OW33886   2.477   1.951   9.309  0.3809 -0.3232  0.0156
 7476SOL    HW133887   2.436   1.963   9.395  1.2666 -1.8283  0.6438
 7476SOL    HW233888   2.522   1.868   9.322  1.2830  0.1946  0.1782
 7477SOL     OW33889   0.574   2.335   9.179  0.5421  0.3193 -0.4050
 7477SOL    HW133890   0.511   2.293   9.237  1.4840 -0.8770 -0.2617
 7477SOL    HW233891   0.580   2.413   9.235  0.4212 -1.3760  1.9396
 7478SOL     OW33892   1.243   3.604  15.700 -0.0570  0.2787 -0.2884
 7478SOL    HW133893   1.280   3.540  15.639 -1.7662 -1.5894  0.6132
 7478SOL    HW233894   1.151   3.615  15.677  0.0140  1.1621 -0.1451
 7479SOL     OW33895   3.153   3.077   0.696  0.8249  0.4064  0.6603
 7479SOL    HW133896   3.164   3.118   0.782  1.5995 -0.3870  0.9444
 7479SOL    HW233897   3.077   3.020   0.708  0.4871  0.6234 -0.5042
 7480SOL     OW33898   0.845   1.235   2.692 -0.4469  0.5681  0.0983
 7480SOL    HW133899   0.914   1.254   2.628 -0.1520 -1.1330 -0.0917
 7480SOL    HW233900   0.778   1.198   2.635  1.6736 -1.7573 -0.8324
 7481SOL     OW33901   3.835   2.142   2.245  0.1037  0.0725 -0.4652
 7481SOL    HW133902   3.763   2.204   2.257 -0.8074 -0.8813 -1.0641
 7481SOL    HW233903   3.905   2.181   2.297  1.2609  0.6097 -2.3972
 7482SOL     OW33904   1.086   3.986   7.560 -0.4478  0.0249 -0.4269
 7482SOL    HW133905   1.021   4.024   7.501 -2.2870 -1.2631  0.7791
 7482SOL    HW233906   1.026   3.935   7.614 -0.2294  0.4979  0.2737
 7483SOL     OW33907   1.751   4.643   7.347 -0.8277 -0.4546  0.5171
 7483SOL    HW133908   1.736   4.587   7.423  2.1093 -1.1477  0.5724
 7483SOL    HW233909   1.825   4.698   7.375  0.1847 -1.1367 -0.8244
 7484SOL     OW33910   0.087   0.953  14.241  0.3878  0.0703 -0.3220
 7484SOL    HW133911   0.063   0.969  14.149  0.0342 -1.8627 -0.5804
 7484SOL    HW233912   0.051   0.869  14.271  2.4930 -0.7554 -0.1477
 7485SOL     OW33913   4.371   3.780   6.763 -0.3049  0.1143 -0.3351
 7485SOL    HW133914   4.283   3.804   6.733  0.1430  1.8907 -0.2125
 7485SOL    HW233915   4.362   3.769   6.857  0.5007  4.3792  0.2467
 7486SOL     OW33916   3.408   4.300   4.384  0.3533  0.0315 -0.0874
 7486SOL    HW133917   3.359   4.245   4.322 -3.1977  2.0749  0.9099
 7486SOL    HW233918   3.485   4.244   4.391  0.7685  0.5358 -0.6167
 7487SOL     OW33919   1.441   4.142   8.582 -0.4300  0.2137 -0.7569
 7487SOL    HW133920   1.453   4.197   8.659  0.9079  0.6675 -1.2818
 7487SOL    HW233921   1.482   4.064   8.620  0.8041  0.7380 -0.9920
 7488SOL     OW33922   1.567   4.630  12.417  0.3317  0.1282  0.2330
 7488SOL    HW133923   1.474   4.618  12.436  0.7066 -1.2653  1.1607
 7488SOL    HW233924   1.574   0.003  12.423  0.4395  0.1395 -0.0626
 7489SOL     OW33925   3.006   2.819   1.997 -0.0491  0.0588 -0.3809
 7489SOL    HW133926   2.949   2.742   2.007  0.4849 -0.5181 -1.8736
 7489SOL    HW233927   3.022   2.820   1.903 -0.7660  0.8070 -0.4988
 7490SOL     OW33928   2.790   2.635   7.531 -0.0117  0.5191  0.3171
 7490SOL    HW133929   2.877   2.654   7.494  0.0009  0.7405  0.4618
 7490SOL    HW233930   2.737   2.695   7.479 -0.5788 -0.1572  0.1143
 7491SOL     OW33931   3.978   2.448  14.062 -0.0671  0.4900  0.0539
 7491SOL    HW133932   4.051   2.447  14.001 -0.8257  0.7421 -0.8549
 7491SOL    HW233933   3.969   2.360  14.099 -1.2809  0.8749  0.6888
 7492SOL     OW33934   4.461   2.059   6.810  0.1501 -0.7789  0.0969
 7492SOL    HW133935   4.390   2.066   6.747 -1.3820 -0.7697  1.8503
 7492SOL    HW233936   4.536   2.041   6.753  1.2635 -1.4663  1.7644
 7493SOL     OW33937   4.164   1.169   4.003 -0.3026  0.1320  0.0348
 7493SOL    HW133938   4.193   1.175   4.094  3.0613 -0.0454 -1.0248
 7493SOL    HW233939   4.241   1.193   3.952 -0.5974  2.2518  0.6015
 7494SOL     OW33940   0.955   2.387   3.494 -0.2026  0.2657 -0.0546
 7494SOL    HW133941   0.873   2.360   3.452 -0.4305 -1.1082  1.3071
 7494SOL    HW233942   1.005   2.386   3.412  0.7900  2.6397  0.5438
 7495SOL     OW33943   1.233   2.026  16.750  0.0531 -0.4399  0.4497
 7495SOL    HW133944   1.152   2.056  16.708  0.2509 -0.6288 -0.0635
 7495SOL    HW233945   1.182   1.996  16.825  2.2390  0.5714  2.3413
 7496SOL     OW33946   1.610   4.172  14.812  0.0177 -0.0108 -0.3639
 7496SOL    HW133947   1.592   4.223  14.891 -0.2900  1.8901 -1.6552
 7496SOL    HW233948   1.687   4.221  14.786  0.7033 -1.2599 -0.6817
 7497SOL     OW33949   0.620   4.160   8.142  0.2178  0.2059  0.1597
 7497SOL    HW133950   0.698   4.156   8.197 -1.5464 -2.9385  2.4454
 7497SOL    HW233951   0.577   4.087   8.186  0.3231  0.4254  0.6224
 7498SOL     OW33952   0.359   0.810   8.478  0.5101 -0.0803  0.0126
 7498SOL    HW133953   0.421   0.875   8.509  0.7209 -1.1394  1.7736
 7498SOL    HW233954   0.294   0.805   8.548  0.4012 -0.7439 -0.1340
 7499SOL     OW33955   2.010   3.972  13.363  0.0927 -0.6239 -0.2146
 7499SOL    HW133956   1.984   4.054  13.319 -2.0856 -0.8439  0.6281
 7499SOL    HW233957   1.972   3.991  13.449  2.7496 -0.3593  0.8997
 7500SOL     OW33958   0.076   1.122   6.721 -0.0159  0.6607 -0.4338
 7500SOL    HW133959   0.160   1.090   6.755  0.0156  1.3472  0.1224
 7500SOL    HW233960   0.052   1.054   6.658 -0.1735 -0.0679  0.4058
 7501SOL     OW33961   3.763   4.029   9.391 -0.1268 -0.1253 -0.2647
 7501SOL    HW133962   3.760   3.934   9.374  0.6397  0.0985 -1.5962
 7501SOL    HW233963   3.723   4.019   9.478 -1.6550  1.4267 -0.7816
 7502SOL     OW33964   1.932   0.530   6.163 -0.0031 -0.7147  0.0501
 7502SOL    HW133965   1.903   0.439   6.161 -0.2808 -0.5931 -1.2070
 7502SOL    HW233966   1.884   0.564   6.088  0.4600 -0.9145 -0.3340
 7503SOL     OW33967   0.695   4.425   8.125 -0.3203 -0.1365  0.0360
 7503SOL    HW133968   0.764   4.382   8.075 -1.5667 -1.9297 -0.1280
 7503SOL    HW233969   0.640   4.347   8.133 -0.0529 -0.2826  0.4372
 7504SOL     OW33970   0.347   2.459   1.951 -0.6206 -0.6184 -0.0790
 7504SOL    HW133971   0.263   2.414   1.945  0.0586 -1.9843  0.8226
 7504SOL    HW233972   0.364   2.468   1.857  2.6186  0.7767  0.6321
 7505SOL     OW33973   1.876   3.153   4.974 -0.3921 -0.0684  0.4974
 7505SOL    HW133974   1.952   3.156   4.915 -1.7620 -0.8207 -1.3303
 7505SOL    HW233975   1.846   3.062   4.970 -1.3745  0.2651  0.3831
 7506SOL     OW33976   2.561   3.752   7.637  0.1909 -0.2487  0.0491
 7506SOL    HW133977   2.650   3.727   7.661  0.7262 -0.2810 -1.9753
 7506SOL    HW233978   2.537   3.825   7.694 -2.3998 -2.9313  2.4461
 7507SOL     OW33979   1.381   2.662   1.441 -0.1102 -0.3397  0.5371
 7507SOL    HW133980   1.457   2.627   1.488  1.7635  0.3479 -1.9628
 7507SOL    HW233981   1.354   2.602   1.371 -1.6817  1.3456 -0.3166
 7508SOL     OW33982   1.982   2.015   2.886  0.3218  0.5985 -0.6061
 7508SOL    HW133983   1.993   2.109   2.874 -1.8877  0.8259 -0.7870
 7508SOL    HW233984   2.041   1.978   2.821  0.4433  0.6293 -0.5141
 7509SOL     OW33985   0.159   3.904   8.072 -0.1130 -0.3636  0.3417
 7509SOL    HW133986   0.200   3.820   8.095  2.1682  1.1258  1.6799
 7509SOL    HW233987   0.212   3.929   7.996 -0.9994 -0.9062 -0.4613
 7510SOL     OW33988   0.880   2.941  13.790 -0.2040 -0.1708 -0.3683
 7510SOL    HW133989   0.824   2.975  13.721 -0.9458 -1.2387 -0.2889
 7510SOL    HW233990   0.856   2.998  13.863  0.5569 -1.6247  1.0451
 7511SOL     OW33991   3.060   4.709   3.231  0.0820  0.1515  0.2528
 7511SOL    HW133992   3.046   0.078   3.205 -1.5977 -0.3393 -0.5957
 7511SOL    HW233993   3.061   4.673   3.142 -0.0999 -0.0400  0.3272
 7512SOL     OW33994   2.326   0.389  12.988  0.4232  0.1294 -0.2769
 7512SOL    HW133995   2.412   0.350  12.971  0.4670 -1.0397  2.5953
 7512SOL    HW233996   2.268   0.317  13.015  0.0150  0.3672 -0.5181
 7513SOL     OW33997   2.848   2.979  17.635  0.4343  0.6074  0.3367
 7513SOL    HW133998   2.879   3.061  17.673 -1.5097  2.4963 -2.2287
 7513SOL    HW233999   2.812   2.932   0.018 -0.1324 -2.4055 -1.7941
 7514SOL     OW34000   3.793   3.437   6.621  0.3064  0.3948 -0.4093
 7514SOL    HW134001   3.709   3.444   6.575  0.7372 -0.2812 -1.3147
 7514SOL    HW234002   3.779   3.366   6.684 -2.7001  1.5688  0.2149
 7515SOL     OW34003   3.626   0.584   8.713  0.2693 -0.2019 -0.3597
 7515SOL    HW134004   3.666   0.619   8.633  1.2126 -2.3496 -0.8439
 7515SOL    HW234005   3.696   0.531   8.752  0.9905  2.1684  1.5272
 7516SOL     OW34006   2.991   1.271  14.364 -0.4182  0.4489 -0.4925
 7516SOL    HW134007   3.052   1.242  14.296  0.4573 -0.0688  0.4977
 7516SOL    HW234008   3.051   1.320  14.421 -0.4651  0.4524 -0.4467
 7517SOL     OW34009   4.257   2.399   4.876 -0.2310  0.4336  0.2211
 7517SOL    HW134010   4.233   2.393   4.783  0.8179 -0.8219  0.0406
 7517SOL    HW234011   4.185   2.346   4.911 -0.3027  1.0585  1.0248
 7518SOL     OW34012   3.990   3.927   9.215  0.3879 -0.1276 -0.1890
 7518SOL    HW134013   3.998   3.861   9.283  1.6981  1.8819  1.6040
 7518SOL    HW234014   3.921   3.979   9.256  0.0543  0.5796 -1.6463
 7519SOL     OW34015   3.803   1.750   4.109 -0.8080 -0.0466 -0.3491
 7519SOL    HW134016   3.767   1.837   4.125 -0.3413 -0.3783  2.5254
 7519SOL    HW234017   3.825   1.765   4.017  0.6995  0.6717  0.1328
 7520SOL     OW34018   2.954   2.689  12.352 -0.6047  0.1869 -0.3821
 7520SOL    HW134019   2.982   2.605  12.389  0.2599  0.2559 -0.8619
 7520SOL    HW234020   3.033   2.730  12.315  0.2046  0.6971  1.9004
 7521SOL     OW34021   2.479   1.984   4.327 -0.1372  0.1877 -0.0433
 7521SOL    HW134022   2.544   1.914   4.327 -1.8303 -1.3973 -0.3095
 7521SOL    HW234023   2.527   2.058   4.290 -2.5395  0.8391 -1.9068
 7522SOL     OW34024   1.135   2.825   8.481  0.2424  0.3682 -0.8921
 7522SOL    HW134025   1.062   2.883   8.502  0.9110  0.0253  2.4241
 7522SOL    HW234026   1.106   2.788   8.397 -1.0652 -0.4266 -0.0961
 7523SOL     OW34027   1.787   0.359  10.450 -0.2013 -0.6666  0.7084
 7523SOL    HW134028   1.725   0.381  10.520 -0.4848 -1.5613  0.7382
 7523SOL    HW234029   1.804   0.267  10.467  0.0914 -0.2827  2.5395
 7524SOL     OW34030   3.867   1.102   1.088 -0.1648 -0.0216 -0.1231
 7524SOL    HW134031   3.782   1.104   1.045 -0.2278 -0.2960 -0.0094
 7524SOL    HW234032   3.904   1.190   1.079 -0.1179 -0.3315 -3.0799
 7525SOL     OW34033   0.119   1.906  15.132  0.1367 -0.2837  0.2328
 7525SOL    HW134034   0.179   1.856  15.187 -0.8985 -1.9340 -0.1332
 7525SOL    HW234035   0.184   1.943  15.072  1.2579 -1.9988  0.3939
 7526SOL     OW34036   2.692   1.328   6.590  0.2038  0.2416 -0.3270
 7526SOL    HW134037   2.632   1.277   6.536  0.3071 -1.3116  1.0208
 7526SOL    HW234038   2.766   1.271   6.611 -0.7732 -0.3964  1.4203
 7527SOL     OW34039   1.379   4.088   4.648 -0.2228  0.2057  0.2952
 7527SOL    HW134040   1.464   4.048   4.629 -1.0652 -0.8988 -1.1496
 7527SOL    HW234041   1.351   4.014   4.702 -2.1354 -0.7277 -1.9974
 7528SOL     OW34042   2.371   3.664   5.517 -0.1690 -0.8002  0.0189
 7528SOL    HW134043   2.425   3.663   5.438  0.6788  0.8164  0.5741
 7528SOL    HW234044   2.414   3.588   5.558  0.7183  0.1490  0.8657
 7529SOL     OW34045   3.325   0.957   5.625 -0.2252  0.7837 -0.2830
 7529SOL    HW134046   3.407   0.971   5.578 -0.1297  0.6021 -0.1745
 7529SOL    HW234047   3.259   0.986   5.563  0.0866  1.5110 -0.2699
 7530SOL     OW34048   4.042   3.651  13.488 -0.0482 -0.6167  0.2893
 7530SOL    HW134049   3.966   3.601  13.517 -0.7210  1.0722  1.4016
 7530SOL    HW234050   4.060   3.625  13.397  1.7467 -2.3130  1.1062
 7531SOL     OW34051   1.828   0.465  11.902  0.1266  0.2118 -0.6206
 7531SOL    HW134052   1.905   0.442  11.955  0.7514  0.0476 -1.6152
 7531SOL    HW234053   1.813   0.557  11.923 -0.9775 -0.5617  2.0303
 7532SOL     OW34054   1.620   3.908  14.869  0.5630  0.0444  0.0686
 7532SOL    HW134055   1.619   3.993  14.825  0.5976 -0.2742 -0.5482
 7532SOL    HW234056   1.639   3.843  14.802 -0.7567  0.7902 -1.0425
 7533SOL     OW34057   4.421   0.289   4.577 -0.0138 -0.1432  0.4136
 7533SOL    HW134058   4.413   0.376   4.617  0.0527 -0.4720  1.1526
 7533SOL    HW234059   4.372   0.302   4.496  0.4573  0.2382  0.1924
 7534SOL     OW34060   0.587   0.979   1.753  0.5438  0.6790 -0.5197
 7534SOL    HW134061   0.561   0.889   1.736  1.8438  0.2483 -0.2150
 7534SOL    HW234062   0.623   0.993   1.665  1.0002  1.1237 -0.2641
 7535SOL     OW34063   0.383   1.433   0.181 -0.3055  0.5287 -0.6232
 7535SOL    HW134064   0.320   1.381   0.229  0.8417 -1.0370 -0.7926
 7535SOL    HW234065   0.347   1.432   0.092 -0.9525  0.7727 -0.3608
 7536SOL     OW34066   2.641   2.082   6.166  0.0380 -0.3308  0.4039
 7536SOL    HW134067   2.606   2.086   6.077  0.0854 -2.7935  0.2882
 7536SOL    HW234068   2.662   1.989   6.172 -0.7179 -0.4658  0.9985
 7537SOL     OW34069   1.674   1.306   3.128 -0.8014  0.5169 -0.4650
 7537SOL    HW134070   1.631   1.268   3.205  3.4363 -0.3850  1.4353
 7537SOL    HW234071   1.633   1.392   3.131  1.1499  1.4133  0.1225
 7538SOL     OW34072   1.295   3.715  14.649 -1.0482 -0.2806  0.4924
 7538SOL    HW134073   1.336   3.739  14.566 -0.8105 -1.3478  0.2958
 7538SOL    HW234074   1.326   3.624  14.655 -0.1910 -0.0941 -1.2944
 7539SOL     OW34075   1.924   2.165   7.496  1.1419 -0.3122 -0.3695
 7539SOL    HW134076   1.940   2.218   7.574  0.5047 -1.1677  0.3492
 7539SOL    HW234077   1.980   2.204   7.430  2.0138  0.4848  0.8584
 7540SOL     OW34078   2.388   1.616  16.104  0.7068 -0.4223 -0.2615
 7540SOL    HW134079   2.384   1.581  16.015  0.2280  1.3505 -0.9405
 7540SOL    HW234080   2.300   1.616  16.142  0.5526  0.6902 -0.6219
 7541SOL     OW34081   0.382   0.383  12.914 -0.0892 -0.0384 -0.5300
 7541SOL    HW134082   0.430   0.462  12.890 -2.0084  1.1021 -0.6461
 7541SOL    HW234083   0.406   0.333  12.837  0.5253  0.2325 -0.5128
 7542SOL     OW34084   0.804   2.931   1.260  0.3364 -0.2741 -0.0600
 7542SOL    HW134085   0.779   2.939   1.168 -1.0007  0.9692  0.4209
 7542SOL    HW234086   0.777   3.010   1.307 -0.8044 -1.0142  0.5314
 7543SOL     OW34087   0.333   0.203   7.242 -0.2274  0.3200  0.8625
 7543SOL    HW134088   0.287   0.209   7.326 -1.6175  0.2104  0.1149
 7543SOL    HW234089   0.287   0.131   7.197  0.0520  0.0495  1.0089
 7544SOL     OW34090   4.136   1.302   8.484  0.6241 -0.1424  0.5434
 7544SOL    HW134091   4.212   1.273   8.535  2.0339  1.4308 -0.6979
 7544SOL    HW234092   4.092   1.360   8.546  0.0176 -1.2291  1.1350
 7545SOL     OW34093   1.291   2.653   7.311  0.4080  0.1698 -0.1386
 7545SOL    HW134094   1.244   2.638   7.229 -0.7437  1.0755  0.3593
 7545SOL    HW234095   1.241   2.731   7.335  0.0101 -0.1784  0.1537
 7546SOL     OW34096   0.160   0.389   0.503  0.0094  0.2150 -0.1993
 7546SOL    HW134097   0.102   0.458   0.537  2.3990  2.1927 -0.1346
 7546SOL    HW234098   0.105   0.311   0.504 -1.9403  1.5825  0.0686
 7547SOL     OW34099   2.871   1.068  16.294  0.0840  0.7269 -0.1445
 7547SOL    HW134100   2.820   1.040  16.370 -0.7537 -1.0967 -1.3937
 7547SOL    HW234101   2.872   1.164  16.300 -1.3696  0.6724  0.7128
 7548SOL     OW34102   1.318   0.769   7.944 -0.2104  0.7040  0.1656
 7548SOL    HW134103   1.223   0.778   7.934 -0.3972 -1.1706  0.2717
 7548SOL    HW234104   1.352   0.845   7.896 -1.3914  1.2952  0.2570
 7549SOL     OW34105   3.010   4.343   0.041 -0.0822 -0.5516 -0.0452
 7549SOL    HW134106   3.092   4.377   0.077 -0.1773 -0.6193  0.2318
 7549SOL    HW234107   2.946   4.386   0.097  0.2998 -0.3348  0.2241
 7550SOL     OW34108   2.737   2.666  16.496 -0.1854  0.7033  0.3864
 7550SOL    HW134109   2.654   2.638  16.535 -0.5726 -0.3623 -1.1599
 7550SOL    HW234110   2.798   2.597  16.521 -2.6242 -1.9187 -0.7314
 7551SOL     OW34111   4.188   0.902   6.866 -0.2581 -0.0578  0.5834
 7551SOL    HW134112   4.146   0.950   6.938  1.3401  2.8189 -0.4261
 7551SOL    HW234113   4.162   0.814   6.894 -0.7682 -0.6409 -1.8133
 7552SOL     OW34114   4.659   1.613   3.472  0.2381 -0.5894 -0.2350
 7552SOL    HW134115   4.632   1.676   3.539  0.9446 -0.3908 -0.1351
 7552SOL    HW234116   4.662   1.667   3.393  1.1513 -1.9485 -1.1321
 7553SOL     OW34117   0.713   2.274   8.956  0.4497  0.3916  0.2136
 7553SOL    HW134118   0.745   2.363   8.937 -0.1011  0.5341 -0.0252
 7553SOL    HW234119   0.679   2.285   9.044  0.5400 -3.0931  0.6848
 7554SOL     OW34120   2.317   4.505   2.678  0.1474 -0.8495 -0.2857
 7554SOL    HW134121   2.307   4.600   2.682 -0.2777 -0.9313  0.7784
 7554SOL    HW234122   2.383   4.489   2.610 -0.2750  1.5842 -1.2547
 7555SOL     OW34123   3.042   0.831   5.979  0.7758 -0.5745 -0.0087
 7555SOL    HW134124   3.005   0.896   6.039  1.2457  0.3126 -0.6741
 7555SOL    HW234125   3.116   0.879   5.942  0.7075 -0.5707 -0.1394
 7556SOL     OW34126   3.191   3.702   1.429 -0.2069 -0.0444 -0.3551
 7556SOL    HW134127   3.134   3.643   1.380  0.6700 -0.3022 -1.0443
 7556SOL    HW234128   3.263   3.717   1.369 -0.5548 -0.2474 -0.8203
 7557SOL     OW34129   0.372   0.522   3.719 -0.3153 -0.5513  0.4740
 7557SOL    HW134130   0.324   0.452   3.761  0.2976 -0.5258  1.2155
 7557SOL    HW234131   0.439   0.524   3.787 -0.1306  0.2502  0.2679
 7558SOL     OW34132   0.384   2.295  14.067  0.0170  0.0023  0.3004
 7558SOL    HW134133   0.440   2.219  14.078 -0.8153 -0.7232 -0.5370
 7558SOL    HW234134   0.336   2.272  13.987  0.7207 -0.4815  0.0144
 7559SOL     OW34135   2.331   2.265  17.309  0.4288 -0.4780 -0.2418
 7559SOL    HW134136   2.312   2.179  17.272  0.1477  0.3132 -1.9388
 7559SOL    HW234137   2.408   2.248  17.363 -0.0937  2.8139  1.5126
 7560SOL     OW34138   1.175   4.085   1.990 -0.0582  0.2684  0.2882
 7560SOL    HW134139   1.220   4.082   2.075 -0.9140 -0.3809  0.7215
 7560SOL    HW234140   1.130   4.169   1.995  2.4884  1.6977 -0.6412
 7561SOL     OW34141   0.101   4.388   2.623  0.0657 -0.3565 -0.4444
 7561SOL    HW134142   0.170   4.347   2.676 -2.6343 -1.9336  1.8481
 7561SOL    HW234143   0.154   4.401   2.545  0.8661 -0.2536  0.1148
 7562SOL     OW34144   3.490   2.846   1.274  0.1086 -0.2776 -0.0708
 7562SOL    HW134145   3.551   2.920   1.278  0.9613 -0.7366 -4.5935
 7562SOL    HW234146   3.471   2.835   1.367 -1.4307  1.0146 -0.2374
 7563SOL     OW34147   0.082   2.023  17.625 -0.6031  0.1382  0.0434
 7563SOL    HW134148   0.140   1.948  17.612 -1.2925  0.0185 -2.4405
 7563SOL    HW234149   0.146   2.087  17.654  0.3670 -0.2314 -1.2637
 7564SOL     OW34150   2.313   1.456   2.436 -0.0126  0.0615  0.6067
 7564SOL    HW134151   2.325   1.363   2.451 -0.8858 -0.3775 -1.5214
 7564SOL    HW234152   2.341   1.464   2.345  1.5628  1.8369  1.2320
 7565SOL     OW34153   4.460   0.474   8.296  0.5031  0.4116  0.2840
 7565SOL    HW134154   4.547   0.467   8.335  0.5473 -1.9302 -0.2438
 7565SOL    HW234155   4.442   0.564   8.324  0.0929 -1.0651  4.6943
 7566SOL     OW34156   0.909   4.137  12.226 -0.4177  0.1125  0.3900
 7566SOL    HW134157   0.974   4.206  12.211  0.2125 -0.5440  0.0750
 7566SOL    HW234158   0.955   4.063  12.186 -0.4507  0.1935  0.2029
 7567SOL     OW34159   1.659   0.633  10.852  0.3163 -0.1473  0.6444
 7567SOL    HW134160   1.697   0.720  10.840  2.1542 -0.8823  1.1615
 7567SOL    HW234161   1.695   0.615  10.939 -1.7214 -0.5450  1.3967
 7568SOL     OW34162   3.666   4.073  12.113 -0.1445 -0.3325  0.1419
 7568SOL    HW134163   3.714   4.148  12.075 -0.3890 -0.2865 -0.0755
 7568SOL    HW234164   3.589   4.072  12.056  1.1628  2.0582 -1.7181
 7569SOL     OW34165   2.028   1.581   6.121 -0.0319  0.6977  0.1246
 7569SOL    HW134166   2.058   1.514   6.182  1.4399  0.8039 -0.5043
 7569SOL    HW234167   1.947   1.613   6.163 -0.8660  1.1146 -1.8114
 7570SOL     OW34168   1.576   3.295   5.776 -0.5999  0.1161 -0.1489
 7570SOL    HW134169   1.521   3.369   5.798  1.8401  1.4117  1.6446
 7570SOL    HW234170   1.594   3.270   5.867  0.7604  2.1716  0.1596
 7571SOL     OW34171   0.041   3.563   3.982 -0.5427 -0.5068 -0.4851
 7571SOL    HW134172   0.133   3.549   4.005 -0.5526  0.2070 -0.0015
 7571SOL    HW234173   0.001   3.532   4.063 -2.2814  1.1009 -0.7308
 7572SOL     OW34174   2.541   3.777   6.662 -0.1328 -0.1993 -0.5380
 7572SOL    HW134175   2.492   3.829   6.726  1.7338  0.3407  0.4709
 7572SOL    HW234176   2.481   3.768   6.588  3.2375  0.0286 -3.3227
 7573SOL     OW34177   2.464   3.765  10.554 -0.0072  0.1111 -0.2764
 7573SOL    HW134178   2.549   3.740  10.591  0.6505  2.1884 -0.4221
 7573SOL    HW234179   2.411   3.776  10.633  0.0721  1.0089 -0.3527
 7574SOL     OW34180   1.458   2.408  16.361 -0.3730  0.1811  0.3388
 7574SOL    HW134181   1.509   2.487  16.382  2.2492 -1.2613 -0.5784
 7574SOL    HW234182   1.441   2.433  16.271  0.1785 -1.8635 -0.3402
 7575SOL     OW34183   3.700   1.326   7.303 -0.4211 -0.0293 -0.1489
 7575SOL    HW134184   3.631   1.286   7.250  1.1372 -1.3146 -1.2221
 7575SOL    HW234185   3.740   1.244   7.332 -2.0755 -1.4287 -1.7946
 7576SOL     OW34186   2.514   2.570   2.868  0.5999 -1.2864 -0.0061
 7576SOL    HW134187   2.537   2.662   2.855  0.2898 -1.3152 -0.7613
 7576SOL    HW234188   2.524   2.533   2.780 -0.6167 -0.4554 -0.4870
 7577SOL     OW34189   3.007   2.571  17.581 -0.4116 -0.1174 -0.2819
 7577SOL    HW134190   2.999   2.614  17.666  0.5302 -0.0438 -0.2269
 7577SOL    HW234191   3.041   2.489  17.618  1.2991  0.6632 -0.0886
 7578SOL     OW34192   2.737   4.498   4.645 -0.0405 -0.2169  0.3185
 7578SOL    HW134193   2.738   4.441   4.569 -0.6750  0.7647 -0.4303
 7578SOL    HW234194   2.743   4.588   4.612 -2.2241  0.1758  1.0043
 7579SOL     OW34195   1.667   1.282   1.409  0.1765  0.2948 -0.4118
 7579SOL    HW134196   1.747   1.240   1.376 -1.5281 -1.0714 -2.8909
 7579SOL    HW234197   1.719   1.340   1.464  1.7201  0.5231 -2.1105
 7580SOL     OW34198   1.002   0.164  17.091  0.5317  0.2695 -0.6437
 7580SOL    HW134199   0.996   0.164  16.995 -2.1350  0.4102 -0.4939
 7580SOL    HW234200   1.077   0.106  17.101 -0.3377 -0.5654  0.9431
 7581SOL     OW34201   3.308   0.927  10.801  0.5755 -1.1482 -0.1609
 7581SOL    HW134202   3.233   0.903  10.856 -0.4261  0.3126 -0.8899
 7581SOL    HW234203   3.370   0.944  10.872 -2.2858  1.0490  1.8177
 7582SOL     OW34204   1.331   2.101   5.537 -0.2144 -0.3581 -0.1070
 7582SOL    HW134205   1.282   2.076   5.615  1.0367 -0.8917  0.5014
 7582SOL    HW234206   1.414   2.131   5.573 -0.9087  2.5709 -0.9027
 7583SOL     OW34207   4.481   0.901  17.249  0.3762 -0.9397  0.1831
 7583SOL    HW134208   4.431   0.848  17.187  0.7156 -1.3783  0.2839
 7583SOL    HW234209   4.416   0.964  17.283 -1.4836 -1.6387 -2.0949
 7584SOL     OW34210   2.350   1.470  15.327  0.4695 -0.2543 -0.0872
 7584SOL    HW134211   2.261   1.499  15.346  0.7106  1.2239 -1.1629
 7584SOL    HW234212   2.359   1.522  15.247 -0.6583 -1.7212 -1.1779
 7585SOL     OW34213   3.324   4.663  11.740  0.1300 -0.2229 -0.1861
 7585SOL    HW134214   3.317   0.035  11.748  0.4697 -0.1521 -0.7185
 7585SOL    HW234215   3.337   4.637  11.831  0.9910 -0.0242 -0.2538
 7586SOL     OW34216   1.955   2.859   1.938  0.6346  0.2283 -0.1606
 7586SOL    HW134217   1.935   2.801   1.865  2.1695 -1.2436  0.5705
 7586SOL    HW234218   2.024   2.911   1.897  1.8058  0.4504  2.0640
 7587SOL     OW34219   3.907   3.734  11.707  0.0685 -0.1953  0.3220
 7587SOL    HW134220   3.872   3.787  11.778  1.2027  0.2045  0.5756
 7587SOL    HW234221   3.899   3.647  11.746  3.2565  0.3299  2.1176
 7588SOL     OW34222   3.169   4.100   4.986 -0.2340  0.3256 -0.0109
 7588SOL    HW134223   3.142   4.174   4.931  2.7740  0.9266 -0.6956
 7588SOL    HW234224   3.225   4.058   4.921 -0.0182 -1.7494  1.5214
 7589SOL     OW34225   1.229   0.031   2.985 -0.1852  0.3468 -0.6450
 7589SOL    HW134226   1.244   4.720   2.897 -0.8481  0.9932 -1.0000
 7589SOL    HW234227   1.305   4.713   3.026 -1.5184 -2.8847 -1.3288
 7590SOL     OW34228   2.336   4.061  12.553  0.6581 -0.2933 -0.7951
 7590SOL    HW134229   2.274   4.062  12.626  0.7551  0.3231 -0.7219
 7590SOL    HW234230   2.285   4.127  12.505 -0.5370 -0.7223 -0.1183
 7591SOL     OW34231   3.449   3.184   3.732  0.5582  0.4383 -0.8656
 7591SOL    HW134232   3.413   3.104   3.696  0.1416  0.0708  0.3567
 7591SOL    HW234233   3.493   3.150   3.810 -2.2874 -3.7408 -1.1293
 7592SOL     OW34234   3.607   1.535   2.892  0.0593 -0.3151  0.6866
 7592SOL    HW134235   3.666   1.463   2.873 -1.0504 -0.8190 -0.8919
 7592SOL    HW234236   3.597   1.519   2.986  0.1527  0.4705  0.8320
 7593SOL     OW34237   0.238   1.615   3.934 -0.3358 -0.5565 -0.3413
 7593SOL    HW134238   0.222   1.665   3.854 -0.7745  0.3891  0.3315
 7593SOL    HW234239   0.305   1.670   3.976 -1.0208 -1.2094  1.6116
 7594SOL     OW34240   0.443   1.583   3.121 -0.0434 -0.1290  0.2504
 7594SOL    HW134241   0.521   1.639   3.124 -0.6145  0.7735 -1.7439
 7594SOL    HW234242   0.478   1.503   3.159  1.4415 -0.4493 -1.7508
 7595SOL     OW34243   2.175   0.262   5.006  0.8061  0.0935 -0.3493
 7595SOL    HW134244   2.172   0.175   4.966 -0.9322  0.0036 -0.0242
 7595SOL    HW234245   2.086   0.265   5.040  1.0876 -0.7856  0.4850
 7596SOL     OW34246   3.884   3.403   4.623 -0.1461 -0.2717 -0.7910
 7596SOL    HW134247   3.849   3.383   4.536  0.9925 -2.1859 -0.8079
 7596SOL    HW234248   3.966   3.445   4.598  0.6202 -0.9277  0.6828
 7597SOL     OW34249   3.535   0.135  14.621 -0.2673 -0.1378 -0.1775
 7597SOL    HW134250   3.620   0.112  14.657  0.0220  2.2428  0.6383
 7597SOL    HW234251   3.521   0.066  14.555 -0.1327 -0.0527 -0.2950
 7598SOL     OW34252   1.845   1.163   8.558 -0.2642 -0.3693  0.2190
 7598SOL    HW134253   1.894   1.117   8.490  0.6472 -1.5163  1.6530
 7598SOL    HW234254   1.878   1.124   8.639 -0.4109 -1.7865 -0.4166
 7599SOL     OW34255   2.616   0.602   4.095  1.0739  0.3847  0.1896
 7599SOL    HW134256   2.522   0.601   4.076  1.4613  0.5334 -1.6905
 7599SOL    HW234257   2.639   0.675   4.038  0.1080  1.5128  1.2517
 7600SOL     OW34258   3.876   3.028   8.202 -0.5600 -0.1144 -0.1694
 7600SOL    HW134259   3.969   3.029   8.223 -0.5869  0.1030 -0.0687
 7600SOL    HW234260   3.872   3.056   8.110  1.6010  0.3268 -0.1224
 7601SOL     OW34261   0.994   1.695   5.915  0.4722  0.5009 -0.0632
 7601SOL    HW134262   1.075   1.673   5.869  0.7738  0.5673  0.4366
 7601SOL    HW234263   0.929   1.654   5.858  1.1597  0.2712 -0.6829
 7602SOL     OW34264   3.319   0.351   0.621 -0.2760 -0.3223  0.0010
 7602SOL    HW134265   3.229   0.380   0.608 -0.3248  0.4258  2.0653
 7602SOL    HW234266   3.303   0.270   0.671  1.7760 -0.8302 -0.1481
 7603SOL     OW34267   4.291   2.801  17.018  0.4430  0.3534 -0.2308
 7603SOL    HW134268   4.254   2.802  16.930 -0.3776  0.8867  0.1179
 7603SOL    HW234269   4.370   2.852  17.000  0.3333 -0.1568 -2.1816
 7604SOL     OW34270   2.524   1.858   3.185 -0.0792  0.4094 -0.1285
 7604SOL    HW134271   2.517   1.849   3.090  0.1063 -0.4762 -0.0578
 7604SOL    HW234272   2.536   1.952   3.198  0.9863  0.2356  0.1320
 7605SOL     OW34273   4.085   1.169   4.891  0.2172 -0.8551  1.0622
 7605SOL    HW134274   4.109   1.230   4.821  0.6419  0.2307  2.1649
 7605SOL    HW234275   4.035   1.221   4.954 -2.1461  1.7996 -2.9781
 7606SOL     OW34276   3.380   2.715  12.626 -0.1863  0.4695 -0.0208
 7606SOL    HW134277   3.414   2.797  12.589  0.9959  1.3527  3.0606
 7606SOL    HW234278   3.378   2.661  12.546  1.5563 -1.9330  1.5593
 7607SOL     OW34279   0.054   1.994   1.057  0.0015  0.3920 -0.0560
 7607SOL    HW134280   4.691   2.037   1.058  0.7652  1.9830 -1.8878
 7607SOL    HW234281   0.068   1.982   0.963 -0.3778 -2.6930  0.2995
 7608SOL     OW34282   0.743   4.409   2.796 -0.4862 -0.1472 -0.5069
 7608SOL    HW134283   0.704   4.496   2.788 -0.5333 -0.2570 -1.4151
 7608SOL    HW234284   0.818   4.416   2.738  0.3160  0.6739  0.6210
 7609SOL     OW34285   0.207   0.507   8.349 -0.1108 -0.2629 -0.5535
 7609SOL    HW134286   0.260   0.551   8.282 -2.6235  2.2797 -0.8989
 7609SOL    HW234287   0.279   0.470   8.399 -0.6187 -0.1596  0.2527
 7610SOL     OW34288   3.170   1.594   4.604 -0.3140  0.6285 -0.3144
 7610SOL    HW134289   3.152   1.647   4.526  1.5363 -0.1320 -1.2575
 7610SOL    HW234290   3.265   1.584   4.597 -0.2956 -0.7854  2.1120
 7611SOL     OW34291   0.976   0.965  12.270  0.2455  0.0670 -0.1193
 7611SOL    HW134292   0.957   0.940  12.180 -2.0593 -0.0882  0.4000
 7611SOL    HW234293   1.059   1.011  12.258 -0.4412  1.0103 -1.1796
 7612SOL     OW34294   0.156   2.481   8.068 -0.0914  0.2412 -0.2913
 7612SOL    HW134295   0.145   2.566   8.025  1.8241 -0.6293 -2.5121
 7612SOL    HW234296   0.160   2.514   8.158 -0.5828  0.1467 -0.2350
 7613SOL     OW34297   0.501   0.718   1.823  0.1544  0.1201  0.1441
 7613SOL    HW134298   0.534   0.687   1.739 -0.6782 -1.3678  0.3538
 7613SOL    HW234299   0.570   0.682   1.878  1.0253 -0.9534 -1.6547
 7614SOL     OW34300   3.691   1.069   8.035  0.1656  0.5327  0.1952
 7614SOL    HW134301   3.598   1.080   8.055  0.2813  1.5344  0.2175
 7614SOL    HW234302   3.728   1.137   8.092 -0.8575 -1.0346  2.7275
 7615SOL     OW34303   1.503   4.626   3.016  0.4094 -0.4319 -0.2777
 7615SOL    HW134304   1.590   4.644   3.052  0.9904  0.7183 -2.2651
 7615SOL    HW234305   1.528   4.595   2.929 -2.0840 -1.5433 -0.6033
 7616SOL     OW34306   2.220   2.016   7.633  0.0321 -0.0511 -0.1699
 7616SOL    HW134307   2.265   2.077   7.693  1.0128  0.8815 -1.8526
 7616SOL    HW234308   2.282   1.944   7.639  0.2138  0.1425  0.2863
 7617SOL     OW34309   2.161   0.372   0.052 -0.1803  0.0053 -0.5116
 7617SOL    HW134310   2.198   0.387   0.139 -1.9677  0.0673  0.2443
 7617SOL    HW234311   2.234   0.383  17.683  0.4780 -2.2031 -0.1101
 7618SOL     OW34312   3.964   1.547   3.153  0.1380  0.0111  0.0390
 7618SOL    HW134313   3.909   1.468   3.152  0.7571 -0.4177 -0.1765
 7618SOL    HW234314   3.899   1.613   3.177  0.1027 -0.3474  0.9526
 7619SOL     OW34315   3.949   1.347  15.495 -0.0926  0.2082  0.1215
 7619SOL    HW134316   3.954   1.317  15.585 -0.7480  2.2501  0.8396
 7619SOL    HW234317   3.901   1.429  15.496 -1.8165 -0.8280  1.4469
 7620SOL     OW34318   2.699   4.173   1.987 -0.2514  0.1941  0.3118
 7620SOL    HW134319   2.723   4.261   2.018  0.6634 -0.8062  2.4185
 7620SOL    HW234320   2.609   4.162   2.018 -0.4679 -0.2757 -0.4849
 7621SOL     OW34321   2.948   1.642   2.044 -0.2658  0.0251 -0.4584
 7621SOL    HW134322   2.890   1.565   2.046 -3.0096  2.0632 -0.9247
 7621SOL    HW234323   2.951   1.652   1.949  1.5236 -0.3680 -0.4440
 7622SOL     OW34324   2.154   2.509   3.885  0.7060  0.4270  0.2267
 7622SOL    HW134325   2.163   2.565   3.962  0.3248 -0.0964  0.6527
 7622SOL    HW234326   2.133   2.577   3.820 -0.7129  1.2050  1.5141
 7623SOL     OW34327   1.854   2.940   2.776 -0.6168  0.0033  0.0222
 7623SOL    HW134328   1.887   3.020   2.818  0.4475 -0.5585  0.2519
 7623SOL    HW234329   1.785   2.917   2.839  0.6674  0.5644  1.6349
 7624SOL     OW34330   4.295   0.579   4.195 -0.2287  0.4731 -0.1871
 7624SOL    HW134331   4.302   0.488   4.225  0.9037  1.4826  2.6383
 7624SOL    HW234332   4.201   0.589   4.181 -0.5620 -1.8930  0.2387
 7625SOL     OW34333   0.183   0.584  15.948 -0.5036 -0.0835 -0.2395
 7625SOL    HW134334   0.098   0.550  15.977 -1.9997  3.4049 -0.5627
 7625SOL    HW234335   0.222   0.497  15.953 -1.0093 -0.3254 -0.4524
 7626SOL     OW34336   0.847   2.516   5.275  0.2811 -0.0428 -0.3092
 7626SOL    HW134337   0.929   2.558   5.250  0.2969 -0.3938 -0.8693
 7626SOL    HW234338   0.830   2.570   5.352 -0.5508 -0.6957 -0.0384
 7627SOL     OW34339   1.257   1.392  15.349 -0.6001  0.2801 -0.4414
 7627SOL    HW134340   1.283   1.357  15.264  0.9138 -2.8770  1.2994
 7627SOL    HW234341   1.298   1.339  15.418  1.2527  0.2773 -1.5710
 7628SOL     OW34342   2.831   4.404   3.617  0.1097  0.7783 -0.2903
 7628SOL    HW134343   2.891   4.349   3.666 -0.8587  0.4569  0.5339
 7628SOL    HW234344   2.881   4.420   3.537  0.8745 -1.1623 -0.1988
 7629SOL     OW34345   3.074   0.092   2.426 -0.4138 -0.4774  0.0614
 7629SOL    HW134346   3.097   0.009   2.384  0.2870  0.4173 -1.3268
 7629SOL    HW234347   2.981   0.075   2.443 -0.6933  1.1334  0.1157
 7630SOL     OW34348   1.910   1.632   8.687  0.0678 -0.4105 -0.3587
 7630SOL    HW134349   1.848   1.618   8.615  1.6936 -0.7371 -1.6976
 7630SOL    HW234350   1.958   1.550   8.680  0.4267 -0.4291  2.1824
 7631SOL     OW34351   4.023   2.090   0.586 -0.2106 -0.8239 -0.1430
 7631SOL    HW134352   3.960   2.021   0.567 -0.8814 -0.2355 -0.0773
 7631SOL    HW234353   4.041   2.072   0.678 -2.6501  3.2626  1.1449
 7632SOL     OW34354   3.665   0.660  10.633 -0.0132  0.5779 -0.4770
 7632SOL    HW134355   3.606   0.587  10.615 -1.0879  0.8621  1.9122
 7632SOL    HW234356   3.656   0.711  10.553 -3.2852 -0.3452 -0.6614
 7633SOL     OW34357   0.947   3.075   3.738 -1.1292  0.0239  0.3759
 7633SOL    HW134358   1.000   3.046   3.812 -0.5855 -3.2305 -1.2564
 7633SOL    HW234359   0.940   3.170   3.747  0.7625  0.1920  0.0734
 7634SOL     OW34360   4.496   2.647  17.157 -0.0472  0.2634  0.5070
 7634SOL    HW134361   4.455   2.707  17.094 -0.1558 -1.1459 -0.7704
 7634SOL    HW234362   4.433   2.576  17.166  0.4191 -0.3641 -1.1998
 7635SOL     OW34363   1.397   2.586   1.849 -0.8272 -0.0573  0.0089
 7635SOL    HW134364   1.471   2.596   1.909 -1.1626 -0.9271  0.5650
 7635SOL    HW234365   1.373   2.677   1.833 -2.1917 -0.2690  0.8770
 7636SOL     OW34366   4.020   3.224   5.563  0.9977 -0.1686 -0.4023
 7636SOL    HW134367   4.028   3.294   5.627  3.0434 -1.2560  0.5217
 7636SOL    HW234368   4.004   3.151   5.623  0.4799  0.0463 -0.2862
 7637SOL     OW34369   1.747   4.678   7.787  0.2030 -0.4479  0.3092
 7637SOL    HW134370   1.702   0.026   7.742  1.1189 -0.7135 -1.0250
 7637SOL    HW234371   1.700   4.677   7.870 -0.2180  0.8439  0.0802
 7638SOL     OW34372   2.861   1.732   8.624  0.0773  0.1182  0.1840
 7638SOL    HW134373   2.894   1.821   8.638  0.8488  0.0406 -1.1898
 7638SOL    HW234374   2.773   1.753   8.591 -1.0248 -0.4325  2.7165
 7639SOL     OW34375   3.188   1.296   7.411  0.1686 -0.2807 -0.4031
 7639SOL    HW134376   3.110   1.331   7.454  1.6735 -0.2888  2.3244
 7639SOL    HW234377   3.209   1.224   7.471 -0.7552 -0.4952 -0.3459
 7640SOL     OW34378   1.553   2.759  12.530  0.3507  0.1717  0.3066
 7640SOL    HW134379   1.632   2.714  12.502  0.4584 -0.2168  1.2385
 7640SOL    HW234380   1.549   2.827  12.462  1.9989  0.3280  0.3728
 7641SOL     OW34381   0.140   3.481   6.509  0.5745  0.2323 -0.4628
 7641SOL    HW134382   0.070   3.469   6.573  2.5112 -1.6775  1.3468
 7641SOL    HW234383   0.130   3.403   6.455 -0.0843  0.2561 -0.3756
 7642SOL     OW34384   2.345   3.213  13.553  0.4804  0.8337 -0.1519
 7642SOL    HW134385   2.317   3.265  13.629  3.1759 -0.2196  1.5351
 7642SOL    HW234386   2.268   3.157  13.546  2.2053 -1.7427  1.6060
 7643SOL     OW34387   3.053   3.039   4.090  0.1070  0.0827  0.2832
 7643SOL    HW134388   2.975   3.092   4.107  0.6011  0.7572  0.4289
 7643SOL    HW234389   3.086   3.037   4.180  1.6079 -0.2932 -0.2864
 7644SOL     OW34390   4.560   2.211  17.672  0.5167 -0.4071  0.1915
 7644SOL    HW134391   4.595   2.125  17.648  0.6469 -0.9156  2.1752
 7644SOL    HW234392   4.465   2.201  17.663  0.3449  0.4919  1.0620
 7645SOL     OW34393   1.351   3.524  16.949  0.4465 -0.5644 -0.2160
 7645SOL    HW134394   1.420   3.509  16.884  0.7225  0.2869 -0.1152
 7645SOL    HW234395   1.326   3.435  16.974  0.5731 -0.7459 -0.7217
 7646SOL     OW34396   1.551   2.302  10.726 -0.6611  0.1754 -0.2041
 7646SOL    HW134397   1.578   2.229  10.669 -0.9986 -0.6429  0.6824
 7646SOL    HW234398   1.627   2.358  10.708  2.2402 -3.7274 -0.1904
 7647SOL     OW34399   4.092   4.280   3.196  0.3202 -0.1667 -0.1985
 7647SOL    HW134400   4.110   4.368   3.161  0.8597 -0.1971 -0.0059
 7647SOL    HW234401   4.004   4.295   3.230  0.0457  0.1966 -1.0790
 7648SOL     OW34402   3.868   4.028   1.902 -0.7256  0.3565  0.4831
 7648SOL    HW134403   3.908   4.112   1.878  0.1199 -0.8338 -2.3022
 7648SOL    HW234404   3.886   4.015   1.995 -0.1830 -0.7949  0.2164
 7649SOL     OW34405   3.188   2.248  10.889  0.5411 -0.4418 -0.1224
 7649SOL    HW134406   3.237   2.219  10.966 -0.3781 -0.6851  0.3662
 7649SOL    HW234407   3.219   2.186  10.823 -0.7407 -3.4716  2.1790
 7650SOL     OW34408   1.116   3.141  17.526 -0.6947 -0.5054  0.1047
 7650SOL    HW134409   1.108   3.152  17.431 -0.8635 -2.8753 -0.1637
 7650SOL    HW234410   1.130   3.047  17.513 -0.6829 -0.4107 -0.5443
 7651SOL     OW34411   3.519   3.113   2.114 -0.3771  0.0932  0.7475
 7651SOL    HW134412   3.601   3.131   2.069 -1.1209  2.1209  0.1807
 7651SOL    HW234413   3.495   3.033   2.068 -0.3345  0.2895  0.3785
 7652SOL     OW34414   3.526   3.498   3.298 -0.2024  0.2123  0.0453
 7652SOL    HW134415   3.507   3.420   3.349  0.1413  0.9111  1.2434
 7652SOL    HW234416   3.609   3.477   3.255 -0.9156 -2.9784  0.2420
 7653SOL     OW34417   1.441   0.105  15.219 -0.1883  0.3846  0.2044
 7653SOL    HW134418   1.421   0.170  15.151 -0.4438  0.9542  0.8170
 7653SOL    HW234419   1.435   0.022  15.172  1.1586  0.6052 -0.3314
 7654SOL     OW34420   0.238   1.579   6.100  0.1230 -0.4702  1.0796
 7654SOL    HW134421   0.163   1.544   6.052  0.4862  2.2396 -1.4448
 7654SOL    HW234422   0.213   1.666   6.129 -0.8331 -0.9865  1.8069
 7655SOL     OW34423   0.926   1.841   2.862 -0.2552 -0.3857  0.1005
 7655SOL    HW134424   0.857   1.782   2.831 -0.0301 -2.0046  2.7035
 7655SOL    HW234425   0.999   1.782   2.879  0.0463 -0.3050 -0.8806
 7656SOL     OW34426   4.594   3.660  11.900  0.3941  0.2402 -0.5430
 7656SOL    HW134427   4.615   3.699  11.985 -0.1058 -1.8495  0.5385
 7656SOL    HW234428   4.585   3.571  11.936  1.4643  0.5658  0.5509
 7657SOL     OW34429   2.426   1.033  11.724 -0.5457  0.5439 -0.5387
 7657SOL    HW134430   2.475   0.956  11.695  0.1609 -0.0085  2.0941
 7657SOL    HW234431   2.503   1.086  11.746  0.3527 -1.2010  0.5884
 7658SOL     OW34432   1.694   2.789   2.956  0.1304  0.0798  0.0323
 7658SOL    HW134433   1.744   2.752   3.029 -0.5388 -1.0210 -0.0688
 7658SOL    HW234434   1.615   2.807   3.006  0.5499  0.8279  0.4265
 7659SOL     OW34435   4.613   2.811   5.898 -0.3256  0.2112  0.5557
 7659SOL    HW134436   4.623   2.906   5.911 -0.5708 -0.0562  2.8093
 7659SOL    HW234437   4.703   2.784   5.883 -0.2976  0.6684 -0.1176
 7660SOL     OW34438   0.074   2.094  14.240 -0.1180 -0.0194  0.2069
 7660SOL    HW134439   0.098   2.027  14.304 -0.5090 -1.1091 -0.7955
 7660SOL    HW234440   0.040   2.165  14.295 -0.9627 -0.1526 -0.1416
 7661SOL     OW34441   4.562   3.407   7.885  0.3655 -0.7981  0.5115
 7661SOL    HW134442   4.503   3.369   7.951  2.2696 -0.8318  2.2079
 7661SOL    HW234443   4.647   3.370   7.905  1.3205  2.1247  1.9634
 7662SOL     OW34444   2.211   1.970   3.355 -0.1286  0.7351 -0.3682
 7662SOL    HW134445   2.162   1.897   3.393  1.8037  0.3065  1.2923
 7662SOL    HW234446   2.184   1.979   3.263 -0.9020  1.4066 -0.0663
 7663SOL     OW34447   0.294   2.005   4.280 -0.3473 -0.4814 -0.6827
 7663SOL    HW134448   0.226   1.948   4.245 -0.1499 -1.5537  0.6647
 7663SOL    HW234449   0.365   1.943   4.264  0.3443  0.3743 -0.9646
 7664SOL     OW34450   0.244   0.851   7.365 -0.4190  0.0746 -0.1730
 7664SOL    HW134451   0.237   0.776   7.425  2.1280 -0.7739 -0.9379
 7664SOL    HW234452   0.337   0.871   7.381 -0.7123 -0.0822  1.7525
 7665SOL     OW34453   1.126   2.366  16.661 -0.1706  0.1925 -0.1891
 7665SOL    HW134454   1.068   2.300  16.698  2.1297 -1.0275  1.2727
 7665SOL    HW234455   1.153   2.314  16.586  3.8126  1.1225  0.5817
 7666SOL     OW34456   4.228   1.798  13.771  0.1727 -0.2903 -0.0279
 7666SOL    HW134457   4.199   1.889  13.766  0.5679 -0.2563 -1.7680
 7666SOL    HW234458   4.173   1.765  13.842  0.6181 -2.2587 -0.5723
 7667SOL     OW34459   3.984   3.221   4.240  0.4708  0.2536 -0.3672
 7667SOL    HW134460   4.006   3.144   4.293  0.2867  0.5430  0.1274
 7667SOL    HW234461   3.917   3.186   4.181  0.4614  2.0391 -1.4191
 7668SOL     OW34462   0.262   4.023   0.669 -0.0712 -0.4311 -0.4951
 7668SOL    HW134463   0.305   4.107   0.653 -2.3807  0.9831  0.8961
 7668SOL    HW234464   0.202   4.050   0.738  0.9972 -0.7912  0.5697
 7669SOL     OW34465   1.540   4.612   5.726  0.0503  0.2788  0.0758
 7669SOL    HW134466   1.481   4.681   5.696 -0.0913 -0.4124 -1.2249
 7669SOL    HW234467   1.492   4.583   5.804 -0.2179 -1.4389 -0.7308
 7670SOL     OW34468   1.166   3.695   8.320  0.7079 -0.0460 -0.2411
 7670SOL    HW134469   1.149   3.736   8.235  2.6393  0.8049 -0.2161
 7670SOL    HW234470   1.196   3.611   8.286 -1.0386 -0.0855 -1.6607
 7671SOL     OW34471   4.608   1.949   5.200 -0.2183  0.0773  0.2765
 7671SOL    HW134472   4.696   1.981   5.183 -0.4996 -0.1688 -1.6621
 7671SOL    HW234473   4.555   2.029   5.198  1.3638  1.1931  3.9200
 7672SOL     OW34474   0.805   2.298  13.983  0.4180 -0.1024 -0.3882
 7672SOL    HW134475   0.829   2.390  13.986  0.2801 -0.1409  2.1111
 7672SOL    HW234476   0.743   2.293  14.056  3.1314  0.6821  2.0136
 7673SOL     OW34477   2.878   3.316  14.055 -0.9053 -0.3251  0.0841
 7673SOL    HW134478   2.853   3.235  14.099  1.2356 -0.8488  0.3605
 7673SOL    HW234479   2.910   3.369  14.129  1.7299 -1.5833 -0.1447
 7674SOL     OW34480   4.258   4.074  11.751 -0.1447 -0.4385  0.4581
 7674SOL    HW134481   4.249   3.997  11.695  0.8522  0.2696 -0.6922
 7674SOL    HW234482   4.329   4.120  11.706 -1.3605  0.8191 -0.1774
 7675SOL     OW34483   3.748   0.515   1.162  0.1867  0.6876  0.4423
 7675SOL    HW134484   3.654   0.524   1.145  0.0250 -2.3893 -0.3139
 7675SOL    HW234485   3.787   0.583   1.107  1.5254  2.5833  3.6962
 7676SOL     OW34486   1.967   3.021   2.549  0.6433 -0.9881 -0.2378
 7676SOL    HW134487   2.055   3.024   2.587  1.5144 -3.3287 -2.1218
 7676SOL    HW234488   1.913   3.005   2.627 -1.6343 -0.9611 -1.8084
 7677SOL     OW34489   1.580   2.175   5.706 -0.4765  0.1557  0.2464
 7677SOL    HW134490   1.590   2.216   5.792 -0.2655 -1.3617  0.9363
 7677SOL    HW234491   1.585   2.248   5.644  2.5728 -0.4016 -0.1704
 7678SOL     OW34492   3.104   1.302   4.181 -0.3962 -0.0740 -0.7519
 7678SOL    HW134493   3.129   1.255   4.101  2.4913  0.7009 -0.3136
 7678SOL    HW234494   3.162   1.259   4.244 -0.9283 -0.4169 -0.4930
 7679SOL     OW34495   3.129   4.683  13.056  0.4106 -0.1051 -0.1190
 7679SOL    HW134496   3.130   4.587  13.049  2.7563 -0.0596 -0.4909
 7679SOL    HW234497   3.061   4.695  13.122 -1.7058  0.7118 -2.4562
 7680SOL     OW34498   2.974   1.679   6.590  0.6017 -0.2537 -0.5297
 7680SOL    HW134499   3.037   1.618   6.628 -0.0862  0.3518  1.5637
 7680SOL    HW234500   2.910   1.681   6.661  0.2181  0.1546 -0.8859
 7681SOL     OW34501   4.233   2.842   5.626 -0.0771 -0.0500 -0.3723
 7681SOL    HW134502   4.246   2.823   5.719 -0.9481 -0.6052 -0.3696
 7681SOL    HW234503   4.299   2.910   5.613 -1.1092  1.0165 -0.0096
 7682SOL     OW34504   1.852   0.896   9.045  0.0434 -0.3356 -0.0772
 7682SOL    HW134505   1.886   0.881   9.134  0.3440  1.7131  0.1654
 7682SOL    HW234506   1.898   0.824   9.002 -0.1633  0.4032 -1.5524
 7683SOL     OW34507   4.317   1.051   5.952  0.0456  0.0158 -0.6583
 7683SOL    HW134508   4.256   1.024   6.021  1.3219 -0.8833  0.1336
 7683SOL    HW234509   4.267   1.116   5.904 -0.1527 -0.5811 -1.2581
 7684SOL     OW34510   1.099   1.179   0.088  0.1962  0.3358 -0.0276
 7684SOL    HW134511   1.139   1.109   0.036  0.6496 -0.8222  1.8422
 7684SOL    HW234512   1.094   1.250   0.025  0.2719 -0.2840 -0.7285
 7685SOL     OW34513   4.291   0.933   3.308 -0.5059 -0.3200 -0.3298
 7685SOL    HW134514   4.353   1.002   3.282 -0.4086 -0.7146 -1.1408
 7685SOL    HW234515   4.325   0.899   3.390  0.2051 -0.6202 -0.7465
 7686SOL     OW34516   4.130   3.543   8.583 -0.5841 -0.0849 -0.0288
 7686SOL    HW134517   4.206   3.600   8.574  2.0958 -3.4805  1.0084
 7686SOL    HW234518   4.150   3.479   8.651  1.5734 -0.5342 -1.0686
 7687SOL     OW34519   0.981   2.074   7.087  0.7563 -0.3901  0.3447
 7687SOL    HW134520   0.902   2.085   7.140  0.6118 -2.4435  0.5617
 7687SOL    HW234521   1.042   2.121   7.144  0.0857 -0.5381  1.1828
 7688SOL     OW34522   3.745   0.509   1.721 -0.4602 -0.1226 -0.3225
 7688SOL    HW134523   3.703   0.438   1.770 -1.3152  0.0761 -0.7655
 7688SOL    HW234524   3.748   0.469   1.634  0.1372 -0.3702 -0.1874
 7689SOL     OW34525   4.603   1.877   0.058 -0.2374 -0.7191 -0.5961
 7689SOL    HW134526   4.587   1.933   0.134 -0.0463 -2.5582  0.7973
 7689SOL    HW234527   4.664   1.930   0.007  1.2207 -2.2461 -0.4528
 7690SOL     OW34528   1.388   1.280   8.440  0.0270 -0.8608 -0.3161
 7690SOL    HW134529   1.340   1.311   8.516  2.2617 -2.8815  1.9057
 7690SOL    HW234530   1.445   1.353   8.416 -2.0215  0.7899 -0.0465
 7691SOL     OW34531   3.784   2.828   5.334  0.3795 -0.0328  0.1819
 7691SOL    HW134532   3.875   2.814   5.359  0.2127 -0.3511  0.6066
 7691SOL    HW234533   3.757   2.737   5.341 -2.9490  0.9524  0.2059
 7692SOL     OW34534   2.982   0.731  17.674  0.2570  0.1305  0.0306
 7692SOL    HW134535   2.898   0.776  17.660  0.1268 -0.0936  0.0889
 7692SOL    HW234536   3.002   0.779   0.062  2.3329 -1.0394  0.2091
 7693SOL     OW34537   1.409   0.049  17.243 -0.2286  0.9114  0.0057
 7693SOL    HW134538   1.325   0.009  17.220  0.9542 -2.2955  1.2486
 7693SOL    HW234539   1.398   0.066  17.337 -1.0269 -0.7731  0.2262
 7694SOL     OW34540   1.460   0.491  15.275 -0.4251  0.0383 -0.1332
 7694SOL    HW134541   1.477   0.585  15.285 -0.5241 -0.0124  0.4605
 7694SOL    HW234542   1.401   0.493  15.199  1.3148 -0.3575 -1.5171
 7695SOL     OW34543   0.719   0.116  17.053  0.1130  0.3230  0.2556
 7695SOL    HW134544   0.764   0.032  17.051 -1.2912 -0.4179  0.0240
 7695SOL    HW234545   0.781   0.165  17.107  0.9072 -1.7337  1.1820
 7696SOL     OW34546   1.378   1.437   5.513  0.1995 -0.3328 -0.1426
 7696SOL    HW134547   1.423   1.413   5.433 -0.1848 -0.5362 -0.2997
 7696SOL    HW234548   1.367   1.532   5.500  1.6229 -0.1237  0.2096
 7697SOL     OW34549   1.755   3.437  11.595  0.4942 -0.3733 -0.2888
 7697SOL    HW134550   1.669   3.396  11.605  0.4240 -0.2999 -0.6028
 7697SOL    HW234551   1.755   3.518  11.646  1.0324 -0.9153  0.5910
 7698SOL     OW34552   2.616   3.463   3.370 -0.0052 -0.5915 -0.1210
 7698SOL    HW134553   2.564   3.438   3.447 -0.1540  2.4870  0.7807
 7698SOL    HW234554   2.696   3.411   3.377 -1.8303 -3.3360  0.0877
 7699SOL     OW34555   2.021   2.344   5.914  0.2778  0.3311 -0.0577
 7699SOL    HW134556   2.053   2.414   5.858  2.7698 -0.4917  0.3316
 7699SOL    HW234557   2.101   2.295   5.933 -0.6858 -1.0879  0.3570
 7700SOL     OW34558   2.268   0.112  13.769 -0.0356 -0.5239  0.2721
 7700SOL    HW134559   2.331   0.110  13.697 -0.2200 -0.6050  0.1109
 7700SOL    HW234560   2.186   0.099  13.720 -0.1279 -0.7574  0.4919
 7701SOL     OW34561   3.555   0.527   8.299 -0.4648 -0.4635  0.4558
 7701SOL    HW134562   3.611   0.468   8.351 -0.8061  1.6235  3.1577
 7701SOL    HW234563   3.621   0.571   8.245 -1.4901 -0.7974 -1.0373
 7702SOL     OW34564   2.519   0.298   5.066 -0.7180 -1.3286 -0.5560
 7702SOL    HW134565   2.467   0.338   5.136  1.0238  0.7713 -0.4566
 7702SOL    HW234566   2.581   0.250   5.121  0.3043  2.0991  1.2996
 7703SOL     OW34567   0.850   0.404  14.989 -0.3912  0.0248  0.3132
 7703SOL    HW134568   0.883   0.386  14.901 -1.4505 -1.8686  0.3079
 7703SOL    HW234569   0.889   0.483  15.026  1.9086 -0.4712 -1.0203
 7704SOL     OW34570   2.327   0.928   2.686 -0.1759 -0.1332  0.2491
 7704SOL    HW134571   2.254   0.881   2.644 -3.0599  1.1200  3.8464
 7704SOL    HW234572   2.280   0.965   2.761  1.6027  1.4148  0.5819
 7705SOL     OW34573   4.110   3.318  15.418  0.1129  0.5776 -0.2996
 7705SOL    HW134574   4.056   3.391  15.449 -1.7994 -0.5097 -1.0798
 7705SOL    HW234575   4.106   3.274  15.503  0.2838 -0.3415 -0.7690
 7706SOL     OW34576   1.286   3.965   8.434  0.3114  0.2647  0.2175
 7706SOL    HW134577   1.219   4.011   8.384 -0.0782 -1.8745 -1.2356
 7706SOL    HW234578   1.358   4.027   8.450  2.7332 -2.0035 -1.8263
 7707SOL     OW34579   0.154   4.563   7.713 -0.8920 -0.5957  0.4967
 7707SOL    HW134580   0.189   4.572   7.801 -0.3150 -1.6598  0.3667
 7707SOL    HW234581   0.068   4.527   7.737 -0.6428 -0.7596  1.1267
 7708SOL     OW34582   1.582   2.198  16.536 -0.8688 -0.4554  0.0965
 7708SOL    HW134583   1.676   2.216  16.541 -0.9783 -0.0340  0.6301
 7708SOL    HW234584   1.558   2.247  16.458 -1.6998 -1.4433 -0.2549
 7709SOL     OW34585   1.969   0.407   4.567  0.1204 -0.0559 -0.4480
 7709SOL    HW134586   2.022   0.402   4.487  0.4090  2.3572 -0.4101
 7709SOL    HW234587   1.912   0.330   4.568  1.1614 -0.8136  0.4636
 7710SOL     OW34588   1.844   4.018   6.348  0.0656 -0.7799 -0.2124
 7710SOL    HW134589   1.756   4.043   6.376  1.4992  2.7503  1.0986
 7710SOL    HW234590   1.859   4.074   6.273  1.3262 -1.1595 -0.2322
 7711SOL     OW34591   2.995   3.470  14.260 -0.3462 -0.0167  0.5542
 7711SOL    HW134592   2.978   3.513  14.344  1.0606  3.9346 -1.1503
 7711SOL    HW234593   3.060   3.526  14.217  1.0295 -2.2685 -0.2863
 7712SOL     OW34594   4.722   1.696   6.340 -0.2083  0.4406  0.0105
 7712SOL    HW134595   4.648   1.755   6.355 -0.3117  0.5107 -0.7547
 7712SOL    HW234596   0.069   1.750   6.304 -0.1956  0.6555  0.3637
 7713SOL     OW34597   2.412   0.346  10.620  0.1865 -0.1741  0.4078
 7713SOL    HW134598   2.319   0.351  10.598  0.7438 -0.4247 -2.0302
 7713SOL    HW234599   2.444   0.408  10.555 -0.9325  0.9391  0.9212
 7714SOL     OW34600   2.952   1.021   8.760  0.1799 -0.4583  0.6166
 7714SOL    HW134601   2.973   0.952   8.824 -2.0306  0.2874  2.1573
 7714SOL    HW234602   3.007   1.093   8.793  0.1581 -0.4122  0.5523
 7715SOL     OW34603   2.364   4.501   8.194 -0.0083 -0.1186  0.2511
 7715SOL    HW134604   2.323   4.538   8.116  1.1123  2.1391  0.7280
 7715SOL    HW234605   2.323   4.550   8.264  1.4739  0.7870  0.4899
 7716SOL     OW34606   3.201   3.380   7.354 -0.7064 -0.4137  0.2656
 7716SOL    HW134607   3.226   3.374   7.262 -1.0485 -2.5985  0.3082
 7716SOL    HW234608   3.275   3.428   7.391 -0.7248 -0.0748 -0.1351
 7717SOL     OW34609   2.823   4.678   3.039  0.3209  0.5317  0.1139
 7717SOL    HW134610   2.792   0.005   3.115  1.9905 -0.7629  1.5985
 7717SOL    HW234611   2.826   4.586   3.063  0.3999  0.6812  0.6731
 7718SOL     OW34612   0.496   0.606  10.872 -0.3930 -0.5640 -0.5893
 7718SOL    HW134613   0.472   0.698  10.871  0.8153 -0.2613 -2.0783
 7718SOL    HW234614   0.435   0.559  10.929  0.4105 -0.7553  0.1270
 7719SOL     OW34615   0.074   2.740   6.437  0.3455 -0.7037  0.0379
 7719SOL    HW134616   0.043   2.651   6.423 -0.6747 -0.4125  0.4875
 7719SOL    HW234617   0.074   2.746   6.532 -1.0885 -0.7564  0.0347
 7720SOL     OW34618   2.809   3.376   1.850  0.2106  0.8918  0.5608
 7720SOL    HW134619   2.862   3.454   1.836  0.4408  0.6807  0.2753
 7720SOL    HW234620   2.771   3.402   1.934 -0.4579 -0.7592  0.7813
 7721SOL     OW34621   1.341   1.677   8.546  0.5474 -0.3991 -0.7052
 7721SOL    HW134622   1.389   1.651   8.624  0.5856 -0.0290 -0.6063
 7721SOL    HW234623   1.270   1.732   8.580  3.2832  0.9290  2.7725
 7722SOL     OW34624   3.501   1.482  16.256  0.1987  0.0762  0.0100
 7722SOL    HW134625   3.518   1.430  16.334 -2.4205  0.0205  0.5512
 7722SOL    HW234626   3.411   1.456  16.232 -0.3732  1.0933  1.0696
 7723SOL     OW34627   2.542   2.768   9.443 -0.3188 -0.2179 -0.2025
 7723SOL    HW134628   2.558   2.860   9.420  0.6717 -0.5867 -0.9630
 7723SOL    HW234629   2.468   2.747   9.386 -0.6111 -0.6737  0.3520
 7724SOL     OW34630   4.575   2.886   4.710 -0.1379 -0.0850  0.6012
 7724SOL    HW134631   4.530   2.921   4.787 -0.6595  0.0767  0.2209
 7724SOL    HW234632   4.653   2.839   4.742  1.0177  2.4235  1.5325
 7725SOL     OW34633   0.449   1.481   5.742  0.5792 -0.1963 -0.6704
 7725SOL    HW134634   0.501   1.475   5.823  0.1658 -0.1469 -0.4018
 7725SOL    HW234635   0.498   1.424   5.683 -0.6114  0.8685 -2.6534
 7726SOL     OW34636   3.092   3.233  13.363 -0.1599  0.2831 -0.4582
 7726SOL    HW134637   3.130   3.166  13.306  0.7412  0.8106 -0.4826
 7726SOL    HW234638   3.034   3.184  13.420  1.1627  0.0945  0.7344
 7727SOL     OW34639   0.424   2.591   2.224 -0.0259  0.3192  0.2623
 7727SOL    HW134640   0.481   2.665   2.202  2.0072 -0.5234  2.6624
 7727SOL    HW234641   0.418   2.540   2.143 -2.1747 -2.2439  2.0326
 7728SOL     OW34642   1.927   2.172   6.846 -0.4177 -0.0566 -0.1937
 7728SOL    HW134643   1.896   2.102   6.904  1.8685 -1.1411 -0.2931
 7728SOL    HW234644   1.934   2.125   6.763  1.4438  0.6336 -0.4259
 7729SOL     OW34645   0.020   4.602   8.483 -0.2952 -0.3055  0.8528
 7729SOL    HW134646   0.069   4.521   8.472  1.0097  0.6843 -0.5946
 7729SOL    HW234647   4.697   4.600   8.568 -1.1813  0.4585  0.3951
 7730SOL     OW34648   2.919   2.510   8.884  0.0657  0.2664  0.4970
 7730SOL    HW134649   2.934   2.564   8.806  0.0278  0.5450  0.6836
 7730SOL    HW234650   3.002   2.468   8.904 -0.7754 -1.6693 -0.0639
 7731SOL     OW34651   2.984   3.822   5.027 -0.5435 -0.1539 -0.0466
 7731SOL    HW134652   3.043   3.862   4.963 -2.6906  0.5447 -1.6056
 7731SOL    HW234653   2.952   3.904   5.065 -0.7853 -0.5386  0.5700
 7732SOL     OW34654   2.746   1.944   3.849 -0.2016  0.6568  0.6115
 7732SOL    HW134655   2.736   2.038   3.832  1.0664  0.2467 -2.2861
 7732SOL    HW234656   2.795   1.936   3.931  0.6905  0.0332  0.0176
 7733SOL     OW34657   1.335   1.092   6.797  0.3761 -0.7604  0.0200
 7733SOL    HW134658   1.334   1.186   6.778  1.1958 -0.6018  0.7477
 7733SOL    HW234659   1.408   1.068   6.740  1.0536  1.9069 -0.2657
 7734SOL     OW34660   4.569   4.400   7.524  0.2652 -0.2489  0.3453
 7734SOL    HW134661   4.573   4.441   7.610  2.2779  0.7376 -0.2264
 7734SOL    HW234662   4.641   4.339   7.538 -0.0376 -0.5176  0.7513
 7735SOL     OW34663   2.908   0.512   1.977 -0.3568  0.2214 -0.3733
 7735SOL    HW134664   2.933   0.513   1.885 -5.3180  1.3136 -1.7168
 7735SOL    HW234665   2.892   0.604   1.999  2.7727  1.2546 -2.3406
 7736SOL     OW34666   0.358   4.327  16.629 -0.2198  0.3044 -0.4382
 7736SOL    HW134667   0.341   4.419  16.648 -0.5125  0.3715 -1.0315
 7736SOL    HW234668   0.359   4.303  16.721 -1.1923  1.5410 -0.1013
 7737SOL     OW34669   2.264   2.200   8.620  0.5147  0.4500 -0.2012
 7737SOL    HW134670   2.326   2.259   8.577 -0.8703  0.7079 -1.8526
 7737SOL    HW234671   2.315   2.182   8.699 -1.9506  0.1719  1.3055
 7738SOL     OW34672   3.067   4.403   9.382 -0.0101 -0.3429  0.1587
 7738SOL    HW134673   2.974   4.395   9.359  0.6942 -0.4651 -2.6904
 7738SOL    HW234674   3.083   4.494   9.408 -0.9841 -0.4929  1.2642
 7739SOL     OW34675   4.603   3.761   4.462 -0.2052 -0.2315 -0.2352
 7739SOL    HW134676   4.610   3.817   4.385 -1.4013 -0.1836 -0.3073
 7739SOL    HW234677   4.677   3.795   4.513  0.1660  0.8204 -1.4644
 7740SOL     OW34678   1.608   3.429  11.070  0.0873 -0.1530  0.1405
 7740SOL    HW134679   1.678   3.363  11.069  0.3239  0.0731  1.7235
 7740SOL    HW234680   1.622   3.469  11.156  2.6723  0.3900 -0.5315
 7741SOL     OW34681   1.464   2.522   4.911 -0.0373  0.3441 -0.1529
 7741SOL    HW134682   1.422   2.574   4.980 -2.3504 -1.7256  0.0070
 7741SOL    HW234683   1.390   2.470   4.880 -0.2117 -0.8236  2.2348
 7742SOL     OW34684   1.750   3.796  16.790 -0.1524 -0.0359 -0.5582
 7742SOL    HW134685   1.655   3.786  16.779  0.1007 -2.1134 -0.8445
 7742SOL    HW234686   1.760   3.780  16.884  2.8824 -0.2457 -0.9262
 7743SOL     OW34687   3.444   3.207   9.135  0.2449 -0.0254  0.0396
 7743SOL    HW134688   3.426   3.131   9.080  1.5197 -2.4761  2.9437
 7743SOL    HW234689   3.491   3.259   9.070  1.5986 -1.5128 -0.1957
 7744SOL     OW34690   2.540   3.394   4.914 -0.7128  0.2400 -0.1176
 7744SOL    HW134691   2.636   3.393   4.914 -0.7082  0.4956 -0.5507
 7744SOL    HW234692   2.519   3.301   4.904 -0.7763  0.3234 -0.7867
 7745SOL     OW34693   1.807   3.422   8.412  0.2785 -0.1185  0.2625
 7745SOL    HW134694   1.831   3.351   8.352 -3.1776 -0.0530 -1.1926
 7745SOL    HW234695   1.758   3.472   8.347  2.7091  2.4520  0.4182
 7746SOL     OW34696   0.661   3.382   7.810  0.0442 -0.2577 -0.2042
 7746SOL    HW134697   0.630   3.383   7.719  1.7911 -0.0775 -0.7923
 7746SOL    HW234698   0.589   3.427   7.854  0.4699  0.0732  0.1445
 7747SOL     OW34699   3.112   2.021   4.542  0.2241  0.6114 -0.3328
 7747SOL    HW134700   3.183   1.961   4.520 -0.3629 -0.5391  0.8732
 7747SOL    HW234701   3.036   1.963   4.553 -0.9008  2.5257  1.9544
 7748SOL     OW34702   3.734   2.004   4.175  0.6183  0.4046  0.4432
 7748SOL    HW134703   3.796   2.022   4.246  0.0533  0.0644  1.0345
 7748SOL    HW234704   3.757   2.063   4.104 -1.8140 -0.8824 -1.3934
 7749SOL     OW34705   3.765   3.778  12.181 -0.1945 -0.3891  0.2031
 7749SOL    HW134706   3.771   3.868  12.214 -2.4217  0.0154 -0.4934
 7749SOL    HW234707   3.802   3.723  12.250 -0.9488 -0.3469  0.6368
 7750SOL     OW34708   2.924   1.630   6.337  0.1074  0.2491  0.2021
 7750SOL    HW134709   2.914   1.647   6.430  0.4172 -0.4629  0.3629
 7750SOL    HW234710   2.860   1.559   6.327 -1.0681  1.3544 -0.0891
 7751SOL     OW34711   1.440   3.672   3.296  0.5214 -0.2733  0.2129
 7751SOL    HW134712   1.358   3.692   3.343  1.4980 -0.4700  2.0141
 7751SOL    HW234713   1.411   3.606   3.234  1.2619 -0.3513 -0.0446
 7752SOL     OW34714   4.175   1.927   2.767 -0.2133  0.0085 -0.0870
 7752SOL    HW134715   4.202   1.980   2.691 -1.7475  2.0844  0.8100
 7752SOL    HW234716   4.132   1.991   2.824  0.8955 -0.5101  1.3322
 7753SOL     OW34717   4.354   4.358   2.621  0.3864  0.5864  0.0013
 7753SOL    HW134718   4.323   4.419   2.689  1.8917  0.3974  0.8511
 7753SOL    HW234719   4.269   4.324   2.593  0.4919 -1.1007  1.7291
 7754SOL     OW34720   1.059   4.257   4.387  0.2429 -0.0495 -0.6896
 7754SOL    HW134721   1.024   4.232   4.473 -0.5670 -0.3943 -1.1205
 7754SOL    HW234722   1.151   4.236   4.398  0.3796  1.5868  1.3164
 7755SOL     OW34723   0.595   0.986  11.133  0.2350 -0.3228 -0.3097
 7755SOL    HW134724   0.522   1.018  11.186 -0.8520 -0.1009 -1.9399
 7755SOL    HW234725   0.667   1.036  11.173  0.3481 -0.1018 -0.7900
 7756SOL     OW34726   4.462   2.020   7.578  0.1674 -0.2059 -0.0663
 7756SOL    HW134727   4.454   2.063   7.493  0.1244  0.1568  0.1242
 7756SOL    HW234728   4.524   2.075   7.626 -0.9669  1.5717 -0.6497
 7757SOL     OW34729   3.693   2.211  14.890  0.6582  0.7794 -0.1069
 7757SOL    HW134730   3.673   2.294  14.933 -0.1984  0.4577  0.1280
 7757SOL    HW234731   3.769   2.176  14.937 -1.3459 -0.4109  2.2342
 7758SOL     OW34732   1.045   1.445   0.802 -0.4309 -0.0475  0.0350
 7758SOL    HW134733   1.095   1.526   0.814 -0.5999  0.3305 -1.8901
 7758SOL    HW234734   0.981   1.443   0.874 -0.0775  0.5869  0.3638
 7759SOL     OW34735   4.338   2.771   4.603 -0.4447  0.1846 -0.2498
 7759SOL    HW134736   4.396   2.817   4.664 -0.9813 -0.4851  0.7731
 7759SOL    HW234737   4.356   2.681   4.631  0.3381  0.4984  0.2584
 7760SOL     OW34738   0.496   2.526  10.937 -0.4083  0.4913  0.0801
 7760SOL    HW134739   0.487   2.460  11.005  0.7939  1.1715  0.8929
 7760SOL    HW234740   0.564   2.584  10.971  0.1739 -0.5500  0.6904
 7761SOL     OW34741   3.054   3.040  13.055 -0.1990  0.1925 -0.1738
 7761SOL    HW134742   2.984   3.106  13.054  0.3836  0.8196  0.1106
 7761SOL    HW234743   3.131   3.097  13.050  0.1903 -0.2793  0.6561
 7762SOL     OW34744   0.622   4.687   5.694  0.0717  0.0292  0.0981
 7762SOL    HW134745   0.635   0.058   5.681 -1.4475  0.3959  1.3202
 7762SOL    HW234746   0.574   4.688   5.776 -0.1503  0.6275 -0.0392
 7763SOL     OW34747   3.589   0.669   3.352  0.0385 -0.2742 -0.2283
 7763SOL    HW134748   3.506   0.716   3.363 -2.1527 -4.3295  0.4357
 7763SOL    HW234749   3.652   0.740   3.337  0.9027 -0.4534  2.5260
 7764SOL     OW34750   1.912   4.241  10.286 -0.2238 -0.0372 -0.2505
 7764SOL    HW134751   1.984   4.270  10.230  0.5258 -1.4691 -0.0343
 7764SOL    HW234752   1.963   4.184  10.343  0.6207 -1.1021 -2.0771
 7765SOL     OW34753   1.150   2.087   7.988 -0.0912 -0.4721 -0.4775
 7765SOL    HW134754   1.138   2.181   7.997  3.5953  0.1446 -1.8236
 7765SOL    HW234755   1.120   2.072   7.899  2.2476 -0.9311 -1.2083
 7766SOL     OW34756   1.857   0.170  11.740 -0.3317  0.0486 -0.1425
 7766SOL    HW134757   1.911   0.117  11.799 -1.8306 -1.2221  0.0947
 7766SOL    HW234758   1.921   0.197  11.674  0.2527 -1.8623 -0.3598
 7767SOL     OW34759   2.457   3.653   4.954 -0.0897  0.1633 -0.6347
 7767SOL    HW134760   2.440   3.657   4.860  0.5175 -0.2423 -0.7684
 7767SOL    HW234761   2.476   3.559   4.957 -0.0137  0.2300  0.9516
 7768SOL     OW34762   4.114   1.765   3.313  0.5314 -0.1089  0.3089
 7768SOL    HW134763   4.157   1.797   3.234  0.4275 -0.0644  0.2708
 7768SOL    HW234764   4.035   1.819   3.311  0.4976 -0.0709  2.3138
 7769SOL     OW34765   0.731   0.293  14.718  0.1691  0.6240 -0.0869
 7769SOL    HW134766   0.712   0.380  14.753 -0.7303  1.6969 -3.3050
 7769SOL    HW234767   0.825   0.290  14.700  0.3432 -0.0960  0.9327
 7770SOL     OW34768   3.655   0.804   1.154  0.6958 -0.0973  0.1075
 7770SOL    HW134769   3.603   0.835   1.228 -2.4868 -0.1066 -2.1024
 7770SOL    HW234770   3.658   0.882   1.100 -0.7718  0.5074  0.8956
 7771SOL     OW34771   3.823   3.837   8.528 -0.1021  0.1217  0.4848
 7771SOL    HW134772   3.736   3.876   8.538 -0.5778 -1.7450  3.6346
 7771SOL    HW234773   3.840   3.817   8.620 -0.4556  1.4739  0.8431
 7772SOL     OW34774   0.266   3.906  12.018 -0.4261  0.1616  0.5844
 7772SOL    HW134775   0.303   3.885  11.932  0.6517  1.3469  0.7614
 7772SOL    HW234776   0.181   3.942  11.995  0.5831  1.1608 -1.6727
 7773SOL     OW34777   4.356   4.371   8.705  0.3415  0.2031  0.8455
 7773SOL    HW134778   4.333   4.290   8.751 -0.5152  0.7549  1.4014
 7773SOL    HW234779   4.292   4.366   8.634 -1.0711 -0.3434  2.1420
 7774SOL     OW34780   2.505   0.349   3.525  0.0027 -0.0984 -0.0360
 7774SOL    HW134781   2.440   0.369   3.457 -1.5422  1.6405  1.9700
 7774SOL    HW234782   2.447   0.364   3.600 -1.2723 -0.9259 -0.8489
 7775SOL     OW34783   4.072   0.239   2.746 -0.0586  0.4081  0.2025
 7775SOL    HW134784   4.008   0.288   2.799 -0.3197 -0.3402  0.5774
 7775SOL    HW234785   4.133   0.310   2.726  0.3551 -0.1144 -0.3949
 7776SOL     OW34786   4.675   1.267   0.290 -0.1304 -0.1701  0.0013
 7776SOL    HW134787   4.602   1.317   0.327  0.1679  0.1922  0.1125
 7776SOL    HW234788   4.647   1.244   0.202 -0.1429 -0.0847 -0.0175
 7777SOL     OW34789   2.049   4.366   8.783 -0.1985  0.3607 -0.5950
 7777SOL    HW134790   2.002   4.317   8.849 -1.4301  1.0869 -0.9334
 7777SOL    HW234791   2.114   4.415   8.834  2.1621 -4.4290  0.9794
 7778SOL     OW34792   4.268   0.500  17.358 -0.1135 -0.6243 -0.2552
 7778SOL    HW134793   4.351   0.541  17.381 -0.5820  0.2157 -0.0702
 7778SOL    HW234794   4.243   0.556  17.285  1.4518  1.4513  0.8156
 7779SOL     OW34795   0.316   2.659  11.360  0.4036 -0.5851 -0.3579
 7779SOL    HW134796   0.403   2.619  11.363  0.0541 -1.4064 -1.0069
 7779SOL    HW234797   0.295   2.683  11.450  1.3155  1.0557 -0.5970
 7780SOL     OW34798   4.282   1.162  11.867  0.3392  0.6831  0.2605
 7780SOL    HW134799   4.335   1.114  11.804  2.2199  0.0906  2.3056
 7780SOL    HW234800   4.271   1.246  11.822 -1.6636  1.2388  1.7817
 7781SOL     OW34801   4.438   2.049   3.018  0.1422 -0.3711 -0.5616
 7781SOL    HW134802   4.445   2.134   3.061  2.8945 -1.1465  0.4920
 7781SOL    HW234803   4.494   1.992   3.070 -0.5476 -1.2578 -0.7821
 7782SOL     OW34804   3.807   0.444   4.606 -0.2912  0.3229 -0.6863
 7782SOL    HW134805   3.770   0.406   4.686  1.4809 -1.1874 -0.5919
 7782SOL    HW234806   3.842   0.526   4.640  0.6504 -0.5926  0.5329
 7783SOL     OW34807   3.733   2.975   3.744 -0.0123 -0.2276  0.1571
 7783SOL    HW134808   3.739   3.007   3.654  3.0723 -2.2375 -0.3347
 7783SOL    HW234809   3.759   2.883   3.746  1.8589  0.3087  0.7728
 7784SOL     OW34810   0.725   4.123   7.652 -0.1266  0.2902 -0.4438
 7784SOL    HW134811   0.667   4.128   7.728 -0.1598 -1.2500 -0.3819
 7784SOL    HW234812   0.768   4.039   7.669 -1.8034 -0.5264 -0.2722
 7785SOL     OW34813   1.437   1.872   8.325 -0.4560  1.0207  0.5259
 7785SOL    HW134814   1.447   1.955   8.372 -0.1011  1.9610 -1.1824
 7785SOL    HW234815   1.416   1.814   8.398 -0.9149 -0.9000 -1.1218
 7786SOL     OW34816   0.893   2.254   5.143  0.4100  0.0191  1.0755
 7786SOL    HW134817   0.828   2.323   5.160 -1.3940 -1.2834 -0.5897
 7786SOL    HW234818   0.900   2.273   5.049  0.3625 -3.8811  0.2849
 7787SOL     OW34819   1.466   1.611   9.137 -0.1651 -0.3930  0.0587
 7787SOL    HW134820   1.384   1.591   9.092 -0.4208 -0.9999  0.7911
 7787SOL    HW234821   1.463   1.706   9.136  1.9954 -0.3240 -0.0067
 7788SOL     OW34822   1.942   3.041  13.132 -0.5605  0.3820 -0.0503
 7788SOL    HW134823   1.873   3.102  13.105 -1.8790 -0.0875  2.1532
 7788SOL    HW234824   1.898   2.999  13.206 -2.2574 -1.6365 -2.2006
 7789SOL     OW34825   4.676   0.398   8.417  0.0908  0.3542  0.2716
 7789SOL    HW134826   4.700   0.306   8.425 -0.9782  0.0612  0.0954
 7789SOL    HW234827   0.039   0.440   8.425  0.0740  0.6026 -0.7617
 7790SOL     OW34828   3.815   3.549   2.032 -0.0929 -0.4034  0.1416
 7790SOL    HW134829   3.868   3.535   2.110  1.8828  1.6972 -0.8146
 7790SOL    HW234830   3.780   3.636   2.051 -0.0470 -1.0955  3.2333
 7791SOL     OW34831   3.161   1.827   3.705 -0.5373 -0.4339  0.4042
 7791SOL    HW134832   3.201   1.755   3.655  2.4470  2.1491 -0.9257
 7791SOL    HW234833   3.144   1.885   3.630 -1.4524 -1.6694 -0.3535
 7792SOL     OW34834   1.598   2.987   7.721  0.3513  0.2746  0.9211
 7792SOL    HW134835   1.530   2.972   7.786 -1.0065 -1.1843 -0.8473
 7792SOL    HW234836   1.609   3.082   7.729 -0.5339  0.6354 -1.8693
 7793SOL     OW34837   2.353   1.116  10.187 -0.3672 -0.1115  0.4557
 7793SOL    HW134838   2.332   1.143  10.276  3.0717  2.4245  0.4712
 7793SOL    HW234839   2.307   1.186  10.140 -1.6722 -1.0535  0.3324
 7794SOL     OW34840   3.944   3.299   5.879  0.5963 -0.2337  0.1356
 7794SOL    HW134841   3.931   3.217   5.831  0.4117  0.9810 -1.8736
 7794SOL    HW234842   3.895   3.357   5.821 -1.7345  0.1382  2.4389
 7795SOL     OW34843   2.944   2.309   2.406 -0.2995  0.0961 -0.0860
 7795SOL    HW134844   2.936   2.375   2.475  0.3882 -0.2948  0.3660
 7795SOL    HW234845   2.849   2.302   2.392  0.0241 -2.0494 -1.1378
 7796SOL     OW34846   0.469   2.176   6.622  0.5873  0.0303 -0.4289
 7796SOL    HW134847   0.504   2.122   6.693 -0.4729 -2.2306 -1.6060
 7796SOL    HW234848   0.403   2.221   6.674 -0.8541 -1.4830 -0.9247
 7797SOL     OW34849   3.034   4.394  17.279  0.3126 -0.2673 -0.8043
 7797SOL    HW134850   3.051   4.405  17.185  2.5508  0.5191 -0.3033
 7797SOL    HW234851   2.958   4.451  17.295  3.2279  3.3664  0.1745
 7798SOL     OW34852   3.411   4.091   3.778 -0.0323 -0.6557 -0.0467
 7798SOL    HW134853   3.479   4.056   3.835 -0.3563 -0.1513  0.6580
 7798SOL    HW234854   3.388   4.025   3.713 -0.4993 -0.7489  0.2108
 7799SOL     OW34855   3.651   0.415   9.383  0.2786  0.1892  0.3582
 7799SOL    HW134856   3.687   0.424   9.295  0.0942 -0.4374  0.2174
 7799SOL    HW234857   3.709   0.469   9.438  0.0240 -0.3429  1.1551
 7800SOL     OW34858   1.608   0.987  13.004 -0.0445  0.1785  0.0423
 7800SOL    HW134859   1.668   1.029  12.943  1.6154 -2.2741 -0.0081
 7800SOL    HW234860   1.661   0.977  13.083  0.7117  1.5080 -0.2870
 7801SOL     OW34861   4.401   1.433   6.040  0.0696  0.1839  0.2838
 7801SOL    HW134862   4.386   1.521   6.075  0.5663 -0.1694  1.3825
 7801SOL    HW234863   4.482   1.406   6.084  0.1221  1.0726  0.7169
 7802SOL     OW34864   0.056   1.829   9.218 -0.1120 -0.3439  1.1222
 7802SOL    HW134865   0.020   1.909   9.179  0.6472 -0.1942  0.7346
 7802SOL    HW234866   0.143   1.836   9.180 -1.4468  3.5077 -1.1898
 7803SOL     OW34867   1.457   1.033   4.926 -0.4260  0.2590  0.0790
 7803SOL    HW134868   1.442   0.980   5.004  1.3173  2.1379  1.6852
 7803SOL    HW234869   1.369   1.031   4.890  0.4161  1.2894 -1.9991
 7804SOL     OW34870   3.498   0.013  14.940 -0.5931  0.7460 -0.0902
 7804SOL    HW134871   3.566   0.067  14.899 -0.3454  0.6626  0.2163
 7804SOL    HW234872   3.545   4.685  15.005 -1.3613  1.6381  1.1578
 7805SOL     OW34873   3.860   2.463   9.685  0.1140  0.3956  0.0961
 7805SOL    HW134874   3.892   2.472   9.595 -2.2267  0.6480 -0.7120
 7805SOL    HW234875   3.767   2.462   9.662  0.0244 -1.6123  0.5338
 7806SOL     OW34876   3.444   0.764  11.031  0.1040  0.1312  0.3484
 7806SOL    HW134877   3.361   0.720  11.046  0.2823  0.3902  2.1759
 7806SOL    HW234878   3.493   0.689  10.996 -0.4541 -0.8414  1.6577
 7807SOL     OW34879   0.812   0.375  10.612 -0.3082 -0.0885  0.3823
 7807SOL    HW134880   0.760   0.374  10.692 -1.0555  1.3621 -0.0819
 7807SOL    HW234881   0.898   0.405  10.642 -1.0851  0.8057  1.7252
 7808SOL     OW34882   4.569   3.305  12.667 -0.4720 -0.3573  0.5990
 7808SOL    HW134883   4.592   3.220  12.628  0.5274  0.1727  0.0256
 7808SOL    HW234884   4.602   3.358  12.594  0.7211  2.1814  3.0373
 7809SOL     OW34885   0.750   1.035  14.023  0.5172  0.2636  0.6780
 7809SOL    HW134886   0.821   1.099  14.018 -0.7120  1.3808 -2.3766
 7809SOL    HW234887   0.683   1.078  13.969  2.4134  1.4728 -0.6964
 7810SOL     OW34888   3.488   0.395   8.564 -0.0978  0.0645  0.3660
 7810SOL    HW134889   3.577   0.375   8.536 -0.1500  0.2070  0.1014
 7810SOL    HW234890   3.500   0.465   8.628  0.4991 -0.6983  1.0858
 7811SOL     OW34891   4.137   0.203  11.041 -0.1738 -0.2210  0.2031
 7811SOL    HW134892   4.201   0.197  11.111  0.1467  2.1427  0.0968
 7811SOL    HW234893   4.069   0.262  11.072  1.6660  1.1833  1.5132
 7812SOL     OW34894   2.133   4.609   1.862 -0.0411 -0.6059  0.2043
 7812SOL    HW134895   2.170   4.527   1.831  0.9140 -1.5093  3.7377
 7812SOL    HW234896   2.180   4.662   1.798 -1.2878 -0.0360 -0.2357
 7813SOL     OW34897   3.730   2.472   2.412  0.1034 -0.3258  0.3054
 7813SOL    HW134898   3.658   2.533   2.431 -0.2060 -1.0899  1.5731
 7813SOL    HW234899   3.688   2.433   2.335  1.2908  0.1659 -0.6055
 7814SOL     OW34900   3.969   4.421  14.788 -0.2950 -0.2360  0.2437
 7814SOL    HW134901   3.908   4.405  14.716 -1.5353  0.9824  0.9927
 7814SOL    HW234902   3.922   4.482  14.845  0.0854  1.5073 -1.3254
 7815SOL     OW34903   1.477   4.204   5.028 -0.2687 -0.0101 -0.1150
 7815SOL    HW134904   1.504   4.206   5.120 -0.6192  0.1635 -0.0152
 7815SOL    HW234905   1.427   4.123   5.019  0.4577 -0.1287 -3.1360
 7816SOL     OW34906   2.341   4.089   3.472 -0.4324 -0.2152 -0.6925
 7816SOL    HW134907   2.387   4.005   3.470  1.1565  0.6343  0.7897
 7816SOL    HW234908   2.319   4.099   3.379  2.4203 -1.4476 -1.4883
 7817SOL     OW34909   2.556   4.719  13.806 -0.0158  0.1074  0.0392
 7817SOL    HW134910   2.523   0.022  13.720  3.4404  0.3274 -1.2445
 7817SOL    HW234911   2.628   0.058  13.816  0.1945  0.2987 -2.5073
 7818SOL     OW34912   0.718   0.654   4.074  0.1476  0.0030  0.1067
 7818SOL    HW134913   0.630   0.684   4.098  0.1039 -1.5906  2.0134
 7818SOL    HW234914   0.719   0.673   3.981 -1.0211 -1.7379 -0.2672
 7819SOL     OW34915   0.245   2.919  17.454  0.0298 -0.7037  0.4299
 7819SOL    HW134916   0.275   2.976  17.524  0.2219 -2.4370  1.7716
 7819SOL    HW234917   0.184   2.858  17.497 -0.5114  0.3459  1.1508
 7820SOL     OW34918   3.204   3.407  17.174 -0.2509 -0.5990 -0.1648
 7820SOL    HW134919   3.175   3.495  17.198  0.8114  0.3449 -2.3346
 7820SOL    HW234920   3.295   3.434  17.157 -0.1769 -1.1317 -0.5884
 7821SOL     OW34921   0.507   1.023   3.203  0.6304  0.6331  0.0494
 7821SOL    HW134922   0.512   1.046   3.110  1.8442  0.2396  0.0190
 7821SOL    HW234923   0.591   1.055   3.235  0.7850 -0.8112  1.1101
 7822SOL     OW34924   1.526   1.256   5.236  0.2298  0.4127 -0.3482
 7822SOL    HW134925   1.547   1.239   5.144  2.6515  0.4469  0.1962
 7822SOL    HW234926   1.504   1.348   5.225 -2.7818 -0.2446  0.2517
 7823SOL     OW34927   0.453   1.347   3.271  0.1192 -0.6264  0.3819
 7823SOL    HW134928   0.381   1.289   3.248  0.0127  0.3248 -1.6490
 7823SOL    HW234929   0.458   1.333   3.366  2.0804 -2.2852  0.0506
 7824SOL     OW34930   1.456   0.940  16.438 -0.2982  0.5779 -0.0770
 7824SOL    HW134931   1.455   1.005  16.367  0.4984  0.7186  0.0393
 7824SOL    HW234932   1.459   0.991  16.518  2.1636 -0.7833  0.7065
 7825SOL     OW34933   3.327   1.937   0.548 -0.5489  0.6604 -0.4223
 7825SOL    HW134934   3.413   1.944   0.588 -0.6677  0.4750 -0.1355
 7825SOL    HW234935   3.315   1.846   0.573 -2.2209  1.2042  0.7813
 7826SOL     OW34936   2.010   2.596   7.732 -0.1622 -0.0580 -0.0890
 7826SOL    HW134937   2.100   2.598   7.765 -0.2025 -1.6304  0.1000
 7826SOL    HW234938   1.965   2.540   7.796 -3.4977  0.8388 -1.6275
 7827SOL     OW34939   0.509   4.479   3.741  0.1634 -0.2366 -0.4879
 7827SOL    HW134940   0.602   4.467   3.720  0.0612  0.4895 -1.3989
 7827SOL    HW234941   0.471   4.493   3.654 -1.9242 -2.5252  0.0832
 7828SOL     OW34942   2.231   2.575  11.588  0.0179  0.0973  0.1388
 7828SOL    HW134943   2.293   2.504  11.607 -0.6862 -0.9735 -1.6002
 7828SOL    HW234944   2.217   2.573  11.493 -0.0870  0.4731  0.1446
 7829SOL     OW34945   0.283   4.170   8.189  0.3396  0.8382 -0.0292
 7829SOL    HW134946   0.318   4.180   8.277 -1.6546  0.4636  0.8161
 7829SOL    HW234947   0.194   4.148   8.218 -0.4853  1.3383 -2.1445
 7830SOL     OW34948   1.686   2.656  13.667 -0.3003 -0.2456  0.3883
 7830SOL    HW134949   1.645   2.710  13.600 -0.0317 -0.8267 -0.2472
 7830SOL    HW234950   1.611   2.606  13.699  0.4910 -1.7304 -0.0369
 7831SOL     OW34951   4.613   3.543   5.863  0.4318 -0.1240  0.2155
 7831SOL    HW134952   4.658   3.617   5.823  1.9100 -0.4966  1.2116
 7831SOL    HW234953   4.668   3.529   5.939 -0.4330  1.9001  1.1904
 7832SOL     OW34954   3.095   0.749   8.158  0.0230 -0.2046  0.1019
 7832SOL    HW134955   3.161   0.704   8.211 -0.3051 -0.6021  0.1746
 7832SOL    HW234956   3.072   0.829   8.205  1.3616  0.1047  0.2243
 7833SOL     OW34957   0.988   4.510  12.469 -0.5306 -0.5100 -0.0856
 7833SOL    HW134958   0.970   4.509  12.375  1.2575  1.5046 -0.4582
 7833SOL    HW234959   0.945   4.589  12.501 -2.1794 -1.9395  1.2464
 7834SOL     OW34960   3.697   4.414   9.455 -0.1284 -0.0175 -0.4425
 7834SOL    HW134961   3.710   4.345   9.390  0.5215  0.7136 -1.0882
 7834SOL    HW234962   3.618   4.386   9.502  0.7631  0.0976  1.1188
 7835SOL     OW34963   1.542   0.231  16.225 -0.0799 -0.0216  0.0289
 7835SOL    HW134964   1.526   0.299  16.160 -0.0963  1.1498  1.2615
 7835SOL    HW234965   1.576   0.164  16.165  1.0280  0.2459  0.3740
 7836SOL     OW34966   2.208   0.016  13.350  0.1666  0.0866  0.2670
 7836SOL    HW134967   2.230   4.646  13.338 -0.2266 -0.2214  1.9144
 7836SOL    HW234968   2.141   0.007  13.418  0.2205  0.5140  0.3746
 7837SOL     OW34969   2.858   0.116   7.906  0.6489 -0.1536 -0.5076
 7837SOL    HW134970   2.878   0.156   7.991  0.7359 -1.4959  0.0995
 7837SOL    HW234971   2.947   0.082   7.893  1.2942  0.5765  1.8610
 7838SOL     OW34972   3.774   3.060   3.503 -0.0993  0.1034 -0.2020
 7838SOL    HW134973   3.808   3.120   3.437 -3.4701  1.2560 -0.9311
 7838SOL    HW234974   3.698   3.028   3.453 -0.5656  3.6834 -1.7495
 7839SOL     OW34975   1.941   3.272   8.204 -0.2616  0.0528 -0.3929
 7839SOL    HW134976   1.937   3.181   8.235 -1.8372  0.2538  0.0078
 7839SOL    HW234977   1.863   3.270   8.149  0.4797  0.0830 -1.4378
 7840SOL     OW34978   1.988   2.173   2.115  0.8332 -0.7760 -0.7082
 7840SOL    HW134979   1.963   2.120   2.040  1.1896  1.0485 -2.0988
 7840SOL    HW234980   1.945   2.123   2.184  0.4999  0.1468 -0.2461
 7841SOL     OW34981   3.413   3.785   2.702 -0.3919 -0.0578  0.0542
 7841SOL    HW134982   3.506   3.786   2.722 -0.2886  0.2470 -0.4404
 7841SOL    HW234983   3.374   3.865   2.739  0.1297 -1.3109  3.2696
 7842SOL     OW34984   0.765   0.501   8.831 -0.0548 -0.4700 -0.0405
 7842SOL    HW134985   0.747   0.509   8.925 -0.5266  0.2261 -0.1920
 7842SOL    HW234986   0.680   0.478   8.793 -0.5201  1.7787 -0.3622
 7843SOL     OW34987   3.320   3.377   7.101  0.6205 -0.9726 -0.3174
 7843SOL    HW134988   3.388   3.414   7.045  0.1500  2.6260  1.5373
 7843SOL    HW234989   3.242   3.388   7.047  1.2772 -1.0915 -1.2946
 7844SOL     OW34990   1.078   0.128   7.297 -0.3541  0.4023  0.0903
 7844SOL    HW134991   1.011   0.193   7.276 -1.1162 -0.8596 -1.3952
 7844SOL    HW234992   1.030   0.075   7.360 -0.2068  0.3894  0.1917
 7845SOL     OW34993   4.564   1.109  14.053  0.9094  0.2794 -0.3542
 7845SOL    HW134994   4.493   1.118  14.116  0.2297 -1.6147 -0.8757
 7845SOL    HW234995   4.557   1.196  14.013  1.2835  0.6589  0.3979
 7846SOL     OW34996   4.319   2.529   5.113 -0.4102 -0.2735 -0.5527
 7846SOL    HW134997   4.288   2.613   5.078 -0.2503  0.0644  0.1210
 7846SOL    HW234998   4.293   2.481   5.035 -0.1896 -0.2770 -0.6238
 7847SOL     OW34999   1.451   3.169   3.195 -0.3367 -0.0945  0.5665
 7847SOL    HW135000   1.404   3.090   3.170  0.9075 -0.9016  0.7930
 7847SOL    HW235001   1.405   3.204   3.271 -0.5011  1.8119 -0.3964
 7848SOL     OW35002   4.682   2.265  14.439 -0.6045 -0.7067  0.4100
 7848SOL    HW135003   0.043   2.267  14.485 -0.3017  0.0948 -0.1718
 7848SOL    HW235004   4.684   2.349  14.393  1.9302 -0.1412  1.5331
 7849SOL     OW35005   2.926   1.674   7.640 -0.0925 -0.1041  0.0736
 7849SOL    HW135006   2.982   1.752   7.630  0.7466 -0.8099 -0.7110
 7849SOL    HW235007   2.927   1.667   7.736 -1.6733 -2.2831 -0.0834
 7850SOL     OW35008   2.781   1.018   3.630 -0.2773 -0.2361 -0.3612
 7850SOL    HW135009   2.809   0.990   3.544  1.6671 -0.1323  0.2498
 7850SOL    HW235010   2.854   1.075   3.653 -0.5527 -0.3746  0.8981
 7851SOL     OW35011   0.083   1.610   7.099  0.0147 -0.0535 -0.5829
 7851SOL    HW135012   0.019   1.553   7.142 -2.3841  0.7832 -3.0766
 7851SOL    HW235013   0.045   1.616   7.012  2.4732 -2.2038 -1.7973
 7852SOL     OW35014   1.977   0.924   4.757  0.2879 -0.2116 -0.2118
 7852SOL    HW135015   2.025   0.841   4.760 -0.5589 -0.6956 -0.0052
 7852SOL    HW235016   1.899   0.914   4.812  0.4929  1.1951  0.3416
 7853SOL     OW35017   0.611   3.693   7.233 -0.1092  0.2016 -0.1045
 7853SOL    HW135018   0.692   3.740   7.215  0.7703 -1.6727 -1.0551
 7853SOL    HW235019   0.629   3.620   7.174 -0.3110  0.0079  0.0764
 7854SOL     OW35020   3.243   1.894   9.751  0.7033  0.3414 -0.1492
 7854SOL    HW135021   3.233   1.818   9.693 -0.9009 -1.5349  2.6298
 7854SOL    HW235022   3.178   1.878   9.818  1.3763  0.8051  0.6169
 7855SOL     OW35023   1.077   2.003   1.906  0.3031 -0.4255  0.3213
 7855SOL    HW135024   1.031   1.919   1.911  0.4733 -0.6793 -2.3497
 7855SOL    HW235025   1.172   1.995   1.920  0.3976 -0.8500 -0.5577
 7856SOL     OW35026   2.279   1.602   3.896 -0.0618  0.6452 -0.1167
 7856SOL    HW135027   2.344   1.565   3.837  1.1674 -2.4024  3.1052
 7856SOL    HW235028   2.314   1.691   3.891  1.0856  0.0579 -2.3581
 7857SOL     OW35029   1.390   2.260  17.507  0.0394  0.5636  0.2151
 7857SOL    HW135030   1.390   2.350  17.538  2.3665  0.2640  1.0696
 7857SOL    HW235031   1.296   2.244  17.501  0.2782 -0.2451 -1.3598
 7858SOL     OW35032   4.355   4.011   4.370  0.2712 -0.0085  0.9588
 7858SOL    HW135033   4.383   4.048   4.287 -2.8418 -0.8350 -0.4813
 7858SOL    HW235034   4.291   3.945   4.341 -1.2476  0.6256  2.8542
 7859SOL     OW35035   1.026   0.261   5.758  0.5855 -0.0501  0.1404
 7859SOL    HW135036   0.996   0.352   5.752  0.8116  0.1969  3.0326
 7859SOL    HW235037   1.065   0.263   5.845  1.8351 -0.9955 -0.3871
 7860SOL     OW35038   0.480   4.416   7.328  0.3949 -0.2947 -0.4122
 7860SOL    HW135039   0.549   4.472   7.363  1.3358 -0.1843 -2.4421
 7860SOL    HW235040   0.529   4.341   7.294  2.3136  1.5715 -1.7781
 7861SOL     OW35041   1.561   2.538   1.607 -0.5715  0.2727  0.1937
 7861SOL    HW135042   1.622   2.598   1.650  1.6322 -1.1218 -1.0563
 7861SOL    HW235043   1.493   2.525   1.674  0.3511  0.7908  1.2263
 7862SOL     OW35044   1.869   0.500  13.198 -0.3041  0.5145 -0.3154
 7862SOL    HW135045   1.792   0.558  13.202 -0.4571  0.3269 -0.5259
 7862SOL    HW235046   1.936   0.545  13.248 -0.2005 -0.9256  0.8278
 7863SOL     OW35047   0.516   0.058   2.260 -0.4892  0.5345  0.4667
 7863SOL    HW135048   0.521   0.092   2.170 -0.3539 -0.0161  0.2650
 7863SOL    HW235049   0.491   4.692   2.234  0.9957 -0.5711  2.7744
 7864SOL     OW35050   1.950   0.671  13.566  0.2367 -0.5055  0.2879
 7864SOL    HW135051   2.035   0.707  13.539 -1.2059  2.6618  0.0118
 7864SOL    HW235052   1.973   0.584  13.597  4.4691  0.4687 -0.0350
 7865SOL     OW35053   2.271   0.211   7.203 -0.3536  0.5193 -0.7598
 7865SOL    HW135054   2.204   0.153   7.166  0.1283 -0.1595 -0.5604
 7865SOL    HW235055   2.208   0.275   7.239  1.4422  0.1543  3.0341
 7866SOL     OW35056   2.823   3.815  15.955  0.3039 -0.9441 -0.0512
 7866SOL    HW135057   2.864   3.730  15.941  0.3604 -0.5531 -2.3587
 7866SOL    HW235058   2.813   3.841  15.863  1.0502  3.2835  1.0676
 7867SOL     OW35059   3.901   3.063   5.762  0.0974 -0.3290  0.3525
 7867SOL    HW135060   3.916   2.997   5.828 -2.3589 -0.1562  1.0960
 7867SOL    HW235061   3.812   3.035   5.738  0.0090  0.9235 -0.7790
 7868SOL     OW35062   1.108   2.676   3.665 -0.0043  0.0329 -0.3752
 7868SOL    HW135063   1.140   2.732   3.735 -1.7158  0.4426  0.0806
 7868SOL    HW235064   1.012   2.675   3.671 -0.0784 -0.4260 -1.5539
 7869SOL     OW35065   2.625   0.966  14.512 -0.1516  0.5508 -0.2360
 7869SOL    HW135066   2.575   1.036  14.556  0.5894  0.7577  0.2748
 7869SOL    HW235067   2.578   0.956  14.429 -1.3544  1.2418  0.3645
 7870SOL     OW35068   0.099   4.253   3.050  0.7931  0.4377 -0.8172
 7870SOL    HW135069   0.141   4.277   3.133 -2.7199 -0.1581  1.1315
 7870SOL    HW235070   0.123   4.330   2.997  1.0179  0.7107 -0.3257
 7871SOL     OW35071   4.152   1.304   9.037  0.2236 -0.6754 -0.7579
 7871SOL    HW135072   4.073   1.355   9.054 -0.0265 -1.5823  0.8817
 7871SOL    HW235073   4.184   1.282   9.125 -1.8218  0.2035  0.2159
 7872SOL     OW35074   3.411   1.184  14.442 -0.4733 -0.6788  0.0520
 7872SOL    HW135075   3.401   1.265  14.392  1.4223 -0.4022  0.1332
 7872SOL    HW235076   3.369   1.125  14.379 -0.4011 -0.4296 -0.2285
 7873SOL     OW35077   1.160   4.637   0.246 -0.0285  0.4826 -0.4951
 7873SOL    HW135078   1.219   4.649   0.320  0.2465 -0.2787 -0.5991
 7873SOL    HW235079   1.075   4.678   0.265  0.1303  0.5433  0.0747
 7874SOL     OW35080   0.946   2.543   6.940  0.5499  0.0413  0.3697
 7874SOL    HW135081   0.888   2.469   6.950 -1.2593  1.5008  0.6258
 7874SOL    HW235082   0.952   2.539   6.844 -2.1070 -1.7672  0.2916
 7875SOL     OW35083   3.545   4.332   6.498 -0.5444  0.3217  0.0140
 7875SOL    HW135084   3.581   4.414   6.464  0.3407  0.3541  1.0259
 7875SOL    HW235085   3.466   4.309   6.450 -1.0468  0.1530  0.9302
 7876SOL     OW35086   1.251   3.636   3.582 -0.0940 -0.5630 -0.1068
 7876SOL    HW135087   1.322   3.698   3.564 -0.6011 -0.0130 -0.2202
 7876SOL    HW235088   1.220   3.694   3.651 -0.1511 -0.0696 -0.5495
 7877SOL     OW35089   3.084   2.272   6.930 -0.4567 -0.0773  0.0152
 7877SOL    HW135090   3.072   2.193   6.983  1.1752 -0.1690  0.2521
 7877SOL    HW235091   3.093   2.333   7.003 -0.1800  1.1728 -1.0707
 7878SOL     OW35092   4.705   3.835   1.526  0.3880 -0.1841 -0.0823
 7878SOL    HW135093   4.671   3.891   1.457 -1.4006 -0.0230  0.9466
 7878SOL    HW235094   4.718   3.899   1.595  0.4058  0.4990 -0.7182
 7879SOL     OW35095   2.129   1.974   5.645 -0.2442  0.3538  0.1883
 7879SOL    HW135096   2.044   1.974   5.687  0.7074 -0.4173  2.1221
 7879SOL    HW235097   2.104   1.897   5.594 -3.2940  0.2853  1.8471
 7880SOL     OW35098   1.192   2.128   5.289  0.1584  0.6592 -1.1267
 7880SOL    HW135099   1.253   2.084   5.348 -0.1895 -0.4066 -1.5638
 7880SOL    HW235100   1.150   2.194   5.343 -0.5064 -0.6648 -0.0432
 7881SOL     OW35101   3.817   1.857   6.557 -0.0144  0.5245 -0.6565
 7881SOL    HW135102   3.796   1.770   6.590  1.4456 -0.4517 -2.3131
 7881SOL    HW235103   3.911   1.859   6.574 -0.1044  1.8612 -0.2948
 7882SOL     OW35104   3.725   1.288  14.201 -0.5167 -0.1541  0.2193
 7882SOL    HW135105   3.703   1.249  14.285  0.2499  0.0435  0.5162
 7882SOL    HW235106   3.813   1.253  14.183  0.0427  1.6362 -0.5388
 7883SOL     OW35107   0.287   1.873   2.887  0.1675 -0.3835 -0.0582
 7883SOL    HW135108   0.212   1.859   2.946 -0.1506  2.3965  0.2131
 7883SOL    HW235109   0.362   1.892   2.944 -0.2467  2.5497 -0.4758
 7884SOL     OW35110   0.441   2.122   1.692  0.3840  0.1071  0.4873
 7884SOL    HW135111   0.471   2.108   1.782  0.2869  0.9176  0.6451
 7884SOL    HW235112   0.473   2.048   1.642 -2.2859 -2.1002  2.0308
 7885SOL     OW35113   2.896   3.388   6.132  0.5002  0.0488 -0.1237
 7885SOL    HW135114   2.866   3.366   6.044 -0.9359  0.9202  0.1499
 7885SOL    HW235115   2.932   3.475   6.119  1.6688 -0.7428 -2.1646
 7886SOL     OW35116   1.734   0.376   7.882  0.4956  0.2206 -0.1396
 7886SOL    HW135117   1.803   0.371   7.948 -1.3101  1.2359  1.8193
 7886SOL    HW235118   1.659   0.407   7.932  0.4482 -1.4597  0.8137
 7887SOL     OW35119   2.202   4.178   0.177 -0.0845  0.4682  0.5902
 7887SOL    HW135120   2.148   4.110   0.137 -0.8936  0.2876  1.9811
 7887SOL    HW235121   2.173   4.260   0.137 -2.8756 -0.5913  0.4747
 7888SOL     OW35122   4.239   1.477   3.216  0.0232  0.0796 -0.2841
 7888SOL    HW135123   4.245   1.498   3.309  1.0150 -0.2904 -0.2618
 7888SOL    HW235124   4.158   1.525   3.196 -1.5825 -2.2246  0.7648
 7889SOL     OW35125   2.192   1.767   5.968  1.6744 -0.4035 -0.2862
 7889SOL    HW135126   2.145   1.830   6.023  2.8376  0.5063 -0.3258
 7889SOL    HW235127   2.141   1.686   5.977 -0.3428  0.9266  0.3893
 7890SOL     OW35128   4.548   3.311   1.031  0.1981  0.5596  0.1409
 7890SOL    HW135129   4.549   3.320   0.936 -1.7227 -2.6943 -0.1890
 7890SOL    HW235130   4.454   3.297   1.043  0.0995 -0.8136 -2.1729
 7891SOL     OW35131   2.569   4.546   3.667 -0.5966  0.4769  0.3119
 7891SOL    HW135132   2.569   4.572   3.575 -0.2138  0.6748  0.3674
 7891SOL    HW235133   2.658   4.511   3.671  0.1259  2.1734 -0.9139
 7892SOL     OW35134   1.754   2.693   0.637  0.0762  0.1618  0.1312
 7892SOL    HW135135   1.705   2.620   0.599  0.7439 -0.2053 -0.0258
 7892SOL    HW235136   1.826   2.650   0.683 -0.0202 -0.6276 -0.4676
 7893SOL     OW35137   2.354   0.271   0.878 -0.1424 -0.5163  0.0688
 7893SOL    HW135138   2.399   0.208   0.934 -0.9341 -1.9476 -0.9146
 7893SOL    HW235139   2.377   0.359   0.909 -1.5671  1.5302 -4.5637
 7894SOL     OW35140   1.453   3.508   6.253 -0.4500  0.0333 -0.1519
 7894SOL    HW135141   1.399   3.483   6.328 -2.5726  3.4710 -0.5518
 7894SOL    HW235142   1.535   3.541   6.289 -0.0729  0.6725 -1.6041
 7895SOL     OW35143   0.886   2.195   6.112 -0.5458  0.4538  0.1035
 7895SOL    HW135144   0.865   2.191   6.205 -0.6664  0.7352  0.0853
 7895SOL    HW235145   0.950   2.266   6.117 -0.0589  0.0095  0.2463
 7896SOL     OW35146   0.471   0.381  15.833 -0.8112  0.3452 -0.1686
 7896SOL    HW135147   0.518   0.455  15.872  0.6318 -1.1811  0.9827
 7896SOL    HW235148   0.547   0.333  15.802 -1.4621 -0.8284  0.0415
 7897SOL     OW35149   0.981   1.087   6.283  0.0924  0.1150  0.0625
 7897SOL    HW135150   0.926   1.068   6.208 -0.6529 -0.1942  0.6843
 7897SOL    HW235151   1.052   1.025   6.270 -2.3824 -2.1396 -2.6263
 7898SOL     OW35152   4.167   2.471   3.754 -0.2497  0.2064  0.5481
 7898SOL    HW135153   4.146   2.435   3.668  2.0751 -0.1301  0.1258
 7898SOL    HW235154   4.233   2.411   3.790  1.6545  2.4311  0.7431
 7899SOL     OW35155   1.014   0.636  15.275 -0.4522 -0.2063  0.0784
 7899SOL    HW135156   0.921   0.624  15.295 -0.5135  0.6748  0.3029
 7899SOL    HW235157   1.006   0.671  15.186  0.2068  1.2122  0.5738
 7900SOL     OW35158   4.183   4.662  12.115  0.1208 -0.3893 -0.0438
 7900SOL    HW135159   4.265   4.649  12.068  0.6818 -0.9474  1.0921
 7900SOL    HW235160   4.206   0.011  12.175  0.8515 -0.8516  0.2176
 7901SOL     OW35161   0.186   1.576   5.708  0.3489 -0.1187 -0.2088
 7901SOL    HW135162   0.227   1.658   5.681 -0.1390  0.0917 -0.3068
 7901SOL    HW235163   0.271   1.539   5.734 -0.1342  0.1925  1.8747
 7902SOL     OW35164   0.143   4.582   7.345 -0.5738  0.3242  0.0110
 7902SOL    HW135165   0.103   4.643   7.406 -0.2259  0.8354 -0.2731
 7902SOL    HW235166   0.185   4.632   7.275  0.6597  0.9839  1.2113
 7903SOL     OW35167   4.185   1.272   4.649 -0.6491  0.2524 -0.5215
 7903SOL    HW135168   4.196   1.366   4.661  2.0695 -0.1780  0.3745
 7903SOL    HW235169   4.274   1.238   4.649 -0.8652 -0.3591  2.3348
 7904SOL     OW35170   4.290   1.502   2.030 -0.2227 -0.7506 -0.3011
 7904SOL    HW135171   4.224   1.559   1.990 -0.9455 -2.5019 -1.6066
 7904SOL    HW235172   4.291   1.428   1.970 -2.3385 -0.7468 -0.3528
 7905SOL     OW35173   1.282   1.683   0.509 -0.3740 -0.1942  0.3754
 7905SOL    HW135174   1.244   1.641   0.431  0.6914 -0.4985  0.0215
 7905SOL    HW235175   1.205   1.724   0.549 -0.1394  0.7619 -0.1527
 7906SOL     OW35176   4.466   0.723   1.342  0.4789  0.4553  0.0710
 7906SOL    HW135177   4.403   0.677   1.397  0.2928  0.8852  0.2173
 7906SOL    HW235178   4.513   0.760   1.417  0.5714 -0.7771  0.6239
 7907SOL     OW35179   0.779   2.706   7.058 -0.1989  0.2511 -0.4017
 7907SOL    HW135180   0.845   2.662   7.005 -1.5822 -0.4851 -1.4946
 7907SOL    HW235181   0.836   2.718   7.134  2.5676 -0.3114 -2.3935
 7908SOL     OW35182   0.728   1.990  12.050 -0.1204 -0.3147 -0.0404
 7908SOL    HW135183   0.743   1.904  12.090  1.5519  0.3224  0.6726
 7908SOL    HW235184   0.770   2.043  12.117  0.8151  1.4597 -2.0265
 7909SOL     OW35185   2.709   3.852   7.391 -0.2033 -0.4678 -0.0736
 7909SOL    HW135186   2.686   3.846   7.299 -0.4899 -0.6682  0.0127
 7909SOL    HW235187   2.625   3.828   7.429 -1.2184  0.0518 -1.9878
 7910SOL     OW35188   1.805   4.639   5.302 -0.9694  0.4517  0.1342
 7910SOL    HW135189   1.724   4.629   5.252 -0.9645  1.2032 -0.0296
 7910SOL    HW235190   1.775   4.623   5.391  0.6538  3.2970  1.2097
 7911SOL     OW35191   3.735   3.863  11.880 -0.1823  0.5840  0.6017
 7911SOL    HW135192   3.647   3.826  11.884  0.2144 -0.4455 -0.3390
 7911SOL    HW235193   3.761   3.845  11.971 -0.9334  0.3094  0.7674
 7912SOL     OW35194   2.754   1.446   8.055 -0.1634 -0.3327 -0.0328
 7912SOL    HW135195   2.740   1.466   8.148 -2.3790 -1.9409 -0.0111
 7912SOL    HW235196   2.666   1.418   8.029 -1.0319  2.3912 -0.0915
 7913SOL     OW35197   1.853   3.966  16.599 -0.5519 -0.0767 -0.4029
 7913SOL    HW135198   1.840   3.893  16.660  1.1601  0.6923  0.8970
 7913SOL    HW235199   1.804   3.934  16.523  2.0157  0.1360 -2.1517
 7914SOL     OW35200   0.620   3.603   1.691  0.2558 -0.2595 -0.1435
 7914SOL    HW135201   0.604   3.697   1.682  0.7797 -0.2207 -0.6680
 7914SOL    HW235202   0.590   3.583   1.779  1.2238 -0.3091  0.1770
 7915SOL     OW35203   2.798   2.245   6.357 -0.4573  0.2225 -0.2605
 7915SOL    HW135204   2.743   2.247   6.435  1.7682 -0.6400  1.3090
 7915SOL    HW235205   2.740   2.205   6.292  0.4203 -0.2728 -0.7334
 7916SOL     OW35206   2.307   2.055   4.098 -0.1708  0.0269  0.0877
 7916SOL    HW135207   2.391   2.072   4.055  0.5500 -0.0586  1.4493
 7916SOL    HW235208   2.341   2.033   4.185  0.3336  0.7509  0.0744
 7917SOL     OW35209   2.606   4.638   5.354 -0.1032 -0.0715 -0.3130
 7917SOL    HW135210   2.521   4.614   5.318 -0.1053  2.1062 -1.7862
 7917SOL    HW235211   2.587   4.603   5.441  0.2043  2.4192  0.7542
 7918SOL     OW35212   4.656   2.621  16.715 -0.4402  0.7920  0.3806
 7918SOL    HW135213   4.697   2.584  16.636  1.8823  0.4145  1.7479
 7918SOL    HW235214   4.563   2.611  16.696 -0.1376 -1.0350 -0.1951
 7919SOL     OW35215   3.293   1.826   4.524  0.1075 -0.1200 -0.4640
 7919SOL    HW135216   3.344   1.768   4.580 -0.3955 -1.3293 -1.2746
 7919SOL    HW235217   3.359   1.828   4.455  1.1145  2.1599  0.5632
 7920SOL     OW35218   2.657   1.495   3.604  0.5391 -0.6709 -0.4673
 7920SOL    HW135219   2.731   1.525   3.657 -1.1596  0.8352  1.0709
 7920SOL    HW235220   2.691   1.504   3.515  1.4879  1.2950  0.0817
 7921SOL     OW35221   1.229   0.622   6.698  0.1428  0.6632 -0.1104
 7921SOL    HW135222   1.237   0.556   6.768 -0.4154 -1.3573 -1.9603
 7921SOL    HW235223   1.288   0.688   6.735 -0.5097  1.6737 -0.8834
 7922SOL     OW35224   2.397   3.477   6.653 -0.0943  0.0385 -0.3211
 7922SOL    HW135225   2.337   3.548   6.673  0.0898  0.4128 -1.1077
 7922SOL    HW235226   2.465   3.517   6.599  0.8502  2.0641  2.3710
 7923SOL     OW35227   2.199   1.857   9.227 -0.0019  0.0186 -0.3794
 7923SOL    HW135228   2.221   1.943   9.190  3.0272 -0.8422 -0.5242
 7923SOL    HW235229   2.206   1.795   9.155 -1.0336 -0.7032  0.1406
 7924SOL     OW35230   4.466   0.469   9.658 -0.0032  0.3501  0.0098
 7924SOL    HW135231   4.498   0.559   9.649 -1.9508  1.1742  1.4767
 7924SOL    HW235232   4.423   0.465   9.743 -3.2425  1.6291 -1.5930
 7925SOL     OW35233   3.442   0.907  13.405  0.0856 -0.2644 -0.1197
 7925SOL    HW135234   3.464   0.891  13.496  0.6113  0.7758 -0.0592
 7925SOL    HW235235   3.421   1.000  13.401 -3.5177 -1.1226 -1.1097
 7926SOL     OW35236   0.355   2.948   1.467  0.6652 -0.5605 -0.2762
 7926SOL    HW135237   0.361   2.853   1.457 -0.8105 -0.5848 -0.9042
 7926SOL    HW235238   0.354   2.966   1.373  1.2612 -0.4671 -0.2681
 7927SOL     OW35239   4.296   0.543   8.969 -0.4141  0.1773  0.1154
 7927SOL    HW135240   4.381   0.552   9.012 -0.6227  2.1011  0.1510
 7927SOL    HW235241   4.258   0.475   9.024  0.4374  0.5844  1.2056
 7928SOL     OW35242   1.208   1.383  12.324  0.2531  0.0947  0.2631
 7928SOL    HW135243   1.287   1.347  12.365  0.5508 -0.0290 -0.4198
 7928SOL    HW235244   1.145   1.380  12.396  2.2414  0.1907  2.0143
 7929SOL     OW35245   3.732   1.978   6.886  0.3280 -0.1730  0.1011
 7929SOL    HW135246   3.807   1.939   6.931  0.9187  0.6211 -0.1979
 7929SOL    HW235247   3.711   1.908   6.824 -3.1537 -0.9544  2.1640
 7930SOL     OW35248   4.455   2.134  15.381  0.3300 -0.3047 -0.3056
 7930SOL    HW135249   4.504   2.204  15.423  0.0173 -0.5541  0.4688
 7930SOL    HW235250   4.525   2.103  15.323 -0.5249 -1.8771 -0.5049
 7931SOL     OW35251   1.522   3.932  11.808 -0.3580  0.5115 -0.2592
 7931SOL    HW135252   1.522   4.026  11.791  2.3839  0.0567 -2.8385
 7931SOL    HW235253   1.549   3.931  11.899  1.2842 -0.3272 -0.7551
 7932SOL     OW35254   2.573   3.524   0.017  0.2617 -0.6239 -0.1660
 7932SOL    HW135255   2.477   3.517   0.019  0.1729  0.6755 -0.2312
 7932SOL    HW235256   2.595   3.439  17.672  3.5718  0.3227 -0.3044
 7933SOL     OW35257   3.434   1.267   2.066 -0.2905 -0.3094  0.4928
 7933SOL    HW135258   3.457   1.359   2.081 -1.3473  0.0694 -0.1893
 7933SOL    HW235259   3.340   1.281   2.061 -0.3152 -1.0454 -1.1315
 7934SOL     OW35260   2.208   1.057   2.925  0.4296  0.2386 -0.0745
 7934SOL    HW135261   2.157   1.137   2.910  0.6741  0.3253 -0.4588
 7934SOL    HW235262   2.289   1.104   2.945 -1.0700  2.3727  0.9460
 7935SOL     OW35263   0.635   0.837   6.021  0.2363 -0.7598  0.2625
 7935SOL    HW135264   0.588   0.814   6.101 -0.3022 -0.3921  0.0542
 7935SOL    HW235265   0.584   0.908   5.981  0.9081 -0.2998  0.2300
 7936SOL     OW35266   1.229   0.731   8.385 -0.3670 -0.4415 -0.7003
 7936SOL    HW135267   1.280   0.787   8.327 -0.9404 -0.2575 -1.0367
 7936SOL    HW235268   1.243   0.652   8.333  1.7094  0.3226 -1.3002
 7937SOL     OW35269   4.368   3.314   3.989  0.4931  0.3533 -0.4180
 7937SOL    HW135270   4.327   3.309   4.076 -0.1214  1.3938 -0.6449
 7937SOL    HW235271   4.296   3.283   3.934 -0.0112  1.0072 -0.1248
 7938SOL     OW35272   3.813   3.623   7.202  0.0639  0.0247 -0.4897
 7938SOL    HW135273   3.867   3.693   7.165  2.8026 -1.6679  0.3122
 7938SOL    HW235274   3.754   3.675   7.257 -0.8627 -0.8624 -0.6510
 7939SOL     OW35275   2.221   2.341   9.598  0.0283 -0.1458 -0.3068
 7939SOL    HW135276   2.138   2.387   9.590  0.3524  0.7565  1.5968
 7939SOL    HW235277   2.277   2.418   9.594  2.4223 -1.8661 -0.3797
 7940SOL     OW35278   2.425   4.088  11.869  0.5255  0.1267  0.3410
 7940SOL    HW135279   2.492   4.133  11.817  1.0741 -0.5791  0.4399
 7940SOL    HW235280   2.430   4.138  11.950 -0.9028  0.7600  0.0576
 7941SOL     OW35281   1.639   3.407   8.639  0.0727  0.3808  0.2067
 7941SOL    HW135282   1.672   3.415   8.549 -2.5921  1.0001 -0.7365
 7941SOL    HW235283   1.640   3.311   8.640  0.9915  0.3558 -2.5932
 7942SOL     OW35284   1.538   0.200   6.082 -0.0941 -0.1706 -0.1680
 7942SOL    HW135285   1.527   0.114   6.123 -0.5720  0.1489  0.3594
 7942SOL    HW235286   1.448   0.227   6.060  0.3595  2.7467  1.6545
 7943SOL     OW35287   1.760   2.306   4.146  0.2917 -0.1913 -0.4302
 7943SOL    HW135288   1.825   2.300   4.217  0.1279 -1.5300 -0.3937
 7943SOL    HW235289   1.726   2.389   4.178  0.2013 -0.3107 -0.2163
 7944SOL     OW35290   2.844   2.306   6.056  0.0698  0.4059  0.1766
 7944SOL    HW135291   2.773   2.272   6.111  1.0200 -2.2293 -0.2552
 7944SOL    HW235292   2.899   2.228   6.051  1.3778  1.4211 -1.0981
 7945SOL     OW35293   3.582   2.534   8.698  0.7993 -0.2013  0.5834
 7945SOL    HW135294   3.588   2.439   8.701 -1.7912 -0.4551 -1.9632
 7945SOL    HW235295   3.592   2.537   8.603  0.3301  0.4106  0.5527
 7946SOL     OW35296   0.068   2.759   6.686 -0.1383 -0.4814  0.0113
 7946SOL    HW135297   0.051   2.681   6.739 -1.8494  1.3123  2.1393
 7946SOL    HW235298   0.085   2.830   6.748  0.6686 -0.9437  0.3089
 7947SOL     OW35299   3.713   3.771   9.375  0.0310  0.3039 -0.3968
 7947SOL    HW135300   3.675   3.766   9.463  1.2772  0.4176  0.1501
 7947SOL    HW235301   3.660   3.701   9.338 -0.5760 -0.4901  1.9656
 7948SOL     OW35302   2.313   3.111   0.862  0.2447  0.2937  0.2379
 7948SOL    HW135303   2.259   3.122   0.940  2.0353 -3.0440  1.9622
 7948SOL    HW235304   2.283   3.185   0.809  1.1225  0.6453  0.2259
 7949SOL     OW35305   3.605   1.154   1.493 -0.1481  0.0574 -0.2981
 7949SOL    HW135306   3.641   1.238   1.464 -0.7570  0.1388 -0.8354
 7949SOL    HW235307   3.517   1.186   1.512  0.1876  0.1353  1.1395
 7950SOL     OW35308   0.375   3.952   2.291  0.1663 -0.0510 -0.2776
 7950SOL    HW135309   0.389   4.022   2.356  1.0037 -0.6806  0.2238
 7950SOL    HW235310   0.296   3.976   2.243 -0.3713 -0.1997  0.5340
 7951SOL     OW35311   1.885   1.250  14.977 -0.1319 -0.4677 -0.3898
 7951SOL    HW135312   1.867   1.156  14.988  0.5778 -0.4855  0.6402
 7951SOL    HW235313   1.817   1.282  14.918 -1.3085 -0.5791  0.8863
 7952SOL     OW35314   4.324   3.586  10.461  0.6826  0.0471 -0.6763
 7952SOL    HW135315   4.281   3.618  10.540  1.9277 -0.3913  0.1756
 7952SOL    HW235316   4.394   3.651  10.454 -1.9915  3.0286  0.3894
 7953SOL     OW35317   4.638   2.336  10.728 -0.4049 -0.3496 -0.1211
 7953SOL    HW135318   4.714   2.278  10.726 -0.2942 -0.2034 -0.1963
 7953SOL    HW235319   4.663   2.415  10.776  1.9389 -1.4419  0.4412
 7954SOL     OW35320   0.095   0.072   8.052  0.4800  0.0767 -0.0836
 7954SOL    HW135321   0.012   0.024   8.050  0.4709  0.0386  1.2093
 7954SOL    HW235322   0.068   0.160   8.076  1.9252  0.4163  0.2952
 7955SOL     OW35323   4.221   3.324   1.264  0.1427 -0.3506  0.2078
 7955SOL    HW135324   4.227   3.309   1.169 -1.2397 -0.9421  0.2193
 7955SOL    HW235325   4.180   3.410   1.275  1.1127 -0.0399  1.4250
 7956SOL     OW35326   3.908   3.052   2.125  0.1803 -0.1855 -0.2911
 7956SOL    HW135327   3.896   2.966   2.165 -2.6469  1.4911  2.4500
 7956SOL    HW235328   3.863   3.028   2.044  2.1978  1.7475 -1.9691
 7957SOL     OW35329   2.289   3.083   2.485 -0.1969  0.0186 -0.1581
 7957SOL    HW135330   2.316   3.028   2.412  0.5816  0.2018 -0.0101
 7957SOL    HW235331   2.240   3.150   2.438 -2.2199 -1.0058  0.5078
 7958SOL     OW35332   1.113   2.684   0.390 -0.2573  0.2619 -0.4629
 7958SOL    HW135333   1.037   2.725   0.431 -1.5464  0.2088 -2.7910
 7958SOL    HW235334   1.081   2.675   0.300 -1.1789  1.4352 -0.2661
 7959SOL     OW35335   0.185   3.278   0.864  0.2883 -0.6665 -0.0800
 7959SOL    HW135336   0.228   3.354   0.825 -1.9781 -0.5932 -2.4387
 7959SOL    HW235337   0.096   3.296   0.834 -0.3412 -2.8746  0.4827
 7960SOL     OW35338   4.113   0.664   7.950  0.9499 -0.1318  0.3934
 7960SOL    HW135339   4.178   0.593   7.955  0.5036 -0.4091  2.1446
 7960SOL    HW235340   4.163   0.746   7.945  1.9250 -0.7178  0.4128
 7961SOL     OW35341   3.007   3.728   7.963  1.0309  0.3174  0.4587
 7961SOL    HW135342   3.028   3.713   8.055  0.1086  0.9536  0.7681
 7961SOL    HW235343   2.913   3.729   7.978  0.6661  0.4950 -1.8435
 7962SOL     OW35344   0.765   0.678  12.513  0.1048 -0.2895 -0.3892
 7962SOL    HW135345   0.734   0.757  12.467 -2.5024 -1.2900 -0.3122
 7962SOL    HW235346   0.716   0.686  12.595 -0.3784 -1.1404 -0.6033
 7963SOL     OW35347   3.458   4.001  13.812 -0.1636 -0.6163  0.6574
 7963SOL    HW135348   3.493   4.035  13.894  0.7062  1.4408 -0.5427
 7963SOL    HW235349   3.464   4.080  13.758  0.9377 -0.6261  0.7661
 7964SOL     OW35350   3.944   2.455   8.129 -0.3519  0.5375  0.1885
 7964SOL    HW135351   3.913   2.540   8.159 -0.0304  0.8338 -0.3290
 7964SOL    HW235352   3.930   2.466   8.035  0.6506 -0.0692 -0.0405
 7965SOL     OW35353   2.808   2.165   1.382  0.2834  0.3235 -0.0304
 7965SOL    HW135354   2.772   2.253   1.376  2.2204  1.2015  1.2868
 7965SOL    HW235355   2.901   2.190   1.383  0.2445  0.4497  0.3909
 7966SOL     OW35356   4.290   2.072  13.813 -0.2993 -0.5129 -0.1093
 7966SOL    HW135357   4.312   2.142  13.751 -0.4495  0.2518  0.7017
 7966SOL    HW235358   4.308   2.116  13.896  3.3288 -0.2060 -1.0543
 7967SOL     OW35359   1.178   1.401   9.083 -0.0668 -0.0792 -0.3499
 7967SOL    HW135360   1.155   1.371   8.995 -1.6422  1.1386 -0.3444
 7967SOL    HW235361   1.177   1.496   9.070 -2.8337 -0.3266 -1.9717
 7968SOL     OW35362   2.142   1.159  10.981  0.2425  0.1737 -0.0800
 7968SOL    HW135363   2.205   1.217  10.938 -1.2117  0.8748 -1.2901
 7968SOL    HW235364   2.204   1.132  11.048  0.0597 -1.5044 -0.6069
 7969SOL     OW35365   1.810   4.339  14.788  0.0385 -0.0486 -0.2050
 7969SOL    HW135366   1.894   4.380  14.763  0.4937  0.1551  1.6975
 7969SOL    HW235367   1.749   4.397  14.742  2.0929 -0.0682 -2.9584
 7970SOL     OW35368   3.591   3.004   4.284  0.2998 -0.1516 -0.1590
 7970SOL    HW135369   3.554   2.916   4.278  1.6565 -0.6796 -0.8202
 7970SOL    HW235370   3.637   3.006   4.368 -1.0478  0.8012  0.5542
 7971SOL     OW35371   0.009   1.029   2.706 -0.7347 -0.8584 -0.1311
 7971SOL    HW135372   4.674   1.012   2.631 -0.9145 -1.1818  0.0808
 7971SOL    HW235373   0.090   0.994   2.669 -0.1730  0.8876 -0.5876
 7972SOL     OW35374   1.785   2.017  16.350 -0.5343 -0.5413 -0.1191
 7972SOL    HW135375   1.764   2.099  16.305 -2.7709 -1.4994 -0.8069
 7972SOL    HW235376   1.849   2.050  16.413 -0.9229 -0.9146  0.4613
 7973SOL     OW35377   1.366   1.167   4.594  0.3206  0.0112 -0.1429
 7973SOL    HW135378   1.341   1.208   4.677  3.6084 -0.9022  1.2876
 7973SOL    HW235379   1.397   1.080   4.622  1.2322  1.0020  1.9469
 7974SOL     OW35380   4.498   2.518   3.019  0.1527 -0.4420 -0.2537
 7974SOL    HW135381   4.522   2.575   2.946  0.0099 -0.4450 -0.3039
 7974SOL    HW235382   4.543   2.552   3.096 -2.0233  2.3113 -0.1762
 7975SOL     OW35383   2.029   1.692   6.693  0.1066  0.2347 -0.0589
 7975SOL    HW135384   1.956   1.749   6.717 -1.2477 -1.6385  0.2164
 7975SOL    HW235385   1.983   1.633   6.634 -0.9958 -2.9611  3.9842
 7976SOL     OW35386   0.445   1.330   3.547  0.4485  0.0280  0.1400
 7976SOL    HW135387   0.504   1.380   3.602 -0.1263  0.8531  0.0106
 7976SOL    HW235388   0.384   1.296   3.613  0.2412  1.5842  0.7386
 7977SOL     OW35389   1.548   3.198   9.917  0.3567  0.0340 -0.1193
 7977SOL    HW135390   1.501   3.156   9.845  1.7280  0.3313 -1.2066
 7977SOL    HW235391   1.495   3.277   9.926  0.7216  0.0369  1.8653
 7978SOL     OW35392   3.043   1.847   2.616  0.2019  0.0612  0.6284
 7978SOL    HW135393   3.074   1.877   2.531 -0.6408  1.0047  0.6521
 7978SOL    HW235394   2.985   1.922   2.630 -0.8607 -0.7691  0.6289
 7979SOL     OW35395   2.018   3.067   2.245  0.2832 -0.6958 -0.5212
 7979SOL    HW135396   2.017   2.981   2.287  0.5786 -0.7088 -0.5430
 7979SOL    HW235397   2.113   3.080   2.237  0.0274  3.1706  2.4585
 7980SOL     OW35398   0.584   4.423  14.868  0.5107  0.3218  0.0354
 7980SOL    HW135399   0.648   4.377  14.814  0.2821  0.0691 -0.0196
 7980SOL    HW235400   0.639   4.473  14.927  0.6167 -0.2522  0.4226
 7981SOL     OW35401   2.764   3.437  13.572 -0.0600  0.0403 -0.1508
 7981SOL    HW135402   2.689   3.497  13.577 -0.2221 -0.1905  0.2309
 7981SOL    HW235403   2.830   3.497  13.537  1.1103 -1.0647  0.1870
 7982SOL     OW35404   2.410   0.176   5.962  0.2061 -0.3454 -0.8838
 7982SOL    HW135405   2.413   0.199   5.870  1.8318 -2.1421 -1.2894
 7982SOL    HW235406   2.323   0.204   5.992  0.3222  1.6676 -2.5022
 7983SOL     OW35407   2.355   2.820   3.045 -0.7753  0.2703 -0.1825
 7983SOL    HW135408   2.289   2.752   3.028 -0.9403  0.4331 -0.1969
 7983SOL    HW235409   2.306   2.888   3.091  0.7205  1.6158 -0.6140
 7984SOL     OW35410   0.741   2.396  16.842  0.1368 -0.0605 -0.3500
 7984SOL    HW135411   0.709   2.313  16.807  1.4904 -1.3905  1.5316
 7984SOL    HW235412   0.705   2.404  16.930  0.7480 -1.4409  0.0280
 7985SOL     OW35413   4.283   3.407   8.756  0.5617 -0.5159 -0.1915
 7985SOL    HW135414   4.354   3.344   8.744 -0.4143 -1.3928 -1.4094
 7985SOL    HW235415   4.239   3.364   8.830  1.4312 -2.3736 -0.7404
 7986SOL     OW35416   4.006   3.111   6.281  0.1833 -0.0418 -0.3996
 7986SOL    HW135417   3.984   3.187   6.335 -3.1280  0.0815 -1.9193
 7986SOL    HW235418   4.037   3.157   6.203 -2.0316  0.2579 -1.0964
 7987SOL     OW35419   0.336   3.069   3.128  0.1735 -0.2638 -0.1779
 7987SOL    HW135420   0.391   3.075   3.050 -0.4358 -0.0823 -0.5942
 7987SOL    HW235421   0.383   3.131   3.183 -2.5900  0.7840  1.0127
 7988SOL     OW35422   4.294   4.238   5.018 -0.0522 -0.1833  0.3690
 7988SOL    HW135423   4.385   4.231   4.991  0.3430 -2.4220  2.2586
 7988SOL    HW235424   4.255   4.159   4.980  0.1896 -0.2546  0.2683
 7989SOL     OW35425   0.858   4.159   5.005  0.4519  0.3341 -0.1928
 7989SOL    HW135426   0.809   4.094   5.056 -0.8757  0.0572 -1.8153
 7989SOL    HW235427   0.949   4.151   5.033 -0.6601  1.8722  3.9513
 7990SOL     OW35428   0.261   2.997   7.363  0.2228 -0.6218 -0.1923
 7990SOL    HW135429   0.296   3.013   7.275 -0.1077 -1.2066 -0.4264
 7990SOL    HW235430   0.311   2.925   7.400 -1.6401 -1.3518  0.8506
 7991SOL     OW35431   0.151   2.144   6.322 -0.2285  0.0025 -0.4118
 7991SOL    HW135432   0.201   2.128   6.402 -1.5403 -0.4530  0.3174
 7991SOL    HW235433   0.210   2.096   6.264  2.5228 -1.1171  3.3063
 7992SOL     OW35434   2.724   4.017   6.931 -0.1465  0.5927  0.0323
 7992SOL    HW135435   2.645   3.964   6.945  1.4149 -1.3128  1.4792
 7992SOL    HW235436   2.766   4.015   7.017 -1.3656  0.4516  0.6297
 7993SOL     OW35437   3.913   3.087  15.636  0.2232 -0.4244 -0.0625
 7993SOL    HW135438   3.964   3.161  15.669 -0.3321 -1.1221  2.4067
 7993SOL    HW235439   3.895   3.036  15.715 -0.6497  1.5309  1.0139
 7994SOL     OW35440   1.299   0.982   9.435  0.1588 -0.2899  0.3605
 7994SOL    HW135441   1.307   0.951   9.344 -3.7526  0.3504 -0.2191
 7994SOL    HW235442   1.294   1.077   9.424  0.3014 -0.7430 -3.6616
 7995SOL     OW35443   4.055   2.800   5.425  0.3231 -0.2815  0.0992
 7995SOL    HW135444   4.094   2.880   5.389 -0.0021 -0.1512  0.0376
 7995SOL    HW235445   4.106   2.792   5.506  2.1335 -1.4589 -1.1587
 7996SOL     OW35446   4.229   0.183  14.684 -0.1554 -0.5238 -0.2558
 7996SOL    HW135447   4.160   0.148  14.628  2.3367  0.4770 -3.9583
 7996SOL    HW235448   4.273   0.111  14.730 -0.6064 -0.3907  0.3862
 7997SOL     OW35449   3.659   0.889   5.506  0.3273 -0.5784 -0.3596
 7997SOL    HW135450   3.591   0.878   5.440 -1.0579 -1.2828  1.1960
 7997SOL    HW235451   3.641   0.975   5.543 -1.3098 -1.5613  1.1008
 7998SOL     OW35452   0.466   1.663   7.163  0.6750  0.3245 -0.2107
 7998SOL    HW135453   0.462   1.575   7.124 -0.1153  0.8345 -1.2704
 7998SOL    HW235454   0.403   1.710   7.109 -0.5262 -2.0353 -0.8606
 7999SOL     OW35455   0.792   0.160   2.299  0.5953  0.0997 -0.3479
 7999SOL    HW135456   0.713   0.118   2.266 -0.2615  0.0155  1.8497
 7999SOL    HW235457   0.769   0.152   2.391 -1.3633  0.2520 -0.8262
 8000SOL     OW35458   2.160   2.824   7.090 -0.2528  0.3871  0.6123
 8000SOL    HW135459   2.116   2.739   7.096  0.5665 -0.2035 -2.1078
 8000SOL    HW235460   2.135   2.865   7.173 -0.5978 -2.8026  2.0641
 8001SOL     OW35461   0.692   2.894   6.021  0.1053  0.5441  0.1438
 8001SOL    HW135462   0.729   2.815   6.059  1.4326  0.0457 -2.1773
 8001SOL    HW235463   0.741   2.964   6.065 -0.3007  1.6603 -1.1764
 8002SOL     OW35464   1.782   2.246  14.936  0.0158  0.1598 -0.2985
 8002SOL    HW135465   1.817   2.331  14.963  2.1558 -1.3335  1.5495
 8002SOL    HW235466   1.835   2.179  14.979 -1.1941 -0.7417 -0.2050
 8003SOL     OW35467   4.044   0.406   6.953 -0.3484 -0.3036 -0.0744
 8003SOL    HW135468   4.042   0.310   6.949  0.6343 -0.4609  3.0588
 8003SOL    HW235469   4.075   0.417   7.043 -2.7696  0.1008  0.7051
 8004SOL     OW35470   3.470   1.275   4.097  0.2338  0.1436 -0.5153
 8004SOL    HW135471   3.506   1.356   4.061 -0.7607  0.7799 -0.0774
 8004SOL    HW235472   3.403   1.244   4.035  0.1182 -0.1652 -0.2340
 8005SOL     OW35473   1.707   1.355   7.931  0.7202  0.4941 -0.1435
 8005SOL    HW135474   1.697   1.265   7.961  0.5224  0.4541 -0.3220
 8005SOL    HW235475   1.639   1.394   7.985 -0.9647 -1.6218 -0.7348
 8006SOL     OW35476   2.432   1.046   8.583  0.6597  0.1359  0.5967
 8006SOL    HW135477   2.516   1.088   8.602  0.8320 -0.4929  1.2393
 8006SOL    HW235478   2.455   0.957   8.609 -2.6491 -0.5295  1.2348
 8007SOL     OW35479   3.333   0.743  10.018 -0.3313 -1.0489  0.0530
 8007SOL    HW135480   3.371   0.770   9.934  0.1848  0.8908  0.9126
 8007SOL    HW235481   3.410   0.721  10.071 -0.8463 -1.8660  0.4647
 8008SOL     OW35482   4.589   0.084   6.293  0.1663 -0.2694  0.4597
 8008SOL    HW135483   4.667   0.098   6.347  1.7186  1.6177 -2.2995
 8008SOL    HW235484   4.564   0.166   6.251 -0.9988 -1.7411 -1.7464
 8009SOL     OW35485   0.027   2.019   5.686 -0.3587  0.4629  0.4140
 8009SOL    HW135486   4.669   2.069   5.697 -0.3446  0.7447 -0.8654
 8009SOL    HW235487   0.006   1.962   5.613 -3.4804  0.3856  1.3603
 8010SOL     OW35488   3.841   4.354  11.368  0.0179  0.1943 -0.4483
 8010SOL    HW135489   3.782   4.324  11.438  0.1059 -0.0875 -0.4933
 8010SOL    HW235490   3.847   4.274  11.316  0.3171  0.4958 -0.8796
 8011SOL     OW35491   3.207   2.172   7.426 -0.2914 -0.2202 -0.8730
 8011SOL    HW135492   3.114   2.196   7.433  0.5043  2.6180 -0.1174
 8011SOL    HW235493   3.212   2.109   7.497  2.0923  0.2898 -0.6007
 8012SOL     OW35494   0.647   1.609  10.186 -0.1649  0.3583 -0.0349
 8012SOL    HW135495   0.598   1.690  10.175 -1.4720 -0.2817  1.0215
 8012SOL    HW235496   0.605   1.573  10.265 -0.8234 -1.7621 -1.3522
 8013SOL     OW35497   3.035   2.774   1.716  0.3249 -0.4154  0.8225
 8013SOL    HW135498   2.968   2.789   1.650  1.2418 -0.0645 -0.0366
 8013SOL    HW235499   3.046   2.679   1.709 -3.6198 -0.8418  0.7452
 8014SOL     OW35500   1.398   3.915   4.099 -0.3625  0.1056 -0.0962
 8014SOL    HW135501   1.405   3.835   4.151  0.0497  0.5602  0.5459
 8014SOL    HW235502   1.445   3.970   4.161  1.5445 -0.3118 -1.1622
 8015SOL     OW35503   2.845   3.057   2.764  0.2687  0.0842 -0.3094
 8015SOL    HW135504   2.805   3.028   2.846 -2.8289 -0.3042 -1.9691
 8015SOL    HW235505   2.768   3.062   2.707 -0.6767 -0.3871  0.9386
 8016SOL     OW35506   1.036   3.389   1.945  0.2071 -0.0227 -0.0965
 8016SOL    HW135507   1.106   3.446   1.914  1.2339 -3.2875 -3.6916
 8016SOL    HW235508   0.990   3.385   1.861 -0.2417  0.1418  0.1417
 8017SOL     OW35509   1.847   0.762   5.655 -0.2805  0.3648  0.5537
 8017SOL    HW135510   1.846   0.857   5.663 -1.4581  0.2870  1.3960
 8017SOL    HW235511   1.901   0.740   5.579 -0.0124 -0.2705  0.9309
 8018SOL     OW35512   1.999   0.874   3.217 -0.4494 -0.7455 -0.6086
 8018SOL    HW135513   2.049   0.860   3.136 -1.1955  0.4718 -1.2767
 8018SOL    HW235514   1.909   0.872   3.187 -0.5473 -1.7476 -0.2445
 8019SOL     OW35515   1.205   1.052  15.538  0.6919 -0.3629  0.0452
 8019SOL    HW135516   1.181   0.966  15.572 -0.2280  0.2277  0.9103
 8019SOL    HW235517   1.126   1.060  15.484  0.3149 -1.0293  0.4885
 8020SOL     OW35518   4.679   1.442   3.162 -0.0402 -0.7257 -0.6239
 8020SOL    HW135519   4.674   1.357   3.119  0.6082  0.4198 -2.9734
 8020SOL    HW235520   4.606   1.489   3.121  0.6805  1.2758  0.3632
 8021SOL     OW35521   4.213   3.564   5.966  0.6996  0.0483 -0.0372
 8021SOL    HW135522   4.137   3.620   5.977  0.4887 -0.6033  1.7184
 8021SOL    HW235523   4.227   3.531   6.054 -1.0868  0.0496  0.2288
 8022SOL     OW35524   2.596   2.380   8.271 -0.5854 -0.4057 -0.0551
 8022SOL    HW135525   2.665   2.435   8.234 -2.6436  0.3950 -2.6253
 8022SOL    HW235526   2.651   2.302   8.278 -0.8428 -0.4517  1.5252
 8023SOL     OW35527   1.834   2.399   6.100  0.1826 -0.2211 -0.2271
 8023SOL    HW135528   1.811   2.473   6.044  0.5155 -0.0303 -0.1065
 8023SOL    HW235529   1.917   2.376   6.059  0.9687  0.6510  0.8898
 8024SOL     OW35530   2.758   1.726   6.931 -0.1058  0.7544  0.0414
 8024SOL    HW135531   2.850   1.719   6.906  0.7412 -1.2114  3.6672
 8024SOL    HW235532   2.774   1.704   7.023  0.7510  1.1044 -0.0227
 8025SOL     OW35533   0.150   1.497   7.824 -0.1726 -0.2183 -0.2292
 8025SOL    HW135534   0.157   1.418   7.877  0.0616  0.1478  0.2872
 8025SOL    HW235535   0.059   1.485   7.797 -0.1305 -0.3064 -0.3325
 8026SOL     OW35536   0.971   0.188  15.791 -0.1983 -0.5728  0.5600
 8026SOL    HW135537   1.042   0.235  15.747 -1.4017  0.3387 -0.4113
 8026SOL    HW235538   0.889   0.232  15.770  0.1186  0.0083  0.5335
 8027SOL     OW35539   1.427   0.507   4.323 -0.5771 -0.0831 -0.3382
 8027SOL    HW135540   1.397   0.428   4.278  2.2046  0.0706 -2.4749
 8027SOL    HW235541   1.483   0.551   4.259 -1.3285  0.8884 -0.3261
 8028SOL     OW35542   1.406   2.615   5.537  0.0563 -0.2090 -0.3402
 8028SOL    HW135543   1.324   2.613   5.487  1.0678  0.4831 -2.0037
 8028SOL    HW235544   1.357   2.593   5.617 -0.2857  1.4660 -0.0735
 8029SOL     OW35545   1.297   2.526  16.791  0.2898  0.4480 -0.2623
 8029SOL    HW135546   1.228   2.471  16.753  0.3667  0.1786 -0.0099
 8029SOL    HW235547   1.263   2.546  16.878  2.6508 -0.0949  0.7834
 8030SOL     OW35548   2.313   0.077   6.669 -0.7475 -0.1405  0.1560
 8030SOL    HW135549   2.285   4.710   6.649 -0.9391 -0.2010  0.7077
 8030SOL    HW235550   2.275   0.091   6.756  2.2350  2.7592  0.9962
 8031SOL     OW35551   2.986   1.331   3.421 -0.3866  0.2167 -0.1605
 8031SOL    HW135552   3.070   1.335   3.375  0.2259 -2.6475  0.7340
 8031SOL    HW235553   2.965   1.422   3.402  1.1047  0.1520 -2.1859
 8032SOL     OW35554   4.588   3.818   8.436  0.8239 -0.0701  0.5864
 8032SOL    HW135555   4.604   3.855   8.349  0.2489 -0.8209  0.1604
 8032SOL    HW235556   4.501   3.783   8.414  0.6130  0.6921  0.1859
 8033SOL     OW35557   4.473   3.394   3.569  0.2359 -0.8325 -0.8380
 8033SOL    HW135558   4.551   3.352   3.604  1.5631  2.2367 -0.0417
 8033SOL    HW235559   4.457   3.454   3.643  0.1585 -0.4744 -1.1426
 8034SOL     OW35560   1.533   0.725   4.882 -0.3929 -0.1667 -0.2013
 8034SOL    HW135561   1.488   0.743   4.965 -1.2548 -2.0990 -0.2627
 8034SOL    HW235562   1.569   0.637   4.895  2.0589  0.6701 -1.2689
 8035SOL     OW35563   4.398   1.208   0.998 -0.5021  0.3006  0.3293
 8035SOL    HW135564   4.386   1.184   1.090 -2.3580  0.8441  0.2295
 8035SOL    HW235565   4.309   1.233   0.973  0.3830  0.2620 -2.7947
 8036SOL     OW35566   4.713   1.721   4.786  0.4772  0.5981 -0.6787
 8036SOL    HW135567   4.704   1.783   4.714 -2.4931 -0.9562 -1.6673
 8036SOL    HW235568   0.075   1.747   4.822  0.0377  1.9725 -0.6246
 8037SOL     OW35569   4.713   3.876   0.822 -0.0205  0.5383  0.6020
 8037SOL    HW135570   4.652   3.941   0.785 -0.0544  0.2909  0.2202
 8037SOL    HW235571   0.059   3.936   0.851  1.8744 -1.4500  0.2100
 8038SOL     OW35572   3.965   4.204   4.336 -0.0473 -0.5973 -0.0391
 8038SOL    HW135573   4.041   4.227   4.282 -1.0705  1.1803 -0.7197
 8038SOL    HW235574   3.911   4.283   4.345 -2.4264 -2.1551 -0.5434
 8039SOL     OW35575   0.190   2.113   3.831  0.4794  0.0874 -0.0821
 8039SOL    HW135576   0.138   2.092   3.754 -0.5295 -1.2852  0.9788
 8039SOL    HW235577   0.276   2.096   3.793  0.6202 -0.2947  0.4071
 8040SOL     OW35578   1.489   2.464  13.986 -0.0400 -0.2211  0.5995
 8040SOL    HW135579   1.581   2.439  13.981 -0.6346 -2.7540  1.9168
 8040SOL    HW235580   1.463   2.393  14.045 -0.8333  0.3089  0.8864
 8041SOL     OW35581   3.802   2.166   7.364  0.2609  0.3561  0.3896
 8041SOL    HW135582   3.846   2.084   7.386 -3.0547 -0.9181  2.3735
 8041SOL    HW235583   3.772   2.133   7.279  0.5972  2.7055 -0.6319
 8042SOL     OW35584   3.275   1.609   9.448  0.4551 -0.5746 -0.2280
 8042SOL    HW135585   3.289   1.702   9.462  1.9213 -0.8653  0.2976
 8042SOL    HW235586   3.220   1.610   9.370 -0.6892  1.4450  0.6277
 8043SOL     OW35587   0.457   3.238   8.509  0.4760 -0.1044  0.2010
 8043SOL    HW135588   0.446   3.333   8.516  0.5052  0.0719 -2.0539
 8043SOL    HW235589   0.379   3.212   8.557  3.0560 -1.4795  3.6117
 8044SOL     OW35590   0.728   0.422   7.553 -0.0399 -0.3939  0.2426
 8044SOL    HW135591   0.756   0.341   7.595  0.3135 -1.2510 -1.6502
 8044SOL    HW235592   0.635   0.399   7.548 -0.3728  1.4659 -2.1008
 8045SOL     OW35593   4.577   1.798  16.946  0.0981  0.1267 -0.2092
 8045SOL    HW135594   4.618   1.885  16.947  1.2997 -0.4332 -1.1481
 8045SOL    HW235595   4.506   1.805  16.882 -2.0633  0.6649  2.2350
 8046SOL     OW35596   1.181   4.284   7.567  0.0787 -0.0902 -0.1224
 8046SOL    HW135597   1.106   4.229   7.544 -0.8607  0.3503  1.9542
 8046SOL    HW235598   1.187   4.265   7.660 -0.6667 -0.5539 -0.1659
 8047SOL     OW35599   0.185   0.077   9.639 -0.1931  0.3872  0.9158
 8047SOL    HW135600   0.232   0.038   9.566 -2.6611  0.7585 -0.8641
 8047SOL    HW235601   0.117   0.009   9.644 -0.6021  0.7452  0.1999
 8048SOL     OW35602   0.303   4.149   2.653  0.0010  0.2709  0.5781
 8048SOL    HW135603   0.265   4.078   2.601  4.3928  0.3675 -2.7576
 8048SOL    HW235604   0.298   4.109   2.739 -0.0773 -1.9804 -0.4661
 8049SOL     OW35605   0.522   1.345  17.292  0.2285  0.0124 -0.4675
 8049SOL    HW135606   0.456   1.279  17.315 -1.2513  0.9173 -2.0810
 8049SOL    HW235607   0.600   1.290  17.285  0.6635  0.5486  0.1676
 8050SOL     OW35608   4.468   2.286   8.853 -0.0073  0.3553  0.3676
 8050SOL    HW135609   4.417   2.273   8.933  0.2514 -0.9998  0.3154
 8050SOL    HW235610   4.437   2.212   8.800  1.5196  0.1157 -0.1697
 8051SOL     OW35611   0.727   0.304  16.843  0.0825  0.0446 -0.8271
 8051SOL    HW135612   0.716   0.264  16.929  2.4638 -1.7054 -1.3331
 8051SOL    HW235613   0.822   0.293  16.832  0.3414  0.2975  1.1874
 8052SOL     OW35614   4.703   1.708   0.410 -0.2696 -0.2101 -0.3898
 8052SOL    HW135615   0.063   1.750   0.387  0.7754 -1.8159  0.3505
 8052SOL    HW235616   0.023   1.624   0.431 -3.5362 -2.1172 -1.3784
 8053SOL     OW35617   1.383   0.303   4.177 -0.0977  0.1256 -0.7537
 8053SOL    HW135618   1.308   0.245   4.165 -1.0661  1.3041 -0.3889
 8053SOL    HW235619   1.443   0.272   4.109 -0.4453 -0.8633 -0.6045
 8054SOL     OW35620   1.343   3.520   2.239  0.3781 -0.3077 -0.3255
 8054SOL    HW135621   1.319   3.554   2.325  0.0884  0.5207 -0.7306
 8054SOL    HW235622   1.438   3.535   2.238  0.5437 -1.3709 -0.1039
 8055SOL     OW35623   1.132   3.911   6.228  0.0459  0.0513  0.6549
 8055SOL    HW135624   1.121   3.916   6.133 -0.4279 -0.5900  0.6792
 8055SOL    HW235625   1.212   3.963   6.235 -1.6165  2.9044 -1.6583
 8056SOL     OW35626   3.842   2.536   7.619 -0.3246 -0.3635 -0.0977
 8056SOL    HW135627   3.893   2.615   7.634  1.1844 -0.6891 -3.4095
 8056SOL    HW235628   3.876   2.517   7.531  1.0865 -1.1155  0.6269
 8057SOL     OW35629   0.486   2.814   6.952  0.1299 -0.1392  0.0689
 8057SOL    HW135630   0.466   2.811   6.859  1.8412  0.8052 -0.3184
 8057SOL    HW235631   0.570   2.768   6.951  0.5035  0.5753 -1.3600
 8058SOL     OW35632   3.747   4.519   7.605  0.7057  0.0258  0.4587
 8058SOL    HW135633   3.658   4.510   7.572  1.4579  1.0003 -1.8471
 8058SOL    HW235634   3.740   4.540   7.698  0.3806 -1.6502  0.8121
 8059SOL     OW35635   3.294   0.831   7.761 -0.0109  0.1543 -0.0203
 8059SOL    HW135636   3.269   0.739   7.761  0.5051  0.0106  0.2638
 8059SOL    HW235637   3.213   0.870   7.728 -1.4848 -0.0876  3.3617
 8060SOL     OW35638   0.086   3.267   7.939 -0.3784 -0.0536 -0.2973
 8060SOL    HW135639   0.112   3.247   8.029 -0.3084  0.8218 -0.1301
 8060SOL    HW235640   0.179   3.276   7.916  0.4275 -3.1689  1.7266
 8061SOL     OW35641   3.538   2.920  12.520  0.0481 -0.0162 -0.2415
 8061SOL    HW135642   3.529   2.977  12.597  1.1732  0.3138 -0.3509
 8061SOL    HW235643   3.629   2.895  12.536  0.2968  2.4341  2.2582
 8062SOL     OW35644   1.045   1.597   8.742 -0.0292 -0.0951  0.3447
 8062SOL    HW135645   0.990   1.596   8.821 -0.9792  1.7570 -0.2839
 8062SOL    HW235646   1.080   1.685   8.755 -1.7247  0.2869  2.2975
 8063SOL     OW35647   1.133   1.831   3.044  0.0343 -0.5332  0.6875
 8063SOL    HW135648   1.101   1.835   3.134 -2.3891 -0.3509 -0.1842
 8063SOL    HW235649   1.181   1.914   3.045  0.2681 -0.6786  1.2214
 8064SOL     OW35650   0.541   3.097   1.629 -0.4411  0.2533  0.2174
 8064SOL    HW135651   0.483   3.057   1.564  0.8361 -0.1817 -0.6450
 8064SOL    HW235652   0.477   3.152   1.676 -0.1933  0.2251  0.5880
 8065SOL     OW35653   4.471   0.724   2.395  0.0250 -0.4615 -0.1672
 8065SOL    HW135654   4.510   0.687   2.475 -0.1920 -0.7579 -0.2005
 8065SOL    HW235655   4.553   0.726   2.346 -0.2723  0.1410 -0.6479
 8066SOL     OW35656   0.791   0.194   7.674  0.2870 -0.2134 -0.3878
 8066SOL    HW135657   0.710   0.165   7.716  1.1249 -2.3033 -0.2164
 8066SOL    HW235658   0.846   0.169   7.748  0.8069  0.8090 -0.4207
 8067SOL     OW35659   3.339   2.648  13.526  0.1127  0.0417 -0.1767
 8067SOL    HW135660   3.349   2.671  13.434  0.9025  0.9715  0.1406
 8067SOL    HW235661   3.424   2.608  13.546  0.5198  0.4320 -1.1478
 8068SOL     OW35662   0.833   1.261   1.208  0.3860 -0.2349 -0.1666
 8068SOL    HW135663   0.905   1.204   1.184  0.7087  0.4028 -0.7211
 8068SOL    HW235664   0.861   1.298   1.292  0.4607 -1.8077  0.4859
 8069SOL     OW35665   3.872   0.215   0.292 -0.4254 -0.1843 -0.1806
 8069SOL    HW135666   3.959   0.226   0.330 -3.0914  2.1916  5.2449
 8069SOL    HW235667   3.869   0.120   0.279  1.4002  0.1628 -3.0254
 8070SOL     OW35668   0.888   3.954   8.003 -0.5838  0.0331  0.1386
 8070SOL    HW135669   0.908   3.949   7.910 -1.6839 -1.5099 -0.0065
 8070SOL    HW235670   0.833   3.882   8.033 -0.2313 -0.4662 -0.4398
 8071SOL     OW35671   0.138   3.855   0.477  0.2914 -0.4614  0.3313
 8071SOL    HW135672   0.210   3.792   0.470  0.7515  0.0911  0.1288
 8071SOL    HW235673   0.164   3.907   0.552  1.4587 -0.0858 -0.3335
 8072SOL     OW35674   4.611   4.617   5.192  0.2083  0.2721  0.3171
 8072SOL    HW135675   4.602   4.527   5.223  0.1615 -0.2464 -1.2307
 8072SOL    HW235676   4.520   4.646   5.192  0.4263  0.9670 -2.9452
 8073SOL     OW35677   0.701   0.132   8.937  0.7299  0.0651  0.2470
 8073SOL    HW135678   0.608   0.138   8.959  0.3462  0.5629 -1.5225
 8073SOL    HW235679   0.675   0.118   8.845 -0.9869  2.7695  0.3199
 8074SOL     OW35680   1.430   1.766   2.947  0.4459  0.6175 -0.0293
 8074SOL    HW135681   1.362   1.766   3.014 -0.9874 -1.3840 -1.4783
 8074SOL    HW235682   1.387   1.716   2.877  0.9988 -1.6739  1.2676
 8075SOL     OW35683   1.793   0.873   2.995  0.3086  0.7734  0.0487
 8075SOL    HW135684   1.811   0.880   2.901 -1.9986  1.5736 -0.3464
 8075SOL    HW235685   1.791   0.963   3.026 -0.2108  1.1318 -1.0184
 8076SOL     OW35686   2.309   4.108   3.173 -0.1494  0.1498  0.2584
 8076SOL    HW135687   2.276   4.019   3.185 -0.9367  0.1802 -1.6863
 8076SOL    HW235688   2.234   4.151   3.133 -1.2860 -1.7395  0.3728
 8077SOL     OW35689   2.875   4.634   5.336 -0.3324  0.2302  0.2811
 8077SOL    HW135690   2.782   4.637   5.358 -0.6392 -4.3277 -0.2695
 8077SOL    HW235691   2.889   4.540   5.347 -2.2978  0.0074  0.8028
 8078SOL     OW35692   4.471   0.176  15.926 -0.0320 -0.3054  0.3330
 8078SOL    HW135693   4.452   0.207  16.014  0.7438 -0.6532  0.6312
 8078SOL    HW235694   4.511   0.250  15.881  1.2764 -1.2760 -0.1158
 8079SOL     OW35695   0.969   4.420   2.588  0.0427 -0.2548 -0.1995
 8079SOL    HW135696   1.053   4.425   2.634 -0.0660  1.0740 -0.1466
 8079SOL    HW235697   0.971   4.332   2.551  1.5282 -0.3447  0.1160
 8080SOL     OW35698   2.328   2.840   2.236  0.9523 -0.5576  0.0322
 8080SOL    HW135699   2.301   2.803   2.152 -0.6918  0.7993 -0.0281
 8080SOL    HW235700   2.309   2.932   2.219 -0.9120 -1.2993 -1.8584
 8081SOL     OW35701   1.121   2.118   2.597  0.4438 -0.3748 -0.0600
 8081SOL    HW135702   1.113   2.193   2.537  1.0298 -0.6410 -0.4681
 8081SOL    HW235703   1.084   2.041   2.553  0.6635  1.9308 -4.3185
 8082SOL     OW35704   4.552   3.244  16.548  0.0907  0.6157 -0.1400
 8082SOL    HW135705   4.479   3.259  16.488  0.0047  0.5416 -0.0542
 8082SOL    HW235706   4.515   3.200  16.625  1.2561  0.2857  0.2241
 8083SOL     OW35707   0.325   4.286   7.966 -0.7561  0.7932  0.3868
 8083SOL    HW135708   0.277   4.367   7.985 -2.7094 -0.4840  0.9233
 8083SOL    HW235709   0.311   4.248   8.053  2.0227 -2.0410 -0.4106
 8084SOL     OW35710   2.131   2.572  13.587  0.5113  0.0321 -0.3138
 8084SOL    HW135711   2.092   2.640  13.532 -1.4045 -1.7349 -1.1390
 8084SOL    HW235712   2.152   2.631  13.660  0.5476 -1.8496  1.2040
 8085SOL     OW35713   1.882   0.232  10.799 -0.0076 -0.0683 -0.1266
 8085SOL    HW135714   1.831   0.155  10.775  0.8683  0.4323 -3.6875
 8085SOL    HW235715   1.818   0.295  10.768 -1.0378  0.0751  2.2813
 8086SOL     OW35716   2.591   0.176   7.581 -0.2661  0.0403  0.6588
 8086SOL    HW135717   2.539   0.149   7.657 -3.0007  0.3470 -1.1153
 8086SOL    HW235718   2.633   0.251   7.623  1.4519 -0.0097 -0.9834
 8087SOL     OW35719   0.959   2.472   4.154  0.5961 -0.2859  0.2237
 8087SOL    HW135720   0.951   2.565   4.132  1.0767  0.7362  4.4777
 8087SOL    HW235721   0.870   2.439   4.166  0.7728 -0.5387  0.8346
 8088SOL     OW35722   1.995   4.705  10.629  0.4030  0.0423 -0.5068
 8088SOL    HW135723   2.000   0.060  10.572 -0.1557  1.2507  1.0913
 8088SOL    HW235724   1.918   4.659  10.594  0.0067  1.2017 -1.1503
 8089SOL     OW35725   3.549   1.140   1.205 -0.2012 -0.2249  0.1772
 8089SOL    HW135726   3.547   1.096   1.289  2.2391  0.1111  0.4078
 8089SOL    HW235727   3.483   1.209   1.217 -0.7678 -0.5021 -1.3058
 8090SOL     OW35728   4.590   2.877   4.155  0.6442 -0.4585  0.3004
 8090SOL    HW135729   4.647   2.952   4.139  0.2856  0.2104  2.1167
 8090SOL    HW235730   4.648   2.811   4.120  1.3414 -0.3659  1.2718
 8091SOL     OW35731   3.331   3.420   1.378 -0.4538  0.1352 -0.0051
 8091SOL    HW135732   3.239   3.435   1.356  0.2793  1.5807 -1.9866
 8091SOL    HW235733   3.361   3.507   1.350 -0.5798 -0.2284 -1.2530
 8092SOL     OW35734   3.155   3.087   0.251 -0.4262  0.1002 -0.4086
 8092SOL    HW135735   3.072   3.068   0.295  0.3935 -0.0548  1.0566
 8092SOL    HW235736   3.130   3.144   0.178 -0.1386 -0.3981 -0.8979
 8093SOL     OW35737   4.300   2.233  14.084  0.6017  0.2851 -0.2868
 8093SOL    HW135738   4.296   2.295  14.157 -1.4714 -0.5620  0.3296
 8093SOL    HW235739   4.303   2.297  14.013  2.2518  1.0415  0.4651
 8094SOL     OW35740   0.293   2.405   6.262 -0.5995  0.3149 -0.3793
 8094SOL    HW135741   0.209   2.359   6.270 -1.0350  1.2895  0.6321
 8094SOL    HW235742   0.267   2.497   6.260 -0.2793  0.3896 -1.4214
 8095SOL     OW35743   1.905   1.225   4.926  0.1663 -0.0688 -0.3800
 8095SOL    HW135744   1.818   1.223   4.886  0.3415 -0.4258 -0.7393
 8095SOL    HW235745   1.945   1.144   4.897 -0.7131 -1.7104  2.9766
 8096SOL     OW35746   2.668   1.688  17.238  0.3101 -0.1713 -0.1113
 8096SOL    HW135747   2.710   1.658  17.157  0.5965 -0.3477  0.1014
 8096SOL    HW235748   2.693   1.625  17.305  2.5877 -1.7345 -2.3961
 8097SOL     OW35749   0.335   2.583   6.755  0.0897  0.2606 -0.2886
 8097SOL    HW135750   0.242   2.576   6.733  0.0793 -2.3033  0.6359
 8097SOL    HW235751   0.362   2.656   6.699 -1.5421  0.5081 -0.7508
 8098SOL     OW35752   3.886   1.278   1.402 -0.4641  0.2966  0.5637
 8098SOL    HW135753   3.892   1.215   1.473  0.8923 -2.0905 -1.6671
 8098SOL    HW235754   3.830   1.226   1.344  0.9428  0.5254 -1.0139
 8099SOL     OW35755   3.556   2.202   8.365 -0.3575  0.2728  0.4085
 8099SOL    HW135756   3.565   2.152   8.446 -0.7474  1.6818  1.3244
 8099SOL    HW235757   3.629   2.163   8.318  0.1122  1.5611  0.0752
 8100SOL     OW35758   3.680   2.017   3.325  0.1155  0.4283  0.2920
 8100SOL    HW135759   3.602   2.058   3.288  0.3718 -0.5167 -1.3249
 8100SOL    HW235760   3.726   2.096   3.353  3.2273 -1.9594  1.9683
 8101SOL     OW35761   2.007   3.886   7.141  0.0064  0.4341  0.1334
 8101SOL    HW135762   1.983   3.926   7.058  1.4506 -1.8933 -1.4014
 8101SOL    HW235763   1.990   3.945   7.214  1.1096  2.2282 -1.0812
 8102SOL     OW35764   2.747   1.454   8.740 -0.0680 -0.3342  0.2551
 8102SOL    HW135765   2.823   1.508   8.717 -0.1759  0.7076  2.2875
 8102SOL    HW235766   2.727   1.486   8.829  1.4319 -2.0679  1.2091
 8103SOL     OW35767   2.461   1.689  13.226 -1.2576 -0.6056 -0.4509
 8103SOL    HW135768   2.490   1.601  13.203  0.5268 -0.6696  2.1152
 8103SOL    HW235769   2.456   1.740  13.145  2.8459 -0.8080 -0.8079
 8104SOL     OW35770   4.349   2.591   6.476  0.4405  0.0207  0.5985
 8104SOL    HW135771   4.390   2.525   6.531 -0.4787 -1.2925 -0.2948
 8104SOL    HW235772   4.389   2.669   6.513 -1.8353  0.9948  1.0302
 8105SOL     OW35773   4.521   3.375   5.631 -0.2092 -0.9135 -0.5269
 8105SOL    HW135774   4.532   3.349   5.722 -0.3191 -0.9738 -0.5299
 8105SOL    HW235775   4.570   3.457   5.625 -1.7296  0.0097 -0.3693
 8106SOL     OW35776   4.061   2.371   9.217  0.1071 -0.2949  0.3321
 8106SOL    HW135777   4.114   2.292   9.230  0.5741  0.3997  2.5834
 8106SOL    HW235778   3.987   2.342   9.164 -0.6815 -0.3866  1.4978
 8107SOL     OW35779   0.994   0.972   5.002  0.0874 -0.4484  0.0521
 8107SOL    HW135780   0.928   1.013   4.946  1.4631  0.7060 -0.7282
 8107SOL    HW235781   0.933   0.948   5.072  0.2415 -0.6030  0.1347
 8108SOL     OW35782   4.698   3.411   6.168 -0.0792 -0.2287 -0.2213
 8108SOL    HW135783   4.686   3.493   6.216  2.6448  0.1315 -0.1346
 8108SOL    HW235784   4.607   3.383   6.162  0.4614 -2.0855  0.1287
 8109SOL     OW35785   4.148   1.482  13.428 -0.8535  0.1542  0.3253
 8109SOL    HW135786   4.080   1.453  13.367 -1.0067  1.1219  0.0502
 8109SOL    HW235787   4.181   1.396  13.455  1.3128  1.5796  2.2229
 8110SOL     OW35788   3.915   0.687   7.423  0.2652 -0.1875 -0.3926
 8110SOL    HW135789   3.942   0.732   7.503 -0.2672 -1.6579  0.6151
 8110SOL    HW235790   3.822   0.708   7.415  0.6028  2.3314  2.0178
 8111SOL     OW35791   4.400   3.179   9.988  0.5384 -0.3082  0.5982
 8111SOL    HW135792   4.365   3.126   9.916 -3.0908  1.9842  0.6611
 8111SOL    HW235793   4.482   3.185   9.940  0.6210 -2.0307  0.5430
 8112SOL     OW35794   1.055   4.209   6.623 -0.1001  0.0372  0.1260
 8112SOL    HW135795   0.990   4.163   6.675  0.6868 -1.4888 -0.2499
 8112SOL    HW235796   1.039   4.149   6.550 -0.4775  1.3515 -0.8834
 8113SOL     OW35797   0.330   1.399   8.075 -0.0169 -0.5938 -0.1033
 8113SOL    HW135798   0.379   1.369   8.152 -0.2786  0.9892  0.6948
 8113SOL    HW235799   0.278   1.323   8.050 -2.5451  1.0441  0.0830
 8114SOL     OW35800   1.762   0.305   8.625 -0.0031 -0.0265 -0.0667
 8114SOL    HW135801   1.675   0.339   8.604 -0.4319 -1.5723 -0.7781
 8114SOL    HW235802   1.746   0.211   8.628 -2.2699  0.2699 -3.1255
 8115SOL     OW35803   3.963   3.459   8.194 -0.1257 -0.5714  0.2216
 8115SOL    HW135804   3.982   3.527   8.259  1.9063 -2.5731  1.7218
 8115SOL    HW235805   3.911   3.398   8.247  2.2569 -2.2192  0.6869
 8116SOL     OW35806   0.115   1.189   7.619 -0.5046 -0.5124  0.5088
 8116SOL    HW135807   0.135   1.190   7.712 -0.9429  4.9394  0.5188
 8116SOL    HW235808   0.032   1.141   7.626 -1.8119  1.7214  0.3819
 8117SOL     OW35809   0.516   1.719   8.291  0.2161 -0.0858  0.1013
 8117SOL    HW135810   0.559   1.717   8.376 -0.5208 -0.3602  0.4676
 8117SOL    HW235811   0.585   1.752   8.234  0.8670 -0.8347  0.4733
 8118SOL     OW35812   1.196   1.858   8.642 -0.2991 -0.1535 -0.1276
 8118SOL    HW135813   1.173   1.916   8.570 -1.8037  0.5894  0.9383
 8118SOL    HW235814   1.146   1.898   8.713  1.3485 -0.2366  1.0821
 8119SOL     OW35815   0.976   3.459   4.911  0.4092  0.5930 -0.0621
 8119SOL    HW135816   1.049   3.414   4.953 -0.9016  0.5239  2.1373
 8119SOL    HW235817   1.020   3.542   4.893  2.1743 -0.0392  1.2821
 8120SOL     OW35818   3.495   2.287  11.828  0.1147  0.3242  0.1774
 8120SOL    HW135819   3.589   2.277  11.843  0.2980 -0.0335 -1.1630
 8120SOL    HW235820   3.491   2.278  11.733  0.9421  0.4055  0.1372
 8121SOL     OW35821   2.425   4.682   4.540  0.3781 -0.0694 -0.2059
 8121SOL    HW135822   2.510   4.679   4.495 -0.3094  1.1205 -1.5918
 8121SOL    HW235823   2.418   0.027   4.607 -2.4755 -0.4854 -0.1050
 8122SOL     OW35824   0.213   1.913   0.402  0.1038 -0.5117 -0.3931
 8122SOL    HW135825   0.270   1.940   0.474  0.2889  1.1542 -1.1664
 8122SOL    HW235826   0.272   1.861   0.348 -0.0698 -0.3793 -0.7084
 8123SOL     OW35827   3.200   0.876   9.194  0.1022 -0.5044 -0.1742
 8123SOL    HW135828   3.265   0.809   9.173 -2.7721 -3.7189  1.1813
 8123SOL    HW235829   3.144   0.849   9.121  1.0430  1.3963 -1.5714
 8124SOL     OW35830   0.185   2.516  12.138  0.4113  0.0867 -0.0813
 8124SOL    HW135831   0.132   2.450  12.183  0.9175 -0.1507  0.1764
 8124SOL    HW235832   0.275   2.490  12.160  1.2079  1.3493 -1.8034
 8125SOL     OW35833   2.456   4.375   2.215 -0.1386 -0.0156 -0.0191
 8125SOL    HW135834   2.500   4.437   2.157  0.2268  0.7270  1.0441
 8125SOL    HW235835   2.401   4.324   2.156 -1.6562  0.1935  1.2027
 8126SOL     OW35836   3.815   2.413  10.385  0.3161 -0.3273  0.0699
 8126SOL    HW135837   3.761   2.486  10.353 -0.6562 -1.8643 -1.7684
 8126SOL    HW235838   3.773   2.339  10.343  3.0655 -2.5682  1.3069
 8127SOL     OW35839   3.991   1.941   4.879  0.2274  0.0564 -0.1225
 8127SOL    HW135840   4.018   1.890   4.803  0.4425 -2.5092  1.6622
 8127SOL    HW235841   4.020   1.882   4.948  0.3213 -0.8889 -0.9778
 8128SOL     OW35842   0.115   1.055   5.735  0.4573  0.6197  0.4781
 8128SOL    HW135843   0.099   0.998   5.811 -0.6805 -0.2081 -0.3896
 8128SOL    HW235844   0.041   1.050   5.675  0.0317 -1.7088  1.2110
 8129SOL     OW35845   0.019   0.376  12.736  0.2284  0.6589  0.3232
 8129SOL    HW135846   4.674   0.334  12.683  1.8379 -0.3415 -0.9131
 8129SOL    HW235847   4.683   0.438  12.779 -2.3959 -0.6612 -1.3823
 8130SOL     OW35848   4.031   1.387   6.675  0.1256 -0.1696 -0.4113
 8130SOL    HW135849   4.021   1.433   6.758 -0.0537 -0.2922 -0.3641
 8130SOL    HW235850   3.950   1.421   6.637  1.3703  2.0041 -1.1131
 8131SOL     OW35851   3.798   1.169   5.957  0.3291 -0.0179 -0.4911
 8131SOL    HW135852   3.791   1.235   5.889  0.2311 -1.2006 -1.6286
 8131SOL    HW235853   3.802   1.227   6.033  2.9605  0.8607 -1.2956
 8132SOL     OW35854   4.267   0.527   2.367 -0.0530  0.1155  0.3068
 8132SOL    HW135855   4.318   0.606   2.385 -0.1641  0.4576 -0.8698
 8132SOL    HW235856   4.249   0.518   2.273 -2.0284 -0.8822  0.7928
 8133SOL     OW35857   3.989   2.949   7.046  0.3918 -0.6057 -0.0376
 8133SOL    HW135858   3.950   2.862   7.044 -2.3504  0.6839 -1.8553
 8133SOL    HW235859   3.920   3.005   7.081 -0.4452 -1.2425 -0.6920
 8134SOL     OW35860   1.943   0.245   5.145  0.1136  0.1670  0.0132
 8134SOL    HW135861   1.885   0.208   5.078 -0.5908  0.1679  0.6138
 8134SOL    HW235862   1.896   0.215   5.223 -0.9405 -0.5395 -0.8873
 8135SOL     OW35863   3.529   3.182   4.837  0.2059 -0.0420  0.4786
 8135SOL    HW135864   3.464   3.195   4.907  0.0397  2.0486 -0.0562
 8135SOL    HW235865   3.551   3.274   4.823 -0.5207  0.0778  0.1220
 8136SOL     OW35866   4.680   0.532  11.285  0.3913  0.0242  0.3079
 8136SOL    HW135867   4.624   0.587  11.340  1.3190 -1.4327  2.7362
 8136SOL    HW235868   4.701   0.605  11.227  1.0963  0.4389  1.0906
 8137SOL     OW35869   1.684   0.952   9.392  0.0840 -0.0693  0.2772
 8137SOL    HW135870   1.646   0.909   9.316  0.0709 -2.5884  1.7213
 8137SOL    HW235871   1.773   0.926   9.367  0.5366  0.7832  0.9708
 8138SOL     OW35872   1.991   0.137   7.941 -0.0912  0.0542  0.2014
 8138SOL    HW135873   1.907   0.097   7.920 -0.1723 -0.6185  1.8742
 8138SOL    HW235874   1.958   0.217   7.982  0.0316  0.3148 -0.2007
 8139SOL     OW35875   3.452   4.175  15.288 -0.0712  0.1242 -0.4265
 8139SOL    HW135876   3.412   4.143  15.207 -2.5729 -0.9394  1.2232
 8139SOL    HW235877   3.372   4.191  15.338 -0.6958 -0.9821 -1.0614
 8140SOL     OW35878   0.727   3.876   6.772 -0.0342 -0.5409 -0.1642
 8140SOL    HW135879   0.685   3.795   6.744  0.8177 -1.2008  0.4634
 8140SOL    HW235880   0.655   3.906   6.828  0.0238  0.9305 -0.8727
 8141SOL     OW35881   0.108   1.957   4.675  0.1372  0.1321  0.2667
 8141SOL    HW135882   0.187   2.009   4.658 -0.6625  0.5709 -2.0342
 8141SOL    HW235883   0.060   2.021   4.729 -1.1729  0.3611 -1.1637
 8142SOL     OW35884   4.644   1.091   8.006 -0.8741 -0.5059 -0.0069
 8142SOL    HW135885   4.601   1.065   7.924 -1.1502 -2.5150  0.7806
 8142SOL    HW235886   4.582   1.142   8.056 -1.3753 -0.5399 -0.5892
 8143SOL     OW35887   4.128   3.461   5.710  0.1436  0.4210  0.8187
 8143SOL    HW135888   4.177   3.467   5.792  1.3902 -1.1949  0.1721
 8143SOL    HW235889   4.074   3.541   5.707  0.1228  0.2920 -2.5675
 8144SOL     OW35890   4.561   2.500   8.564  0.4163  0.1416 -0.1133
 8144SOL    HW135891   4.639   2.474   8.613  0.6348  1.3087  0.1562
 8144SOL    HW235892   4.568   2.592   8.590 -2.4332  0.4243 -0.3462
 8145SOL     OW35893   0.812   2.125  12.281  0.5224 -0.2369  0.3628
 8145SOL    HW135894   0.890   2.170  12.248  2.3841 -1.8362  2.6191
 8145SOL    HW235895   0.769   2.206  12.306  0.5963  0.4273 -1.6509
 8146SOL     OW35896   0.463   2.196   0.516  0.4185 -0.1053  0.4512
 8146SOL    HW135897   0.387   2.241   0.553 -0.0737 -0.4653 -0.1077
 8146SOL    HW235898   0.458   2.116   0.568 -1.9759 -0.7867 -0.8023
 8147SOL     OW35899   0.135   1.721   3.677  0.6432 -0.1771 -0.0692
 8147SOL    HW135900   0.092   1.796   3.636  0.5036 -0.6335 -0.7674
 8147SOL    HW235901   0.185   1.670   3.612  0.2675 -0.9760  0.2749
 8148SOL     OW35902   0.786   2.605   9.426  0.4987 -0.5975 -0.2414
 8148SOL    HW135903   0.700   2.577   9.395 -0.2036  1.1307  0.1180
 8148SOL    HW235904   0.818   2.522   9.460  0.1131 -0.5752  0.1733
 8149SOL     OW35905   4.374   0.331  14.851 -0.1502 -0.5956 -0.2613
 8149SOL    HW135906   4.432   0.343  14.777  0.4220 -2.7983 -0.1754
 8149SOL    HW235907   4.305   0.296  14.795 -1.8357  0.7795  0.9571
 8150SOL     OW35908   1.446   0.834  10.820  0.2667 -0.3192 -0.6377
 8150SOL    HW135909   1.509   0.762  10.831 -0.4896 -0.6513  1.5683
 8150SOL    HW235910   1.502   0.902  10.783 -0.1820  0.0695 -0.5973
 8151SOL     OW35911   4.620   0.093   3.596 -0.2409 -0.1227 -0.2695
 8151SOL    HW135912   4.539   0.141   3.578  0.1537  0.8567  0.5614
 8151SOL    HW235913   4.606   0.013   3.545 -0.4032 -0.8251  0.8763
 8152SOL     OW35914   3.989   2.213   9.705 -0.0281  0.1224  0.4944
 8152SOL    HW135915   3.915   2.152   9.713  0.3223 -0.3613  0.1041
 8152SOL    HW235916   3.945   2.298   9.709  1.7474  0.9494  1.8767
 8153SOL     OW35917   3.541   1.590   7.285  0.1618 -0.3898  0.4281
 8153SOL    HW135918   3.501   1.562   7.367 -0.9064 -2.5080 -0.8011
 8153SOL    HW235919   3.622   1.542   7.270  0.8160  0.3799  1.5698
 8154SOL     OW35920   1.095   4.201   2.778 -0.2518 -0.5015  0.0574
 8154SOL    HW135921   1.171   4.156   2.815  1.0750  1.7844  0.0961
 8154SOL    HW235922   1.051   4.231   2.858  0.3724 -1.2502  0.6831
 8155SOL     OW35923   2.998   3.069   1.998 -0.0780 -0.1475  0.1414
 8155SOL    HW135924   2.990   2.974   1.998  1.3354 -0.2715  1.7980
 8155SOL    HW235925   2.965   3.083   2.087  0.4642  2.2180 -0.0151
 8156SOL     OW35926   1.595   1.858   6.560  0.3075  0.0635  0.3227
 8156SOL    HW135927   1.647   1.908   6.622  0.3304  0.3871  0.0399
 8156SOL    HW235928   1.587   1.928   6.495 -0.2874 -0.3199 -0.0202
 8157SOL     OW35929   3.877   1.821  10.497  0.3037  0.2344 -0.1515
 8157SOL    HW135930   3.840   1.748  10.546  1.5627  1.1050  2.1040
 8157SOL    HW235931   3.946   1.779  10.445  0.7597  2.2532 -1.1912
 8158SOL     OW35932   0.054   4.239   7.555  0.1922  0.2835  0.0655
 8158SOL    HW135933   0.103   4.263   7.476 -0.0735 -0.7094 -0.4101
 8158SOL    HW235934   0.131   4.224   7.609 -0.6481  1.6669  1.6383
 8159SOL     OW35935   2.117   0.599  11.162 -0.2481 -0.2678 -0.0921
 8159SOL    HW135936   2.161   0.663  11.217 -0.4466 -1.4559  1.4514
 8159SOL    HW235937   2.041   0.653  11.140  0.3988  0.9214  0.6422
 8160SOL     OW35938   3.210   0.116  13.650  0.0191 -0.2536 -0.0711
 8160SOL    HW135939   3.229   0.201  13.610 -1.7383 -0.3491 -1.1247
 8160SOL    HW235940   3.299   0.083  13.660  0.0274  0.3505  1.7878
 8161SOL     OW35941   1.644   4.484   1.758  0.0032 -0.0282 -0.0494
 8161SOL    HW135942   1.725   4.532   1.740 -1.1524  1.0738 -2.3273
 8161SOL    HW235943   1.580   4.525   1.700 -1.4270 -2.3060 -0.0749
 8162SOL     OW35944   4.168   2.172   4.697 -0.1361 -0.6001  0.1270
 8162SOL    HW135945   4.089   2.165   4.750  1.8793 -1.0367  3.0741
 8162SOL    HW235946   4.129   2.124   4.624  2.1344 -2.0610 -0.1500
 8163SOL     OW35947   4.370   2.259   2.166 -0.0263 -0.8166  0.0960
 8163SOL    HW135948   4.357   2.303   2.251  0.1914  0.7659 -0.6950
 8163SOL    HW235949   4.293   2.300   2.127 -0.1297  1.0190  2.1800
 8164SOL     OW35950   2.900   4.389   6.391  0.2324 -0.1535  0.3751
 8164SOL    HW135951   2.845   4.464   6.370  0.0904 -0.1801  0.6511
 8164SOL    HW235952   2.871   4.361   6.478 -0.5544  0.9163  0.4562
 8165SOL     OW35953   1.955   3.164  10.418 -0.2652 -0.4313  0.3043
 8165SOL    HW135954   2.039   3.205  10.441 -0.6969  0.1591  0.8208
 8165SOL    HW235955   1.891   3.235  10.419  0.5853  0.3315 -0.0196
 8166SOL     OW35956   3.096   2.800   1.057  0.0819 -0.6316 -0.2439
 8166SOL    HW135957   3.153   2.805   0.980 -0.7555  0.7439 -0.7869
 8166SOL    HW235958   3.009   2.815   1.021  0.9861 -1.8261 -2.9710
 8167SOL     OW35959   1.955   4.208   2.622  0.5021  0.2665 -0.3578
 8167SOL    HW135960   1.993   4.177   2.540  0.9275  3.1526 -1.2742
 8167SOL    HW235961   2.013   4.168   2.686  0.9344  2.2439  0.5093
 8168SOL     OW35962   2.183   3.490   0.236 -0.4119 -0.2335 -0.7366
 8168SOL    HW135963   2.162   3.493   0.329  1.3962  0.4514 -0.3451
 8168SOL    HW235964   2.268   3.446   0.234 -0.6168 -0.6836  0.9749
 8169SOL     OW35965   3.250   3.423  12.153 -0.5725 -0.5382 -0.0719
 8169SOL    HW135966   3.157   3.416  12.176  0.1421 -0.4700  2.8041
 8169SOL    HW235967   3.278   3.471  12.231 -0.8304 -0.9516  0.2732
 8170SOL     OW35968   2.037   4.052   8.117  0.4790 -0.2885  0.1618
 8170SOL    HW135969   2.047   4.128   8.060 -1.0450 -1.1482 -1.2535
 8170SOL    HW235970   2.033   4.098   8.201 -2.9699 -1.7356  0.7877
 8171SOL     OW35971   3.017   4.055   5.746 -0.4081 -0.2766  0.1238
 8171SOL    HW135972   3.043   4.094   5.830 -1.2610  0.3522  0.0977
 8171SOL    HW235973   3.041   4.121   5.682 -1.9396  1.6557  1.5127
 8172SOL     OW35974   4.596   2.151   6.273  0.0361 -0.4877  0.3045
 8172SOL    HW135975   4.685   2.132   6.304 -0.2131 -1.9662  0.1119
 8172SOL    HW235976   4.612   2.229   6.219  1.3488 -0.0941  1.2642
 8173SOL     OW35977   0.794   1.517  16.104  0.2612 -0.2221  0.1729
 8173SOL    HW135978   0.832   1.431  16.117 -0.4473 -0.4707  0.6041
 8173SOL    HW235979   0.848   1.562  16.169 -0.1838  0.6562 -0.0556
 8174SOL     OW35980   2.264   4.721   6.918  0.6448  0.0866  0.2890
 8174SOL    HW135981   2.188   0.012   6.974 -0.3074 -1.7014 -0.5718
 8174SOL    HW235982   2.291   4.636   6.952  0.4784 -0.0326  0.1281
 8175SOL     OW35983   4.208   0.255   9.935  0.1362 -0.2983 -0.0127
 8175SOL    HW135984   4.267   0.330   9.934  1.7712 -1.5991  0.0795
 8175SOL    HW235985   4.173   0.255  10.025  0.0477 -0.9430 -0.0441
 8176SOL     OW35986   0.031   4.659  13.210  0.1465 -0.0281  0.6562
 8176SOL    HW135987   0.112   4.642  13.161 -1.4342 -0.4933 -1.7728
 8176SOL    HW235988   0.033   0.031  13.224 -0.4093 -0.1178  1.3266
 8177SOL     OW35989   4.334   3.904   3.871 -0.3244 -0.5438  0.0968
 8177SOL    HW135990   4.417   3.858   3.860  0.9947  1.5931  1.0260
 8177SOL    HW235991   4.293   3.895   3.785  1.2413 -0.2506 -0.6771
 8178SOL     OW35992   0.246   1.522   4.525  0.4843 -0.0911 -0.0921
 8178SOL    HW135993   0.255   1.616   4.535  0.3315 -0.3387  2.2607
 8178SOL    HW235994   0.337   1.502   4.503  0.7971  2.7477 -1.3921
 8179SOL     OW35995   2.849   2.718   2.908  0.2427  0.4464 -0.2134
 8179SOL    HW135996   2.835   2.679   2.821 -0.2079 -0.6902  0.3650
 8179SOL    HW235997   2.761   2.739   2.939  0.1238 -0.3864  0.0375
 8180SOL     OW35998   3.054   0.229   3.098  0.5133 -0.3807 -0.2228
 8180SOL    HW135999   3.130   0.285   3.113  0.1590  0.0591 -0.0596
 8180SOL    HW236000   2.987   0.295   3.116 -0.6871 -1.5723 -0.2717
 8181SOL     OW36001   2.234   1.744   7.828 -0.0207  0.0835 -0.2041
 8181SOL    HW136002   2.158   1.695   7.798 -0.0421  0.1810 -0.3090
 8181SOL    HW236003   2.249   1.807   7.758 -0.0087  0.0866 -0.1988
 8182SOL     OW36004   0.820   4.590  13.043  0.3106  0.6294 -0.3778
 8182SOL    HW136005   0.781   4.597  13.131 -1.8175  1.3305 -1.3792
 8182SOL    HW236006   0.845   4.683  13.039  0.9905  0.3836 -1.6830
 8183SOL     OW36007   2.378   3.404   7.840 -0.0539 -0.4173  0.2521
 8183SOL    HW136008   2.409   3.420   7.751  1.8112 -0.0384  0.9758
 8183SOL    HW236009   2.346   3.493   7.856  0.8604  0.1770 -1.2619
 8184SOL     OW36010   4.654   4.523   9.331 -0.0608 -0.7635  0.4676
 8184SOL    HW136011   4.604   4.512   9.411 -0.5102  0.6215  0.3711
 8184SOL    HW236012   0.017   4.563   9.349 -1.5605  1.4947  2.4199
 8185SOL     OW36013   3.603   1.251  11.738  0.1603  0.6410 -0.2667
 8185SOL    HW136014   3.580   1.344  11.741  2.9793  1.2901  1.5482
 8185SOL    HW236015   3.516   1.221  11.713  0.1869  1.5289 -1.4049
 8186SOL     OW36016   4.358   1.546   4.183 -0.4066  0.0695 -0.2387
 8186SOL    HW136017   4.391   1.465   4.144 -2.7065 -0.9502 -0.0492
 8186SOL    HW236018   4.439   1.573   4.228 -0.0243 -1.7148  0.1494
 8187SOL     OW36019   0.003   1.522   5.908  0.3993 -0.0791 -0.2125
 8187SOL    HW136020   0.068   1.551   5.843 -0.5290 -1.1135 -1.6143
 8187SOL    HW236021   4.661   1.592   5.899  0.1570  0.1720  3.8859
 8188SOL     OW36022   2.168   1.391   9.001 -0.3300  0.3254  0.0222
 8188SOL    HW136023   2.187   1.445   9.078 -0.5148 -1.0960  1.0648
 8188SOL    HW236024   2.162   1.300   9.028 -1.8618 -0.1358 -1.8742
 8189SOL     OW36025   1.994   3.114  11.761  0.1950 -0.0363 -0.3170
 8189SOL    HW136026   1.997   3.085  11.852  2.2603 -2.0699 -1.0201
 8189SOL    HW236027   2.057   3.060  11.714 -0.2622 -0.4873 -0.4138
 8190SOL     OW36028   1.241   2.138   4.521  0.1075 -0.0262  0.1111
 8190SOL    HW136029   1.313   2.135   4.458  1.6034 -0.0705  1.8193
 8190SOL    HW236030   1.271   2.082   4.594 -2.0843  2.2665  2.7813
 8191SOL     OW36031   1.940   3.549   5.501 -0.0995  0.0136  0.2056
 8191SOL    HW136032   1.856   3.560   5.457 -1.2122  0.4009  2.4004
 8191SOL    HW236033   1.993   3.529   5.424  0.4350  0.7100  0.3958
 8192SOL     OW36034   0.181   3.025   8.922 -0.3196  0.4218  1.2378
 8192SOL    HW136035   0.243   3.075   8.975  0.4154 -1.0816  1.8127
 8192SOL    HW236036   0.093   3.059   8.936 -0.5977 -0.0673  0.7090
 8193SOL     OW36037   4.452   4.034   9.795 -0.1541 -0.0124 -0.0161
 8193SOL    HW136038   4.490   3.947   9.785 -0.2688 -0.3768  2.5311
 8193SOL    HW236039   4.504   4.059   9.872  1.1705  0.9267 -1.2303
 8194SOL     OW36040   4.134   1.655   1.258  0.0248 -0.3163 -0.5887
 8194SOL    HW136041   4.132   1.737   1.308 -2.2572 -1.1849  0.7598
 8194SOL    HW236042   4.064   1.625   1.316  0.2320  2.0539  0.9121
 8195SOL     OW36043   2.252   0.813   8.809 -0.5652  0.4931  0.4200
 8195SOL    HW136044   2.328   0.853   8.768 -1.3218  2.1417  0.6420
 8195SOL    HW236045   2.260   0.859   8.893 -1.7985 -1.3443  1.5727
 8196SOL     OW36046   0.252   3.281   2.895  0.4166  0.1103  0.4333
 8196SOL    HW136047   0.223   3.312   2.810  2.7480 -2.0830 -1.1663
 8196SOL    HW236048   0.212   3.194   2.894  1.1701 -0.2021 -1.6112
 8197SOL     OW36049   0.583   3.062   4.375 -0.4412  0.2911 -0.5290
 8197SOL    HW136050   0.676   3.076   4.393  0.0771 -2.0558 -1.4466
 8197SOL    HW236051   0.560   3.132   4.315 -3.0543 -2.8247 -3.1382
 8198SOL     OW36052   2.062   1.418   1.275 -0.2247 -0.2645  0.2989
 8198SOL    HW136053   2.002   1.402   1.202 -1.0266 -2.6192  1.4806
 8198SOL    HW236054   2.022   1.482   1.334 -1.5118  0.2738 -1.1404
 8199SOL     OW36055   0.547   3.958   6.945  0.4473  0.2421  0.1315
 8199SOL    HW136056   0.599   4.025   6.989 -0.2608  0.0659  1.2136
 8199SOL    HW236057   0.468   4.004   6.915 -0.0781 -0.9609 -0.3309
 8200SOL     OW36058   3.709   3.071   7.761 -0.0499 -0.0749 -0.2991
 8200SOL    HW136059   3.657   2.990   7.758  3.1682 -2.1588  0.4570
 8200SOL    HW236060   3.766   3.058   7.837  0.6586  0.0453 -0.8165
 8201SOL     OW36061   3.224   0.618  11.092 -0.4013  0.2909 -0.2919
 8201SOL    HW136062   3.163   0.616  11.018  0.5764  0.5099 -1.0970
 8201SOL    HW236063   3.165   0.613  11.167  2.0414 -0.8420  1.5303
 8202SOL     OW36064   0.484   1.638  10.825  0.4726  0.0947 -0.4365
 8202SOL    HW136065   0.515   1.548  10.835  0.0120 -0.2268 -1.9335
 8202SOL    HW236066   0.501   1.654  10.732  1.0743 -1.5178 -0.6051
 8203SOL     OW36067   0.299   3.928   8.982 -0.1957  0.3230 -0.5830
 8203SOL    HW136068   0.391   3.903   8.974 -0.6030 -1.6926  0.8983
 8203SOL    HW236069   0.270   3.883   9.062  0.6598 -1.9137 -1.5120
 8204SOL     OW36070   4.292   2.445   4.282 -0.2344  0.0802 -0.3823
 8204SOL    HW136071   4.345   2.372   4.315 -1.8578 -1.5892 -1.4649
 8204SOL    HW236072   4.308   2.446   4.188 -0.2530 -1.4348 -0.4080
 8205SOL     OW36073   1.725   0.816   4.527 -0.1355 -0.0254 -0.1855
 8205SOL    HW136074   1.702   0.723   4.531  0.1619 -0.0666  0.7299
 8205SOL    HW236075   1.805   0.820   4.579 -1.2598 -2.5094  1.7530
 8206SOL     OW36076   3.254   1.320   7.163  0.7717 -0.0288  0.7742
 8206SOL    HW136077   3.224   1.353   7.247  0.7075  2.1175 -0.1025
 8206SOL    HW236078   3.190   1.251   7.146  0.7036  0.4966 -1.1063
 8207SOL     OW36079   0.766   2.594   1.982 -0.2701  0.1702  0.2822
 8207SOL    HW136080   0.701   2.639   2.035  0.2410  2.5224 -1.0857
 8207SOL    HW236081   0.763   2.516   2.037  1.0004  0.6272  1.0167
 8208SOL     OW36082   2.121   0.406   9.530 -0.2695 -0.1794  0.4726
 8208SOL    HW136083   2.039   0.453   9.512  0.8253  1.3233 -0.6573
 8208SOL    HW236084   2.141   0.444   9.616  2.0002  0.0436 -0.1686
 8209SOL     OW36085   2.586   2.598   6.477  0.2666  0.9592 -0.4775
 8209SOL    HW136086   2.681   2.596   6.461  0.1268 -0.8369 -1.0741
 8209SOL    HW236087   2.555   2.531   6.415  1.1285 -0.7869  0.9714
 8210SOL     OW36088   0.966   0.353   6.954  0.2869 -0.0622  0.3861
 8210SOL    HW136089   0.963   0.259   6.935 -5.0726  0.1524  0.2103
 8210SOL    HW236090   0.956   0.389   6.865 -0.3113  0.5274  0.6909
 8211SOL     OW36091   0.682   1.360   2.877  0.2257  0.3405  0.2544
 8211SOL    HW136092   0.735   1.308   2.817 -0.3007 -1.4714  1.3651
 8211SOL    HW236093   0.608   1.299   2.877  1.4525 -1.1506  0.8543
 8212SOL     OW36094   4.715   1.688  10.423  0.0066  0.3247 -0.6231
 8212SOL    HW136095   4.650   1.617  10.428  0.1856  0.1533 -0.7138
 8212SOL    HW236096   4.688   1.739  10.500  1.9248  0.5520 -0.1047
 8213SOL     OW36097   4.513   0.958   5.312 -0.7577 -0.2494  0.5181
 8213SOL    HW136098   4.533   0.892   5.246  1.0421  0.3311  0.4947
 8213SOL    HW236099   4.423   0.985   5.293 -1.1954 -0.8196  1.7878
 8214SOL     OW36100   3.493   2.804   2.847 -0.0276  0.0734 -0.0100
 8214SOL    HW136101   3.528   2.879   2.896 -1.9662 -0.5453  2.3235
 8214SOL    HW236102   3.411   2.834   2.808  1.4978  0.3261 -3.0263
 8215SOL     OW36103   3.205   0.870  14.921 -0.5435  0.4631  0.1122
 8215SOL    HW136104   3.230   0.778  14.914  0.3523  0.7932 -1.0398
 8215SOL    HW236105   3.132   0.866  14.860 -1.0364  3.3645  0.5179
 8216SOL     OW36106   0.991   3.012  11.995  0.2012 -0.3296 -0.4106
 8216SOL    HW136107   1.014   2.920  12.003 -0.2987 -0.3361  0.9653
 8216SOL    HW236108   0.979   3.014  11.900 -3.2703 -1.3614  0.0190
 8217SOL     OW36109   4.090   2.189   8.144  0.3000 -0.1448 -0.4770
 8217SOL    HW136110   4.070   2.195   8.050  0.7104 -2.4195 -0.7172
 8217SOL    HW236111   4.081   2.281   8.170  2.3339 -0.3652  0.9839
 8218SOL     OW36112   0.521   0.606   5.540 -0.0087  0.3108 -0.7713
 8218SOL    HW136113   0.436   0.619   5.499  0.3780  0.5405 -1.5120
 8218SOL    HW236114   0.570   0.682   5.510 -0.4819 -0.2126 -2.8867
 8219SOL     OW36115   3.137   0.205   3.979  0.4149  0.4189 -0.5512
 8219SOL    HW136116   3.047   0.238   3.987  0.6741  0.4349  2.2281
 8219SOL    HW236117   3.186   0.287   3.969 -1.6865  1.8677  0.9827
 8220SOL     OW36118   0.417   1.102   5.199 -0.3614 -0.4446 -0.0188
 8220SOL    HW136119   0.362   1.142   5.266  0.5016 -1.0968  1.0699
 8220SOL    HW236120   0.369   1.022   5.174  0.5556 -0.5572 -1.4401
 8221SOL     OW36121   4.522   2.459   6.944  0.2449 -0.6873  0.9675
 8221SOL    HW136122   4.515   2.548   6.979 -1.6048 -0.2053 -0.6384
 8221SOL    HW236123   4.430   2.445   6.924  0.8591 -0.9566 -1.6652
 8222SOL     OW36124   0.456   1.186   2.860  0.2252 -0.1812  0.6929
 8222SOL    HW136125   0.488   1.099   2.837  0.7600  0.0474  0.5668
 8222SOL    HW236126   0.367   1.180   2.827  1.1791  0.1394 -1.9303
 8223SOL     OW36127   1.803   0.849   8.335 -0.4871  0.2332 -0.3408
 8223SOL    HW136128   1.857   0.847   8.414  0.2970 -1.8120 -0.9346
 8223SOL    HW236129   1.856   0.909   8.283 -0.2810 -0.0054 -0.4075
 8224SOL     OW36130   1.222   0.982   2.249 -0.0841 -0.0897 -0.0508
 8224SOL    HW136131   1.145   1.037   2.261 -0.6699 -0.9952  0.2765
 8224SOL    HW236132   1.249   1.019   2.165  2.1387 -2.0472 -0.2142
 8225SOL     OW36133   2.731   2.658   9.604 -0.5896 -0.1022 -0.0186
 8225SOL    HW136134   2.663   2.699   9.550 -1.8939 -0.1358  1.5848
 8225SOL    HW236135   2.796   2.638   9.536 -0.4231 -0.0903  0.1373
 8226SOL     OW36136   1.231   3.604   7.197 -0.5027 -0.3393 -0.0430
 8226SOL    HW136137   1.173   3.632   7.268  1.9899 -1.0730  2.3003
 8226SOL    HW236138   1.176   3.607   7.119 -0.3610 -2.5257 -0.2311
 8227SOL     OW36139   0.162   2.021  14.710 -0.2297  0.1730  0.2852
 8227SOL    HW136140   0.110   2.101  14.715 -0.8804 -0.3290  1.7368
 8227SOL    HW236141   0.231   2.021  14.777  0.2479  1.3509 -0.2183
 8228SOL     OW36142   0.211   2.517  15.224 -0.1643 -0.1377  0.2592
 8228SOL    HW136143   0.158   2.443  15.254 -1.3505  0.3925 -0.4872
 8228SOL    HW236144   0.250   2.541  15.308 -1.5344  0.7385  0.6486
 8229SOL     OW36145   0.461   0.528   8.194  0.4314  0.2302  0.2182
 8229SOL    HW136146   0.544   0.525   8.243  0.4393  0.5352  0.2224
 8229SOL    HW236147   0.494   0.537   8.105  2.1469  0.4332  0.8652
 8230SOL     OW36148   0.461   3.322  14.624 -0.2715 -0.3357  0.2397
 8230SOL    HW136149   0.409   3.324  14.544  0.6106 -0.5779 -0.3469
 8230SOL    HW236150   0.392   3.299  14.686  0.7728 -2.4226  0.6685
 8231SOL     OW36151   1.706   3.697   5.392  0.2859 -0.0383  0.0757
 8231SOL    HW136152   1.762   3.706   5.315  1.6518 -1.6605  0.8818
 8231SOL    HW236153   1.626   3.726   5.347  1.4168 -1.4428 -2.7752
 8232SOL     OW36154   3.455   1.212   4.390  0.1692 -0.0525 -0.3389
 8232SOL    HW136155   3.547   1.217   4.419  0.0712  2.5485 -0.4628
 8232SOL    HW236156   3.449   1.283   4.326  0.3670  0.1922 -0.0876
 8233SOL     OW36157   3.948   0.695   4.687  0.2843 -0.3074  0.2832
 8233SOL    HW136158   3.861   0.733   4.678 -0.6031 -2.1375  0.9853
 8233SOL    HW236159   4.005   0.762   4.650  0.8324 -0.3522  1.0517
 8234SOL     OW36160   0.477   0.546  11.292 -0.3416  0.5109  0.0817
 8234SOL    HW136161   0.564   0.529  11.255  0.9853  0.8135  3.1204
 8234SOL    HW236162   0.456   0.630  11.250  0.0743  0.3873 -0.3767
 8235SOL     OW36163   2.383   1.285  12.798 -0.5289 -0.8245  0.4858
 8235SOL    HW136164   2.460   1.310  12.747 -0.9574 -0.8851 -0.1885
 8235SOL    HW236165   2.337   1.232  12.733  1.6274  0.8739 -2.4080
 8236SOL     OW36166   2.631   0.263   9.246 -0.4963 -0.1417  0.1325
 8236SOL    HW136167   2.700   0.267   9.312  0.1672 -2.0145 -0.4386
 8236SOL    HW236168   2.549   0.266   9.294 -0.8095  0.8500 -0.4536
 8237SOL     OW36169   3.469   0.088   8.668 -0.4637  0.0870  0.4736
 8237SOL    HW136170   3.468   0.161   8.730  0.1346 -1.0184  1.7878
 8237SOL    HW236171   3.376   0.078   8.647 -0.4599 -0.0066  0.4984
 8238SOL     OW36172   0.215   4.565   8.004  0.4729  0.4006 -0.0211
 8238SOL    HW136173   0.221   4.552   8.098 -0.4088  1.5337  0.1990
 8238SOL    HW236174   0.168   4.649   8.007 -1.1946 -0.5220 -0.0552
 8239SOL     OW36175   2.696   2.335   4.547 -0.1683  0.4589 -1.2022
 8239SOL    HW136176   2.744   2.379   4.618 -0.6476  1.9263 -1.7952
 8239SOL    HW236177   2.767   2.274   4.525  1.1861  1.5720  0.0600
 8240SOL     OW36178   2.478   3.377   3.587 -0.1863 -0.7650 -0.4184
 8240SOL    HW136179   2.414   3.423   3.641  2.6442  1.3270  1.2215
 8240SOL    HW236180   2.555   3.376   3.644 -0.2152  0.8469 -0.3354
 8241SOL     OW36181   2.882   1.919   3.485  0.3332 -0.2125 -0.9319
 8241SOL    HW136182   2.829   1.842   3.465 -0.1825 -0.5587  1.8030
 8241SOL    HW236183   2.845   1.951   3.567  0.2760  0.9572 -1.4212
 8242SOL     OW36184   3.345   0.381  15.626 -0.4326 -0.4325  0.4650
 8242SOL    HW136185   3.259   0.347  15.600  0.4780 -2.0718 -0.3821
 8242SOL    HW236186   3.402   0.329  15.570 -0.5000 -1.3966  1.2766
 8243SOL     OW36187   1.176   3.538   2.701 -0.5742 -0.8730 -0.4726
 8243SOL    HW136188   1.184   3.535   2.796  2.3634  1.5317 -0.6722
 8243SOL    HW236189   1.100   3.483   2.678  0.1829 -1.1725 -2.2538
 8244SOL     OW36190   0.042   0.775   3.864  0.3801  0.0852 -0.1430
 8244SOL    HW136191   0.000   0.700   3.907  0.5011 -0.5443 -1.1230
 8244SOL    HW236192   0.011   0.757   3.776 -0.4044 -1.4828  0.4583
 8245SOL     OW36193   0.459   2.663   8.239  0.7124 -0.1298  0.2050
 8245SOL    HW136194   0.389   2.625   8.293 -1.1323  1.3106 -1.1538
 8245SOL    HW236195   0.422   2.749   8.216  0.2357 -0.1392  0.9127
 8246SOL     OW36196   1.044   3.485  10.028 -0.1685 -0.6288 -0.1961
 8246SOL    HW136197   1.047   3.522   9.940  0.8720 -0.4847 -0.1086
 8246SOL    HW236198   0.980   3.533  10.081 -0.8779 -1.5933 -0.1777
 8247SOL     OW36199   2.468   3.209  13.059 -0.4914 -0.1955  0.0985
 8247SOL    HW136200   2.386   3.166  13.083 -0.7778  1.2718  1.7147
 8247SOL    HW236201   2.525   3.135  13.038  1.5371  0.5039  3.0916
 8248SOL     OW36202   2.178   2.327   2.528 -0.4381  0.0252  0.4571
 8248SOL    HW136203   2.202   2.310   2.438 -1.2817  0.9504  0.0557
 8248SOL    HW236204   2.086   2.300   2.540 -0.8354  2.4560  3.0421
 8249SOL     OW36205   4.270   1.673   9.470  0.1110 -0.0182 -0.4127
 8249SOL    HW136206   4.206   1.604   9.451 -1.1613  1.1889 -0.5155
 8249SOL    HW236207   4.290   1.653   9.562 -0.4108 -1.0679 -0.5206
 8250SOL     OW36208   3.257   0.122   0.755  0.3062  0.1202 -0.7007
 8250SOL    HW136209   3.208   0.040   0.749 -0.4897  0.5185  0.3791
 8250SOL    HW236210   3.232   0.160   0.839 -1.3201 -2.4415 -0.0364
 8251SOL     OW36211   2.653   4.635  15.889 -0.0999  0.2092  0.2290
 8251SOL    HW136212   2.558   4.641  15.890  0.0745  3.2422 -0.4053
 8251SOL    HW236213   2.665   0.007  15.901  0.1072  0.4365 -1.7700
 8252SOL     OW36214   0.545   0.259  17.301 -0.4588 -0.4588  0.9543
 8252SOL    HW136215   0.566   0.175  17.261 -0.9464 -0.1664  0.0846
 8252SOL    HW236216   0.581   0.319  17.235 -0.9427 -0.2451  0.8860
 8253SOL     OW36217   2.178   2.231   3.840  0.1445  0.2834  0.0913
 8253SOL    HW136218   2.255   2.247   3.785  0.7600 -0.8475  0.6279
 8253SOL    HW236219   2.143   2.316   3.867 -0.2322 -0.0580  0.6726
 8254SOL     OW36220   3.935   3.667   5.639  0.5544  0.7299  0.5063
 8254SOL    HW136221   3.941   3.762   5.645 -3.4421  0.8576  2.4485
 8254SOL    HW236222   3.862   3.657   5.577  2.2449  0.3118 -1.4288
 8255SOL     OW36223   1.226   4.453   8.703 -0.2201 -0.4574  0.0835
 8255SOL    HW136224   1.240   4.482   8.793 -1.4656  1.9872 -0.5074
 8255SOL    HW236225   1.317   4.468   8.677 -0.3966  0.6802  0.0989
 8256SOL     OW36226   0.775   3.637   2.075  0.2454  0.1369 -0.2005
 8256SOL    HW136227   0.756   3.712   2.019  0.6590  0.5293  0.1864
 8256SOL    HW236228   0.783   3.568   2.009  1.4047 -0.7811  0.9111
 8257SOL     OW36229   1.945   1.102   1.662 -0.2971 -0.2592  0.0236
 8257SOL    HW136230   1.930   1.147   1.579 -0.2487 -3.1253 -1.5065
 8257SOL    HW236231   1.935   1.010   1.640  0.3600 -0.3085 -0.0621
 8258SOL     OW36232   3.500   1.731   3.294 -0.2824 -0.0793  0.3322
 8258SOL    HW136233   3.426   1.792   3.289  1.0265  1.5234  0.6569
 8258SOL    HW236234   3.503   1.732   3.390  0.4306  3.0438  0.2703
 8259SOL     OW36235   0.330   2.582   9.608 -0.3705  0.6438  0.1657
 8259SOL    HW136236   0.425   2.573   9.607 -0.5227 -0.8317 -0.3234
 8259SOL    HW236237   0.302   2.584   9.700  1.1811  1.1525  0.6128
 8260SOL     OW36238   1.287   3.330   2.890 -0.2246 -0.6873 -0.2938
 8260SOL    HW136239   1.334   3.393   2.945  0.9046  0.3541 -2.4898
 8260SOL    HW236240   1.235   3.278   2.951 -1.0533  0.1449 -0.2863
 8261SOL     OW36241   2.313   1.302   3.073 -0.2123  0.4972  0.0607
 8261SOL    HW136242   2.405   1.327   3.064  0.2241 -1.3248 -0.5772
 8261SOL    HW236243   2.290   1.372   3.134 -0.8085 -1.3148  1.9160
 8262SOL     OW36244   0.274   3.776   5.970  0.5152 -0.1638 -0.8757
 8262SOL    HW136245   0.239   3.705   6.024  0.0626 -0.6649 -1.8381
 8262SOL    HW236246   0.192   3.824   5.957  2.1842  2.2030 -2.7850
 8263SOL     OW36247   0.609   2.530   6.190 -0.2992  0.1907  0.0771
 8263SOL    HW136248   0.554   2.481   6.251 -0.6913 -0.6860 -0.9825
 8263SOL    HW236249   0.548   2.602   6.180 -0.0345  0.4121  0.0500
 8264SOL     OW36250   2.136   0.790   2.967  0.2331  0.5803 -0.5224
 8264SOL    HW136251   2.169   0.879   2.950  0.9610  0.3806 -0.1741
 8264SOL    HW236252   2.202   0.743   2.917  1.9406  2.0937  0.3019
 8265SOL     OW36253   1.671   3.561   6.009  0.8269 -0.2347 -0.3942
 8265SOL    HW136254   1.665   3.643   5.961 -0.3748  1.6563  3.0076
 8265SOL    HW236255   1.583   3.526   5.994  0.2828  1.8181 -1.9240
 8266SOL     OW36256   2.019   4.100   8.435 -0.0544 -0.3439 -0.3080
 8266SOL    HW136257   1.977   4.016   8.416  0.0274 -1.0321  2.5582
 8266SOL    HW236258   2.031   4.097   8.530  0.5791  0.6270 -0.3654
 8267SOL     OW36259   4.369   2.317   3.929 -0.0582  0.3754  0.2994
 8267SOL    HW136260   4.417   2.236   3.947 -1.0804 -0.8143 -2.2531
 8267SOL    HW236261   4.401   2.371   4.001 -0.1225  1.7552 -0.7134
 8268SOL     OW36262   1.661   0.595   6.227  0.9076 -0.0363  0.0348
 8268SOL    HW136263   1.651   0.579   6.133 -1.6142 -1.5618  0.5814
 8268SOL    HW236264   1.574   0.576   6.262  0.6986 -0.3070 -0.6301
 8269SOL     OW36265   0.009   1.711   7.653 -0.0880 -0.0851 -0.2026
 8269SOL    HW136266   4.669   1.690   7.583  1.8318  1.1191 -2.2909
 8269SOL    HW236267   0.001   1.806   7.662 -0.5448  0.0206 -1.6520
 8270SOL     OW36268   3.570   3.216   6.026  0.0224  0.0253 -0.0931
 8270SOL    HW136269   3.556   3.299   5.980 -2.9697  0.6237  1.9090
 8270SOL    HW236270   3.494   3.164   5.999 -2.2988  2.6255  1.3354
 8271SOL     OW36271   4.163   1.435   9.360  0.4078 -0.1896  0.0155
 8271SOL    HW136272   4.231   1.367   9.361 -0.7324 -1.3569 -2.2580
 8271SOL    HW236273   4.114   1.406   9.437 -1.1213 -0.3451 -1.0337
 8272SOL     OW36274   3.053   0.356   8.106 -0.6692  0.6354  0.2592
 8272SOL    HW136275   3.136   0.340   8.151  0.5457  1.5577 -1.6510
 8272SOL    HW236276   3.095   0.375   8.022 -0.7091  0.9257  0.3032
 8273SOL     OW36277   1.417   4.339  10.953  0.5578  0.5104  0.3444
 8273SOL    HW136278   1.372   4.300  11.028  1.0000  1.8151  1.2773
 8273SOL    HW236279   1.399   4.266  10.893  1.5211  0.8529 -0.3693
 8274SOL     OW36280   3.929   1.990   8.117 -0.1814  0.0938  0.5438
 8274SOL    HW136281   3.994   2.049   8.155 -0.6065  1.2376 -0.4999
 8274SOL    HW236282   3.850   2.044   8.116 -2.3700 -3.1131  0.2943
 8275SOL     OW36283   3.604   1.428   1.444 -0.0404 -0.3110  0.4129
 8275SOL    HW136284   3.560   1.439   1.528 -2.4907 -0.5432 -0.8426
 8275SOL    HW236285   3.530   1.420   1.383 -0.5320 -0.1294  0.9888
 8276SOL     OW36286   0.557   4.161  17.176  0.3504  0.0332 -0.1650
 8276SOL    HW136287   0.485   4.211  17.215  0.3892 -0.9205  1.1424
 8276SOL    HW236288   0.592   4.222  17.111  1.1390  0.2191  0.4333
 8277SOL     OW36289   0.123   3.022   0.771  0.1414  0.0485  0.9119
 8277SOL    HW136290   0.132   2.977   0.854 -0.0237 -1.0983  0.3149
 8277SOL    HW236291   0.155   3.108   0.799  0.0781  0.7903 -1.2651
 8278SOL     OW36292   2.292   0.289  14.915 -0.5037 -0.4573 -0.0463
 8278SOL    HW136293   2.230   0.252  14.978  0.7176 -0.2619  1.2935
 8278SOL    HW236294   2.226   0.301  14.847  0.7440 -1.3967 -1.4175
 8279SOL     OW36295   2.288   2.022  10.939 -0.0584  0.2432  0.3205
 8279SOL    HW136296   2.341   1.943  10.939  2.7022  2.0786  0.7049
 8279SOL    HW236297   2.281   2.043  10.845  0.6236 -1.0173 -0.0122
 8280SOL     OW36298   4.535   0.577  10.065 -0.4923  0.2088 -0.4653
 8280SOL    HW136299   4.619   0.557  10.108 -2.1831  0.3847  2.8819
 8280SOL    HW236300   4.533   0.671  10.082  1.2266 -0.1284  1.6268
 8281SOL     OW36301   2.497   3.153   5.932 -0.3191  0.0213 -0.0394
 8281SOL    HW136302   2.532   3.173   6.019  1.0907 -0.7996 -0.4179
 8281SOL    HW236303   2.465   3.234   5.893  0.3506  0.4466  0.2976
 8282SOL     OW36304   3.873   2.200  10.557 -0.8480 -0.3380 -0.5912
 8282SOL    HW136305   3.788   2.195  10.601 -1.2150  1.3708 -1.1055
 8282SOL    HW236306   3.864   2.287  10.518  0.9856 -0.1794 -0.6638
 8283SOL     OW36307   3.392   0.512  12.547  0.1630 -0.3461 -0.1471
 8283SOL    HW136308   3.390   0.467  12.462  0.7292 -0.6967  0.0268
 8283SOL    HW236309   3.329   0.580  12.524 -0.2015 -0.9047 -0.7991
 8284SOL     OW36310   0.466   1.529  10.404 -0.0651 -0.0170  0.8532
 8284SOL    HW136311   0.385   1.540  10.454 -1.0139  1.4448 -1.0186
 8284SOL    HW236312   0.424   1.533  10.318 -1.6914  2.4263  1.7562
 8285SOL     OW36313   0.522   1.903  13.955 -0.4418 -0.0893 -0.0915
 8285SOL    HW136314   0.439   1.933  13.991  0.0170 -1.9241  2.5060
 8285SOL    HW236315   0.509   1.914  13.860  0.4709 -1.1355 -0.3465
 8286SOL     OW36316   4.720   0.499  16.588 -0.3376  0.2757  0.0871
 8286SOL    HW136317   4.663   0.510  16.513 -2.5052  0.9246  1.8170
 8286SOL    HW236318   0.047   0.581  16.595 -0.5694  0.4504 -0.3255
 8287SOL     OW36319   3.293   1.118   7.855 -0.0764  0.9184 -0.0726
 8287SOL    HW136320   3.306   1.026   7.833 -0.4759  0.5812  1.0521
 8287SOL    HW236321   3.303   1.150   7.766 -0.2106 -1.9325 -1.1071
 8288SOL     OW36322   2.446   2.431   2.591 -0.8949 -0.3342 -0.5078
 8288SOL    HW136323   2.429   2.523   2.574  1.9726  0.2451 -0.2788
 8288SOL    HW236324   2.361   2.388   2.601 -1.3644  0.2792 -1.9110
 8289SOL     OW36325   1.628   4.545   8.259  0.4190  0.5053  0.3381
 8289SOL    HW136326   1.600   4.507   8.175  0.2264  0.1706  0.5562
 8289SOL    HW236327   1.598   4.480   8.322  0.8198  1.7815  1.8506
 8290SOL     OW36328   3.952   2.155  15.524  0.0708  0.0689 -0.6265
 8290SOL    HW136329   3.994   2.202  15.596  0.0917  0.8112 -1.1293
 8290SOL    HW236330   4.026   2.143  15.465 -0.7750 -1.4299 -1.3782
 8291SOL     OW36331   4.082   4.414  12.065  0.2009 -0.1289  0.2252
 8291SOL    HW136332   4.101   4.508  12.059 -2.3448  0.4133  0.5840
 8291SOL    HW236333   4.095   4.398  11.972  0.1060 -0.2404  0.2312
 8292SOL     OW36334   4.208   3.257   8.196  0.4024 -0.2924 -0.2524
 8292SOL    HW136335   4.196   3.205   8.275 -0.1815  0.8796  0.4330
 8292SOL    HW236336   4.124   3.299   8.175  1.0576  0.1767 -1.9204
 8293SOL     OW36337   1.913   2.683   2.687 -0.1526 -0.0737  0.3267
 8293SOL    HW136338   1.973   2.702   2.615 -2.5502 -1.9255 -2.2085
 8293SOL    HW236339   1.876   2.770   2.701  0.2233 -0.2169  2.1962
 8294SOL     OW36340   4.324   3.699   5.164 -0.2478  0.2427  0.1143
 8294SOL    HW136341   4.250   3.654   5.204 -1.0151  1.2084 -0.2413
 8294SOL    HW236342   4.290   3.715   5.076  0.2801 -2.2805 -0.5667
 8295SOL     OW36343   3.270   0.073   8.096  0.0574 -0.4468 -0.0789
 8295SOL    HW136344   3.282   0.149   8.153 -0.2651 -1.4342  1.2935
 8295SOL    HW236345   3.324   0.016   8.151 -1.7802  0.0705  2.2410
 8296SOL     OW36346   2.067   4.620   4.409 -0.3989 -0.0808 -0.1855
 8296SOL    HW136347   1.993   4.605   4.467  0.2787  1.0670  0.9799
 8296SOL    HW236348   2.133   4.562   4.447 -0.5017 -0.9894 -1.3909
 8297SOL     OW36349   2.956   0.500   1.718 -0.1703  0.0518  0.5092
 8297SOL    HW136350   2.966   0.553   1.639 -2.5560 -0.5500 -0.1706
 8297SOL    HW236351   3.000   0.420   1.687 -2.1504 -0.4055 -1.1635
 8298SOL     OW36352   3.345   2.775   0.522  0.0561  0.2361  0.5225
 8298SOL    HW136353   3.253   2.777   0.497  0.6039 -1.2394 -1.5784
 8298SOL    HW236354   3.359   2.866   0.495  1.4906 -0.1444 -0.0554
 8299SOL     OW36355   3.018   0.832   8.970 -0.6255  0.0829 -0.0927
 8299SOL    HW136356   2.968   0.765   9.018 -3.7936  1.7111 -1.1343
 8299SOL    HW236357   3.080   0.783   8.916 -1.6264 -0.6128 -0.6135
 8300SOL     OW36358   0.388   0.688   4.359  0.0165 -0.1570 -0.2596
 8300SOL    HW136359   0.391   0.640   4.277  3.9629  2.2027 -1.5334
 8300SOL    HW236360   0.362   0.771   4.319 -1.3062 -1.3832 -1.9301
 8301SOL     OW36361   1.828   0.054   8.527  0.0716 -0.3787  0.1499
 8301SOL    HW136362   1.787   4.691   8.525  1.3073 -0.9338 -1.9377
 8301SOL    HW236363   1.912   0.035   8.569  0.1044 -0.8982 -0.1560
 8302SOL     OW36364   2.918   2.969   7.973 -0.5013 -0.4147 -0.0145
 8302SOL    HW136365   2.847   3.029   7.955  0.8267  1.1107 -0.1509
 8302SOL    HW236366   2.952   2.963   7.884  2.0180  0.7431  0.8726
 8303SOL     OW36367   0.956   2.207   3.059 -0.0710  0.5965  0.2979
 8303SOL    HW136368   0.877   2.247   3.022  1.0710  2.2188 -0.3758
 8303SOL    HW236369   0.987   2.163   2.980  1.2930  1.4954  0.3268
 8304SOL     OW36370   3.317   3.062   0.466  0.1783 -0.9803 -0.5566
 8304SOL    HW136371   3.247   3.078   0.529 -1.0553  0.1340 -2.1847
 8304SOL    HW236372   3.284   3.088   0.380  0.8242  0.6068 -0.3145
 8305SOL     OW36373   0.435   3.053   2.646 -0.7638 -0.2551 -0.7047
 8305SOL    HW136374   0.465   2.999   2.574  0.3141 -2.4124  1.3734
 8305SOL    HW236375   0.425   3.140   2.607  0.5254 -0.0645 -0.6130
 8306SOL     OW36376   4.406   0.550   5.383 -0.0090 -0.1049 -0.7121
 8306SOL    HW136377   4.322   0.596   5.389 -0.3553 -0.8944  0.4877
 8306SOL    HW236378   4.390   0.476   5.324 -1.0338 -0.9838  0.6667
 8307SOL     OW36379   0.716   3.142   5.517 -0.5100 -0.0270  0.7853
 8307SOL    HW136380   0.785   3.088   5.477 -0.1584  0.6274  0.4933
 8307SOL    HW236381   0.676   3.175   5.436  2.0398 -1.3004 -1.0322
 8308SOL     OW36382   4.171   2.055   1.245  0.1239 -0.0907  0.5524
 8308SOL    HW136383   4.209   2.035   1.159  0.0877  0.1940  0.4696
 8308SOL    HW236384   4.252   2.059   1.295  0.1772  2.2228  0.2887
 8309SOL     OW36385   4.594   3.452   4.153 -0.4893 -0.2090 -0.0474
 8309SOL    HW136386   4.515   3.407   4.123  0.3884 -0.6235 -1.7498
 8309SOL    HW236387   4.586   3.444   4.248 -2.0403 -1.6835 -0.3115
 8310SOL     OW36388   3.659   0.591  12.942 -0.2024 -0.1917 -0.3463
 8310SOL    HW136389   3.726   0.571  12.876  1.0132  1.3489  0.4202
 8310SOL    HW236390   3.584   0.557  12.894  0.3684 -1.7290 -0.1539
 8311SOL     OW36391   2.244   2.161   7.164 -0.1190  0.1050  0.0702
 8311SOL    HW136392   2.230   2.075   7.206  0.8903 -0.4610 -0.7490
 8311SOL    HW236393   2.191   2.213   7.225 -1.9994 -1.6346 -0.0708
 8312SOL     OW36394   4.063   0.446   0.607 -0.0392  0.0049  0.1383
 8312SOL    HW136395   4.086   0.354   0.605 -0.7200 -0.1879  1.2594
 8312SOL    HW236396   4.007   0.464   0.531  0.5930 -3.3443 -1.1107
 8313SOL     OW36397   0.895   1.319  11.829  0.1067  0.2839 -0.0383
 8313SOL    HW136398   0.843   1.307  11.909  0.6412 -0.0337  0.2603
 8313SOL    HW236399   0.949   1.392  11.858  0.2035  0.4045 -0.5303
 8314SOL     OW36400   0.493   3.493   2.393  0.2126  0.4780 -0.3353
 8314SOL    HW136401   0.500   3.421   2.331 -1.8256 -3.1479  3.6155
 8314SOL    HW236402   0.553   3.460   2.460 -0.0374  0.8353  0.0626
 8315SOL     OW36403   2.134   3.539   3.838 -0.1489 -0.3277 -0.1669
 8315SOL    HW136404   2.054   3.488   3.825 -0.0691 -1.5026  3.8541
 8315SOL    HW236405   2.206   3.476   3.846  0.0040 -0.3117 -1.3811
 8316SOL     OW36406   4.305   1.676   2.836 -0.0766  0.3143 -0.2354
 8316SOL    HW136407   4.277   1.763   2.807  0.8064  0.8500  0.5416
 8316SOL    HW236408   4.226   1.622   2.839 -0.5889  1.1137  0.3770
 8317SOL     OW36409   0.669   2.754  13.431 -0.6124 -0.2349 -0.2727
 8317SOL    HW136410   0.711   2.705  13.502  0.9708 -0.1527 -1.1606
 8317SOL    HW236411   0.659   2.840  13.471 -1.9487 -0.3770 -0.3124
 8318SOL     OW36412   4.027   0.034  14.551  0.0377  0.7566 -0.0865
 8318SOL    HW136413   3.985   4.721  14.472  1.1868  0.3477 -0.5198
 8318SOL    HW236414   4.088   4.686  14.571 -0.8084  0.3642  1.1013
 8319SOL     OW36415   0.938   1.558  16.314  0.3590 -0.1119  0.4425
 8319SOL    HW136416   1.007   1.499  16.283 -0.2611 -1.2895  1.3302
 8319SOL    HW236417   0.975   1.621  16.375 -2.2358  0.0906  1.8113
 8320SOL     OW36418   1.409   2.018   7.949 -0.3059  0.2673  0.2618
 8320SOL    HW136419   1.321   2.037   7.980 -0.7297 -1.8449  0.3283
 8320SOL    HW236420   1.412   1.928   7.980  1.4317 -0.2484 -1.3376
 8321SOL     OW36421   1.730   3.369   4.203 -0.3011  0.0262  0.2531
 8321SOL    HW136422   1.665   3.413   4.259  1.3176  1.3491  1.0976
 8321SOL    HW236423   1.691   3.282   4.193  1.6935 -0.5418 -2.5220
 8322SOL     OW36424   0.299   4.025   7.881 -0.0204  0.0288  0.3869
 8322SOL    HW136425   0.299   4.049   7.789 -1.5049  2.3515  0.9796
 8322SOL    HW236426   0.323   4.108   7.923 -0.3555 -0.6298  1.9018
 8323SOL     OW36427   3.859   4.257  15.580 -0.0445 -0.3576  0.1768
 8323SOL    HW136428   3.780   4.216  15.545 -0.1163 -1.3684  1.5257
 8323SOL    HW236429   3.836   4.256  15.673 -2.0184  0.6344 -0.2991
 8324SOL     OW36430   0.487   0.236   7.550 -0.1865 -0.1808  0.0893
 8324SOL    HW136431   0.394   0.217   7.554 -0.2637 -0.4373 -2.6346
 8324SOL    HW236432   0.511   0.214   7.640  0.1990 -0.1256 -0.0000
 8325SOL     OW36433   1.303   1.356   4.805  0.5297  0.7785 -0.4727
 8325SOL    HW136434   1.224   1.390   4.765 -1.5889 -0.5371  2.5689
 8325SOL    HW236435   1.346   1.437   4.831  0.8614  0.0430  1.2557
 8326SOL     OW36436   0.757   1.948   3.926 -0.2358  0.8718  0.1417
 8326SOL    HW136437   0.734   1.954   4.019  2.0268 -0.3860  0.7863
 8326SOL    HW236438   0.710   1.866   3.917 -0.1827  0.6373  2.1293
 8327SOL     OW36439   2.700   0.154   6.435 -0.0114 -0.0688  0.2767
 8327SOL    HW136440   2.742   0.226   6.388 -1.9294 -1.3566 -3.3903
 8327SOL    HW236441   2.617   0.150   6.387  0.0617 -2.0736  0.3441
 8328SOL     OW36442   0.908   3.256  11.702  0.4387 -0.6683 -0.1555
 8328SOL    HW136443   0.934   3.287  11.789 -0.7769 -0.9148  0.2881
 8328SOL    HW236444   0.963   3.178  11.708  0.0151 -1.1359 -2.5593
 8329SOL     OW36445   3.649   1.519   8.928  0.2358 -0.0101 -0.5683
 8329SOL    HW136446   3.618   1.466   9.002 -0.6177  0.7441 -0.3885
 8329SOL    HW236447   3.636   1.460   8.854  2.8784 -1.8439  0.4379
 8330SOL     OW36448   1.484   4.072   7.760  0.3496 -0.1511  0.2156
 8330SOL    HW136449   1.411   4.134   7.767 -0.1481 -0.7360  0.1441
 8330SOL    HW236450   1.554   4.123   7.801  1.2621 -0.7945 -0.5362
 8331SOL     OW36451   3.171   0.260   4.420 -0.9552  0.0914 -0.4130
 8331SOL    HW136452   3.112   0.300   4.357 -1.5347 -2.5113 -1.5246
 8331SOL    HW236453   3.156   0.320   4.493  0.0535  0.6268 -0.6497
 8332SOL     OW36454   3.294   1.268   0.931 -0.1944  0.5244 -0.0926
 8332SOL    HW136455   3.359   1.239   0.867  0.2951  2.6162 -0.5480
 8332SOL    HW236456   3.268   1.183   0.966  1.2861  1.0639  2.2816
 8333SOL     OW36457   3.749   2.511  10.714  0.0352 -0.4058  0.0786
 8333SOL    HW136458   3.748   2.598  10.752  0.0467 -0.5544  0.4155
 8333SOL    HW236459   3.682   2.465  10.765 -0.1679  0.2019  0.3527
 8334SOL     OW36460   2.096   1.063   4.352  0.1268  0.1836  0.6594
 8334SOL    HW136461   2.009   1.099   4.334 -0.4120 -2.3644 -1.8128
 8334SOL    HW236462   2.073   0.974   4.379  1.3838 -0.1623  0.5824
 8335SOL     OW36463   3.162   1.868   6.494  0.5162 -0.0971  0.0034
 8335SOL    HW136464   3.101   1.915   6.438  0.6676  0.6175  0.4455
 8335SOL    HW236465   3.108   1.795   6.523 -1.1674  1.6512  1.2063
 8336SOL     OW36466   2.069   4.073  10.486 -0.6123  0.0958 -0.1244
 8336SOL    HW136467   2.133   4.055  10.555 -2.5021  1.5093  1.9907
 8336SOL    HW236468   2.003   4.007  10.504  0.6214 -0.8689  0.8150
 8337SOL     OW36469   3.860   1.858   2.188  0.1539 -0.5158 -0.2712
 8337SOL    HW136470   3.850   1.953   2.194 -0.1828 -0.7204  2.4314
 8337SOL    HW236471   3.777   1.827   2.225 -1.0430  2.1449 -0.7326
 8338SOL     OW36472   3.258   2.553   6.043 -0.3436  0.2076  0.3626
 8338SOL    HW136473   3.199   2.545   5.967 -1.7679 -0.1207  1.5073
 8338SOL    HW236474   3.214   2.620   6.096  0.6220  0.1500  1.2212
 8339SOL     OW36475   3.060   2.471   8.594  0.2102 -0.2713  0.0577
 8339SOL    HW136476   3.051   2.517   8.511  0.2159  1.1183  0.8347
 8339SOL    HW236477   3.152   2.492   8.612 -0.3826 -0.2456  3.0377
 8340SOL     OW36478   2.344   2.148   8.904 -0.0777 -0.0582  0.2805
 8340SOL    HW136479   2.418   2.127   8.961 -0.3826 -0.2264  0.6140
 8340SOL    HW236480   2.273   2.108   8.954  0.9749 -1.7348  0.4287
 8341SOL     OW36481   3.692   2.073   5.939 -0.3949  0.3485  0.5047
 8341SOL    HW136482   3.777   2.110   5.915 -0.9765  0.6686 -1.0123
 8341SOL    HW236483   3.659   2.149   5.987 -0.5843  1.0011 -0.6656
 8342SOL     OW36484   1.167   0.015   3.979  0.0327 -0.2409  1.0766
 8342SOL    HW136485   1.195   4.651   3.948 -0.7490 -0.6259  1.4432
 8342SOL    HW236486   1.161   0.057   3.893 -0.1817 -2.7007 -0.1310
 8343SOL     OW36487   3.466   1.039  16.117 -0.4277  0.1968  0.0523
 8343SOL    HW136488   3.547   1.071  16.077 -1.3319  0.8090 -1.2677
 8343SOL    HW236489   3.461   0.950  16.082  0.2520 -0.3505  1.3390
 8344SOL     OW36490   1.806   3.472   9.938  0.4091 -0.2407  0.0178
 8344SOL    HW136491   1.889   3.445   9.899 -0.5215 -1.3586 -1.2123
 8344SOL    HW236492   1.747   3.452   9.865 -0.3698  0.6487  0.3974
 8345SOL     OW36493   2.673   2.527   3.520 -0.2143 -0.0352 -0.1892
 8345SOL    HW136494   2.589   2.514   3.565 -1.0509 -1.5680 -2.1460
 8345SOL    HW236495   2.642   2.582   3.448 -1.2653 -0.6429 -0.2127
 8346SOL     OW36496   3.759   4.721   4.722  0.3434 -0.2640 -0.5909
 8346SOL    HW136497   3.848   4.707   4.754  0.4263 -0.0428 -0.7253
 8346SOL    HW236498   3.771   4.712   4.628  0.0446  1.2950 -0.7896
 8347SOL     OW36499   4.566   0.296   9.254  0.3478  0.4493  0.0907
 8347SOL    HW136500   4.547   0.282   9.347  0.8990 -0.4959  0.0607
 8347SOL    HW236501   4.507   0.242   9.203 -1.1986  1.3416  0.9353
 8348SOL     OW36502   2.558   1.615   1.273 -0.3330  0.0819  0.3578
 8348SOL    HW136503   2.538   1.597   1.365  0.3246  0.6640  0.6149
 8348SOL    HW236504   2.466   1.605   1.249  0.0995  1.2788 -1.8097
 8349SOL     OW36505   3.671   2.522   4.459 -0.0592 -0.2658  0.1567
 8349SOL    HW136506   3.648   2.557   4.545  2.6448  0.0068  0.7706
 8349SOL    HW236507   3.720   2.450   4.499 -0.9306 -0.5847  0.6569
 8350SOL     OW36508   3.331   3.326   2.124 -0.5442 -0.0936  0.2631
 8350SOL    HW136509   3.390   3.252   2.110  0.5018  1.0183 -1.2522
 8350SOL    HW236510   3.323   3.321   2.219  0.4153 -3.2318  0.1907
 8351SOL     OW36511   1.486   2.759  13.921  0.5307  0.2275 -0.2940
 8351SOL    HW136512   1.551   2.782  13.854 -0.8320 -0.7913 -1.9472
 8351SOL    HW236513   1.529   2.795  13.999 -4.1902 -0.2049  2.4713
 8352SOL     OW36514   0.801   2.224   7.201  0.4373 -0.1772  0.0626
 8352SOL    HW136515   0.721   2.191   7.242 -1.2354  4.1705  0.2581
 8352SOL    HW236516   0.833   2.278   7.273  0.1766 -0.4750  0.4030
 8353SOL     OW36517   1.899   2.983   8.257  0.4774  0.3074 -0.0183
 8353SOL    HW136518   1.860   2.907   8.214 -2.1512  2.7969 -1.9895
 8353SOL    HW236519   1.831   3.030   8.305  1.3853  2.5096 -0.9162
 8354SOL     OW36520   2.120   2.592  10.472  0.3729  0.1325  0.2667
 8354SOL    HW136521   2.031   2.560  10.460 -0.6454  2.9862  0.2966
 8354SOL    HW236522   2.177   2.596  10.395  1.8828  0.4297  1.3963
 8355SOL     OW36523   3.421   1.811   7.453  0.1904  0.2622  0.0392
 8355SOL    HW136524   3.427   1.725   7.496  1.3938  1.2347  1.8314
 8355SOL    HW236525   3.335   1.802   7.412 -0.2372 -0.4790  1.0873
 8356SOL     OW36526   1.453   3.923   8.130 -0.1058 -0.6799 -0.4453
 8356SOL    HW136527   1.452   4.015   8.105 -3.0146 -0.2311  1.2287
 8356SOL    HW236528   1.393   3.906   8.203  1.3239 -0.9986  0.6512
 8357SOL     OW36529   0.200   2.216   7.754  0.4625  0.1298  0.4713
 8357SOL    HW136530   0.229   2.204   7.845 -0.7522  1.6332  1.0687
 8357SOL    HW236531   0.222   2.309   7.747  2.2528 -0.3338  0.0203
 8358SOL     OW36532   1.264   0.342   3.454 -0.7429  0.4275  0.4697
 8358SOL    HW136533   1.328   0.284   3.496  0.3379  0.2217 -1.4715
 8358SOL    HW236534   1.230   0.284   3.386 -2.3064  1.5679  0.2827
 8359SOL     OW36535   4.047   1.082  15.143  0.1216 -0.5260  0.5949
 8359SOL    HW136536   3.982   1.117  15.082  0.5183 -1.5761 -0.4240
 8359SOL    HW236537   4.059   1.005  15.088  0.1077 -0.5751  0.6614
 8360SOL     OW36538   2.923   4.592  14.475 -0.8015  0.2683 -0.0701
 8360SOL    HW136539   2.844   4.543  14.502 -1.5853  0.8791 -1.2661
 8360SOL    HW236540   2.915   4.668  14.532 -0.7052 -0.3871  0.8284
 8361SOL     OW36541   3.380   3.950  16.355  0.0498  0.0980 -0.7639
 8361SOL    HW136542   3.391   3.907  16.270 -0.3542  3.0408 -2.3121
 8361SOL    HW236543   3.322   3.883  16.391  0.8689  1.3818  3.0141
 8362SOL     OW36544   1.150   1.545  16.772 -0.1557 -0.2987 -0.8137
 8362SOL    HW136545   1.218   1.614  16.774 -1.3513  0.8329  0.8470
 8362SOL    HW236546   1.149   1.516  16.863  1.3159 -0.1499 -0.7344
 8363SOL     OW36547   4.351   3.480   9.944  0.5007 -0.2064 -0.0903
 8363SOL    HW136548   4.256   3.486   9.939  0.4364 -0.7039  0.4289
 8363SOL    HW236549   4.370   3.394   9.982  1.4768  0.2024  0.3593
 8364SOL     OW36550   4.322   0.991  12.376  0.2623 -1.0675 -0.0969
 8364SOL    HW136551   4.328   1.049  12.299 -0.5785  1.3070  1.6338
 8364SOL    HW236552   4.412   0.979  12.407  0.8329  1.0601 -0.8981
 8365SOL     OW36553   2.391   0.779   5.610  0.6769  0.3136 -0.0617
 8365SOL    HW136554   2.403   0.733   5.693  1.1754 -0.6210 -0.6534
 8365SOL    HW236555   2.457   0.847   5.619  0.4816  0.5814 -0.6377
 8366SOL     OW36556   3.741   3.224   6.758 -0.0065  0.6214 -0.2188
 8366SOL    HW136557   3.656   3.218   6.801  1.7458 -0.8239  3.0323
 8366SOL    HW236558   3.764   3.137   6.724  2.0314  0.4554  1.5521
 8367SOL     OW36559   2.138   3.500   6.421  0.1278  0.5631 -0.3572
 8367SOL    HW136560   2.129   3.486   6.515  0.4883  1.0605 -0.2513
 8367SOL    HW236561   2.171   3.415   6.391  1.0391  1.0552 -0.7434
 8368SOL     OW36562   0.868   0.745   6.927 -0.3808  0.1342  0.7226
 8368SOL    HW136563   0.863   0.806   6.854  2.1123 -2.9500 -2.0056
 8368SOL    HW236564   0.869   0.664   6.878  0.5600  0.1272  0.7483
 8369SOL     OW36565   1.445   3.621   8.750 -0.1216 -0.5545 -0.0210
 8369SOL    HW136566   1.501   3.549   8.722  0.6715 -0.2078  0.6300
 8369SOL    HW236567   1.413   3.642   8.663  1.2131 -0.0365 -0.3900
 8370SOL     OW36568   2.540   0.288  12.016  0.2561  0.2523 -0.1480
 8370SOL    HW136569   2.619   0.343  12.010  0.7982 -0.4095  0.9376
 8370SOL    HW236570   2.565   0.228  12.086  0.1794 -2.4797 -2.4703
 8371SOL     OW36571   0.058   0.747  16.196  0.3854  0.1072  0.0381
 8371SOL    HW136572   0.027   0.669  16.150 -1.1779  0.3084  0.7566
 8371SOL    HW236573   4.695   0.785  16.212  0.6671 -0.0074  1.9501
 8372SOL     OW36574   3.728   1.787   8.916  0.2022 -0.1839 -0.1939
 8372SOL    HW136575   3.659   1.727   8.886  0.9377 -0.8110 -0.6321
 8372SOL    HW236576   3.778   1.741   8.983 -1.5293  1.7013  2.4038
 8373SOL     OW36577   4.086   2.771   0.477  0.2654 -0.1853 -0.1211
 8373SOL    HW136578   4.125   2.695   0.433  0.5270 -1.7032  2.7389
 8373SOL    HW236579   4.048   2.811   0.399 -1.9394 -1.3004  0.3651
 8374SOL     OW36580   1.577   1.447   4.067  0.4422 -0.3371 -0.1203
 8374SOL    HW136581   1.485   1.467   4.054 -0.2158 -3.6933 -0.6499
 8374SOL    HW236582   1.587   1.353   4.051 -0.8938 -0.6630  0.9573
 8375SOL     OW36583   2.391   2.359  11.695 -0.1927  0.0820  0.1964
 8375SOL    HW136584   2.452   2.298  11.736 -1.2847 -1.9697 -1.3011
 8375SOL    HW236585   2.366   2.411  11.772  3.0671  1.6592  0.2021
 8376SOL     OW36586   3.694   0.534   4.949 -0.1965  0.3957  0.4953
 8376SOL    HW136587   3.608   0.507   4.982 -0.0379 -0.4289  0.2324
 8376SOL    HW236588   3.715   0.464   4.887 -0.6409  0.8769 -0.1872
 8377SOL     OW36589   1.099   3.386   7.458  0.1798 -0.4274  0.0108
 8377SOL    HW136590   1.041   3.378   7.533 -1.0826  1.3234 -0.7906
 8377SOL    HW236591   1.037   3.425   7.397  1.0157  0.6744 -0.1279
 8378SOL     OW36592   2.199   2.030  10.679  0.3240  0.5019 -0.4845
 8378SOL    HW136593   2.159   1.943  10.673 -2.7263  1.8138  0.4584
 8378SOL    HW236594   2.169   2.071  10.598 -1.7028  1.1915  0.6174
 8379SOL     OW36595   4.191   2.524   9.986 -0.2514  0.1005  0.4834
 8379SOL    HW136596   4.111   2.477  10.010 -0.6877  0.4107 -0.3766
 8379SOL    HW236597   4.180   2.590  10.055  0.6758 -1.5920  2.2574
 8380SOL     OW36598   0.567   0.225   5.230 -0.1557  0.9656 -0.0149
 8380SOL    HW136599   0.487   0.212   5.179 -0.0707  0.5119 -0.0286
 8380SOL    HW236600   0.529   0.231   5.317  0.1422  1.0570  0.1075
 8381SOL     OW36601   4.366   1.193   8.892  0.1096 -0.1749 -0.0726
 8381SOL    HW136602   4.306   1.241   8.950  0.4776  3.2119 -2.5031
 8381SOL    HW236603   4.347   1.106   8.927 -2.1158  0.3376  0.0246
 8382SOL     OW36604   0.406   0.006   3.249  0.3805 -0.0922  0.1072
 8382SOL    HW136605   0.489   0.030   3.208  0.4729 -0.3489  0.1425
 8382SOL    HW236606   0.423   4.643   3.290  1.2021  0.9970  2.0673
 8383SOL     OW36607   4.473   1.034   2.590  0.6835 -0.4271 -0.0042
 8383SOL    HW136608   4.512   1.018   2.504  0.6437 -1.3149  0.1423
 8383SOL    HW236609   4.465   1.129   2.586 -0.3756 -0.5873 -1.7958
 8384SOL     OW36610   2.050   1.706   0.435 -0.3187 -0.2312 -0.1840
 8384SOL    HW136611   2.057   1.799   0.411 -0.3354 -0.1404  0.1675
 8384SOL    HW236612   2.050   1.704   0.530 -1.4792 -0.5130 -0.1901
 8385SOL     OW36613   4.464   1.567   3.046  0.3265  0.4855  0.2623
 8385SOL    HW136614   4.386   1.554   3.100  0.0391 -0.0652 -0.2891
 8385SOL    HW236615   4.426   1.606   2.967 -0.8382  0.2212  0.6889
 8386SOL     OW36616   0.098   2.288  12.298  0.0166  0.0889  0.4701
 8386SOL    HW136617   0.110   2.256  12.209  0.8260  1.4854  0.0826
 8386SOL    HW236618   0.006   2.315  12.298  0.4743  1.6143 -0.2543
 8387SOL     OW36619   2.477   1.122   5.497  0.2171 -0.1363  0.2536
 8387SOL    HW136620   2.388   1.149   5.474  0.2200 -1.2576 -1.1139
 8387SOL    HW236621   2.534   1.196   5.480  0.9531 -1.2970 -2.4150
 8388SOL     OW36622   1.988   0.090   3.366 -0.2252  0.0346  0.1784
 8388SOL    HW136623   1.982   0.066   3.273 -0.6156 -1.0686  0.4869
 8388SOL    HW236624   2.079   0.110   3.387  0.0805 -2.0049  0.7915
 8389SOL     OW36625   2.696   3.995   8.684  0.3906 -0.0928 -0.4244
 8389SOL    HW136626   2.786   4.012   8.656  0.0804  0.4414 -1.0986
 8389SOL    HW236627   2.650   4.041   8.614  2.0135  3.0996  0.5977
 8390SOL     OW36628   1.956   2.592   4.719 -0.1319  0.1161  0.3926
 8390SOL    HW136629   2.004   2.510   4.712 -0.9587 -0.1503 -2.2318
 8390SOL    HW236630   1.863   2.567   4.725  0.2087 -1.8956 -2.4620
 8391SOL     OW36631   3.004   0.739   3.544  0.3722 -0.2931  0.4216
 8391SOL    HW136632   3.038   0.809   3.601 -1.7876  0.0016  1.3423
 8391SOL    HW236633   2.978   0.791   3.468  2.2675  0.9539  0.6145
 8392SOL     OW36634   1.225   0.760   6.459 -0.2670 -0.3153 -0.2074
 8392SOL    HW136635   1.143   0.734   6.500 -0.8744  1.8351 -0.0695
 8392SOL    HW236636   1.281   0.726   6.528  2.2727  0.9904 -1.6151
 8393SOL     OW36637   1.260   3.018   0.263 -0.5042 -0.1324 -0.3953
 8393SOL    HW136638   1.227   2.946   0.208 -2.6928  2.0549 -1.9253
 8393SOL    HW236639   1.354   3.018   0.247 -0.2762 -3.0949  0.8124
 8394SOL     OW36640   1.932   1.259  11.761 -0.6097 -0.0575 -0.0151
 8394SOL    HW136641   1.926   1.170  11.725 -0.3808 -0.4115  0.8132
 8394SOL    HW236642   1.985   1.231  11.836  0.4847  1.1707 -0.3174
 8395SOL     OW36643   3.421   2.874   9.764 -0.8158  0.1954 -0.1395
 8395SOL    HW136644   3.515   2.879   9.745 -0.7116  0.7239  0.5124
 8395SOL    HW236645   3.406   2.781   9.743 -2.8189  0.1533  1.5291
 8396SOL     OW36646   3.616   0.273   8.151 -0.0812  0.1507  0.5465
 8396SOL    HW136647   3.701   0.259   8.194  0.8683  2.1013 -0.7036
 8396SOL    HW236648   3.564   0.233   8.221 -0.5013  0.2824  0.3106
 8397SOL     OW36649   3.274   2.568   3.576 -0.0839 -0.6389  0.0303
 8397SOL    HW136650   3.329   2.501   3.536  1.6781  1.0930 -0.5062
 8397SOL    HW236651   3.219   2.585   3.500  0.4544 -0.5964 -0.3535
 8398SOL     OW36652   3.912   3.552   2.543  0.4718 -0.2880 -0.1627
 8398SOL    HW136653   3.981   3.612   2.569  1.2790 -0.7945 -1.1442
 8398SOL    HW236654   3.892   3.507   2.625  0.3586 -3.7607 -2.0911
 8399SOL     OW36655   3.918   2.288   4.415 -0.6290 -0.1143  0.2986
 8399SOL    HW136656   3.949   2.227   4.348 -1.1725 -1.0879  0.9180
 8399SOL    HW236657   3.888   2.220   4.475 -0.3875 -0.2085  0.3135
 8400SOL     OW36658   4.707   0.397   3.259 -0.4067 -0.4052  0.5032
 8400SOL    HW136659   4.694   0.402   3.164 -1.6218  0.4523  0.7064
 8400SOL    HW236660   4.655   0.317   3.269 -0.9535 -0.2064 -0.6894
 8401SOL     OW36661   1.332   2.861   8.921  0.7032 -0.6074 -0.5347
 8401SOL    HW136662   1.319   2.782   8.868 -1.9511 -0.3810 -0.2375
 8401SOL    HW236663   1.250   2.905   8.898  0.9745 -0.2560 -0.8165
 8402SOL     OW36664   1.630   1.914   4.736 -0.1288  0.3036 -0.4654
 8402SOL    HW136665   1.714   1.958   4.742  0.4544 -1.0732  1.6097
 8402SOL    HW236666   1.613   1.939   4.645  0.3632  0.3618 -0.5384
 8403SOL     OW36667   4.102   0.902   1.014 -0.0008  0.5262 -0.6878
 8403SOL    HW136668   4.128   0.924   0.925  0.3130  1.9725 -0.2317
 8403SOL    HW236669   4.025   0.952   1.041 -0.8182 -0.1212 -1.7864
 8404SOL     OW36670   3.795   0.108   5.436 -0.4235  0.5866  0.5779
 8404SOL    HW136671   3.871   0.149   5.476  0.0907  1.0357 -0.8796
 8404SOL    HW236672   3.763   0.187   5.393 -2.4014  0.6457  2.1314
 8405SOL     OW36673   0.968   4.097   2.554  0.5127 -0.1867  0.2049
 8405SOL    HW136674   0.942   4.015   2.597  2.1956 -1.5534 -1.3967
 8405SOL    HW236675   1.029   4.135   2.617 -1.4419 -2.4168  3.4660
 8406SOL     OW36676   2.795   3.049   5.446 -0.6818 -0.5262  0.1474
 8406SOL    HW136677   2.754   2.974   5.490  1.9016 -1.9779  0.0896
 8406SOL    HW236678   2.724   3.093   5.400 -0.2001  0.2149  0.1168
 8407SOL     OW36679   2.300   4.356  13.985  0.5475  0.4906  0.5629
 8407SOL    HW136680   2.383   4.375  13.941 -0.4635  0.4268 -1.3579
 8407SOL    HW236681   2.301   4.434  14.040 -0.9776  1.0914 -0.2647
 8408SOL     OW36682   4.443   0.767   3.498  0.3608  0.2287 -0.2098
 8408SOL    HW136683   4.507   0.769   3.569  0.8638  5.2694 -0.7816
 8408SOL    HW236684   4.500   0.728   3.432  1.0364  0.4537  0.2332
 8409SOL     OW36685   0.434   0.395   1.845 -0.0644  0.1685  0.5527
 8409SOL    HW136686   0.364   0.401   1.780 -1.1908  0.3257  1.7836
 8409SOL    HW236687   0.512   0.422   1.796  0.6669 -2.5398  0.2119
 8410SOL     OW36688   2.498   4.485  14.364 -0.4141 -0.0813 -0.2687
 8410SOL    HW136689   2.488   4.396  14.397 -1.0827 -0.4597 -1.5161
 8410SOL    HW236690   2.546   4.537  14.429 -0.0862 -4.1481  2.7606
 8411SOL     OW36691   3.501   3.235   0.571 -0.4264  0.0705 -0.3121
 8411SOL    HW136692   3.441   3.183   0.517 -1.6527  2.3297 -1.1191
 8411SOL    HW236693   3.490   3.185   0.652 -1.6090  2.8933  1.2842
 8412SOL     OW36694   0.039   2.221   1.275  0.1035  0.8045  0.4625
 8412SOL    HW136695   4.704   2.222   1.199  0.1646 -1.4511  0.3723
 8412SOL    HW236696   4.691   2.229   1.339  0.8680  0.5589  1.3423
 8413SOL     OW36697   4.325   0.898   4.759  0.1351  0.3404  0.0623
 8413SOL    HW136698   4.247   0.860   4.719 -0.0461 -1.1227  1.8367
 8413SOL    HW236699   4.403   0.863   4.716 -0.6964 -1.0281 -0.3421
 8414SOL     OW36700   0.121   1.550  17.239 -0.0686 -0.7741  0.4063
 8414SOL    HW136701   0.178   1.473  17.247 -0.1447 -0.6683  1.8389
 8414SOL    HW236702   0.048   1.510  17.192 -1.5021  1.6284  0.5890
 8415SOL     OW36703   0.366   2.032   6.176  0.2958  0.3780 -0.5907
 8415SOL    HW136704   0.406   2.111   6.140  0.0366  0.9578  0.3881
 8415SOL    HW236705   0.425   1.959   6.157  0.4182  0.5883 -1.0324
 8416SOL     OW36706   3.003   4.032   8.108 -0.4993 -0.2852 -0.0691
 8416SOL    HW136707   2.914   4.001   8.090 -0.2222 -0.3373 -1.2876
 8416SOL    HW236708   3.035   4.056   8.021 -1.8380  1.5583 -0.0543
 8417SOL     OW36709   2.823   4.339  17.498  0.4821 -0.2218 -0.1296
 8417SOL    HW136710   2.779   4.286  17.432  1.0928 -2.3277  1.1658
 8417SOL    HW236711   2.774   4.310  17.575  4.1413  0.0748  2.3496
 8418SOL     OW36712   1.984   0.935  13.338  0.1828 -0.7231  0.4030
 8418SOL    HW136713   2.062   0.951  13.391 -0.1809 -0.7831  0.9521
 8418SOL    HW236714   2.016   0.861  13.284 -0.0775  0.5451 -1.4958
 8419SOL     OW36715   0.978   2.135  16.698  0.6521  0.2911  0.7378
 8419SOL    HW136716   0.929   2.110  16.620  0.0759  0.2344  1.1211
 8419SOL    HW236717   0.929   2.101  16.773  0.9953 -0.5321  0.5909
 8420SOL     OW36718   0.844   1.441   0.979 -0.1412  0.2379 -1.0511
 8420SOL    HW136719   0.773   1.492   0.941 -0.5118  0.7687  0.3649
 8420SOL    HW236720   0.819   1.432   1.071 -1.3349 -1.0807 -1.5097
 8421SOL     OW36721   1.787   0.281   4.298  0.0390 -0.0929 -0.2531
 8421SOL    HW136722   1.882   0.269   4.297 -0.0008 -0.6974  3.2842
 8421SOL    HW236723   1.752   0.221   4.233 -0.8440  1.2312 -0.9995
 8422SOL     OW36724   3.121   2.242   6.518 -0.2599 -0.0618 -0.0667
 8422SOL    HW136725   3.048   2.186   6.492  0.8321 -0.7039 -1.7612
 8422SOL    HW236726   3.142   2.291   6.439 -0.2305  0.0757  0.0268
 8423SOL     OW36727   4.277   2.247   6.255  0.2442  0.2328 -0.0655
 8423SOL    HW136728   4.353   2.211   6.302  0.6363  1.6020  0.3582
 8423SOL    HW236729   4.314   2.321   6.207  0.0634  0.0285 -0.5195
 8424SOL     OW36730   2.156   1.821   5.291  0.4798  0.0409 -0.0516
 8424SOL    HW136731   2.064   1.796   5.300  0.5669 -0.3204 -0.1861
 8424SOL    HW236732   2.181   1.754   5.228 -1.3735  0.7009 -1.4774
 8425SOL     OW36733   3.947   3.319   1.114  0.5057 -0.2124 -0.6060
 8425SOL    HW136734   3.933   3.284   1.026  1.4557  1.3837 -1.4108
 8425SOL    HW236735   3.981   3.408   1.098  3.2104 -0.7960  1.9016
 8426SOL     OW36736   0.697   1.552   4.635  0.1751 -0.0156 -0.0734
 8426SOL    HW136737   0.737   1.469   4.659  1.7216  0.7106 -0.0936
 8426SOL    HW236738   0.675   1.574   4.726  1.5196  1.3405 -0.0716
 8427SOL     OW36739   2.154   4.712   4.975  0.1784 -0.0817 -0.6052
 8427SOL    HW136740   2.113   4.684   5.056  0.1517 -0.4140 -0.7325
 8427SOL    HW236741   2.117   4.651   4.911  0.0507 -1.8416  1.1717
 8428SOL     OW36742   1.209   1.692   5.319  0.3825  0.8235  0.2184
 8428SOL    HW136743   1.278   1.710   5.255 -1.2421  1.7738 -1.2645
 8428SOL    HW236744   1.174   1.613   5.277 -0.3540  0.2672  1.8657
 8429SOL     OW36745   2.488   0.186  15.888  0.3990 -0.4351  0.2675
 8429SOL    HW136746   2.460   0.207  15.977  0.5585 -1.6107  0.5961
 8429SOL    HW236747   2.583   0.194  15.892  0.5858 -1.9813 -1.2588
 8430SOL     OW36748   4.215   4.669  16.127  0.1156  0.2571 -0.2674
 8430SOL    HW136749   4.241   4.716  16.206  2.0438  1.5697 -1.6818
 8430SOL    HW236750   4.217   4.575  16.145 -0.2441 -0.1806 -2.5783
 8431SOL     OW36751   0.161   1.963   5.352  0.7414 -0.1206  0.4611
 8431SOL    HW136752   0.130   1.918   5.430  0.9438 -0.8698  0.1119
 8431SOL    HW236753   0.189   1.887   5.301  0.5869 -0.0938  0.3346
 8432SOL     OW36754   2.492   3.539  11.307 -0.1753 -0.0385  0.4872
 8432SOL    HW136755   2.512   3.507  11.395  4.2153  0.9900 -0.1209
 8432SOL    HW236756   2.575   3.513  11.268 -0.3178 -4.2874  2.9812
 8433SOL     OW36757   1.715   1.057   3.435  0.1996  0.3664 -0.4048
 8433SOL    HW136758   1.693   0.971   3.399 -1.5804  0.3613  0.6967
 8433SOL    HW236759   1.791   1.039   3.490  0.2912  2.0063  0.0031
 8434SOL     OW36760   2.139   4.374   0.016  0.2116  0.3011  0.7303
 8434SOL    HW136761   2.234   4.390   0.019  0.9468 -3.9241 -0.3810
 8434SOL    HW236762   2.115   4.466  17.692 -0.6643 -0.0664 -0.0449
 8435SOL     OW36763   1.946   0.587   0.919 -0.2448  0.3029 -0.1900
 8435SOL    HW136764   1.860   0.547   0.910 -0.3693  0.2570  1.2310
 8435SOL    HW236765   2.001   0.509   0.929  0.4081  0.2524 -4.1454
 8436SOL     OW36766   3.927   3.603  10.911 -0.1666 -0.1091  0.3368
 8436SOL    HW136767   4.000   3.594  10.849 -1.0718 -1.4320 -0.5419
 8436SOL    HW236768   3.963   3.678  10.958 -0.4098 -1.0522  2.0302
 8437SOL     OW36769   1.258   0.607  12.460 -0.5864 -0.1541  0.0588
 8437SOL    HW136770   1.312   0.682  12.436 -1.4771  0.8933  1.3536
 8437SOL    HW236771   1.170   0.633  12.433 -0.6303  0.8363  1.1651
 8438SOL     OW36772   3.903   1.755   5.736  0.0874  0.1332 -0.0046
 8438SOL    HW136773   3.987   1.713   5.718 -0.5076 -1.5470  1.2051
 8438SOL    HW236774   3.876   1.791   5.652  0.1075  1.1210  0.4117
 8439SOL     OW36775   2.172   1.000  11.802  0.0137 -0.2676 -0.2086
 8439SOL    HW136776   2.266   1.009  11.788 -0.0544  0.4303 -0.2083
 8439SOL    HW236777   2.152   1.065  11.869 -2.6874 -2.0709  0.7287
 8440SOL     OW36778   1.189   2.252   1.345 -0.1971 -0.4785  0.3977
 8440SOL    HW136779   1.235   2.168   1.340  0.0946 -0.3172  0.3873
 8440SOL    HW236780   1.115   2.244   1.285 -1.8412 -1.7559  2.5979
 8441SOL     OW36781   1.421   3.731   5.314 -0.4333 -0.1616  0.1553
 8441SOL    HW136782   1.354   3.677   5.356  0.4785  0.0434  1.8302
 8441SOL    HW236783   1.429   3.683   5.231 -3.5702  0.5700 -0.6116
 8442SOL     OW36784   2.429   0.587  10.462 -0.4703 -0.1760  0.2492
 8442SOL    HW136785   2.460   0.669  10.500 -1.8404  0.4946 -0.0784
 8442SOL    HW236786   2.348   0.569  10.508  0.0402 -1.9698  0.4310
 8443SOL     OW36787   1.769   2.467   1.898 -0.0201 -0.0857 -0.8619
 8443SOL    HW136788   1.715   2.537   1.934  1.8033  0.7093  0.3256
 8443SOL    HW236789   1.845   2.464   1.957  0.1882  1.2034 -1.0745
 8444SOL     OW36790   1.391   0.480   5.210 -0.1950 -0.3082  0.3949
 8444SOL    HW136791   1.323   0.462   5.275 -0.7655  1.9421  0.3955
 8444SOL    HW236792   1.447   0.544   5.253  0.3265  0.2956 -1.1829
 8445SOL     OW36793   2.119   0.586   3.271  0.4200  0.3303 -0.2971
 8445SOL    HW136794   2.159   0.510   3.313 -0.6201 -0.8592 -1.4528
 8445SOL    HW236795   2.193   0.647   3.261  0.7950 -0.1600 -0.5302
 8446SOL     OW36796   4.587   1.730   4.314 -0.2614 -0.7338  0.4916
 8446SOL    HW136797   4.611   1.789   4.385 -0.5663  0.7922 -0.6686
 8446SOL    HW236798   4.602   1.776   4.232 -3.1150 -1.0107 -0.1829
 8447SOL     OW36799   4.721   4.644   4.934 -0.5075 -0.2768  0.6681
 8447SOL    HW136800   0.078   4.591   4.923  0.1541  0.6981  0.7592
 8447SOL    HW236801   4.694   4.621   5.022 -2.2423  0.5853  0.3427
 8448SOL     OW36802   1.287   3.412   5.269 -0.1479  0.3530 -0.0942
 8448SOL    HW136803   1.222   3.476   5.241 -0.8248  0.0450  0.7712
 8448SOL    HW236804   1.278   3.331   5.219 -0.5878  0.2724  0.1117
 8449SOL     OW36805   2.223   0.177  16.058 -0.0284 -0.1689  0.2886
 8449SOL    HW136806   2.218   0.138  16.145 -0.7503 -0.5695  0.0666
 8449SOL    HW236807   2.263   0.263  16.075  0.1219  0.0170 -0.9676
 8450SOL     OW36808   3.636   0.424   0.618 -0.4338 -0.3184 -0.0445
 8450SOL    HW136809   3.701   0.450   0.683  0.0234 -0.5611 -0.4034
 8450SOL    HW236810   3.683   0.464   0.545  0.4947 -0.5172  0.4378
 8451SOL     OW36811   4.042   0.335   9.283 -0.3805 -0.0134 -0.7493
 8451SOL    HW136812   4.123   0.385   9.275 -0.0202 -0.4646  0.1516
 8451SOL    HW236813   4.007   0.368   9.366 -1.2879  1.2140 -1.6102
 8452SOL     OW36814   2.899   2.389   3.951 -0.3840 -0.6391 -0.5252
 8452SOL    HW136815   2.852   2.424   4.026  3.0985  0.8160  0.9626
 8452SOL    HW236816   2.985   2.400   3.992  0.0843  0.7414 -1.8758
 8453SOL     OW36817   1.926   0.494   7.003  0.6363  0.2428  0.3647
 8453SOL    HW136818   1.846   0.452   6.971  0.0312  1.6397  0.0398
 8453SOL    HW236819   1.992   0.433   6.970 -0.5246 -1.3320  0.9599
 8454SOL     OW36820   3.199   3.161  10.946 -0.2978 -0.5817 -0.1898
 8454SOL    HW136821   3.121   3.163  11.003  1.2115 -2.6992  1.9414
 8454SOL    HW236822   3.255   3.092  10.982  1.0389  0.7058  0.1688
 8455SOL     OW36823   3.009   0.029  14.071 -0.2380 -0.3913 -0.3054
 8455SOL    HW136824   3.000   4.670  14.119  1.8418  0.3716  1.3905
 8455SOL    HW236825   2.920   0.064  14.063  0.4400  1.6718  1.0946
 8456SOL     OW36826   3.219   2.791   1.305 -0.0236 -0.2046  0.4249
 8456SOL    HW136827   3.312   2.785   1.287  0.1692  0.8327  1.0756
 8456SOL    HW236828   3.175   2.785   1.220 -1.2676  2.5565  0.8729
 8457SOL     OW36829   3.776   1.233  11.526 -0.0234  0.0221  0.1292
 8457SOL    HW136830   3.725   1.230  11.607  2.1414  1.5526  1.5401
 8457SOL    HW236831   3.703   1.237  11.464  0.7205 -1.4491 -0.8384
 8458SOL     OW36832   1.450   3.832   3.612  0.1706  0.6289 -0.0893
 8458SOL    HW136833   1.435   3.875   3.696  0.9282 -0.6833  0.7114
 8458SOL    HW236834   1.471   3.907   3.556 -0.6985  0.7168 -0.2948
 8459SOL     OW36835   4.253   2.134  14.366 -0.1650 -0.1062 -0.0428
 8459SOL    HW136836   4.326   2.085  14.404  0.5996  0.7797 -0.3630
 8459SOL    HW236837   4.289   2.223  14.362  0.4613 -0.4492 -1.7238
 8460SOL     OW36838   4.036   4.631   5.207  0.0269  0.3903 -0.0788
 8460SOL    HW136839   3.984   4.703   5.170 -2.6076 -1.5187 -0.1058
 8460SOL    HW236840   4.002   4.629   5.296 -1.7205 -2.6492 -0.8312
 8461SOL     OW36841   1.475   2.962  12.321 -0.5658  0.7232 -0.2231
 8461SOL    HW136842   1.427   2.939  12.242  1.5312  0.4029 -1.4077
 8461SOL    HW236843   1.414   3.024  12.361 -1.9055 -1.4152  1.0703
 8462SOL     OW36844   4.430   0.327   5.245  0.2981 -0.1399  0.0381
 8462SOL    HW136845   4.354   0.268   5.250  1.0895 -1.2196 -0.6521
 8462SOL    HW236846   4.486   0.296   5.317 -0.9169  0.1277  1.1041
 8463SOL     OW36847   3.417   2.781   3.299 -0.1596  0.3514  0.2004
 8463SOL    HW136848   3.362   2.763   3.223 -0.4810  3.3790 -0.2640
 8463SOL    HW236849   3.351   2.768   3.368  2.2062 -1.4740  2.0974
 8464SOL     OW36850   1.788   0.993   6.466  0.4189  0.3938 -0.5052
 8464SOL    HW136851   1.796   0.907   6.423 -2.9244 -0.7248  1.1462
 8464SOL    HW236852   1.838   1.052   6.409  0.6315  0.7813  0.0903
 8465SOL     OW36853   3.971   3.295  13.298  0.0945  0.0860  0.3537
 8465SOL    HW136854   4.064   3.284  13.283  0.2155  1.2735  0.2290
 8465SOL    HW236855   3.940   3.301  13.207 -0.3169  1.0258  0.5483
 8466SOL     OW36856   0.784   3.397  13.992 -0.0839  0.4188  0.0108
 8466SOL    HW136857   0.689   3.408  13.992 -0.3329 -1.6494  1.4889
 8466SOL    HW236858   0.816   3.429  13.908  1.5675 -1.4631 -0.0731
 8467SOL     OW36859   2.390   4.650   4.125  0.1443  0.3020  0.1658
 8467SOL    HW136860   2.428   4.631   4.039  2.2073  2.1348  0.6685
 8467SOL    HW236861   2.305   4.606   4.126  0.8022 -0.9449  1.5286
 8468SOL     OW36862   2.219   3.800   9.079  0.0435  0.0793  0.2344
 8468SOL    HW136863   2.274   3.766   9.009  0.1438 -1.6665  1.1747
 8468SOL    HW236864   2.246   3.889   9.055  0.2008 -0.4358 -1.5096
 8469SOL     OW36865   0.524   2.693   0.781  0.2438  0.2112 -0.7219
 8469SOL    HW136866   0.612   2.676   0.815  0.4945  1.1605 -0.8941
 8469SOL    HW236867   0.528   2.788   0.769  0.8638  0.3169  0.3024
 8470SOL     OW36868   1.698   1.439  13.708 -0.1054 -0.1589 -0.1011
 8470SOL    HW136869   1.751   1.436  13.788 -1.2932 -0.2098  0.6906
 8470SOL    HW236870   1.750   1.492  13.648  0.5358 -0.4679  0.1792
 8471SOL     OW36871   2.331   2.565   7.014 -0.0432  0.1072 -0.4584
 8471SOL    HW136872   2.328   2.603   6.926 -1.3329  0.4169 -0.2804
 8471SOL    HW236873   2.240   2.570   7.043  0.0867  0.6525 -0.1392
 8472SOL     OW36874   3.180   2.677   7.830  0.0097  0.0244  0.0356
 8472SOL    HW136875   3.195   2.770   7.850  1.3383  0.0862 -1.1816
 8472SOL    HW236876   3.204   2.676   7.737 -0.5016  2.2957 -0.1178
 8473SOL     OW36877   0.826   3.088   4.111  0.1722  0.1439  0.3341
 8473SOL    HW136878   0.735   3.114   4.094 -0.8337 -1.9217  2.5650
 8473SOL    HW236879   0.828   3.000   4.076  3.0516 -0.1865  1.3515
 8474SOL     OW36880   1.213   0.786   5.455  0.0609 -0.1799 -0.2785
 8474SOL    HW136881   1.263   0.786   5.537 -0.2950  1.2662 -0.0567
 8474SOL    HW236882   1.141   0.843   5.482  1.2523  0.5737  1.2654
 8475SOL     OW36883   3.798   0.357  14.431 -0.2868  0.0582  0.0018
 8475SOL    HW136884   3.875   0.322  14.387 -0.7830  1.2525 -1.8228
 8475SOL    HW236885   3.739   0.359  14.355  0.4558  0.9178 -0.5530
 8476SOL     OW36886   3.411   1.789   6.463  0.1034  0.5891 -0.0719
 8476SOL    HW136887   3.433   1.725   6.530  0.5456  1.8411  0.9725
 8476SOL    HW236888   3.327   1.824   6.495  0.0769  1.5969 -1.2201
 8477SOL     OW36889   1.667   4.072   4.711 -0.4980  0.1320 -0.4543
 8477SOL    HW136890   1.730   4.044   4.645  0.1679  0.9033 -0.1503
 8477SOL    HW236891   1.718   4.078   4.792 -2.4085 -0.1726  0.7927
 8478SOL     OW36892   3.745   0.882   3.264  0.4210  0.2950 -0.0096
 8478SOL    HW136893   3.736   0.883   3.169  1.8143  1.2812 -0.1364
 8478SOL    HW236894   3.839   0.862   3.265  0.3129 -0.2499 -0.5212
 8479SOL     OW36895   1.121   3.651   5.260  0.4383 -0.8814 -0.2974
 8479SOL    HW136896   1.081   3.724   5.213  0.2219 -0.4603  0.5378
 8479SOL    HW236897   1.076   3.660   5.344  3.9379 -0.9304  1.6252
 8480SOL     OW36898   0.441   2.815   0.189 -0.0894  0.4363 -1.1488
 8480SOL    HW136899   0.455   2.765   0.109  1.1345 -1.1769  0.0762
 8480SOL    HW236900   0.498   2.891   0.179 -0.6338  1.0588  0.4084
 8481SOL     OW36901   0.996   0.406   4.378  0.2265  0.0253  0.4081
 8481SOL    HW136902   1.055   0.350   4.329  1.1889  2.2179 -0.9239
 8481SOL    HW236903   0.974   0.468   4.308 -1.2140 -0.2949  0.5653
 8482SOL     OW36904   0.273   1.880   3.373 -0.3937  0.2084 -0.6547
 8482SOL    HW136905   0.293   1.805   3.317 -0.3871 -0.4309  0.1946
 8482SOL    HW236906   0.330   1.861   3.448  0.4173  0.6873 -1.1540
 8483SOL     OW36907   2.312   0.222   4.095  0.0984  0.0249 -0.1399
 8483SOL    HW136908   2.344   0.132   4.099 -2.3069 -1.0175 -3.4960
 8483SOL    HW236909   2.378   0.267   4.148  0.9621 -2.1826  0.6522
 8484SOL     OW36910   0.709   4.622  17.410  0.3308  1.0693 -0.3756
 8484SOL    HW136911   0.643   4.615  17.341 -0.4397  2.0057  0.2704
 8484SOL    HW236912   0.706   4.715  17.433 -2.1712  0.9846 -0.3410
 8485SOL     OW36913   0.127   0.958   5.109  0.0545 -0.4380  0.2540
 8485SOL    HW136914   0.047   0.970   5.058 -0.3767 -1.3236  0.7105
 8485SOL    HW236915   0.115   0.864   5.119  0.0932 -0.5447 -0.7119
 8486SOL     OW36916   4.575   1.104   4.259 -0.2676  0.4630  0.1544
 8486SOL    HW136917   4.597   1.015   4.230 -1.6746 -1.2706  4.4309
 8486SOL    HW236918   4.621   1.106   4.343  0.1590 -1.2005 -0.0338
 8487SOL     OW36919   3.010   2.630   0.183  0.3047 -0.6208  0.1648
 8487SOL    HW136920   2.981   2.554   0.232  0.5181 -1.5790 -1.1968
 8487SOL    HW236921   3.104   2.618   0.192  0.2717  0.1285  1.4406
 8488SOL     OW36922   2.647   1.820   7.950  0.1499  0.4869  0.0037
 8488SOL    HW136923   2.571   1.867   7.916  0.6956  0.0501 -1.8420
 8488SOL    HW236924   2.633   1.742   7.896 -0.4734  0.5201  0.1187
 8489SOL     OW36925   0.141   1.902  14.444  0.2716 -0.0490 -0.3472
 8489SOL    HW136926   0.165   1.941  14.528  0.6384 -1.8415  0.3595
 8489SOL    HW236927   0.078   1.835  14.470  0.0742  0.7048  1.0839
 8490SOL     OW36928   2.828   3.382   6.421 -0.2138  0.2470 -0.4286
 8490SOL    HW136929   2.843   3.368   6.328  1.2478  0.5556 -0.2364
 8490SOL    HW236930   2.806   3.293   6.449  0.5858  0.3454  0.5486
 8491SOL     OW36931   1.709   2.424   5.014  0.3472 -0.0624  0.3799
 8491SOL    HW136932   1.761   2.426   4.934 -0.9715  2.2158 -0.4080
 8491SOL    HW236933   1.625   2.455   4.980  0.5527  1.6864  1.4707
 8492SOL     OW36934   3.897   1.431   9.073 -0.2529 -0.6503 -0.1714
 8492SOL    HW136935   3.885   1.367   9.143 -1.9373 -3.1350 -2.7669
 8492SOL    HW236936   3.808   1.460   9.052  0.0733  0.2606 -0.3169
 8493SOL     OW36937   0.975   2.874   6.840 -0.1648 -0.0367  0.0878
 8493SOL    HW136938   1.053   2.878   6.785  0.5968 -0.8182  1.1376
 8493SOL    HW236939   0.924   2.816   6.783 -1.1024 -1.0131  1.9397
 8494SOL     OW36940   2.669   2.534   5.348  0.2281 -0.5378  0.0790
 8494SOL    HW136941   2.612   2.508   5.276  0.5178 -1.4806  0.1882
 8494SOL    HW236942   2.757   2.512   5.315  0.7458  2.1483 -0.3496
 8495SOL     OW36943   0.265   0.705   4.880  0.1119  0.4204  0.3100
 8495SOL    HW136944   0.337   0.760   4.849  0.2107 -1.1106 -2.1639
 8495SOL    HW236945   0.224   0.694   4.794  0.6880 -0.3852  0.1344
 8496SOL     OW36946   0.841   2.355   8.191 -0.7021  0.2141 -0.9085
 8496SOL    HW136947   0.753   2.321   8.202  0.2705 -1.5943  1.3224
 8496SOL    HW236948   0.836   2.435   8.244 -0.6279 -1.1272  1.0885
 8497SOL     OW36949   3.184   1.434   9.651  0.3532 -0.0575  0.4833
 8497SOL    HW136950   3.106   1.402   9.606 -2.3539  3.1622  2.9230
 8497SOL    HW236951   3.211   1.497   9.584 -0.0969  0.9890  1.2810
 8498SOL     OW36952   4.552   0.891  16.325  1.0344 -0.0604 -0.1416
 8498SOL    HW136953   4.533   0.863  16.415 -0.7121  0.9721 -0.1752
 8498SOL    HW236954   4.476   0.858  16.277 -0.0602  0.2990  1.3463
 8499SOL     OW36955   3.245   1.955   4.204 -0.1420 -0.2951  0.3483
 8499SOL    HW136956   3.329   1.926   4.238 -0.7639  0.6611  2.6809
 8499SOL    HW236957   3.203   1.870   4.194  1.2542 -0.7271 -1.9229
 8500SOL     OW36958   2.671   3.511   5.836  0.1723  0.3230 -0.1550
 8500SOL    HW136959   2.760   3.476   5.843 -0.1123 -0.4434 -0.4303
 8500SOL    HW236960   2.645   3.493   5.926  1.1187 -1.2064 -0.1905
 8501SOL     OW36961   1.013   0.889   7.154  0.6722  0.1480 -0.1269
 8501SOL    HW136962   0.951   0.840   7.101 -0.7981  3.3007 -1.3601
 8501SOL    HW236963   1.057   0.828   7.213 -3.3102 -0.9553  1.6425
 8502SOL     OW36964   1.695   3.326   4.835  0.0952 -0.1445  0.4130
 8502SOL    HW136965   1.724   3.248   4.883 -1.2374 -1.7180 -1.3211
 8502SOL    HW236966   1.688   3.271   4.757 -2.0796 -0.6274  0.9548
 8503SOL     OW36967   0.303   0.391   6.658 -0.0842 -0.9520 -0.1511
 8503SOL    HW136968   0.376   0.414   6.600  0.2444 -1.3906  0.0838
 8503SOL    HW236969   0.290   0.471   6.708  0.9850 -0.7135 -0.2528
 8504SOL     OW36970   2.218   1.035   9.899  0.0485  0.1018  0.4983
 8504SOL    HW136971   2.198   1.014   9.990 -1.2234 -1.0649 -0.0474
 8504SOL    HW236972   2.126   1.051   9.875  0.7957  1.6160 -1.3312
 8505SOL     OW36973   1.164   1.175   5.159  0.1316 -0.5759 -0.0420
 8505SOL    HW136974   1.219   1.116   5.211  1.5648  0.6335 -0.1882
 8505SOL    HW236975   1.081   1.131   5.180  1.2592 -1.7146  2.0717
 8506SOL     OW36976   1.704   1.103  15.320  0.6158 -1.0438  0.7765
 8506SOL    HW136977   1.638   1.093  15.388 -0.6907  2.3018  0.0118
 8506SOL    HW236978   1.678   1.061  15.238 -0.6045  2.2776 -0.5621
 8507SOL     OW36979   2.063   3.860   6.757 -0.4894 -0.0753 -0.0722
 8507SOL    HW136980   2.010   3.838   6.680 -0.0518  0.2901 -0.4784
 8507SOL    HW236981   2.011   3.928   6.799  0.6548  0.0858  1.0623
 8508SOL     OW36982   3.278   0.936   4.589 -0.1477  0.9093  0.4690
 8508SOL    HW136983   3.252   0.871   4.523 -1.9628  1.2001  0.8918
 8508SOL    HW236984   3.243   0.896   4.669 -0.7239  0.6083  0.0642
 8509SOL     OW36985   1.096   2.988   4.293 -0.3837 -0.2457 -0.4625
 8509SOL    HW136986   1.094   3.009   4.386 -0.9134  0.8659 -0.7248
 8509SOL    HW236987   1.181   3.026   4.268 -0.0250 -0.7747 -0.0441
 8510SOL     OW36988   2.515   3.878   5.598  0.0581 -0.5557  0.1343
 8510SOL    HW136989   2.466   3.801   5.569  0.2654  0.1488 -2.0086
 8510SOL    HW236990   2.514   3.938   5.524 -0.2194 -0.6390  0.0683
 8511SOL     OW36991   4.357   2.307  10.680 -0.4100  0.0988 -0.4071
 8511SOL    HW136992   4.453   2.316  10.684 -0.5273  0.6147  1.4138
 8511SOL    HW236993   4.343   2.251  10.757 -0.5104  0.2057 -0.3481
 8512SOL     OW36994   3.530   4.453  15.304 -0.5769 -0.4945 -0.1756
 8512SOL    HW136995   3.455   4.394  15.298 -1.6512  0.9521 -1.1976
 8512SOL    HW236996   3.542   4.457  15.399 -1.0067  0.9721 -0.1879
 8513SOL     OW36997   1.859   0.729   7.843  0.5241  0.1197  0.4764
 8513SOL    HW136998   1.824   0.813   7.814 -0.0184  0.7972  3.0590
 8513SOL    HW236999   1.805   0.710   7.920 -0.6931  0.1325 -0.3696
 8514SOL     OW37000   2.852   1.011  15.425  0.1789 -0.0287  0.4901
 8514SOL    HW137001   2.878   0.948  15.357  0.8182  1.0194 -0.2262
 8514SOL    HW237002   2.757   1.009  15.429  0.1893  1.8721  1.2850
 8515SOL     OW37003   1.724   4.254   3.300 -0.3821 -0.7934  0.6975
 8515SOL    HW137004   1.754   4.317   3.366 -3.0145  1.7942 -0.6069
 8515SOL    HW237005   1.668   4.210   3.364 -1.8453  2.9691  1.9939
 8516SOL     OW37006   3.961   0.307   4.128 -0.3480  0.1464  0.4366
 8516SOL    HW137007   3.972   0.399   4.105  0.5648  0.4380  1.9986
 8516SOL    HW237008   3.871   0.318   4.159  0.4858  1.6643  2.3457
 8517SOL     OW37009   4.133   2.138  10.530 -0.5625 -0.2268  0.0394
 8517SOL    HW137010   4.143   2.072  10.599 -0.0075 -0.6994 -0.4973
 8517SOL    HW237011   4.038   2.152  10.529 -0.3959  0.9005 -0.1396
 8518SOL     OW37012   2.747   1.913  17.391 -0.0929 -0.4028 -0.3121
 8518SOL    HW137013   2.668   1.947  17.434  0.1384 -0.9501  0.5260
 8518SOL    HW237014   2.708   1.846  17.333 -2.3085 -0.0124  0.7151
 8519SOL     OW37015   2.698   1.627   1.031  0.1145  0.1154  0.4348
 8519SOL    HW137016   2.637   1.657   1.099 -1.8344  1.9966 -2.1394
 8519SOL    HW237017   2.718   1.541   1.066  1.3311  0.5931  0.9453
 8520SOL     OW37018   3.820   3.372   4.363 -0.1311 -0.3920 -0.4208
 8520SOL    HW137019   3.887   3.313   4.328  0.2009 -0.0095 -0.4445
 8520SOL    HW237020   3.741   3.354   4.313  0.1142 -1.2748 -0.4913
 8521SOL     OW37021   1.725   4.526   8.536  0.6180 -0.0778  0.4594
 8521SOL    HW137022   1.810   4.484   8.547  0.4509 -0.6314 -0.3958
 8521SOL    HW237023   1.684   4.458   8.482  1.4277  1.2210 -1.8105
 8522SOL     OW37024   1.897   4.217   8.966  0.0304 -0.3855 -0.1039
 8522SOL    HW137025   1.945   4.172   9.035 -1.3122 -1.6432  0.0275
 8522SOL    HW237026   1.810   4.179   8.984  0.1846  0.4879  2.5085
 8523SOL     OW37027   4.425   3.308   8.455 -0.0376 -0.4136  0.0235
 8523SOL    HW137028   4.483   3.273   8.387  1.1036  0.4787  0.5540
 8523SOL    HW237029   4.484   3.320   8.529 -1.1537 -3.1246  1.3864
 8524SOL     OW37030   2.988   4.226   4.761 -0.3738  0.0016 -0.3730
 8524SOL    HW137031   2.933   4.215   4.684 -0.8968  0.7991 -0.1110
 8524SOL    HW237032   3.055   4.280   4.718 -2.2979 -0.1284 -3.4649
 8525SOL     OW37033   4.123   1.454  17.096  0.0962  0.8575  0.2905
 8525SOL    HW137034   4.148   1.412  17.014 -0.3501 -0.3426  0.7712
 8525SOL    HW237035   4.034   1.420  17.105  0.5978 -0.2206  1.1194
 8526SOL     OW37036   3.946   4.717   1.679  0.5301  0.0930 -0.5018
 8526SOL    HW137037   3.997   4.650   1.725  2.6365  1.0768 -1.4328
 8526SOL    HW237038   3.885   4.658   1.634 -0.3765 -0.0729  0.9470
 8527SOL     OW37039   0.579   2.173   7.350  0.2622 -0.4763  0.0593
 8527SOL    HW137040   0.542   2.255   7.381  2.0524  0.5363 -0.5155
 8527SOL    HW237041   0.502   2.133   7.309  0.4856  1.0078 -1.7487
 8528SOL     OW37042   1.349   1.613   3.837  0.0951 -0.2350 -0.2528
 8528SOL    HW137043   1.427   1.662   3.862 -1.7833  2.7007 -0.0812
 8528SOL    HW237044   1.291   1.688   3.821 -0.9160 -1.3715 -1.9861
 8529SOL     OW37045   3.994   1.969   7.423 -0.0725  0.2288 -0.3260
 8529SOL    HW137046   4.061   1.952   7.489  2.6430  2.6762 -2.4428
 8529SOL    HW237047   3.936   1.893   7.415  0.6390 -0.4157  0.7263
 8530SOL     OW37048   4.102   2.774  12.135  0.0491  0.0353  0.4504
 8530SOL    HW137049   4.084   2.776  12.229  3.9671  0.7209  1.1553
 8530SOL    HW237050   4.176   2.834  12.141  1.7104 -1.8082 -1.5998
 8531SOL     OW37051   3.040   2.717   5.515 -0.0829 -0.6254 -0.1877
 8531SOL    HW137052   3.057   2.782   5.448 -0.2297  1.6878  2.0168
 8531SOL    HW237053   2.996   2.777   5.575  2.5205 -0.4363  1.5462
 8532SOL     OW37054   2.408   1.509   3.670  0.6537  0.4461  0.2694
 8532SOL    HW137055   2.375   1.534   3.584  1.6727 -0.1050 -0.2823
 8532SOL    HW237056   2.502   1.506   3.653  0.6053  0.1698  0.0625
 8533SOL     OW37057   0.546   0.352   6.499 -0.1029  0.0564  0.3482
 8533SOL    HW137058   0.574   0.430   6.451 -0.2252  0.1577  0.4430
 8533SOL    HW237059   0.500   0.305   6.429  0.5138  2.1896 -1.4956
 8534SOL     OW37060   4.615   0.348   3.856  0.2157 -0.9609  0.0249
 8534SOL    HW137061   4.656   0.363   3.771  0.6153  1.3390  0.6172
 8534SOL    HW237062   4.566   0.267   3.840  1.6226 -1.3565 -2.2018
 8535SOL     OW37063   3.394   3.406   8.662 -0.0168  0.3086 -0.0099
 8535SOL    HW137064   3.447   3.403   8.582 -0.9950 -1.4766 -0.6012
 8535SOL    HW237065   3.422   3.335   8.719 -2.1156 -0.3803  0.1467
 8536SOL     OW37066   0.456   2.200   5.575  0.1282  0.2600 -0.1269
 8536SOL    HW137067   0.513   2.126   5.598 -1.0811 -0.5979  0.1015
 8536SOL    HW237068   0.371   2.189   5.618  1.0887  0.3002  1.8085
 8537SOL     OW37069   3.530   0.440   4.526 -0.2438 -0.1913 -0.0347
 8537SOL    HW137070   3.624   0.446   4.543 -0.9334  2.7596  2.7644
 8537SOL    HW237071   3.528   0.356   4.480  0.6040  0.0435 -0.5026
 8538SOL     OW37072   3.412   1.617   1.117  0.0466  0.2946 -0.4487
 8538SOL    HW137073   3.484   1.673   1.089 -0.2610  0.1032 -1.6069
 8538SOL    HW237074   3.333   1.669   1.103 -0.9117 -1.0007  0.1572
 8539SOL     OW37075   4.154   2.693   3.560 -0.3112 -0.0794 -0.7487
 8539SOL    HW137076   4.148   2.607   3.603  0.0862  0.5683  0.6166
 8539SOL    HW237077   4.229   2.738   3.599 -1.6535  1.6500 -0.0972
 8540SOL     OW37078   1.061   0.074  12.413  0.2853 -0.1441  0.3458
 8540SOL    HW137079   0.990   0.137  12.402 -0.5552 -0.8892  1.5063
 8540SOL    HW237080   1.087   0.093  12.503  0.0370  2.6707 -0.1673
 8541SOL     OW37081   1.579   4.125   4.340  0.7276 -0.1133  0.1670
 8541SOL    HW137082   1.612   4.141   4.429  0.1550 -1.8034  0.6726
 8541SOL    HW237083   1.643   4.071   4.293 -0.3449  0.1924 -1.6355
 8542SOL     OW37084   2.120   0.851   1.873  0.2439  0.0099 -0.6070
 8542SOL    HW137085   2.099   0.944   1.886 -1.5097 -0.4677 -0.0161
 8542SOL    HW237086   2.095   0.842   1.781 -2.9553 -0.7459  0.3341
 8543SOL     OW37087   3.181   4.237   2.881 -0.6899 -0.4425 -0.0696
 8543SOL    HW137088   3.094   4.272   2.862  0.1904  0.4329 -2.5666
 8543SOL    HW237089   3.230   4.316   2.856 -1.6233 -0.4970 -2.1318
 8544SOL     OW37090   2.943   3.485   6.629  0.0977  0.4298  0.2972
 8544SOL    HW137091   2.911   3.575   6.629 -1.3891 -0.1003 -0.1865
 8544SOL    HW237092   2.910   3.442   6.550  2.4042 -0.1842 -0.3222
 8545SOL     OW37093   3.807   2.903  12.113  0.2895 -0.2062 -0.4181
 8545SOL    HW137094   3.884   2.847  12.098 -1.0282 -1.4476 -2.4757
 8545SOL    HW237095   3.827   2.921  12.205 -0.3883  2.1951 -0.7579
 8546SOL     OW37096   1.422   0.173   7.968  0.1832 -0.5656  0.5895
 8546SOL    HW137097   1.383   0.261   7.963  1.9206  0.1656 -0.3766
 8546SOL    HW237098   1.430   0.145   7.877 -4.4048  1.6170 -0.4863
 8547SOL     OW37099   3.630   2.264  13.683  0.0973 -0.7076 -0.1866
 8547SOL    HW137100   3.673   2.247  13.767 -0.3990 -0.6808  0.0778
 8547SOL    HW237101   3.565   2.193  13.690  0.7674 -1.4194 -1.2096
 8548SOL     OW37102   0.457   4.327   6.868  0.1847  0.5261 -0.4487
 8548SOL    HW137103   0.538   4.357   6.828 -0.0282  3.0802  1.0416
 8548SOL    HW237104   0.425   4.269   6.799 -0.3125 -0.5588  0.7084
 8549SOL     OW37105   4.243   1.208   3.478 -0.4532 -0.0593 -0.2787
 8549SOL    HW137106   4.296   1.178   3.404  0.0896  1.1265 -0.3659
 8549SOL    HW237107   4.233   1.301   3.458  5.2138  1.2730  2.7486
 8550SOL     OW37108   4.270   0.014   9.481 -0.4377 -0.0341 -0.4415
 8550SOL    HW137109   4.260   0.047   9.570  0.0777 -0.3054 -0.2804
 8550SOL    HW237110   4.182   0.040   9.452  0.2300  0.7755 -1.7425
 8551SOL     OW37111   0.334   1.209   5.712 -0.9297 -0.2453 -0.1632
 8551SOL    HW137112   0.299   1.298   5.712 -0.8302 -0.2046 -0.4556
 8551SOL    HW237113   0.259   1.150   5.715  0.2208 -1.7035  0.1580
 8552SOL     OW37114   4.330   1.914   6.452 -0.0131  0.0816  1.1583
 8552SOL    HW137115   4.341   1.907   6.358  0.9063  0.3735  1.2449
 8552SOL    HW237116   4.365   1.830   6.483 -0.4727 -0.8293 -0.8491
 8553SOL     OW37117   0.159   1.402   5.515  0.5672  0.0676 -0.2393
 8553SOL    HW137118   0.172   1.443   5.600  2.2994  2.6409 -1.7644
 8553SOL    HW237119   0.065   1.410   5.499  0.5723  0.2301 -0.1895
 8554SOL     OW37120   2.688   3.864   2.830 -0.2506 -0.4709 -0.2588
 8554SOL    HW137121   2.706   3.958   2.826 -0.5238 -0.3370  1.5672
 8554SOL    HW237122   2.623   3.856   2.760 -0.7662 -0.6617  0.2374
 8555SOL     OW37123   0.855   2.606   8.553  0.0580 -1.3258 -0.0845
 8555SOL    HW137124   0.888   2.544   8.618 -0.6703 -0.3235  1.2640
 8555SOL    HW237125   0.935   2.610   8.501 -1.2024  0.1593 -1.9241
 8556SOL     OW37126   0.053   4.318   3.744  0.1788 -0.2824  0.4370
 8556SOL    HW137127   0.003   4.368   3.678  2.4978 -0.7829 -1.7106
 8556SOL    HW237128   0.003   4.335   3.824 -2.1596 -1.6035 -0.7051
 8557SOL     OW37129   3.361   3.416   4.350  0.2282 -0.0405 -0.0885
 8557SOL    HW137130   3.381   3.361   4.275 -0.5110  0.7969 -0.9004
 8557SOL    HW237131   3.414   3.379   4.421  0.2552  1.6494  0.7664
 8558SOL     OW37132   1.778   4.080  17.378  0.4718 -0.3255 -0.3056
 8558SOL    HW137133   1.865   4.116  17.365  1.3532 -1.4028  2.4757
 8558SOL    HW237134   1.785   4.039  17.465  4.0818  0.5182 -0.2237
 8559SOL     OW37135   4.221   1.424  10.942 -0.3174  0.4707 -0.0941
 8559SOL    HW137136   4.262   1.341  10.964 -0.2373  0.4018 -0.5136
 8559SOL    HW237137   4.213   1.407  10.848 -0.4628  1.5566 -0.2793
 8560SOL     OW37138   2.784   1.791   3.246  0.2711 -0.1437  0.9583
 8560SOL    HW137139   2.833   1.806   3.166 -1.5251 -0.4689 -0.2095
 8560SOL    HW237140   2.694   1.805   3.215  0.7768  0.7130 -0.0899
 8561SOL     OW37141   2.370   3.896  15.729  0.1244 -0.0871 -0.4405
 8561SOL    HW137142   2.374   3.875  15.636  1.8903  0.4465 -0.4723
 8561SOL    HW237143   2.423   3.824  15.763 -1.4930 -0.5400  1.1090
 8562SOL     OW37144   1.574   1.913   5.606  0.0711  0.2742  0.2906
 8562SOL    HW137145   1.563   2.001   5.643 -3.4853  1.6136 -3.9580
 8562SOL    HW237146   1.622   1.877   5.681  0.0471  2.4597  1.3514
 8563SOL     OW37147   4.224   0.521   5.887 -0.2432  0.5310 -0.3372
 8563SOL    HW137148   4.317   0.525   5.909 -0.7636 -1.0825  2.0609
 8563SOL    HW237149   4.189   0.609   5.905 -2.0679 -0.3845  0.5378
 8564SOL     OW37150   4.113   4.069   8.875  0.0059  0.4337  0.0518
 8564SOL    HW137151   4.164   4.107   8.947 -0.7387  1.7002 -0.0987
 8564SOL    HW237152   4.151   3.981   8.876 -2.4761 -0.6895 -3.5409
 8565SOL     OW37153   1.556   4.702  12.057 -0.9423 -0.2060 -0.4858
 8565SOL    HW137154   1.645   4.668  12.047 -1.2236 -0.8902 -0.6610
 8565SOL    HW237155   1.566   0.064  12.100  1.8575 -0.0618 -1.3934
 8566SOL     OW37156   3.978   2.702   6.758 -0.8381  0.0479 -0.3278
 8566SOL    HW137157   3.978   2.712   6.853 -0.3576 -0.4175 -0.2747
 8566SOL    HW237158   4.070   2.721   6.740 -0.5591 -0.7853  0.2176
 8567SOL     OW37159   0.337   3.527   6.330  0.1963 -0.3517  0.2937
 8567SOL    HW137160   0.259   3.509   6.383  1.4089  2.7264  3.1383
 8567SOL    HW237161   0.318   3.619   6.313 -2.1912 -1.2929 -2.2045
 8568SOL     OW37162   0.138   1.261   4.549  0.5345 -0.3869  0.0174
 8568SOL    HW137163   0.141   1.345   4.502  5.5080 -0.0835  0.9182
 8568SOL    HW237164   0.207   1.262   4.616  0.5572  2.1359 -0.0417
 8569SOL     OW37165   2.203   1.997   4.387 -0.0868  0.1541  0.3185
 8569SOL    HW137166   2.176   1.941   4.314  1.3555 -0.3983  0.2233
 8569SOL    HW237167   2.257   1.929   4.426 -1.2387 -1.5876 -1.0905
 8570SOL     OW37168   4.195   3.368   6.409  0.4588  0.1648  0.0082
 8570SOL    HW137169   4.210   3.444   6.354 -2.7575 -1.3178 -2.9064
 8570SOL    HW237170   4.100   3.373   6.408  0.6128  3.2768  0.2293
 8571SOL     OW37171   4.537   0.502   1.772 -0.5072 -0.2047  0.0936
 8571SOL    HW137172   4.630   0.495   1.748 -0.2335  0.6988  0.9057
 8571SOL    HW237173   4.484   0.468   1.699 -0.6756  0.1112  0.0681
 8572SOL     OW37174   3.158   1.085   7.073  0.4395 -0.3723  0.0126
 8572SOL    HW137175   3.149   0.995   7.043  2.3627 -0.3428 -0.6828
 8572SOL    HW237176   3.092   1.125   7.016  0.1647 -1.1362 -0.2097
 8573SOL     OW37177   0.453   0.786   8.751 -0.5960  0.1806 -0.1121
 8573SOL    HW137178   0.457   0.795   8.846  1.0393 -1.7277 -0.0047
 8573SOL    HW237179   0.357   0.780   8.745 -0.7540  1.8550  0.8272
 8574SOL     OW37180   0.663   3.037  17.033 -0.2370  0.2760  0.3737
 8574SOL    HW137181   0.621   2.964  16.986  0.5941  1.6722 -2.4990
 8574SOL    HW237182   0.741   3.050  16.979 -1.0055 -0.7785 -0.9918
 8575SOL     OW37183   2.124   1.325   3.948 -0.0124 -0.2462 -0.1944
 8575SOL    HW137184   2.175   1.340   3.868 -2.1447  2.3799 -1.0514
 8575SOL    HW237185   2.127   1.231   3.967 -2.2322  0.1614  2.1942
 8576SOL     OW37186   3.934   3.244   3.236  0.5701 -0.3426  0.0638
 8576SOL    HW137187   3.945   3.289   3.152  4.2884 -0.7983  0.3169
 8576SOL    HW237188   4.021   3.205   3.245  0.2164 -0.9734  0.7873
 8577SOL     OW37189   0.909   4.585   3.254 -0.1548 -0.0995 -0.5189
 8577SOL    HW137190   0.897   4.576   3.159 -0.6916  0.5743 -0.5166
 8577SOL    HW237191   0.932   4.678   3.260 -0.9021 -0.0557  1.5008
 8578SOL     OW37192   2.414   1.738  10.691  0.2322 -0.0486  0.5249
 8578SOL    HW137193   2.321   1.734  10.712  0.6106 -1.6637  1.8382
 8578SOL    HW237194   2.444   1.674  10.756 -0.4380 -0.8729  0.0144
 8579SOL     OW37195   4.687   3.867   6.750 -0.1960  0.5577  0.3697
 8579SOL    HW137196   4.608   3.825   6.717  1.1233 -0.7633 -1.1458
 8579SOL    HW237197   4.664   3.892   6.839 -0.2863  0.7672  0.2867
 8580SOL     OW37198   3.439   0.392   4.131 -0.0794 -0.2904 -0.6547
 8580SOL    HW137199   3.485   0.344   4.061 -0.2385 -2.3622  0.6548
 8580SOL    HW237200   3.372   0.431   4.075 -2.1286  0.6735  2.4724
 8581SOL     OW37201   2.193   0.217   6.149  0.8859  0.4069 -0.1591
 8581SOL    HW137202   2.138   0.139   6.151  0.2849  0.8646  1.0088
 8581SOL    HW237203   2.261   0.203   6.214  1.1312  1.9685 -0.0952
 8582SOL     OW37204   2.457   3.620   4.683 -0.1476  0.3025  0.3261
 8582SOL    HW137205   2.450   3.530   4.716  0.5695  0.7856  1.7791
 8582SOL    HW237206   2.495   3.614   4.595 -1.5145 -1.7321 -0.1158
 8583SOL     OW37207   4.203   0.414   9.606 -0.4253 -0.3649 -0.2208
 8583SOL    HW137208   4.213   0.319   9.601  2.4333 -0.2178  2.3306
 8583SOL    HW237209   4.295   0.439   9.604 -0.4073 -0.0738  4.0765
 8584SOL     OW37210   0.078   1.810   3.069  0.5023  0.3046  0.4160
 8584SOL    HW137211   0.128   1.744   3.118  0.7027  0.1883  0.0522
 8584SOL    HW237212   0.000   1.827   3.122 -0.3569  0.5105 -0.9190
 8585SOL     OW37213   4.047   2.415  13.496  0.1614 -0.2661 -0.1279
 8585SOL    HW137214   3.953   2.397  13.486  0.0034  0.9434 -0.7574
 8585SOL    HW237215   4.055   2.510  13.499  0.4146 -0.1570 -3.9701
 8586SOL     OW37216   4.709   0.164   2.884 -0.1032  0.1614 -0.1924
 8586SOL    HW137217   0.051   0.234   2.894 -3.0163  3.1486 -2.2040
 8586SOL    HW237218   4.650   0.184   2.956  0.1341 -1.3166  0.4044
 8587SOL     OW37219   4.376   2.045  17.063  0.2390 -0.2013 -0.7586
 8587SOL    HW137220   4.325   2.080  16.989  0.0278 -3.8290 -2.3134
 8587SOL    HW237221   4.457   2.020  17.018  2.7620  3.1441  1.9089
 8588SOL     OW37222   1.515   2.893   4.219  0.1864 -0.0237  0.0034
 8588SOL    HW137223   1.510   2.988   4.205 -3.2029 -0.1804  0.1594
 8588SOL    HW237224   1.505   2.877   4.125  0.3583 -0.6946  0.1009
 8589SOL     OW37225   4.357   1.679   6.131 -0.5506  0.2813 -0.1062
 8589SOL    HW137226   4.318   1.728   6.059  0.5084  1.9692  0.4673
 8589SOL    HW237227   4.415   1.745   6.171 -0.6306 -0.5283  1.3557
 8590SOL     OW37228   0.190   0.628   4.603 -0.1756  0.0654 -0.2982
 8590SOL    HW137229   0.142   0.566   4.549 -0.2956  0.3476 -0.5154
 8590SOL    HW237230   0.271   0.649   4.556  0.4801  1.1012  1.2908
 8591SOL     OW37231   1.547   3.449   4.385 -0.1987 -0.0145  0.0366
 8591SOL    HW137232   1.457   3.461   4.355 -0.8916 -1.5822  1.4540
 8591SOL    HW237233   1.542   3.484   4.474 -1.1184 -1.2466  0.4657
 8592SOL     OW37234   2.382   2.053   4.993  0.4147  0.5966 -0.9687
 8592SOL    HW137235   2.470   2.016   4.980  0.1576 -0.3109 -0.1743
 8592SOL    HW237236   2.376   2.105   4.913 -1.3240  0.2232 -1.0673
 8593SOL     OW37237   1.833   2.516   9.279  0.1328 -0.1397 -0.1039
 8593SOL    HW137238   1.742   2.524   9.306  0.0931  1.2990 -0.6558
 8593SOL    HW237239   1.834   2.420   9.281 -2.2213 -0.2190 -2.7798
 8594SOL     OW37240   4.079   1.865   5.152  0.2873 -0.8571  0.1849
 8594SOL    HW137241   4.170   1.880   5.128 -0.1855  0.6025 -0.6751
 8594SOL    HW237242   4.062   1.943   5.204 -3.2402 -0.8057 -1.0731
 8595SOL     OW37243   4.366   0.950   6.664 -0.1594 -0.1157 -0.2293
 8595SOL    HW137244   4.401   1.034   6.694  0.4125 -0.3198 -0.3370
 8595SOL    HW237245   4.301   0.930   6.732  0.8715 -0.7766  0.5542
 8596SOL     OW37246   3.356   0.454  12.980 -0.4350 -0.5436 -0.0322
 8596SOL    HW137247   3.356   0.550  12.973 -0.4764 -0.5790 -0.5178
 8596SOL    HW237248   3.265   0.444  12.952  0.0507 -0.6331 -1.5508
 8597SOL     OW37249   1.837   4.380   2.878  0.3080  0.0450  0.3581
 8597SOL    HW137250   1.791   4.446   2.825 -0.7116 -0.2283  0.9165
 8597SOL    HW237251   1.914   4.384   2.821  0.4341 -0.9679  0.4691
 8598SOL     OW37252   3.862   3.839   8.798 -0.1943  0.2073  0.2232
 8598SOL    HW137253   3.954   3.819   8.816 -0.1527  0.8536  0.7623
 8598SOL    HW237254   3.818   3.793   8.869  0.7361 -0.2118  0.5278
 8599SOL     OW37255   3.639   0.105   5.034 -0.2015  0.2529  0.2554
 8599SOL    HW137256   3.553   0.074   5.006  0.0571 -0.8229  0.6522
 8599SOL    HW237257   3.611   0.128   5.122  1.3683  1.5018  0.4262
 8600SOL     OW37258   3.359   2.159   4.990 -1.2079  0.5313  0.1815
 8600SOL    HW137259   3.351   2.140   4.897  0.4467 -2.9418  0.7289
 8600SOL    HW237260   3.320   2.246   4.999 -1.6122  0.5363 -1.7253
 8601SOL     OW37261   4.203   3.340  12.454  0.2107  0.6335 -0.0228
 8601SOL    HW137262   4.131   3.393  12.488 -1.6357 -1.9472  0.0888
 8601SOL    HW237263   4.273   3.396  12.488  0.3273  2.2035 -2.8147
 8602SOL     OW37264   2.407   2.452   7.484 -0.0396  0.2417 -0.6234
 8602SOL    HW137265   2.499   2.444   7.509 -0.3007  1.9161  0.8610
 8602SOL    HW237266   2.366   2.381   7.533  1.0361  0.8746  1.1952
 8603SOL     OW37267   2.929   0.636   2.757 -0.0748 -0.1136 -0.2049
 8603SOL    HW137268   3.005   0.627   2.699  0.8224 -1.5448  1.1917
 8603SOL    HW237269   2.883   0.554   2.743  0.6104 -0.6420  0.5822
 8604SOL     OW37270   0.102   2.125  12.523  0.4817  0.4899  0.7921
 8604SOL    HW137271   0.090   2.177  12.444 -3.3784 -1.1540  0.3359
 8604SOL    HW237272   0.186   2.078  12.521  2.9160  4.7461  1.6988
 8605SOL     OW37273   1.802   3.924   3.307  0.4591  0.0374  0.4338
 8605SOL    HW137274   1.741   3.976   3.254  0.7194  0.5409  0.6312
 8605SOL    HW237275   1.783   3.969   3.389 -0.4142 -0.6826  0.6372
 8606SOL     OW37276   3.140   4.579  13.564  0.7735  0.1776  0.2509
 8606SOL    HW137277   3.069   4.564  13.626  0.0446  1.1672 -0.3543
 8606SOL    HW237278   3.174   4.663  13.595 -0.0849  0.2165  1.0866
 8607SOL     OW37279   3.648   3.509   5.245 -0.0061  0.3879  0.1223
 8607SOL    HW137280   3.564   3.554   5.258  0.7445  1.9123 -0.3262
 8607SOL    HW237281   3.690   3.578   5.193  1.4794  0.6216  1.6626
 8608SOL     OW37282   3.914   3.771   4.707 -0.4839  0.0492 -0.0301
 8608SOL    HW137283   3.919   3.862   4.736  1.1705  0.0791 -0.4010
 8608SOL    HW237284   3.956   3.768   4.621 -1.7223  0.7605 -0.6516
 8609SOL     OW37285   2.724   0.595   5.606 -0.3928  0.2429  0.6344
 8609SOL    HW137286   2.757   0.519   5.654 -0.9378 -0.1619  0.3768
 8609SOL    HW237287   2.676   0.637   5.677  0.2579  2.1853 -0.0904
 8610SOL     OW37288   2.311   4.641  10.935 -0.5369 -0.2603  0.3300
 8610SOL    HW137289   2.273   4.618  10.850  1.2374 -0.5479 -0.3799
 8610SOL    HW237290   2.275   4.573  10.991  0.8469 -0.6322  0.7658
 8611SOL     OW37291   3.643   2.889  10.765 -0.3471 -0.6437 -0.6913
 8611SOL    HW137292   3.683   2.961  10.715  0.9559  0.0822  1.3888
 8611SOL    HW237293   3.560   2.933  10.784  0.1322 -0.2974  0.5744
 8612SOL     OW37294   4.039   2.659   5.786 -0.1311  0.0634 -0.1054
 8612SOL    HW137295   3.956   2.698   5.814 -1.5388 -1.8522 -1.5656
 8612SOL    HW237296   4.104   2.702   5.842  1.5642  0.5735 -2.4689
 8613SOL     OW37297   3.779   2.354  13.439 -0.2945 -0.0652  0.6433
 8613SOL    HW137298   3.721   2.313  13.375  1.9091 -0.3102 -1.1855
 8613SOL    HW237299   3.749   2.300  13.512  0.4726 -0.0719  0.9538
 8614SOL     OW37300   2.352   4.361   6.793 -0.0573 -0.0178 -0.0982
 8614SOL    HW137301   2.260   4.349   6.818 -0.2293 -1.1115 -1.2239
 8614SOL    HW237302   2.392   4.299   6.854  1.1385  0.6717 -0.1739
 8615SOL     OW37303   3.562   2.453  10.903  0.4764  0.1784  0.2485
 8615SOL    HW137304   3.607   2.453  10.987  1.3799  1.4850 -0.2505
 8615SOL    HW237305   3.487   2.395  10.917  0.4488  0.3362  0.7547
 8616SOL     OW37306   1.055   0.558   7.800  0.1865  0.3694  0.0633
 8616SOL    HW137307   1.072   0.635   7.854  0.3031  1.7710 -1.9959
 8616SOL    HW237308   0.966   0.542   7.833  0.7338 -1.7912  0.4994
 8617SOL     OW37309   3.541   4.207   7.005 -0.1588  0.6513 -0.2426
 8617SOL    HW137310   3.465   4.204   6.948 -0.1878  0.4772 -0.1935
 8617SOL    HW237311   3.527   4.146   7.077 -0.3533  1.5840  0.5197
 8618SOL     OW37312   1.395   3.910  11.559  0.6031  0.1657  0.1450
 8618SOL    HW137313   1.324   3.863  11.602  0.2607  0.4721 -0.0955
 8618SOL    HW237314   1.457   3.926  11.630  0.0691 -1.8909  1.0659
 8619SOL     OW37315   0.436   4.100   4.643 -0.0666  0.0969  0.0409
 8619SOL    HW137316   0.439   4.190   4.676  0.5889  0.2073 -0.3066
 8619SOL    HW237317   0.436   4.119   4.549 -0.6801  1.3825  0.2963
 8620SOL     OW37318   4.612   0.563   5.050 -0.4109  0.2870  0.2936
 8620SOL    HW137319   4.520   0.538   5.059 -0.9267  1.2825 -2.2509
 8620SOL    HW237320   4.611   0.657   5.071  1.5491  0.4851 -0.4996
 8621SOL     OW37321   1.481   0.883   4.670 -0.0532  0.1495  0.3434
 8621SOL    HW137322   1.488   0.822   4.744  1.4947 -0.8393 -0.6197
 8621SOL    HW237323   1.571   0.887   4.639 -0.3603 -2.0819 -0.8494
 8622SOL     OW37324   4.055   1.272   7.414  0.0437 -0.0777  0.0665
 8622SOL    HW137325   4.122   1.256   7.348  1.0560  1.4346  0.7289
 8622SOL    HW237326   4.005   1.193   7.392  0.9426 -0.8442  0.7684
 8623SOL     OW37327   0.205   2.546   4.773  0.4726  0.4006 -0.5690
 8623SOL    HW137328   0.255   2.594   4.839  2.6597  0.4738 -2.2984
 8623SOL    HW237329   0.232   2.601   4.699 -0.3277  1.4931 -0.0534
 8624SOL     OW37330   0.951   3.064   5.669  0.3869  0.0486  0.6164
 8624SOL    HW137331   0.928   2.998   5.734 -0.4138  0.3284  0.6153
 8624SOL    HW237332   1.008   3.118   5.724 -0.4092 -1.2763  2.7040
 8625SOL     OW37333   2.306   4.519  15.704  0.1947  0.1001  0.4602
 8625SOL    HW137334   2.355   4.485  15.629  0.4193 -1.4254  1.2820
 8625SOL    HW237335   2.310   4.439  15.758 -1.4494 -1.0714 -1.1371
 8626SOL     OW37336   3.306   2.557   8.454  0.2107  0.0632 -0.1257
 8626SOL    HW137337   3.288   2.624   8.521 -1.1714 -0.3060 -0.1248
 8626SOL    HW237338   3.366   2.492   8.491 -0.4150 -1.3322 -1.5502
 8627SOL     OW37339   2.874   2.939   0.977  0.1124  0.2030  0.0125
 8627SOL    HW137340   2.823   2.900   1.049 -1.9402  1.3835 -0.7969
 8627SOL    HW237341   2.918   3.001   1.034 -0.5503 -0.6327  1.4404
 8628SOL     OW37342   0.449   1.293   4.790  0.4156 -0.4992 -0.4613
 8628SOL    HW137343   0.419   1.224   4.850 -1.4808 -0.9924 -2.0020
 8628SOL    HW237344   0.444   1.372   4.844 -2.0397 -0.3173 -0.9313
 8629SOL     OW37345   3.230   0.245   5.565  0.3221  0.5721 -0.1076
 8629SOL    HW137346   3.210   0.253   5.659 -0.3499  1.0829 -0.3006
 8629SOL    HW237347   3.177   0.167   5.550  0.8605  0.1764  0.0235
 8630SOL     OW37348   1.396   3.936   5.016 -0.2309 -0.1238 -0.0436
 8630SOL    HW137349   1.423   3.893   4.934 -0.6815  1.0724 -0.8278
 8630SOL    HW237350   1.372   3.856   5.061  1.7817  0.9363  2.9179
 8631SOL     OW37351   4.240   2.893  14.874  0.1476  0.2964 -0.9774
 8631SOL    HW137352   4.249   2.800  14.855  1.1549 -0.4174  2.8694
 8631SOL    HW237353   4.211   2.894  14.966 -2.6883  0.2029 -1.8944
 8632SOL     OW37354   0.605   0.712   6.554 -0.4914 -0.4504  0.2173
 8632SOL    HW137355   0.684   0.765   6.551  0.3850 -1.7076  1.0494
 8632SOL    HW237356   0.586   0.700   6.647 -0.9002 -0.2344  0.1627
 8633SOL     OW37357   3.379   2.408  13.299  0.0655 -0.1194 -0.2253
 8633SOL    HW137358   3.359   2.489  13.345  0.2012  0.1267 -0.6083
 8633SOL    HW237359   3.452   2.439  13.246 -1.3457  0.9249 -1.5529
 8634SOL     OW37360   1.062   2.537   8.881 -0.2406  0.5111 -0.1059
 8634SOL    HW137361   1.040   2.473   8.813 -0.3818  1.1177 -0.6224
 8634SOL    HW237362   1.107   2.606   8.832  3.9935 -2.5798 -0.5973
 8635SOL     OW37363   3.991   4.380   6.320 -0.4107 -0.1015 -0.1793
 8635SOL    HW137364   3.937   4.320   6.371 -0.0496 -1.0154 -0.8563
 8635SOL    HW237365   4.005   4.324   6.243 -0.2009 -2.4172  1.5410
 8636SOL     OW37366   1.959   0.277   6.373 -0.4292  0.1523  0.1393
 8636SOL    HW137367   1.960   0.365   6.333 -0.7756  0.8721  1.7315
 8636SOL    HW237368   1.870   0.249   6.353  0.1464 -1.8914  0.4450
 8637SOL     OW37369   3.671   0.688   9.148  0.3181  0.5027  0.1280
 8637SOL    HW137370   3.745   0.628   9.150  0.3991  0.6821  1.9317
 8637SOL    HW237371   3.700   0.761   9.201 -1.6260  1.3737  0.0027
 8638SOL     OW37372   4.206   0.144   8.847  0.3284  0.1633 -0.2468
 8638SOL    HW137373   4.138   0.167   8.910  2.1130 -2.6847  2.7200
 8638SOL    HW237374   4.192   0.050   8.835 -0.1599  0.1001  0.8371
 8639SOL     OW37375   1.932   4.249   2.083 -0.3795  0.6830  0.0900
 8639SOL    HW137376   2.004   4.289   2.132  0.0186  0.6584 -0.4838
 8639SOL    HW237377   1.965   4.248   1.993 -0.0854 -0.2083  0.2060
 8640SOL     OW37378   0.988   0.874   8.731 -0.2870 -0.2973 -0.4796
 8640SOL    HW137379   0.981   0.909   8.821  0.6577 -1.0550 -0.1058
 8640SOL    HW237380   0.914   0.814   8.737 -0.8635  0.4690  0.2230
 8641SOL     OW37381   2.143   3.941   9.359  0.6502 -0.0313  0.1859
 8641SOL    HW137382   2.125   3.850   9.380  1.1147 -0.0011  0.7152
 8641SOL    HW237383   2.218   3.958   9.416  1.2168 -0.4859 -0.4226
 8642SOL     OW37384   2.319   3.354   5.790 -0.2064 -0.2027 -0.3762
 8642SOL    HW137385   2.242   3.328   5.739  0.5868  0.0935 -1.7409
 8642SOL    HW237386   2.298   3.445   5.809 -2.0776 -0.9287  1.0132
 8643SOL     OW37387   3.458   2.699   1.769 -0.0604 -0.4964  0.0485
 8643SOL    HW137388   3.466   2.745   1.686  1.0652  0.3187  0.6035
 8643SOL    HW237389   3.542   2.653   1.765  0.5143  0.7051 -1.7309
 8644SOL     OW37390   1.195   1.171  10.266  0.4739  0.3306  1.0361
 8644SOL    HW137391   1.196   1.181  10.361  0.2073  0.5030  1.0218
 8644SOL    HW237392   1.101   1.159  10.250  0.9559 -0.4678 -1.1920
 8645SOL     OW37393   2.635   3.518   4.500  0.5687 -0.1834 -0.5165
 8645SOL    HW137394   2.609   3.515   4.408 -1.6496  1.2269  0.0702
 8645SOL    HW237395   2.728   3.496   4.501  1.2419  2.6427 -1.0385
 8646SOL     OW37396   0.669   1.997   2.149  0.1261  0.0676  0.3372
 8646SOL    HW137397   0.738   2.025   2.210 -1.3698  2.5611  0.8997
 8646SOL    HW237398   0.595   2.020   2.205  0.0578  0.1922  0.1949
 8647SOL     OW37399   2.387   0.445  15.132 -0.0077  0.6884  0.1856
 8647SOL    HW137400   2.359   0.413  15.046 -0.9379 -1.5661  1.3270
 8647SOL    HW237401   2.307   0.438  15.183 -0.6397  0.7335 -0.7970
 8648SOL     OW37402   1.044   3.399  17.008  0.6803  0.6394 -0.2205
 8648SOL    HW137403   1.042   3.406  17.103 -0.0912  0.3217 -0.2097
 8648SOL    HW237404   0.998   3.316  16.995  1.6143 -0.1582  1.5859
 8649SOL     OW37405   2.870   0.125   0.917  0.7219 -0.0706  0.3971
 8649SOL    HW137406   2.869   0.116   0.822 -0.1044 -2.3342  0.6282
 8649SOL    HW237407   2.963   0.149   0.925  0.9673 -1.1457  0.7442
 8650SOL     OW37408   2.107   0.432   6.635  0.2515  0.1819 -0.3539
 8650SOL    HW137409   2.042   0.371   6.600 -0.2077 -0.0794  0.9662
 8650SOL    HW237410   2.053   0.511   6.638  1.8975  1.3170 -0.2139
 8651SOL     OW37411   4.177   0.607  17.122  0.4230 -0.0011 -0.4017
 8651SOL    HW137412   4.241   0.670  17.088  0.0680  0.9245  0.6165
 8651SOL    HW237413   4.096   0.654  17.103  0.3362  1.3737  3.2890
 8652SOL     OW37414   4.436   3.955   5.615 -0.2079 -0.4655 -0.6308
 8652SOL    HW137415   4.413   3.870   5.651  0.1612  0.1995  1.1860
 8652SOL    HW237416   4.470   3.926   5.531 -1.3058 -1.0422 -0.8726
 8653SOL     OW37417   2.118   4.435   6.059  0.2217 -0.2003 -0.1730
 8653SOL    HW137418   2.188   4.385   6.017  2.5264  1.6833  1.4896
 8653SOL    HW237419   2.131   4.524   6.028 -0.6812 -0.3016 -0.8626
 8654SOL     OW37420   3.053   0.584   3.795  0.0119  0.9959 -0.4002
 8654SOL    HW137421   2.967   0.550   3.819  0.3193 -0.0055 -0.7321
 8654SOL    HW237422   3.030   0.677   3.783  2.1566  1.4055 -1.2271
 8655SOL     OW37423   3.344   3.676   6.590 -0.2602 -0.4170 -0.0737
 8655SOL    HW137424   3.326   3.666   6.497  0.2422 -0.5046 -0.1623
 8655SOL    HW237425   3.440   3.677   6.598 -0.3339  0.4218  0.6941
 8656SOL     OW37426   3.461   2.243   4.480  0.0979 -0.5649 -0.8646
 8656SOL    HW137427   3.554   2.261   4.497  0.1283  1.0496 -2.8156
 8656SOL    HW237428   3.430   2.196   4.558 -0.5756  0.0346 -0.7825
 8657SOL     OW37429   2.486   2.994   6.390  0.0225  0.0895 -0.3654
 8657SOL    HW137430   2.462   2.924   6.451  0.3092  0.4639  0.1773
 8657SOL    HW237431   2.426   3.067   6.401 -0.1002 -0.2563  1.2506
 8658SOL     OW37432   3.583   3.749   3.162 -0.0204  0.3935 -0.3884
 8658SOL    HW137433   3.605   3.697   3.084  1.6459 -1.6018  1.4341
 8658SOL    HW237434   3.572   3.678   3.224 -0.6647 -0.8066 -1.8976
 8659SOL     OW37435   3.130   3.439  10.080 -0.0558  0.3564  0.7252
 8659SOL    HW137436   3.060   3.410  10.021  0.0752 -2.2801  1.8854
 8659SOL    HW237437   3.114   3.533  10.086 -0.2591  0.4813 -1.8834
 8660SOL     OW37438   0.570   3.281  17.609  0.2958  0.9316 -0.4707
 8660SOL    HW137439   0.547   3.353  17.550  0.4230  0.0646 -1.5739
 8660SOL    HW237440   0.664   3.284  17.592  0.6193 -1.7678  0.8940
 8661SOL     OW37441   1.961   2.463   6.653 -0.0282  0.0240 -0.3917
 8661SOL    HW137442   1.957   2.468   6.557 -1.1617 -1.2699 -0.4037
 8661SOL    HW237443   1.993   2.374   6.666 -1.2811 -0.5043 -0.9316
 8662SOL     OW37444   1.502   4.131   9.178 -0.1458  0.7881  0.2011
 8662SOL    HW137445   1.456   4.194   9.123 -2.0885 -0.4198  0.4684
 8662SOL    HW237446   1.442   4.058   9.163 -1.3484  1.0838  3.4303
 8663SOL     OW37447   4.038   3.805   2.357 -0.0747  0.6663  0.8346
 8663SOL    HW137448   4.103   3.747   2.399 -0.9657  0.2121  1.5760
 8663SOL    HW237449   3.988   3.822   2.436  1.0461  1.3046  1.4128
 8664SOL     OW37450   3.191   3.508  15.537 -0.5406  0.0525  0.0329
 8664SOL    HW137451   3.227   3.507  15.625  1.2118 -4.4899 -0.7032
 8664SOL    HW237452   3.160   3.598  15.539  2.3538  0.9900  2.3993
 8665SOL     OW37453   2.648   0.625   7.529  0.7413 -0.6755  0.3028
 8665SOL    HW137454   2.646   0.702   7.472 -0.9462 -0.9723 -0.0329
 8665SOL    HW237455   2.727   0.648   7.578  1.3566 -0.3229 -0.8342
 8666SOL     OW37456   3.212   2.762   2.186  0.1027 -0.8621 -0.2628
 8666SOL    HW137457   3.272   2.724   2.121 -2.4131 -1.3675 -2.2997
 8666SOL    HW237458   3.135   2.797   2.142 -0.4416 -2.6263 -0.7167
 8667SOL     OW37459   0.824   3.470   0.998 -0.6558  0.1828 -0.2761
 8667SOL    HW137460   0.893   3.534   1.015  0.5066 -0.9178 -0.8446
 8667SOL    HW237461   0.809   3.502   0.908  1.0674 -2.2708 -1.4142
 8668SOL     OW37462   0.959   4.031   6.796  0.4129  0.1865 -0.1248
 8668SOL    HW137463   0.889   3.967   6.779  1.9632 -0.8728 -2.4507
 8668SOL    HW237464   1.032   3.973   6.819 -0.3566 -1.3858 -1.6720
 8669SOL     OW37465   0.923   0.830   2.412 -0.1110 -0.0357 -0.2158
 8669SOL    HW137466   0.911   0.748   2.365  5.3436  0.5384 -2.6702
 8669SOL    HW237467   0.988   0.803   2.477 -1.6888 -3.3057 -0.0311
 8670SOL     OW37468   3.609   2.704   7.573  0.1894  0.5772 -0.3490
 8670SOL    HW137469   3.637   2.673   7.487 -1.3723  1.2167 -1.0838
 8670SOL    HW237470   3.670   2.653   7.627 -0.1052 -0.5896 -1.1319
 8671SOL     OW37471   3.501   4.422   1.306 -0.6253  0.0098 -0.1278
 8671SOL    HW137472   3.441   4.381   1.244 -0.9490  0.3506 -0.0403
 8671SOL    HW237473   3.523   4.341   1.352 -0.2475  0.6200  0.7567
 8672SOL     OW37474   4.638   3.628   6.380  0.3239 -0.3108  0.2339
 8672SOL    HW137475   4.651   3.602   6.471  0.8996 -1.1527 -0.0748
 8672SOL    HW237476   4.571   3.696   6.385  1.4704  0.6570  2.2554
 8673SOL     OW37477   0.776   2.549   0.193 -0.2936  0.1013  0.0672
 8673SOL    HW137478   0.806   2.469   0.149  0.1056  0.4725 -0.3352
 8673SOL    HW237479   0.719   2.586   0.126  0.2198  2.9462  1.2088
 8674SOL     OW37480   0.677   2.340  14.534 -0.2658 -0.2283 -0.6116
 8674SOL    HW137481   0.689   2.391  14.454 -3.4365  0.1560 -0.8346
 8674SOL    HW237482   0.623   2.266  14.508 -2.8903  1.1900  0.7639
 8675SOL     OW37483   0.725   0.044   1.759  0.0174  0.2020  0.1693
 8675SOL    HW137484   0.765   4.683   1.785 -0.5077 -0.4286 -1.0580
 8675SOL    HW237485   0.670   0.009   1.689  0.0527  1.6868 -0.5905
 8676SOL     OW37486   2.645   2.677   5.827 -0.0874 -0.5061  0.2907
 8676SOL    HW137487   2.593   2.646   5.901 -0.4865  0.6667  0.5131
 8676SOL    HW237488   2.606   2.622   5.760 -0.1579  1.1312 -1.0068
 8677SOL     OW37489   1.543   0.260   5.112  0.5290  0.1229  0.0054
 8677SOL    HW137490   1.491   0.334   5.145  0.3064 -0.4234  0.8632
 8677SOL    HW237491   1.471   0.199   5.102 -0.2905  0.9751  0.7731
 8678SOL     OW37492   2.669   2.395   7.531 -0.2132  0.4354 -0.4480
 8678SOL    HW137493   2.742   2.337   7.553 -0.1981  0.6822  0.1473
 8678SOL    HW237494   2.707   2.478   7.560 -0.5079  0.6893 -0.7963
 8679SOL     OW37495   0.707   1.189   3.312  0.0317 -0.2464 -0.7803
 8679SOL    HW137496   0.649   1.246   3.262 -1.4679  0.0776  1.3153
 8679SOL    HW237497   0.789   1.194   3.263 -1.1610 -1.1129 -2.8658
 8680SOL     OW37498   4.626   0.687   6.510  0.3102 -0.3952  0.0576
 8680SOL    HW137499   4.714   0.689   6.474  1.4689 -0.3332  2.8898
 8680SOL    HW237500   4.610   0.780   6.492 -1.7315 -1.0923 -1.8113
 8681SOL     OW37501   4.137   3.015   8.687  0.0124  0.5843  0.4051
 8681SOL    HW137502   4.232   3.010   8.696 -0.1548 -0.8358  1.4358
 8681SOL    HW237503   4.129   2.922   8.710 -0.5875  0.7885  1.0123
 8682SOL     OW37504   1.295   4.221   8.961 -0.1542 -0.3499 -0.4788
 8682SOL    HW137505   1.211   4.249   8.998  0.9849  1.2615  0.8783
 8682SOL    HW237506   1.263   4.138   8.926  0.2413 -0.8317  0.3154
 8683SOL     OW37507   3.170   1.908   2.910  0.3503  0.2834  0.1092
 8683SOL    HW137508   3.259   1.935   2.885  0.9158 -1.8885 -0.2254
 8683SOL    HW237509   3.139   1.874   2.826  0.4394  0.6574 -0.0798
 8684SOL     OW37510   0.122   2.544   5.975  0.3990  0.3119  0.2722
 8684SOL    HW137511   0.098   2.599   5.901 -1.7344 -0.1201  0.6462
 8684SOL    HW237512   0.070   2.591   6.040  0.7416  2.5277 -1.0667
 8685SOL     OW37513   3.204   1.981   7.677  0.2660  0.1757  0.4012
 8685SOL    HW137514   3.114   1.977   7.708  0.0529 -0.4744 -0.3022
 8685SOL    HW237515   3.242   1.901   7.713 -1.7182 -0.8729  0.1395
 8686SOL     OW37516   0.752   1.754   4.403  0.1086  0.6705  0.2093
 8686SOL    HW137517   0.715   1.680   4.452  2.4253 -0.1320  0.7901
 8686SOL    HW237518   0.673   1.806   4.393  0.0587 -0.3759 -4.5642
 8687SOL     OW37519   3.541   3.868   2.228 -0.0861 -0.1177  0.7255
 8687SOL    HW137520   3.499   3.935   2.174  0.1161  0.4534  1.2765
 8687SOL    HW237521   3.473   3.803   2.247 -1.3747  0.9537 -0.2372
 8688SOL     OW37522   2.498   1.894   0.254 -0.3699 -0.6204  0.1728
 8688SOL    HW137523   2.512   1.954   0.327 -0.5650 -1.0225  0.5481
 8688SOL    HW237524   2.454   1.822   0.301 -3.5810  0.8691 -0.5660
 8689SOL     OW37525   0.995   0.333  14.666 -0.4538 -0.0764  0.0032
 8689SOL    HW137526   0.953   0.359  14.584  0.7287  1.0418 -0.2484
 8689SOL    HW237527   1.085   0.319  14.638 -0.6876 -0.4291 -0.5743
 8690SOL     OW37528   4.406   2.671   2.397 -0.3255 -0.3233  0.0326
 8690SOL    HW137529   4.352   2.591   2.394  0.5270 -0.8361 -1.1196
 8690SOL    HW237530   4.481   2.639   2.349 -0.4106  1.4199 -1.2515
 8691SOL     OW37531   2.799   1.371   4.030 -0.4188  0.3390  0.4667
 8691SOL    HW137532   2.708   1.346   4.016 -0.6331  0.4997  1.5995
 8691SOL    HW237533   2.839   1.284   4.035 -2.1334 -0.5019 -0.6338
 8692SOL     OW37534   1.723   4.174   7.926  0.1185 -0.7810 -0.2478
 8692SOL    HW137535   1.716   4.168   8.021  1.0827  0.3010 -0.1219
 8692SOL    HW237536   1.743   4.268   7.923  0.0162 -0.7370  0.4088
 8693SOL     OW37537   4.057   2.974  11.386 -0.5678 -0.6645  0.1613
 8693SOL    HW137538   3.999   2.976  11.310 -0.0189 -1.9357 -0.2939
 8693SOL    HW237539   4.002   3.033  11.437 -0.5954  1.7451 -2.6503
 8694SOL     OW37540   3.761   2.719   3.110 -0.0868  0.0393  0.1218
 8694SOL    HW137541   3.688   2.695   3.054  0.8852  3.3888 -2.6286
 8694SOL    HW237542   3.783   2.633   3.146  0.6802 -0.2157 -0.9636
 8695SOL     OW37543   3.741   3.413   7.052 -0.1147  0.3201  0.0068
 8695SOL    HW137544   3.762   3.486   7.110  0.6386 -0.5793  0.8608
 8695SOL    HW237545   3.654   3.439   7.020  0.6733  3.3438  0.3427
 8696SOL     OW37546   4.004   0.962   3.954  0.6908 -0.4677 -0.5030
 8696SOL    HW137547   3.915   0.974   3.986  1.0834  0.3936  0.2659
 8696SOL    HW237548   4.047   1.044   3.978 -1.8342  1.0756 -1.3263
 8697SOL     OW37549   3.405   1.648  17.078  0.2463  0.4014 -0.0369
 8697SOL    HW137550   3.364   1.591  17.013 -0.6145  1.5382 -0.4812
 8697SOL    HW237551   3.436   1.720  17.024  2.1221 -1.1565 -1.0501
 8698SOL     OW37552   0.665   3.373  14.406  0.3275 -0.2385  0.8062
 8698SOL    HW137553   0.626   3.336  14.485 -1.7868 -0.6724 -0.4360
 8698SOL    HW237554   0.662   3.307  14.337  1.3230  1.3869 -0.7959
 8699SOL     OW37555   1.471   2.160  16.809  0.0537 -0.3551  0.4529
 8699SOL    HW137556   1.404   2.094  16.793  0.1725 -0.4743  0.4517
 8699SOL    HW237557   1.462   2.206  16.726  0.6853 -1.2575 -0.1114
 8700SOL     OW37558   0.705   3.791   9.594 -0.1059  0.1682  0.4349
 8700SOL    HW137559   0.731   3.878   9.625  1.9549 -1.0569  2.1238
 8700SOL    HW237560   0.692   3.750   9.679  1.3521 -0.4786  0.3455
 8701SOL     OW37561   2.399   2.159  12.885  0.2269 -0.3880  0.1759
 8701SOL    HW137562   2.481   2.140  12.932 -0.6807 -0.9568  1.5304
 8701SOL    HW237563   2.335   2.148  12.955 -1.3659  1.4347 -0.9976
 8702SOL     OW37564   3.209   2.824   6.990  0.5164 -0.3984  0.4695
 8702SOL    HW137565   3.140   2.806   6.926 -0.3483 -2.0183  1.8740
 8702SOL    HW237566   3.167   2.881   7.054 -0.5567 -1.3325  0.5977
 8703SOL     OW37567   3.311   1.567   8.014 -0.4715  0.4554  0.5669
 8703SOL    HW137568   3.371   1.512   8.064  2.0344  2.3021 -0.4169
 8703SOL    HW237569   3.235   1.582   8.071 -0.3130  1.9658  0.3655
 8704SOL     OW37570   4.243   0.014   3.962 -0.0152  0.2743 -0.1649
 8704SOL    HW137571   4.333   4.716   3.989  0.3685  3.1030  0.8001
 8704SOL    HW237572   4.234   4.698   3.875 -0.1187  1.0968 -0.5196
 8705SOL     OW37573   0.739   3.500   7.065  0.2886  0.2945 -0.2702
 8705SOL    HW137574   0.711   3.480   6.975 -0.5918 -2.2473  0.5486
 8705SOL    HW237575   0.769   3.410   7.077 -2.4522 -1.0670 -3.5239
 8706SOL     OW37576   4.142   0.721   2.127 -0.0584 -0.3754 -0.9684
 8706SOL    HW137577   4.111   0.714   2.037 -2.0653  1.7042 -0.4428
 8706SOL    HW237578   4.087   0.661   2.176  0.5708 -0.5923 -0.5320
 8707SOL     OW37579   0.267   1.459  17.591 -0.1970 -0.1220 -0.3644
 8707SOL    HW137580   0.297   1.422  17.508 -2.9283 -1.2632 -0.8381
 8707SOL    HW237581   0.245   1.549  17.568 -1.2351 -0.1800  0.4234
 8708SOL     OW37582   1.831   2.124   8.115  0.1158  0.1298  0.3987
 8708SOL    HW137583   1.867   2.210   8.138 -0.5119  0.4735  0.0828
 8708SOL    HW237584   1.908   2.098   8.065  0.5627 -1.5484  1.9493
 8709SOL     OW37585   4.154   0.667   5.318  0.1165 -0.7207  0.3055
 8709SOL    HW137586   4.121   0.587   5.277 -0.7019 -0.5861  0.7204
 8709SOL    HW237587   4.069   0.706   5.340 -0.4176 -1.3495 -0.6508
 8710SOL     OW37588   3.244   1.297   9.330  0.2524 -0.2637  0.0116
 8710SOL    HW137589   3.242   1.379   9.379  2.4569  0.6530 -1.4005
 8710SOL    HW237590   3.152   1.274   9.322 -0.1889  1.1525  1.2167
 8711SOL     OW37591   1.537   0.277   3.914  0.1096 -0.1523 -0.2783
 8711SOL    HW137592   1.625   0.287   3.878 -1.1777  2.6629 -2.5951
 8711SOL    HW237593   1.491   0.347   3.869 -4.8249 -0.9606  3.5219
 8712SOL     OW37594   3.224   1.850   1.060  0.0997 -0.4825  0.7753
 8712SOL    HW137595   3.152   1.835   1.122  0.2805 -0.1644  1.0533
 8712SOL    HW237596   3.182   1.855   0.974  1.1069  0.9766  0.3796
 8713SOL     OW37597   2.565   2.096   5.892  0.9387  0.0493 -0.3783
 8713SOL    HW137598   2.494   2.041   5.859  1.4837  0.1695 -1.7597
 8713SOL    HW237599   2.621   2.104   5.815 -0.3379 -1.7913 -1.4834
 8714SOL     OW37600   4.340   1.852   5.090  0.0069  0.7214 -0.0498
 8714SOL    HW137601   4.349   1.920   5.023  1.8510  0.4116 -0.1311
 8714SOL    HW237602   4.427   1.813   5.101  0.5206  1.8684  0.0435
 8715SOL     OW37603   2.428   1.580   8.492  0.1281  0.1649 -0.0249
 8715SOL    HW137604   2.424   1.510   8.557 -0.7585  1.1146  0.9359
 8715SOL    HW237605   2.496   1.637   8.527  1.6195 -1.3766 -0.3813
 8716SOL     OW37606   0.838   3.260   7.103  0.2400 -0.5744 -0.6192
 8716SOL    HW137607   0.796   3.174   7.111 -2.1657  0.8760  2.4736
 8716SOL    HW237608   0.931   3.237   7.108  0.4128 -0.4846 -3.4152
 8717SOL     OW37609   4.453   3.418   3.176  0.0911 -0.2775  0.4000
 8717SOL    HW137610   4.439   3.426   3.082 -2.4308  0.5696  0.8583
 8717SOL    HW237611   4.363   3.423   3.208  0.1535  2.0443  0.1696
 8718SOL     OW37612   2.220   2.321  11.300 -0.3987  0.5425 -0.2141
 8718SOL    HW137613   2.299   2.345  11.251 -0.9261 -1.7453 -2.1813
 8718SOL    HW237614   2.225   2.225  11.299 -1.0548  0.4862  1.5632
 8719SOL     OW37615   1.459   2.319   2.295  0.3647 -0.5964 -0.1511
 8719SOL    HW137616   1.432   2.276   2.376 -2.7470  0.8408 -0.4287
 8719SOL    HW237617   1.423   2.263   2.227 -1.1042  1.2060 -0.8747
 8720SOL     OW37618   2.672   0.168   3.473  0.3645 -0.6270  0.2395
 8720SOL    HW137619   2.618   0.236   3.513  0.5457 -0.6558  0.5329
 8720SOL    HW237620   2.739   0.147   3.538  0.2428 -0.8811  0.2811
 8721SOL     OW37621   1.965   0.551   0.017 -0.1154  0.0420  0.5714
 8721SOL    HW137622   2.033   0.485   0.029  0.7572  0.8412  0.0015
 8721SOL    HW237623   1.944   0.564  17.617 -0.9545 -1.5605  0.5241
 8722SOL     OW37624   0.916   3.957  11.485 -0.2588 -0.0689 -0.1443
 8722SOL    HW137625   0.995   3.977  11.436  0.7234 -0.4015  1.3065
 8722SOL    HW237626   0.876   3.880  11.444 -3.8012  1.7501 -0.1241
 8723SOL     OW37627   1.813   3.749  12.964  0.3552  0.0373  0.0921
 8723SOL    HW137628   1.832   3.828  12.913  2.0240 -0.3784  0.0904
 8723SOL    HW237629   1.879   3.688  12.932  0.5906  1.3447 -1.9189
 8724SOL     OW37630   1.967   0.533  10.836  0.0456  0.1666 -0.2646
 8724SOL    HW137631   2.010   0.453  10.804  1.5971  0.7912  0.2772
 8724SOL    HW237632   1.923   0.501  10.915  0.2349  1.6924  0.4591
 8725SOL     OW37633   1.660   2.307   2.952 -0.2674  0.3551  0.1063
 8725SOL    HW137634   1.699   2.392   2.930  1.3344 -0.6407 -0.9186
 8725SOL    HW237635   1.604   2.338   3.023  0.5782 -0.1691  1.0122
 8726SOL     OW37636   1.897   2.967   3.798  0.2233 -0.4501 -0.1181
 8726SOL    HW137637   1.930   2.923   3.876 -2.3165 -1.6953  0.2344
 8726SOL    HW237638   1.881   2.897   3.734  0.1972  0.6964 -1.3644
 8727SOL     OW37639   0.226   1.267   0.302 -0.0837  0.1732  0.6381
 8727SOL    HW137640   0.265   1.199   0.359 -1.2744 -2.0431 -1.1901
 8727SOL    HW237641   0.136   1.241   0.320 -0.6474  1.4468 -0.3712
 8728SOL     OW37642   1.833   4.647  12.713 -0.4677 -0.4220  0.3905
 8728SOL    HW137643   1.824   0.020  12.723 -0.5186 -0.3986  0.1222
 8728SOL    HW237644   1.744   4.620  12.735  0.0917 -2.3333  0.3171
 8729SOL     OW37645   2.945   0.136  13.224 -0.1920  0.3753 -0.2050
 8729SOL    HW137646   2.911   0.168  13.140 -0.1078  2.3139  0.4866
 8729SOL    HW237647   2.880   0.169  13.286  0.0560  1.4631 -0.5118
 8730SOL     OW37648   3.898   0.106  10.591 -0.0135 -0.2306  0.2356
 8730SOL    HW137649   3.845   0.124  10.669 -1.4751  0.1288 -0.8460
 8730SOL    HW237650   3.896   0.180  10.531  1.1036 -1.2295 -1.0155
 8731SOL     OW37651   0.570   3.585  15.937  0.4926 -0.0181  0.2092
 8731SOL    HW137652   0.554   3.636  15.858  0.3803 -0.4361 -0.0420
 8731SOL    HW237653   0.576   3.494  15.905  2.6350 -0.3776  1.5954
 8732SOL     OW37654   3.103   3.766   7.422 -0.3924 -0.3530  0.4499
 8732SOL    HW137655   3.026   3.711   7.408  0.3443 -0.9555 -1.3542
 8732SOL    HW237656   3.090   3.782   7.515 -1.4333  1.5139 -0.0226
 8733SOL     OW37657   3.536   0.877   1.399  0.2922  0.2288 -0.5239
 8733SOL    HW137658   3.539   0.925   1.481 -0.5698 -0.5383 -0.0381
 8733SOL    HW237659   3.535   0.784   1.423  3.1460  0.4404  0.3979
 8734SOL     OW37660   3.092   0.697   2.542  0.2698 -0.2359 -0.0496
 8734SOL    HW137661   3.098   0.714   2.448  2.9568  1.0347  0.3537
 8734SOL    HW237662   3.077   0.788   2.569  0.2290 -0.2059 -0.1747
 8735SOL     OW37663   2.369   2.245   6.183 -0.3478 -0.1431  0.0793
 8735SOL    HW137664   2.448   2.193   6.166  0.6779  1.4557 -0.0718
 8735SOL    HW237665   2.333   2.199   6.259  2.4586  0.3071  1.7015
 8736SOL     OW37666   0.021   2.999   3.406 -0.0950  0.2702 -0.1497
 8736SOL    HW137667   4.686   3.042   3.344  0.7266  1.2435 -0.2286
 8736SOL    HW237668   0.032   3.077   3.461  1.2050  0.1828 -0.2807
 8737SOL     OW37669   1.449   1.787   5.194  0.0185 -0.1085  0.0829
 8737SOL    HW137670   1.500   1.850   5.244 -2.4026  0.3933  1.9146
 8737SOL    HW237671   1.485   1.813   5.109 -0.2588  0.2028  0.0634
 8738SOL     OW37672   1.935   4.170  14.969  0.4424 -0.1181  0.0938
 8738SOL    HW137673   1.928   4.107  14.898 -0.0266 -2.7509  2.4745
 8738SOL    HW237674   1.903   4.249  14.926  0.7177  0.2361  0.5349
 8739SOL     OW37675   2.460   3.632   8.171 -0.2792  0.0151  0.8816
 8739SOL    HW137676   2.518   3.584   8.112  0.9285  1.4905  0.8491
 8739SOL    HW237677   2.484   3.725   8.166 -1.2978  0.1819 -0.9772
 8740SOL     OW37678   0.302   0.812   1.639  0.4135 -0.0831  0.4104
 8740SOL    HW137679   0.353   0.777   1.712  0.5848 -0.4649  0.1104
 8740SOL    HW237680   0.370   0.798   1.573  1.3158  1.7231  0.9461
 8741SOL     OW37681   2.901   2.608  16.239  0.6230 -0.0972 -0.4895
 8741SOL    HW137682   2.815   2.635  16.270  0.4155  0.3480 -1.4277
 8741SOL    HW237683   2.961   2.629  16.310  1.2237 -1.4513 -0.6091
 8742SOL     OW37684   3.607   4.331   6.087 -0.7094 -0.2955 -0.0121
 8742SOL    HW137685   3.515   4.345   6.066 -0.9498 -0.7119  0.7642
 8742SOL    HW237686   3.643   4.372   6.008  0.0661  0.7979  0.9131
 8743SOL     OW37687   4.586   0.456   7.716  0.4928 -0.1521 -0.3746
 8743SOL    HW137688   4.672   0.477   7.753  0.6497 -1.7255  0.1444
 8743SOL    HW237689   4.573   0.362   7.720 -1.0721  0.1514  1.8969
 8744SOL     OW37690   2.120   1.302   5.084 -0.1814 -0.2549 -0.3358
 8744SOL    HW137691   2.185   1.297   5.014  1.6064 -2.6052  1.4883
 8744SOL    HW237692   2.040   1.274   5.040 -1.1535  1.0735  0.5762
 8745SOL     OW37693   1.904   2.098   1.862 -0.3749  0.6347 -0.9007
 8745SOL    HW137694   1.821   2.140   1.883  1.1307  2.2752  1.6469
 8745SOL    HW237695   1.885   2.007   1.883  0.3295  0.7467  0.2212
 8746SOL     OW37696   4.480   0.756   8.323 -0.3301 -0.3752  0.0205
 8746SOL    HW137697   4.457   0.846   8.299  1.2376  0.6490  2.3957
 8746SOL    HW237698   4.575   0.755   8.331 -0.3921 -1.4683  0.6622
 8747SOL     OW37699   4.286   4.444   5.380  0.0806 -0.2583  0.1593
 8747SOL    HW137700   4.243   4.483   5.456  1.2083  2.9399 -0.8505
 8747SOL    HW237701   4.212   4.425   5.322  0.2844 -0.4579 -0.0384
 8748SOL     OW37702   4.409   1.919   7.278  0.3376  0.1341 -0.0973
 8748SOL    HW137703   4.404   2.014   7.273 -3.2936 -0.0580 -0.0780
 8748SOL    HW237704   4.318   1.889   7.274 -0.3013  2.0368  0.2204
 8749SOL     OW37705   3.533   2.987   8.390 -0.5096  0.3114 -0.0421
 8749SOL    HW137706   3.568   2.956   8.307 -1.3181 -0.2712 -0.1726
 8749SOL    HW237707   3.438   2.998   8.379 -0.7231 -3.1823 -1.4858
 8750SOL     OW37708   3.342   2.376   7.308  0.2674 -0.0257  0.0843
 8750SOL    HW137709   3.301   2.430   7.376 -0.7948 -0.6186 -0.0852
 8750SOL    HW237710   3.306   2.294   7.341  0.5158 -0.2684 -0.2495
 8751SOL     OW37711   0.546   0.878  16.361  0.2081 -0.5283 -0.1473
 8751SOL    HW137712   0.497   0.809  16.316  0.2746 -0.7852  0.1747
 8751SOL    HW237713   0.574   0.933  16.288  1.7417  0.4049  1.1431
 8752SOL     OW37714   3.022   0.868  14.726 -0.1880  0.2215  0.3460
 8752SOL    HW137715   2.994   0.955  14.697 -0.3377  0.2506  0.5816
 8752SOL    HW237716   3.005   0.825  14.642  0.5124  0.6475 -0.0193
 8753SOL     OW37717   4.544   1.329   6.387  0.5099 -0.6165 -0.0141
 8753SOL    HW137718   4.465   1.320   6.441  1.1011 -0.6347  0.8563
 8753SOL    HW237719   4.614   1.307   6.449 -0.4613 -2.1859  0.5494
 8754SOL     OW37720   2.295   0.729   6.831 -0.5547  0.5989  0.1156
 8754SOL    HW137721   2.307   0.709   6.924 -2.5285  0.0653  0.2650
 8754SOL    HW237722   2.218   0.785   6.838 -1.5967 -0.9780  1.3436
 8755SOL     OW37723   3.388   4.369   5.437  0.7191 -0.0522 -0.3014
 8755SOL    HW137724   3.405   4.378   5.343  0.2258 -2.3251 -0.5940
 8755SOL    HW237725   3.341   4.450   5.457 -1.6812 -1.2911 -0.8836
 8756SOL     OW37726   0.021   2.960   7.461  0.1485  0.0882  0.1978
 8756SOL    HW137727   0.112   2.957   7.431  0.4442  1.5791  0.9321
 8756SOL    HW237728   4.698   2.946   7.378  2.1905  0.4850 -0.9893
 8757SOL     OW37729   0.097   4.091  16.022  0.0836 -0.3068 -0.6869
 8757SOL    HW137730   0.162   4.144  16.069  0.0288 -1.2958  0.5133
 8757SOL    HW237731   0.151   4.063  15.949  2.7626  0.2417  1.0759
 8758SOL     OW37732   4.652   4.207  10.376  0.4344  0.7384  0.1867
 8758SOL    HW137733   4.597   4.280  10.349 -0.7152  0.5620  2.0836
 8758SOL    HW237734   0.009   4.211  10.323  0.8311  0.1779  0.7341
 8759SOL     OW37735   3.461   4.395   2.054  0.0379 -0.6413 -0.5152
 8759SOL    HW137736   3.445   4.401   1.960 -1.1069  0.6099 -0.2438
 8759SOL    HW237737   3.542   4.344   2.061  0.3948  0.0002  0.1019
 8760SOL     OW37738   1.256   3.457   6.442 -0.6587  0.2412  0.9718
 8760SOL    HW137739   1.225   3.373   6.478  0.7952  0.1592  1.9943
 8760SOL    HW237740   1.174   3.488   6.403 -0.3915 -1.0454 -0.6604
 8761SOL     OW37741   3.178   3.255   3.753  0.2711  0.3579  0.4986
 8761SOL    HW137742   3.164   3.323   3.818 -0.0506  1.5792 -0.8441
 8761SOL    HW237743   3.272   3.237   3.756  0.5710  1.7660 -0.3759
 8762SOL     OW37744   4.195   3.939   6.577  0.7258  0.0959 -0.1075
 8762SOL    HW137745   4.103   3.917   6.592  1.1967 -0.3431  2.1742
 8762SOL    HW237746   4.194   3.929   6.482 -0.5475 -2.2407  0.1420
 8763SOL     OW37747   3.145   2.385   3.281 -0.0783 -0.1641  0.2414
 8763SOL    HW137748   3.114   2.349   3.364 -0.0209 -0.2509  0.2248
 8763SOL    HW237749   3.240   2.396   3.288 -0.1597  1.8039 -1.6328
 8764SOL     OW37750   1.958   3.517   7.263 -0.3861 -0.0471 -0.5334
 8764SOL    HW137751   1.882   3.525   7.205 -0.2626  2.4096 -0.3559
 8764SOL    HW237752   1.927   3.580   7.328  1.0507 -0.1979  0.2956
 8765SOL     OW37753   0.043   2.993   8.383 -0.0423  0.3379 -0.1464
 8765SOL    HW137754   0.067   2.918   8.437 -1.0836 -0.6126 -1.0328
 8765SOL    HW237755   4.720   3.046   8.448 -0.7373 -0.5593  0.0919
 8766SOL     OW37756   0.009   2.241  14.718  0.4195  0.3164 -0.0575
 8766SOL    HW137757   4.691   2.220  14.802  0.2921 -0.3444 -0.2824
 8766SOL    HW237758   4.690   2.325  14.702 -2.1235 -0.4024  2.8635
 8767SOL     OW37759   3.701   3.699   5.460  0.1555 -0.0721  0.0593
 8767SOL    HW137760   3.640   3.762   5.422 -1.3003 -1.7909 -0.4450
 8767SOL    HW237761   3.680   3.626   5.402 -0.7941 -0.9445  1.5093
 8768SOL     OW37762   2.491   2.815  13.878  0.2532 -0.5386  0.2222
 8768SOL    HW137763   2.564   2.855  13.924  0.4354 -1.1964  0.4972
 8768SOL    HW237764   2.496   2.723  13.903  0.4689 -0.9010 -1.1523
 8769SOL     OW37765   1.880   0.652  10.585 -0.1121 -0.6389 -0.4263
 8769SOL    HW137766   1.847   0.562  10.577 -0.5514 -0.6375  1.3027
 8769SOL    HW237767   1.896   0.652  10.679 -2.0702 -0.8450 -0.0894
 8770SOL     OW37768   3.431   3.673   1.262  0.4361  0.5589 -0.1532
 8770SOL    HW137769   3.438   3.636   1.174 -2.5819 -0.4082  0.0023
 8770SOL    HW237770   3.521   3.701   1.276  0.3208  1.4229 -1.1630
 8771SOL     OW37771   2.455   1.295   9.177  0.1593 -0.7610 -0.4181
 8771SOL    HW137772   2.394   1.338   9.238  1.5501 -0.0083  0.4354
 8771SOL    HW237773   2.464   1.210   9.220  1.4568 -1.1051 -1.3703
 8772SOL     OW37774   0.461   2.088   2.509  0.3289  0.1075 -0.3087
 8772SOL    HW137775   0.407   2.038   2.570  1.1208  0.7113  0.8856
 8772SOL    HW237776   0.534   2.127   2.558  1.0620 -0.8831 -0.6117
 8773SOL     OW37777   1.010   2.214   0.286  0.0886 -0.0243  0.6173
 8773SOL    HW137778   0.965   2.200   0.369 -1.0083  0.1330  0.0475
 8773SOL    HW237779   0.973   2.149   0.227 -1.0928  2.5414 -1.5005
 8774SOL     OW37780   4.264   3.900  12.276 -0.4402 -0.4043  0.9986
 8774SOL    HW137781   4.197   3.855  12.328 -1.6846  0.2115 -0.0707
 8774SOL    HW237782   4.327   3.933  12.340  0.2364 -2.0998  1.1950
 8775SOL     OW37783   0.098   0.100   3.970  0.1970  0.4360 -0.2085
 8775SOL    HW137784   0.099   0.038   3.896 -0.8447 -2.7552  2.4565
 8775SOL    HW237785   0.004   0.119   3.970  0.1710  0.2577  1.1004
 8776SOL     OW37786   2.369   0.985   9.035  0.1242 -0.4885  0.3381
 8776SOL    HW137787   2.296   1.046   9.025  0.9237  0.2667 -0.8524
 8776SOL    HW237788   2.393   0.995   9.127 -0.7650  1.8855  0.3217
 8777SOL     OW37789   4.322   0.334   8.669 -0.2800  0.1353  0.2869
 8777SOL    HW137790   4.298   0.296   8.585  1.5661  0.7902 -0.5501
 8777SOL    HW237791   4.279   0.277   8.732 -0.0713  0.6197  0.8657
 8778SOL     OW37792   3.672   2.947   0.972 -0.5060 -0.0596  0.2987
 8778SOL    HW137793   3.726   3.016   1.011  1.2092 -0.8097 -0.7666
 8778SOL    HW237794   3.739   2.883   0.947 -0.0834  0.7430 -0.5817
 8779SOL     OW37795   2.919   1.970   8.487 -0.2830  0.2058  1.0748
 8779SOL    HW137796   2.977   2.045   8.503 -2.4376  2.1351 -0.1289
 8779SOL    HW237797   2.983   1.901   8.471 -0.8552  0.3643 -1.8870
 8780SOL     OW37798   1.014   3.264  16.273  0.2703 -0.5312  0.5620
 8780SOL    HW137799   0.944   3.328  16.281  0.3995 -0.1668 -1.2161
 8780SOL    HW237800   1.090   3.315  16.302  0.9732 -0.0595 -2.0606
 8781SOL     OW37801   1.609   0.286  15.417 -0.1584 -0.1492 -0.0952
 8781SOL    HW137802   1.587   0.366  15.370  1.8282  2.0401  2.7627
 8781SOL    HW237803   1.549   0.236  15.361 -1.4763  0.0090  1.1866
 8782SOL     OW37804   2.588   2.854   6.966  0.0968 -0.3454  0.0077
 8782SOL    HW137805   2.493   2.848   6.966  0.1942 -1.8684 -0.1316
 8782SOL    HW237806   2.593   2.899   6.881  0.3110 -0.4501 -0.0358
 8783SOL     OW37807   2.474   3.091   7.911 -0.4722 -0.1146  0.2086
 8783SOL    HW137808   2.384   3.123   7.918 -0.0159  1.4809 -1.1353
 8783SOL    HW237809   2.501   3.112   8.001  0.1380  0.4046 -0.0911
 8784SOL     OW37810   4.550   1.576   9.953  0.4380 -0.8829  0.3156
 8784SOL    HW137811   4.478   1.528   9.993  0.7849 -2.6260 -1.1908
 8784SOL    HW237812   4.627   1.530   9.988  0.5145  1.2868  3.0893
 8785SOL     OW37813   1.368   2.431   3.675  0.6514  0.2067 -0.1180
 8785SOL    HW137814   1.351   2.345   3.715 -0.5517  0.8244  0.6761
 8785SOL    HW237815   1.301   2.485   3.715  0.5989  0.5775 -0.7058
 8786SOL     OW37816   1.987   2.025   3.823 -0.4256  0.1184  0.3338
 8786SOL    HW137817   2.024   1.946   3.782 -0.4581 -0.6297  1.7342
 8786SOL    HW237818   2.063   2.083   3.818  0.8523 -1.8148 -2.6144
 8787SOL     OW37819   0.017   2.516   6.761 -0.0430  0.9304 -0.3945
 8787SOL    HW137820   4.659   2.514   6.814  1.1881 -1.8788  1.3537
 8787SOL    HW237821   0.001   2.439   6.708  1.6214 -0.8148  1.6466
 8788SOL     OW37822   2.300   4.149   7.971 -0.7126  0.7149  0.3058
 8788SOL    HW137823   2.252   4.180   8.048  1.9886  2.0405  1.4927
 8788SOL    HW237824   2.336   4.231   7.937 -0.7568 -0.1039 -1.6653
 8789SOL     OW37825   2.691   1.763   4.322 -0.3730 -0.4674 -0.4842
 8789SOL    HW137826   2.700   1.749   4.228  0.0331  2.0310 -0.8195
 8789SOL    HW237827   2.621   1.702   4.348 -0.1207 -0.5643 -0.0374
 8790SOL     OW37828   2.966   2.895   5.304  0.5065  0.2774 -0.0180
 8790SOL    HW137829   2.899   2.943   5.351  0.0054 -1.2748  0.8594
 8790SOL    HW237830   2.918   2.872   5.224 -0.7938 -3.2591  1.7813
 8791SOL     OW37831   1.269   4.591   4.766 -0.1822 -0.1188  0.0451
 8791SOL    HW137832   1.268   4.496   4.780 -2.5900 -0.4891 -2.5981
 8791SOL    HW237833   1.350   4.600   4.716  1.0435 -0.1490  2.0423
 8792SOL     OW37834   3.143   1.686   0.005 -0.2505  0.2641  0.2911
 8792SOL    HW137835   3.056   1.648   0.020 -0.1475  0.8888  2.4582
 8792SOL    HW237836   3.171   1.721   0.089 -0.8144  0.4307  0.4127
 8793SOL     OW37837   4.554   2.980  14.861  0.0790 -0.0905  0.5967
 8793SOL    HW137838   4.616   2.936  14.920  2.5207  0.8204 -1.3037
 8793SOL    HW237839   4.487   2.912  14.853  0.7211 -0.3835 -2.2417
 8794SOL     OW37840   3.002   1.517   0.820  0.0646 -0.0927  0.0975
 8794SOL    HW137841   2.920   1.486   0.782 -0.6925  0.3983  1.3149
 8794SOL    HW237842   2.991   1.612   0.832 -0.7914 -0.3381  1.3847
 8795SOL     OW37843   0.137   2.581   3.540  0.1773  0.2458 -0.2725
 8795SOL    HW137844   0.142   2.605   3.448  1.2309 -0.2172 -0.3440
 8795SOL    HW237845   0.043   2.586   3.557  0.2206  1.2245 -0.3441
 8796SOL     OW37846   3.609   3.552   6.151  0.0508  0.1749 -0.2440
 8796SOL    HW137847   3.604   3.645   6.132  1.1584  0.2096 -0.3526
 8796SOL    HW237848   3.594   3.517   6.063  0.8283 -0.5790 -0.0784
 8797SOL     OW37849   1.215   2.219   9.763  0.4926 -0.8760  0.0093
 8797SOL    HW137850   1.228   2.160   9.689  1.8859 -0.6295  0.0702
 8797SOL    HW237851   1.161   2.165   9.821  3.6205 -3.0681  0.8448
 8798SOL     OW37852   3.834   3.171   4.833 -0.0264 -0.1687  0.1178
 8798SOL    HW137853   3.749   3.134   4.859  1.3708 -1.1129  3.3541
 8798SOL    HW237854   3.810   3.222   4.756  0.0035  0.1764  0.3338
 8799SOL     OW37855   3.340   2.609  12.387 -0.0099  0.3628  0.1734
 8799SOL    HW137856   3.278   2.652  12.329  2.1446  0.4765 -2.0625
 8799SOL    HW237857   3.399   2.588  12.315 -1.3994 -0.5081 -0.7099
 8800SOL     OW37858   0.074   1.542  10.183  0.0130 -0.0237  0.2615
 8800SOL    HW137859   0.104   1.632  10.195 -3.2987  1.1194 -0.0406
 8800SOL    HW237860   0.153   1.490  10.171  1.5675  2.1711  1.1489
 8801SOL     OW37861   0.085   1.947   8.869  0.5691 -0.5563 -0.6754
 8801SOL    HW137862   0.178   1.926   8.873  0.5424 -0.3589  1.2226
 8801SOL    HW237863   0.084   2.041   8.890  0.5319 -0.6800 -0.1190
 8802SOL     OW37864   4.366   4.333   6.827 -0.5925  0.7068 -0.1903
 8802SOL    HW137865   4.414   4.258   6.861  0.2173  1.6399  0.7293
 8802SOL    HW237866   4.429   4.398   6.794  2.0430 -2.4020 -1.2654
 8803SOL     OW37867   4.215   1.910   7.541  0.4754 -0.1811 -0.0130
 8803SOL    HW137868   4.305   1.938   7.559  0.4440  0.6386 -1.1057
 8803SOL    HW237869   4.223   1.825   7.583  2.2919  1.0184  2.1242
 8804SOL     OW37870   0.248   1.155  10.077 -0.0836 -0.2718  0.6095
 8804SOL    HW137871   0.252   1.194  10.164 -1.0127 -0.5567  0.7767
 8804SOL    HW237872   0.338   1.141  10.048 -0.3692  0.7350 -0.8202
 8805SOL     OW37873   0.692   3.510   3.140 -0.0058 -0.1970 -0.2414
 8805SOL    HW137874   0.622   3.469   3.088 -1.1166 -0.5033  1.4971
 8805SOL    HW237875   0.675   3.507   3.234  2.2437 -1.0660  0.1176
 8806SOL     OW37876   2.190   1.768  15.206 -0.2234  0.4707 -0.6045
 8806SOL    HW137877   2.103   1.806  15.193 -0.4333 -0.6131 -2.3291
 8806SOL    HW237878   2.162   1.676  15.198  1.2388  0.2328 -3.1264
 8807SOL     OW37879   4.461   4.227   3.562  0.2964  0.1561  0.7397
 8807SOL    HW137880   4.372   4.230   3.528 -0.0046 -0.5792  1.4671
 8807SOL    HW237881   4.477   4.135   3.543  2.2892  0.8873 -1.0301
 8808SOL     OW37882   4.044   1.940   0.824  0.4197  0.2229  0.0052
 8808SOL    HW137883   4.026   1.950   0.918 -1.6561  3.0947 -0.6852
 8808SOL    HW237884   3.969   1.894   0.787  0.4685  0.6279 -0.6002
 8809SOL     OW37885   3.147   3.756   3.156 -0.3316  0.0981 -0.6688
 8809SOL    HW137886   3.052   3.747   3.163 -0.5163  1.3632 -1.5634
 8809SOL    HW237887   3.169   3.687   3.094 -1.7282  0.7612 -1.9119
 8810SOL     OW37888   4.571   2.027  10.956  0.4902  0.3561  0.2002
 8810SOL    HW137889   4.516   2.100  10.928 -0.5079  0.1738  1.6464
 8810SOL    HW237890   4.602   1.980  10.879 -0.3430 -1.6267  1.0664
 8811SOL     OW37891   2.126   1.269   7.342 -0.0731  1.1988 -0.1602
 8811SOL    HW137892   2.141   1.239   7.431 -1.5270  1.8661  0.3064
 8811SOL    HW237893   2.031   1.262   7.327  0.1082  0.4466 -0.9703
 8812SOL     OW37894   3.588   3.417   4.732  0.2187 -0.3736  0.3629
 8812SOL    HW137895   3.619   3.425   4.642 -0.2087 -1.2391  0.1369
 8812SOL    HW237896   3.664   3.447   4.781 -0.0969 -1.4310  1.4936
 8813SOL     OW37897   2.571   4.119   3.122  0.8073 -0.1186 -0.2586
 8813SOL    HW137898   2.589   4.172   3.044  1.0410  0.5526  0.2523
 8813SOL    HW237899   2.478   4.111   3.103  1.3172 -0.1783 -2.7703
 8814SOL     OW37900   4.337   2.409  17.061  0.0570 -0.1538  0.8493
 8814SOL    HW137901   4.252   2.454  17.054  0.7689  1.0423 -0.0094
 8814SOL    HW237902   4.319   2.318  17.040  0.0638 -0.1931  1.0153
 8815SOL     OW37903   0.215   1.084   9.096  0.4082 -0.3256 -0.4405
 8815SOL    HW137904   0.282   1.093   9.029 -0.6611  0.5073 -1.3958
 8815SOL    HW237905   0.182   0.995   9.083 -0.8972 -0.1088  1.3669
 8816SOL     OW37906   1.917   1.540   6.518  0.1161 -0.0609  0.5740
 8816SOL    HW137907   1.830   1.579   6.509  0.8460  1.2097 -1.0256
 8816SOL    HW237908   1.919   1.464   6.459  0.6631 -0.0768  0.6180
 8817SOL     OW37909   0.930   4.454  15.478 -0.7109  0.4784 -0.2473
 8817SOL    HW137910   0.955   4.515  15.548  2.7809  0.0961 -1.1849
 8817SOL    HW237911   0.874   4.393  15.527 -1.5689  1.1917 -0.3253
 8818SOL     OW37912   4.156   2.666   1.632 -0.3855 -0.4377  0.3685
 8818SOL    HW137913   4.142   2.647   1.539 -3.0369  0.7546  0.5270
 8818SOL    HW237914   4.182   2.580   1.664  3.9106  1.0060  0.7171
 8819SOL     OW37915   3.138   1.807   5.046  0.3832  0.0646 -0.3612
 8819SOL    HW137916   3.078   1.773   4.980 -0.3935 -0.0631  0.4197
 8819SOL    HW237917   3.084   1.870   5.093 -0.6142 -1.4363  0.4816
 8820SOL     OW37918   1.814   0.604  11.633  0.5071 -0.0512 -0.0400
 8820SOL    HW137919   1.795   0.542  11.704  1.5186  1.1865  1.3076
 8820SOL    HW237920   1.898   0.637  11.664  1.2501 -1.4951 -0.4867
 8821SOL     OW37921   3.959   3.886  13.264  0.3955 -0.0133 -0.0146
 8821SOL    HW137922   4.039   3.871  13.314 -0.9984 -2.8615  1.3854
 8821SOL    HW237923   3.949   3.801  13.220  0.1504  0.3822 -0.7329
 8822SOL     OW37924   3.988   0.820  12.162 -0.2089 -0.0940 -0.0150
 8822SOL    HW137925   4.012   0.880  12.092 -1.0665 -0.4019 -0.5683
 8822SOL    HW237926   4.002   0.872  12.241 -0.9873  0.8166 -0.4786
 8823SOL     OW37927   4.016   2.611   6.145 -0.2129  0.3671 -0.1826
 8823SOL    HW137928   4.013   2.707   6.142 -1.2294  0.3190 -0.8059
 8823SOL    HW237929   3.934   2.593   6.099  0.4833 -2.0540 -0.4639
 8824SOL     OW37930   3.133   3.629  17.332  0.2259  0.6809  0.3052
 8824SOL    HW137931   3.095   3.582  17.407 -1.4390  1.3180 -0.1307
 8824SOL    HW237932   3.223   3.632  17.364  1.2014 -0.3023 -2.3361
 8825SOL     OW37933   2.956   0.772  14.475 -0.1908  0.2894 -0.8447
 8825SOL    HW137934   2.907   0.850  14.452 -1.0677  0.5627  1.9419
 8825SOL    HW237935   2.888   0.705  14.484 -0.1751  0.2495 -1.0263
 8826SOL     OW37936   2.200   4.053   6.597 -0.5701 -0.4795  0.2679
 8826SOL    HW137937   2.243   3.980   6.552  2.4616  0.3810  1.8380
 8826SOL    HW237938   2.157   4.006   6.668 -1.2348 -0.0475  0.1574
 8827SOL     OW37939   1.822   0.050   5.869 -0.0275 -0.1611 -0.4596
 8827SOL    HW137940   1.780   0.117   5.815 -0.3785 -3.0685 -3.7800
 8827SOL    HW237941   1.776   4.695   5.836  2.1831 -1.7465  0.2181
 8828SOL     OW37942   1.555   4.435   8.030  0.2857 -0.2404 -0.4521
 8828SOL    HW137943   1.507   4.489   7.967 -1.0055  1.4790  2.0419
 8828SOL    HW237944   1.637   4.422   7.982  0.4704 -0.7267  0.0012
 8829SOL     OW37945   2.044   4.444   3.372  0.2583  0.5350 -0.7017
 8829SOL    HW137946   2.084   4.449   3.286  1.4818  0.8303 -0.1119
 8829SOL    HW237947   2.124   4.439   3.424 -0.9435 -0.3492  1.0412
 8830SOL     OW37948   1.392   2.022  10.356 -0.2470  0.0502  0.1960
 8830SOL    HW137949   1.432   2.089  10.301  0.3813 -1.8809 -1.6828
 8830SOL    HW237950   1.340   1.981  10.287  0.2432 -1.1062  0.5248
 8831SOL     OW37951   4.045   1.639   7.136 -0.2367  0.0879  0.2451
 8831SOL    HW137952   4.022   1.593   7.217  0.4808  0.6525  0.7714
 8831SOL    HW237953   4.140   1.636   7.123 -0.1645 -0.2910  0.8625
 8832SOL     OW37954   2.826   3.260  15.118  0.4952 -0.0074  0.1174
 8832SOL    HW137955   2.842   3.237  15.209 -1.2907  2.2238  0.9934
 8832SOL    HW237956   2.845   3.172  15.085  0.5388 -0.5162  1.5246
 8833SOL     OW37957   1.012   1.075   6.560  0.2741 -0.2905  0.1091
 8833SOL    HW137958   1.102   1.058   6.534  0.8931  2.4201  0.5582
 8833SOL    HW237959   0.958   1.097   6.483  1.2071 -0.0470 -0.4768
 8834SOL     OW37960   1.022   3.100   7.471 -0.2855  0.2449 -0.2513
 8834SOL    HW137961   1.062   3.186   7.482 -0.5239  0.4383 -0.8762
 8834SOL    HW237962   1.035   3.068   7.560 -2.6046  2.3830  0.8602
 8835SOL     OW37963   2.991   3.888  16.189  0.1525 -0.5835  0.5871
 8835SOL    HW137964   2.959   3.882  16.099  2.1903 -1.2359 -0.0862
 8835SOL    HW237965   2.927   3.840  16.241  0.2374  0.4029  1.6180
 8836SOL     OW37966   4.372   3.609   8.370 -0.2117  0.2086 -0.5204
 8836SOL    HW137967   4.357   3.653   8.453  1.4933  0.6320 -0.4313
 8836SOL    HW237968   4.354   3.515   8.382  1.5517 -0.2253 -1.2368
 8837SOL     OW37969   1.869   2.765  12.600 -0.6152 -0.0763  0.0104
 8837SOL    HW137970   1.869   2.854  12.567  2.9396  0.5331  1.6429
 8837SOL    HW237971   1.835   2.718  12.524 -2.4187 -0.5550  1.1082
 8838SOL     OW37972   0.701   2.297   1.381  0.1032 -0.2733 -0.1682
 8838SOL    HW137973   0.684   2.278   1.474  0.3934  0.9803  0.1439
 8838SOL    HW237974   0.625   2.355   1.377 -0.4162 -0.8831  0.9204
 8839SOL     OW37975   1.170   1.840  17.205  0.2583 -0.0331  0.3140
 8839SOL    HW137976   1.237   1.796  17.257 -0.1409  0.2778  1.0984
 8839SOL    HW237977   1.207   1.927  17.188  1.0011 -0.4246 -0.0407
 8840SOL     OW37978   3.425   3.526   7.433  0.0954 -0.6018 -0.1330
 8840SOL    HW137979   3.437   3.495   7.523 -0.6494  0.1513  0.2243
 8840SOL    HW237980   3.516   3.538   7.407  0.0681 -0.8046 -0.3185
 8841SOL     OW37981   2.167   4.354   2.890  0.9116 -1.0395 -0.4469
 8841SOL    HW137982   2.165   4.400   2.973 -1.7989 -1.5118 -0.2375
 8841SOL    HW237983   2.234   4.399   2.839  2.6618  0.9319  3.6404
 8842SOL     OW37984   0.475   3.273   4.227 -0.1569  0.0362 -0.6235
 8842SOL    HW137985   0.489   3.260   4.133  0.6085 -1.6057 -0.2875
 8842SOL    HW237986   0.427   3.356   4.225  0.8931  0.6428 -0.8968
 8843SOL     OW37987   1.316   0.030  16.867  0.5214  0.3684 -0.0854
 8843SOL    HW137988   1.221   0.019  16.863  0.7091 -1.6784  1.0938
 8843SOL    HW237989   1.336   4.698  16.790 -0.8420 -2.0588  1.2915
 8844SOL     OW37990   4.172   0.441   2.137  0.3842  0.8254  0.2670
 8844SOL    HW137991   4.125   0.461   2.056 -1.7661 -1.0936  1.0612
 8844SOL    HW237992   4.255   0.409   2.102  0.6626  1.6891  0.1280
 8845SOL     OW37993   0.834   2.809   0.044  0.0955 -0.1941 -0.2983
 8845SOL    HW137994   0.875   2.884   0.088 -2.5395  0.1943  1.5001
 8845SOL    HW237995   0.793   2.853  17.662 -1.1882 -0.1134  0.4643
 8846SOL     OW37996   1.402   0.508   3.821  0.1927  0.3850 -0.0721
 8846SOL    HW137997   1.355   0.518   3.738  1.1574  0.6874 -0.5777
 8846SOL    HW237998   1.331   0.526   3.883  0.5086 -2.6251  1.1405
 8847SOL     OW37999   3.471   0.840   6.017  0.3754 -0.0106 -0.8945
 8847SOL    HW138000   3.508   0.754   6.038  1.7588  0.7445 -0.2644
 8847SOL    HW238001   3.541   0.896   6.050  0.3577 -0.9729  0.7512
 8848SOL     OW38002   0.473   1.889   0.103 -0.6423  0.1758 -0.5118
 8848SOL    HW138003   0.499   1.929   0.186 -0.9776  0.2784 -0.4565
 8848SOL    HW238004   0.556   1.849   0.078  0.1196  0.8678  0.8946
 8849SOL     OW38005   2.939   2.759  11.521  0.0911 -0.0618  0.2248
 8849SOL    HW138006   2.911   2.843  11.486 -0.3315 -0.4047 -0.2602
 8849SOL    HW238007   2.902   2.696  11.458 -0.3907 -0.7115  1.1505
 8850SOL     OW38008   3.632   2.369   6.512 -0.1183 -0.4619  0.5737
 8850SOL    HW138009   3.675   2.443   6.554  1.4124 -0.5599 -0.7979
 8850SOL    HW238010   3.652   2.305   6.581 -1.0365 -1.5133 -0.1396
 8851SOL     OW38011   1.025   0.312   2.189  0.0111  0.5951 -0.1515
 8851SOL    HW138012   0.935   0.283   2.206  0.8317 -1.4934  0.5979
 8851SOL    HW238013   1.080   0.247   2.233  0.8942  1.8970  0.6507
 8852SOL     OW38014   2.604   0.399   6.078  0.5247  0.2326  0.2906
 8852SOL    HW138015   2.569   0.384   6.166 -2.8977 -1.6867 -1.4096
 8852SOL    HW238016   2.601   0.310   6.042  0.8988  0.5013 -0.3839
 8853SOL     OW38017   1.717   4.593  13.774  0.2598 -0.4091  0.1348
 8853SOL    HW138018   1.694   4.527  13.839 -1.3821 -0.9457 -1.0034
 8853SOL    HW238019   1.684   4.676  13.807 -1.0332 -0.6865 -0.4660
 8854SOL     OW38020   4.335   0.680  16.204  0.3603  0.0218 -0.1495
 8854SOL    HW138021   4.375   0.712  16.124 -1.0517 -2.6935 -1.9204
 8854SOL    HW238022   4.245   0.692  16.176  0.6074  1.0058 -0.5042
 8855SOL     OW38023   2.779   4.163   7.571  0.1046 -0.0255 -0.0197
 8855SOL    HW138024   2.837   4.220   7.520 -4.0839  1.6297 -2.9708
 8855SOL    HW238025   2.821   4.078   7.562  2.2804  1.1279 -0.7904
 8856SOL     OW38026   3.819   1.721   4.565 -0.5048  0.6383 -0.0797
 8856SOL    HW138027   3.744   1.662   4.571  1.5830 -2.0910 -0.8107
 8856SOL    HW238028   3.875   1.689   4.636  0.5019  0.4527 -0.9500
 8857SOL     OW38029   4.438   0.481   6.560  0.0340  0.0111 -0.4504
 8857SOL    HW138030   4.509   0.438   6.608 -1.4806 -0.3756  1.4575
 8857SOL    HW238031   4.473   0.567   6.534 -1.2684  1.0186  1.1198
 8858SOL     OW38032   0.762   1.695  15.200  0.3144  0.3567  0.3100
 8858SOL    HW138033   0.776   1.692  15.105  0.5601 -0.4277  0.3678
 8858SOL    HW238034   0.834   1.646  15.239 -0.5849  0.0291  1.5744
 8859SOL     OW38035   1.358   0.241   8.469 -0.7996  0.2712 -0.0868
 8859SOL    HW138036   1.401   0.159   8.442  0.7844  1.6614 -1.7900
 8859SOL    HW238037   1.428   0.289   8.513 -2.9118  1.1009  2.3570
 8860SOL     OW38038   3.143   2.331   8.919  0.4204  0.3137 -0.5305
 8860SOL    HW138039   3.079   2.265   8.892  0.5936 -0.5177  1.0364
 8860SOL    HW238040   3.226   2.286   8.901 -0.2241 -0.6266 -1.1513
 8861SOL     OW38041   1.549   2.553   6.400  0.1990  0.4811 -0.0317
 8861SOL    HW138042   1.586   2.618   6.460 -0.1265 -0.8884  1.6474
 8861SOL    HW238043   1.502   2.490   6.454 -1.2549  0.0895 -1.7633
 8862SOL     OW38044   1.269   4.237  12.853  0.6458 -0.5378 -0.1751
 8862SOL    HW138045   1.349   4.196  12.885  0.8972 -0.1460 -0.2986
 8862SOL    HW238046   1.243   4.287  12.931  1.5335 -1.5685  0.7830
 8863SOL     OW38047   3.328   0.260   6.549  0.0175 -0.1438  0.8088
 8863SOL    HW138048   3.309   0.349   6.518  0.8662 -0.9356 -1.9604
 8863SOL    HW238049   3.241   0.230   6.575 -0.5172  2.4743  2.0661
 8864SOL     OW38050   3.067   2.182   4.204 -0.1543 -0.6804 -0.2330
 8864SOL    HW138051   3.065   2.225   4.119 -0.8945  1.4700  0.8920
 8864SOL    HW238052   3.149   2.131   4.202  0.6387  0.6009 -0.2946
 8865SOL     OW38053   4.357   4.478   4.214 -0.5377 -0.1802  0.6213
 8865SOL    HW138054   4.424   4.417   4.244  0.1974  1.5513  2.4888
 8865SOL    HW238055   4.286   4.415   4.202 -2.4389  2.4736 -2.2632
 8866SOL     OW38056   2.009   3.035   1.075 -0.0554  0.0320 -0.5073
 8866SOL    HW138057   1.980   2.944   1.070 -0.3086 -0.0624  2.6593
 8866SOL    HW238058   1.949   3.075   1.138  1.7612  1.5781  0.2460
 8867SOL     OW38059   0.318   1.675   1.557 -0.3213  0.3181  0.3123
 8867SOL    HW138060   0.366   1.673   1.474 -0.8913  0.9468 -0.0270
 8867SOL    HW238061   0.231   1.636   1.543 -0.3423  1.5967 -3.0295
 8868SOL     OW38062   4.151   4.523   3.064 -0.4842  0.0378  0.2224
 8868SOL    HW138063   4.245   4.510   3.078 -0.2301 -1.5286 -2.9230
 8868SOL    HW238064   4.143   4.613   3.032  2.8105  0.3572  0.2193
 8869SOL     OW38065   2.908   0.328  15.288 -0.7801 -0.4819 -0.1103
 8869SOL    HW138066   2.873   0.255  15.238  0.1735 -1.9228  1.3519
 8869SOL    HW238067   2.850   0.401  15.264 -0.3981 -0.1195  0.0635
 8870SOL     OW38068   3.814   0.592   6.183  0.5918 -0.3180  0.5699
 8870SOL    HW138069   3.887   0.640   6.221  0.0125  0.1612  1.0710
 8870SOL    HW238070   3.860   0.526   6.132  3.4083  0.4599  2.1411
 8871SOL     OW38071   0.598   3.193   4.706  0.1481  0.7906  0.0968
 8871SOL    HW138072   0.625   3.227   4.621 -3.1239 -0.3986 -1.4364
 8871SOL    HW238073   0.658   3.120   4.719  1.7173  2.0001 -0.2992
 8872SOL     OW38074   2.765   3.100   4.641  0.2275  0.1020  0.0043
 8872SOL    HW138075   2.681   3.143   4.627 -0.0670 -0.7361 -0.8454
 8872SOL    HW238076   2.769   3.062   4.729 -0.4505 -0.7865 -0.3526
 8873SOL     OW38077   1.344   3.040   8.122  0.2837 -0.1905 -0.0471
 8873SOL    HW138078   1.252   3.063   8.118  0.7500  1.6455  0.0308
 8873SOL    HW238079   1.366   3.089   8.201 -1.2288 -0.1760  0.3528
 8874SOL     OW38080   0.745   2.028  17.149 -0.2158  0.0383 -0.0535
 8874SOL    HW138081   0.669   1.970  17.139 -0.3528  0.2337 -0.1391
 8874SOL    HW238082   0.710   2.090  17.085 -0.8527 -0.7256 -0.4489
 8875SOL     OW38083   4.560   1.738   5.855  0.5298  0.5580 -0.1051
 8875SOL    HW138084   4.582   1.824   5.890  1.5132 -0.3663  1.5494
 8875SOL    HW238085   4.495   1.753   5.786 -1.1492 -1.7485  0.9587
 8876SOL     OW38086   0.062   1.636   2.064  0.2273  0.0295  0.3403
 8876SOL    HW138087   0.038   1.729   2.073  1.2998  0.3776 -0.3303
 8876SOL    HW238088   0.063   1.621   1.969  0.0202 -0.2220  0.3785
 8877SOL     OW38089   4.406   0.108   1.903  0.1650  0.2158  0.4071
 8877SOL    HW138090   4.429   0.185   1.956 -0.1755  1.9027 -1.9121
 8877SOL    HW238091   4.335   0.149   1.854 -0.6542 -1.6331  0.0489
 8878SOL     OW38092   0.059   2.098   0.778 -0.1107 -0.0357  0.1087
 8878SOL    HW138093   0.001   2.151   0.833  2.3288  0.8667  1.8267
 8878SOL    HW238094   0.020   2.104   0.691 -1.9202 -2.3159  0.7702
 8879SOL     OW38095   2.874   1.688   8.307 -0.0131  0.1952  0.0118
 8879SOL    HW138096   2.871   1.679   8.402 -1.3898 -0.0067 -0.0497
 8879SOL    HW238097   2.782   1.663   8.298  0.5049 -1.4913 -0.4317
 8880SOL     OW38098   4.616   0.468   2.150  0.2455  0.1021 -0.0105
 8880SOL    HW138099   4.672   0.545   2.145  0.3538  0.0497  0.3586
 8880SOL    HW238100   4.644   0.438   2.237 -0.7436 -1.9801 -0.4048
 8881SOL     OW38101   4.075   3.700  12.312  0.5858 -0.3020 -0.0036
 8881SOL    HW138102   4.117   3.613  12.311  1.9477  0.3531 -0.5287
 8881SOL    HW238103   3.987   3.667  12.330  0.1672  1.2910  0.8390
 8882SOL     OW38104   3.942   0.246  14.206 -0.4843  0.5756  0.0733
 8882SOL    HW138105   3.916   0.245  14.114  0.9076 -2.7864 -0.2728
 8882SOL    HW238106   4.001   0.322  14.207 -0.6053  0.6818 -0.6168
 8883SOL     OW38107   0.107   2.541   0.399  0.1908  0.0597 -0.2474
 8883SOL    HW138108   0.048   2.581   0.335 -1.1065 -1.6317 -0.0954
 8883SOL    HW238109   0.176   2.607   0.408  1.7665 -1.6380  0.0140
 8884SOL     OW38110   0.150   1.201   3.241 -0.1519  0.3098 -0.2067
 8884SOL    HW138111   0.095   1.125   3.263 -0.9661  0.9812  0.0770
 8884SOL    HW238112   0.127   1.209   3.148 -0.9778 -1.2454 -0.1476
 8885SOL     OW38113   0.389   1.779  15.713 -0.2998  0.3152  0.1753
 8885SOL    HW138114   0.467   1.821  15.676 -1.1169  0.0912 -1.7929
 8885SOL    HW238115   0.322   1.838  15.678  0.1886  0.9727  0.3636
 8886SOL     OW38116   3.863   0.517   9.956 -0.4163  0.4208 -0.6444
 8886SOL    HW138117   3.773   0.536   9.983 -0.4188  0.5308 -0.7290
 8886SOL    HW238118   3.897   0.508  10.045 -1.3790 -4.7374 -0.8126
 8887SOL     OW38119   4.042   1.003   5.642  0.9176  0.2915 -0.3415
 8887SOL    HW138120   4.128   1.016   5.603  1.5648  4.1916  2.2754
 8887SOL    HW238121   4.016   1.094   5.661  0.4836  0.7090 -2.8995
 8888SOL     OW38122   2.947   3.842   2.398 -0.5616 -0.4369 -0.1610
 8888SOL    HW138123   2.860   3.880   2.409  1.3919  3.7467  0.7270
 8888SOL    HW238124   2.996   3.894   2.462  0.1400 -2.3314  0.8398
 8889SOL     OW38125   3.364   3.591  14.295 -0.4072  0.0333  0.0323
 8889SOL    HW138126   3.415   3.513  14.272 -1.0788  0.1450 -1.7883
 8889SOL    HW238127   3.356   3.635  14.210  2.4418  0.2619 -0.1092
 8890SOL     OW38128   2.935   1.969   8.849 -0.3492 -0.0759  0.1597
 8890SOL    HW138129   2.857   2.015   8.881  0.7960  2.3033 -0.4629
 8890SOL    HW238130   2.978   2.028   8.787 -0.5311  2.6847  2.6481
 8891SOL     OW38131   1.405   3.322   7.552 -0.7956 -0.4052 -0.2269
 8891SOL    HW138132   1.398   3.285   7.640 -0.5477  0.4700  0.1587
 8891SOL    HW238133   1.317   3.356   7.538 -0.2533  0.1390 -2.2798
 8892SOL     OW38134   2.143   3.655  11.057  0.1698  0.2926  0.5546
 8892SOL    HW138135   2.178   3.727  11.109 -0.2068 -0.3394  1.6884
 8892SOL    HW238136   2.217   3.654  10.997 -0.9789 -0.3347 -0.8615
 8893SOL     OW38137   4.232   3.266   4.525 -0.0683 -0.1288 -0.0202
 8893SOL    HW138138   4.270   3.182   4.499 -0.2650 -0.7490  1.6700
 8893SOL    HW238139   4.148   3.229   4.553  1.1333 -2.6659  0.2210
 8894SOL     OW38140   3.265   4.265  17.542  0.1236  0.4229 -0.4515
 8894SOL    HW138141   3.323   4.195  17.513 -1.3220 -1.2605  0.6668
 8894SOL    HW238142   3.321   4.296  17.613 -1.2381 -0.7641  1.1542
 8895SOL     OW38143   2.139   0.069  17.394 -0.0689 -0.3526  0.1436
 8895SOL    HW138144   2.120   4.720  17.333 -1.2653  0.2632 -0.2062
 8895SOL    HW238145   2.058   0.119  17.398 -0.7480 -1.4591  0.2146
 8896SOL     OW38146   1.160   0.128   5.185  0.2677 -0.0788 -0.2348
 8896SOL    HW138147   1.195   0.129   5.274 -1.3842 -1.0909  0.4236
 8896SOL    HW238148   1.129   0.218   5.174  2.6760  0.5394 -1.8729
 8897SOL     OW38149   1.317   0.415   4.540  0.3303  0.0910  0.8103
 8897SOL    HW138150   1.364   0.463   4.471 -0.7935 -0.2854 -0.2081
 8897SOL    HW238151   1.267   0.484   4.583 -1.6839 -1.7952  1.4422
 8898SOL     OW38152   3.582   0.326  14.927 -0.3853  0.0076  0.1796
 8898SOL    HW138153   3.521   0.289  14.990 -0.1833 -1.3246 -0.3976
 8898SOL    HW238154   3.522   0.341  14.854  0.3367 -0.7703 -0.5768
 8899SOL     OW38155   4.254   1.493   3.532  0.1640  0.1253 -0.0851
 8899SOL    HW138156   4.292   1.499   3.620 -1.6571 -0.4196  0.7280
 8899SOL    HW238157   4.160   1.491   3.550  0.0727 -1.7244 -0.7503
 8900SOL     OW38158   0.674   1.968   5.017  0.3450  0.1602 -0.2607
 8900SOL    HW138159   0.657   1.874   5.025  0.4742  0.2361  0.7958
 8900SOL    HW238160   0.668   2.016   5.099 -0.7865  0.4373 -0.4995
 8901SOL     OW38161   1.889   0.054   4.748 -0.1674  0.0839 -0.0513
 8901SOL    HW138162   1.833   0.086   4.678 -0.8856  0.3514  0.6403
 8901SOL    HW238163   1.827   0.075   4.819  0.0467 -3.1507  1.1199
 8902SOL     OW38164   0.671   1.418  15.743  0.0726  0.1586 -0.0684
 8902SOL    HW138165   0.700   1.384  15.659 -0.8832 -1.5239  0.2886
 8902SOL    HW238166   0.590   1.457  15.710 -0.1486 -0.1412  0.1201
 8903SOL     OW38167   3.296   1.560   1.871 -0.5185 -0.0889  0.6954
 8903SOL    HW138168   3.276   1.654   1.869 -0.3574 -0.0986 -1.3491
 8903SOL    HW238169   3.354   1.537   1.798  0.1640 -1.2455  1.6135
 8904SOL     OW38170   0.815   4.038  11.743  0.5564  0.5415 -0.1302
 8904SOL    HW138171   0.860   4.005  11.821  1.8470  2.2874 -0.1272
 8904SOL    HW238172   0.878   3.995  11.686  0.4026  2.1485 -1.5036
 8905SOL     OW38173   0.026   3.322   2.405 -0.0952 -0.0765 -0.3920
 8905SOL    HW138174   4.700   3.333   2.323 -1.2515 -1.4152  0.1040
 8905SOL    HW238175   0.041   3.415   2.422  0.1220  0.0489 -1.2734
 8906SOL     OW38176   3.660   1.466   7.577  0.1151  0.2182 -0.3380
 8906SOL    HW138177   3.697   1.414   7.506 -0.9429  1.7386 -2.0113
 8906SOL    HW238178   3.681   1.417   7.656  0.9971 -1.4868 -1.6445
 8907SOL     OW38179   1.530   3.937  11.144 -0.2269 -0.6116 -0.1035
 8907SOL    HW138180   1.524   3.916  11.051  0.1448  1.0786 -0.5222
 8907SOL    HW238181   1.572   4.023  11.134 -0.3049 -0.1409  3.6499
 8908SOL     OW38182   1.699   1.977   2.363  0.2405  0.1970  0.3480
 8908SOL    HW138183   1.621   1.935   2.399  0.0882 -0.8200 -1.1613
 8908SOL    HW238184   1.668   1.989   2.273  1.7471  1.1794 -0.0425
 8909SOL     OW38185   0.515   3.666   6.934  0.1325 -0.3619  0.6901
 8909SOL    HW138186   0.543   3.685   6.844  2.2419 -2.8526  0.8021
 8909SOL    HW238187   0.528   3.751   6.975 -0.3738 -0.6841  1.5250
 8910SOL     OW38188   4.449   2.990   7.571 -0.0668 -0.1874  0.2355
 8910SOL    HW138189   4.355   2.972   7.567 -0.0287 -0.0687 -1.1360
 8910SOL    HW238190   4.449   3.052   7.498 -1.4404  0.7561  1.0409
 8911SOL     OW38191   2.417   3.422   9.510  0.0217 -0.1759  0.5652
 8911SOL    HW138192   2.508   3.406   9.484 -0.2635 -0.1337 -0.4690
 8911SOL    HW238193   2.375   3.354   9.457  0.0398  0.7017 -0.5639
 8912SOL     OW38194   0.543   1.162   6.992 -0.3920  0.1625 -0.2292
 8912SOL    HW138195   0.541   1.224   7.065 -4.0066 -0.5279  0.2661
 8912SOL    HW238196   0.551   1.076   7.034 -0.4185 -0.5150 -1.6038
 8913SOL     OW38197   4.125   0.143  16.830 -0.1913 -0.1623  0.0636
 8913SOL    HW138198   4.043   0.101  16.805  0.2885 -1.3731  0.5152
 8913SOL    HW238199   4.092   0.228  16.857  0.4669 -0.3074  1.3403
 8914SOL     OW38200   0.826   2.691   6.075  0.4975 -0.2207 -0.3145
 8914SOL    HW138201   0.905   2.677   6.128  0.0548  0.1968  0.4542
 8914SOL    HW238202   0.765   2.637   6.125 -0.8556  1.9616  0.3641
 8915SOL     OW38203   0.130   0.471   4.975 -0.5966 -0.5118  0.1136
 8915SOL    HW138204   0.051   0.488   5.027 -0.7963  0.4064 -0.4782
 8915SOL    HW238205   0.144   0.558   4.938 -1.7718 -0.6047 -0.5501
 8916SOL     OW38206   2.703   4.264   0.038 -0.0932 -0.6260 -0.0211
 8916SOL    HW138207   2.702   4.168   0.043 -0.3293 -0.6053  0.3496
 8916SOL    HW238208   2.657   4.284   0.120  0.6632  0.1360  0.2166
 8917SOL     OW38209   1.097   2.383   4.424 -0.0637  0.4704  0.2111
 8917SOL    HW138210   1.080   2.402   4.331  1.3272 -2.1437 -0.5778
 8917SOL    HW238211   1.120   2.290   4.421 -1.9472 -0.0020  1.0392
 8918SOL     OW38212   1.267   4.524  15.388 -0.3388 -0.0520  0.5502
 8918SOL    HW138213   1.294   4.456  15.450 -1.9082 -1.6202 -0.5078
 8918SOL    HW238214   1.305   4.594  15.441 -2.0246  0.5059  1.0040
 8919SOL     OW38215   2.361   2.408   2.016 -0.0344 -0.0899 -0.5128
 8919SOL    HW138216   2.269   2.388   1.999 -0.1190  0.1986 -0.3868
 8919SOL    HW238217   2.388   2.328   1.971  3.1512  0.2018  0.8382
 8920SOL     OW38218   1.478   3.849   4.573 -0.3084 -0.1827 -0.2566
 8920SOL    HW138219   1.562   3.806   4.557  0.0233  0.6929 -0.8459
 8920SOL    HW238220   1.421   3.809   4.508 -1.3001  2.4449 -0.9674
 8921SOL     OW38221   4.473   2.444   3.705  0.5204 -0.0063 -0.2764
 8921SOL    HW138222   4.468   2.524   3.757  0.5257 -1.7798  2.5184
 8921SOL    HW238223   4.492   2.389   3.782  0.8643  0.6885  0.1354
 8922SOL     OW38224   2.748   1.535   2.321  0.1242  0.3599 -0.0078
 8922SOL    HW138225   2.710   1.623   2.313  2.3817  1.2224 -1.2850
 8922SOL    HW238226   2.765   1.528   2.227  0.0979  1.1157 -0.0670
 8923SOL     OW38227   1.695   3.087  12.357 -0.0057  0.3757  0.8411
 8923SOL    HW138228   1.617   3.032  12.345 -0.0090  0.8818 -1.3842
 8923SOL    HW238229   1.721   3.093  12.265 -0.8237 -1.2668  0.4877
 8924SOL     OW38230   4.488   2.157   5.736  0.5885 -0.4654 -0.3792
 8924SOL    HW138231   4.511   2.206   5.815 -1.0759  1.5411 -1.1465
 8924SOL    HW238232   4.400   2.186   5.714  0.1544  0.4998  2.7041
 8925SOL     OW38233   0.322   0.119   2.458 -0.5021 -0.0845 -0.4326
 8925SOL    HW138234   0.395   0.122   2.396  1.4175 -0.2982  1.8601
 8925SOL    HW238235   0.373   0.110   2.538 -0.8030 -0.1029 -0.2395
 8926SOL     OW38236   2.244   2.195   5.945  0.0487  0.2802 -0.0914
 8926SOL    HW138237   2.276   2.146   5.869 -0.3242  1.6335 -1.1300
 8926SOL    HW238238   2.318   2.200   6.005  0.6777 -1.9983 -0.6757
 8927SOL     OW38239   4.243   3.327   4.266 -0.1908 -0.5204  0.6719
 8927SOL    HW138240   4.242   3.317   4.361 -1.8147 -1.4427  0.5523
 8927SOL    HW238241   4.158   3.290   4.242  0.8634 -0.4924 -3.1194
 8928SOL     OW38242   3.684   0.064   1.934 -0.3520  0.2395  0.0706
 8928SOL    HW138243   3.674   0.052   1.840 -2.2001 -0.4966  0.3672
 8928SOL    HW238244   3.598   0.034   1.964 -0.7682  0.3498 -1.0093
 8929SOL     OW38245   3.231   1.380  12.431  0.0236 -0.0395 -0.3775
 8929SOL    HW138246   3.250   1.399  12.523  0.1690  0.4930 -0.5202
 8929SOL    HW238247   3.229   1.466  12.390  1.5143  0.5003  0.6717
 8930SOL     OW38248   1.709   4.443   7.564  0.2184  0.3633  0.2649
 8930SOL    HW138249   1.701   4.387   7.642 -0.3932  2.6514  1.8618
 8930SOL    HW238250   1.804   4.451   7.554  0.2990 -0.2274  0.5493
 8931SOL     OW38251   2.954   3.093   5.959 -0.2669  0.3064 -0.4529
 8931SOL    HW138252   2.930   3.029   5.892  1.8742  0.8486 -1.7153
 8931SOL    HW238253   2.919   3.176   5.925 -0.4242 -0.2446 -1.6246
 8932SOL     OW38254   4.433   1.746   6.838  0.5383  0.9838 -0.2949
 8932SOL    HW138255   4.361   1.745   6.901  1.3202  0.2262  0.5895
 8932SOL    HW238256   4.452   1.839   6.823  1.1801  0.6670 -1.3956
 8933SOL     OW38257   4.046   0.338   7.722  0.0488  0.2481 -0.1860
 8933SOL    HW138258   4.002   0.379   7.648 -0.7705 -2.1992 -1.0614
 8933SOL    HW238259   3.973   0.298   7.768 -0.2244 -1.7328 -2.2945
 8934SOL     OW38260   4.273   1.100   4.228 -0.3231  0.2439  0.1356
 8934SOL    HW138261   4.368   1.106   4.243 -0.3502 -1.3498  0.9505
 8934SOL    HW238262   4.272   1.011   4.191 -0.5019  1.0667 -1.8383
 8935SOL     OW38263   0.643   0.629   3.549  0.3325  0.8132  0.5479
 8935SOL    HW138264   0.554   0.613   3.582  0.4559 -0.0635  0.4498
 8935SOL    HW238265   0.633   0.595   3.460  1.6821  0.8839  0.3805
 8936SOL     OW38266   0.568   1.861  16.433  0.3819 -0.4910  0.2447
 8936SOL    HW138267   0.529   1.929  16.378  1.1961  0.0262  0.2956
 8936SOL    HW238268   0.567   1.785  16.376 -2.0634 -1.2754  1.3697
 8937SOL     OW38269   3.079   3.854   7.707 -0.3922 -0.3839  0.2856
 8937SOL    HW138270   3.144   3.914   7.742  0.0591 -0.0841 -1.0545
 8937SOL    HW238271   3.048   3.816   7.789  0.0953 -2.5500 -0.5080
 8938SOL     OW38272   1.815   1.238   5.869 -0.1277 -0.0386 -0.1768
 8938SOL    HW138273   1.764   1.301   5.818 -0.9458 -1.2684 -0.8821
 8938SOL    HW238274   1.899   1.285   5.870 -0.5091  0.7313 -2.8716
 8939SOL     OW38275   3.979   1.355  13.186 -0.4301 -0.1080 -0.5404
 8939SOL    HW138276   3.997   1.447  13.168 -0.3664 -0.1470 -0.6715
 8939SOL    HW238277   3.926   1.336  13.109  0.8419  2.2732 -1.9979
 8940SOL     OW38278   3.845   4.314  12.133 -0.6429 -0.0990 -0.2632
 8940SOL    HW138279   3.866   4.225  12.165 -0.6160  0.4848  1.3657
 8940SOL    HW238280   3.932   4.343  12.107 -0.3332 -1.3018 -0.5954
 8941SOL     OW38281   3.468   0.711   5.352 -0.1954  0.0585  0.0656
 8941SOL    HW138282   3.438   0.794   5.316  0.5013  0.7526  1.1042
 8941SOL    HW238283   3.413   0.647   5.306 -0.6325 -0.9089  1.9435
 8942SOL     OW38284   3.843   3.863   3.997  0.1211 -0.0203 -0.7945
 8942SOL    HW138285   3.835   3.917   4.075 -1.6751  0.1099 -1.0858
 8942SOL    HW238286   3.926   3.901   3.967  0.7175 -2.1959 -1.9854
 8943SOL     OW38287   4.621   2.335   8.323  0.0196  0.0154 -0.1100
 8943SOL    HW138288   4.582   2.374   8.402  1.2434 -0.0056  0.5104
 8943SOL    HW238289   4.624   2.249   8.365  0.9919  0.1176  0.0253
 8944SOL     OW38290   0.876   2.930  14.374  0.1397  0.0837  0.0414
 8944SOL    HW138291   0.784   2.913  14.396  0.2375 -1.3107 -0.5803
 8944SOL    HW238292   0.909   2.979  14.449  0.3018  0.0015  0.0231
 8945SOL     OW38293   0.740   0.586   3.805 -0.4421  0.0826 -0.3497
 8945SOL    HW138294   0.831   0.572   3.779 -0.1528  2.2350 -0.4383
 8945SOL    HW238295   0.690   0.591   3.723 -1.9364 -0.4821  0.5226
 8946SOL     OW38296   1.713   0.705   8.080 -0.7341 -0.5029  0.1536
 8946SOL    HW138297   1.792   0.695   8.133  1.0020  3.8422 -1.6005
 8946SOL    HW238298   1.643   0.732   8.140 -0.6019  2.1897 -0.8745
 8947SOL     OW38299   1.671   4.489  10.886  0.0196  0.1821 -0.0524
 8947SOL    HW138300   1.597   4.444  10.846 -0.9874 -0.6583  2.7420
 8947SOL    HW238301   1.666   4.472  10.980  1.5077 -1.7302 -0.3291
 8948SOL     OW38302   2.309   2.579  16.330 -0.0864 -0.1210 -0.4597
 8948SOL    HW138303   2.335   2.668  16.353 -1.0038  0.2503 -0.8897
 8948SOL    HW238304   2.262   2.552  16.409  2.0183 -0.6699  0.5994
 8949SOL     OW38305   3.603   2.666   5.021 -0.3759  0.5966  0.0006
 8949SOL    HW138306   3.693   2.680   4.991 -0.2003 -0.4330  0.0273
 8949SOL    HW238307   3.595   2.570   5.026 -1.1899  0.6563 -0.1998
 8950SOL     OW38308   4.670   4.307   5.587 -0.8204 -0.2015  0.5273
 8950SOL    HW138309   0.026   4.258   5.562 -0.2196  0.7675  0.5308
 8950SOL    HW238310   4.630   4.245   5.649 -2.8021 -0.6411 -1.1885
 8951SOL     OW38311   4.123   3.049   9.049  0.3210 -0.4440 -0.2833
 8951SOL    HW138312   4.031   3.072   9.058  0.1528 -0.2696 -2.4278
 8951SOL    HW238313   4.154   3.126   9.001  0.2739 -0.6675 -0.6730
 8952SOL     OW38314   2.897   4.068   6.700  0.2503  0.2710  0.6759
 8952SOL    HW138315   2.871   4.031   6.785 -0.3042  0.0179  0.3964
 8952SOL    HW238316   2.812   4.094   6.664 -0.1368 -0.8589  0.7603
 8953SOL     OW38317   3.348   2.113  10.708 -0.2012 -0.0126  0.1499
 8953SOL    HW138318   3.350   2.153  10.621 -0.5046 -0.7170 -0.1903
 8953SOL    HW238319   3.348   2.021  10.679  0.6661  0.3843 -1.0808
 8954SOL     OW38320   1.763   2.719   3.648 -0.5879 -0.0810  0.1996
 8954SOL    HW138321   1.838   2.665   3.625 -0.2269  1.2131 -1.6639
 8954SOL    HW238322   1.695   2.655   3.628 -0.8367  0.4172 -0.5466
 8955SOL     OW38323   1.134   2.317   4.749 -0.4663 -0.6066  0.4517
 8955SOL    HW138324   1.205   2.282   4.802  0.0536  0.7428  0.6368
 8955SOL    HW238325   1.170   2.297   4.663 -4.8086 -0.3729 -1.4430
 8956SOL     OW38326   1.539   1.705   1.466 -0.2302  0.0257 -0.1197
 8956SOL    HW138327   1.615   1.758   1.441  0.5483 -1.2096 -0.3782
 8956SOL    HW238328   1.553   1.627   1.413 -1.3194  0.5407 -1.1571
 8957SOL     OW38329   3.165   1.961  16.942  0.5587 -0.5539  0.0564
 8957SOL    HW138330   3.131   1.931  17.027 -1.1701 -2.7508 -1.4128
 8957SOL    HW238331   3.135   1.894  16.881 -1.2279 -1.3474  1.7797
 8958SOL     OW38332   3.244   0.597   3.359  0.5940  0.4118  0.6630
 8958SOL    HW138333   3.286   0.642   3.432  4.8560 -0.9157 -0.9669
 8958SOL    HW238334   3.201   0.524   3.402  0.2131 -0.6363 -1.5069
 8959SOL     OW38335   3.936   3.858   1.697  0.3067  0.2891 -0.0071
 8959SOL    HW138336   3.871   3.790   1.717 -0.6685  1.0949 -0.4517
 8959SOL    HW238337   3.907   3.928   1.756  0.8157 -1.1676  1.9738
 8960SOL     OW38338   1.125   0.784  15.527  0.4003 -0.4978  0.1004
 8960SOL    HW138339   1.177   0.704  15.534  0.7839 -0.0751  2.0996
 8960SOL    HW238340   1.086   0.770  15.440  0.2777 -0.5960  0.1710
 8961SOL     OW38341   4.002   4.189   6.681 -0.4496 -0.3448 -0.3084
 8961SOL    HW138342   3.948   4.182   6.602 -1.1996 -2.8166  0.4240
 8961SOL    HW238343   4.074   4.130   6.658 -0.2449 -0.0022 -0.5448
 8962SOL     OW38344   0.598   1.654   4.978  0.2600  0.1734  0.3626
 8962SOL    HW138345   0.629   1.643   5.068  1.5859  0.0731 -0.0991
 8962SOL    HW238346   0.645   1.584   4.933 -0.6351  1.0736 -2.0111
 8963SOL     OW38347   2.239   4.016  12.815  0.0623  0.4485  0.3558
 8963SOL    HW138348   2.300   4.062  12.872 -0.6291  1.6656  0.1332
 8963SOL    HW238349   2.278   3.930  12.800 -1.9034 -0.1426 -1.5435
 8964SOL     OW38350   1.841   2.317   8.926 -0.3917 -0.2296 -0.6441
 8964SOL    HW138351   1.792   2.394   8.898 -1.3913 -0.9293 -0.8424
 8964SOL    HW238352   1.802   2.244   8.878  0.4100 -0.6434 -0.6557
 8965SOL     OW38353   2.816   1.071   4.464  0.2394 -0.2480 -0.0312
 8965SOL    HW138354   2.744   1.131   4.486 -0.0546 -0.1659 -1.2181
 8965SOL    HW238355   2.800   0.999   4.526  0.5264  1.6124  2.2056
 8966SOL     OW38356   2.465   4.258   3.880 -0.7394 -0.0677  0.5728
 8966SOL    HW138357   2.438   4.258   3.972 -1.0420  0.9291  0.4852
 8966SOL    HW238358   2.446   4.349   3.857  0.1244  0.2968  1.3440
 8967SOL     OW38359   4.644   3.560  14.305 -0.0166 -0.1087  0.0329
 8967SOL    HW138360   4.661   3.650  14.279  1.4574 -0.7571 -1.2383
 8967SOL    HW238361   4.662   3.552  14.399  1.0705 -0.2275 -0.1873
 8968SOL     OW38362   1.729   3.429  11.978  0.6155 -0.3801 -0.4736
 8968SOL    HW138363   1.677   3.363  11.932  1.9442 -1.5103 -0.3338
 8968SOL    HW238364   1.776   3.373  12.039  0.9540 -0.4702 -0.8139
 8969SOL     OW38365   4.690   2.423   3.259 -0.4148  0.1384  0.4397
 8969SOL    HW138366   0.041   2.484   3.260 -0.8827  0.7057  0.5747
 8969SOL    HW238367   4.707   2.394   3.169 -4.0475  1.6397 -0.7120
 8970SOL     OW38368   2.090   0.483   7.780 -0.0428  0.0078 -0.2282
 8970SOL    HW138369   2.100   0.495   7.874 -0.7254 -0.0797 -0.1422
 8970SOL    HW238370   2.085   0.573   7.747 -1.3536  0.7231  1.9180
 8971SOL     OW38371   1.156   1.054   7.432 -0.1154  0.2060  0.4801
 8971SOL    HW138372   1.247   1.064   7.403 -0.4888 -0.2244 -0.8024
 8971SOL    HW238373   1.124   0.994   7.365 -1.6497 -1.6813  2.8847
 8972SOL     OW38374   0.867   4.704   6.158 -0.1793  0.5099 -0.1802
 8972SOL    HW138375   0.960   0.003   6.165 -0.2457  0.8855 -0.4436
 8972SOL    HW238376   0.841   0.015   6.072  0.2116  0.9850 -0.1111
 8973SOL     OW38377   2.857   0.717   7.281  0.6219 -0.0938 -0.0448
 8973SOL    HW138378   2.825   0.802   7.310  0.4083 -0.5631  1.1201
 8973SOL    HW238379   2.819   0.706   7.194  0.7293 -1.5201  0.0826
 8974SOL     OW38380   0.804   3.862   6.514 -0.6314 -0.2404  0.1174
 8974SOL    HW138381   0.813   3.857   6.609 -2.8646  1.0706  0.4046
 8974SOL    HW238382   0.715   3.893   6.495 -0.6236 -0.0277  0.4265
 8975SOL     OW38383   0.416   3.513   3.340  0.0834  0.4605 -0.0724
 8975SOL    HW138384   0.365   3.570   3.283 -0.5325  0.3670  0.3782
 8975SOL    HW238385   0.417   3.569   3.418 -0.6588  1.1232 -0.5401
 8976SOL     OW38386   3.861   3.066  11.907 -0.2803  0.5948  0.8571
 8976SOL    HW138387   3.832   3.013  11.981 -1.0391  0.9968  0.8538
 8976SOL    HW238388   3.773   3.100  11.890 -0.0577  1.0997  0.7063
 8977SOL     OW38389   0.477   2.432  14.919  0.0448  0.1927  0.9245
 8977SOL    HW138390   0.536   2.358  14.937 -1.0547 -1.5423 -2.4306
 8977SOL    HW238391   0.388   2.396  14.919 -0.9086  2.5775 -0.4707
 8978SOL     OW38392   1.794   3.833   9.405 -0.1875 -0.2944  0.4410
 8978SOL    HW138393   1.741   3.857   9.481 -1.1174 -2.1087  0.3861
 8978SOL    HW238394   1.871   3.798   9.450 -1.9816 -4.3125  0.3758
 8979SOL     OW38395   0.874   0.277  12.383 -0.4126 -0.0155 -0.5659
 8979SOL    HW138396   0.810   0.301  12.450 -1.4268 -0.9607 -1.1749
 8979SOL    HW238397   0.818   0.248  12.311 -1.1891  0.5114 -0.1788
 8980SOL     OW38398   2.456   0.172   8.376  0.5219 -0.4141  0.2811
 8980SOL    HW138399   2.508   0.231   8.432  0.7828 -0.1672 -0.2256
 8980SOL    HW238400   2.446   0.101   8.439 -1.6199  1.1343  1.6701
 8981SOL     OW38401   4.698   2.644   1.303 -0.1175 -0.1293 -0.0611
 8981SOL    HW138402   4.680   2.590   1.379  0.1705 -1.1240 -0.6975
 8981SOL    HW238403   4.645   2.604   1.234  0.8752 -0.9934 -0.3196
 8982SOL     OW38404   1.682   3.013  13.480  0.4189 -0.2886  0.0809
 8982SOL    HW138405   1.634   2.941  13.440 -0.2889  0.5500 -0.5697
 8982SOL    HW238406   1.765   2.993  13.436  0.2760  0.8494 -0.6985
 8983SOL     OW38407   0.791   1.548   7.752  0.1902 -0.0123  0.1154
 8983SOL    HW138408   0.717   1.540   7.812 -1.9974 -3.1479 -3.0401
 8983SOL    HW238409   0.808   1.642   7.743  1.4066 -0.3867 -1.4037
 8984SOL     OW38410   3.326   3.033   6.144  0.4147  0.1010  0.0405
 8984SOL    HW138411   3.326   2.991   6.058 -0.7110 -1.7347  0.9453
 8984SOL    HW238412   3.275   3.108   6.113  0.9437  0.5642  0.2803
 8985SOL     OW38413   0.082   1.116  10.897 -0.1883  0.0020 -0.2584
 8985SOL    HW138414   0.078   1.024  10.871  0.6249 -0.3368  0.8219
 8985SOL    HW238415   4.718   1.148  10.872 -1.2323 -2.5534  0.1119
 8986SOL     OW38416   1.688   2.553   7.560  0.6280 -0.0729  0.0042
 8986SOL    HW138417   1.781   2.549   7.581  0.4691 -1.3881  0.4659
 8986SOL    HW238418   1.680   2.644   7.532  0.5025  0.6738  2.4875
 8987SOL     OW38419   2.534   1.749   1.900  0.8643  0.1105  0.1500
 8987SOL    HW138420   2.505   1.792   1.819  0.3071  0.0543  0.3169
 8987SOL    HW238421   2.593   1.686   1.859  0.0828 -0.0827 -0.6878
 8988SOL     OW38422   0.694   1.190  10.887  0.1749 -0.4884  0.5430
 8988SOL    HW138423   0.757   1.253  10.921 -2.5526  2.0007  0.9465
 8988SOL    HW238424   0.616   1.245  10.890  0.2150 -0.3864 -0.3159
 8989SOL     OW38425   4.314   1.559   8.732 -0.5814 -0.7776 -0.2025
 8989SOL    HW138426   4.262   1.480   8.720  1.1463 -1.6619 -2.0182
 8989SOL    HW238427   4.319   1.559   8.827 -1.2693 -2.5033 -0.1755
 8990SOL     OW38428   0.085   2.065   1.853  0.0943 -0.1866  0.5811
 8990SOL    HW138429   4.716   2.052   1.832  0.2664 -0.4447 -0.0159
 8990SOL    HW238430   0.124   2.004   1.791 -0.1173  2.5665 -2.2446
 8991SOL     OW38431   1.478   2.970  13.686 -0.0988  0.0029  0.4538
 8991SOL    HW138432   1.556   3.003  13.642  1.8283 -1.5904  2.7017
 8991SOL    HW238433   1.452   2.905  13.621 -2.3881  0.7396  0.6162
 8992SOL     OW38434   2.373   3.650   3.176 -1.1109 -0.3865  0.1047
 8992SOL    HW138435   2.396   3.625   3.266 -0.8033 -0.9647 -0.1341
 8992SOL    HW238436   2.442   3.712   3.152 -0.2600 -1.1549  0.5468
 8993SOL     OW38437   1.650   0.098  13.910 -0.8010  0.5697  0.3620
 8993SOL    HW138438   1.571   0.132  13.868 -2.2112 -0.2881  2.2955
 8993SOL    HW238439   1.648   0.146  13.993  2.8557  3.2582 -1.1046
 8994SOL     OW38440   2.883   1.605   3.436  0.5675 -0.2829  0.1692
 8994SOL    HW138441   2.960   1.657   3.458  1.1151 -0.6872 -0.7717
 8994SOL    HW238442   2.853   1.649   3.356 -3.5570  2.3200  3.1784
 8995SOL     OW38443   2.177   1.074   4.639  0.3229 -0.1517  0.0854
 8995SOL    HW138444   2.098   1.029   4.668  0.2342  0.3505  0.6309
 8995SOL    HW238445   2.186   1.037   4.552 -0.6128  0.4521 -0.2725
 8996SOL     OW38446   4.620   0.117   8.429 -0.5139 -0.4384  0.1423
 8996SOL    HW138447   4.612   0.150   8.519  0.8634  2.3798 -0.7560
 8996SOL    HW238448   4.649   0.028   8.445  2.1063  0.7905  2.1869
 8997SOL     OW38449   3.928   3.090   7.937  0.3254  0.6225  0.4285
 8997SOL    HW138450   4.007   3.038   7.921 -0.8262 -0.8476 -0.4018
 8997SOL    HW238451   3.965   3.169   7.896  1.2474  0.4282  0.8796
 8998SOL     OW38452   3.795   4.536   1.547  0.2354  0.5810 -0.4277
 8998SOL    HW138453   3.799   4.575   1.460 -2.8722 -1.4328 -1.4691
 8998SOL    HW238454   3.857   4.465   1.528  1.2870  2.4176 -3.8296
 8999SOL     OW38455   4.591   3.120   6.398 -0.0423 -0.2718  0.6135
 8999SOL    HW138456   4.496   3.128   6.391  0.0305  0.5052  0.5823
 8999SOL    HW238457   4.602   3.038   6.350  4.1495 -0.0131  1.1304
 9000SOL     OW38458   0.437   3.335   8.235  0.7533  0.1469  0.3188
 9000SOL    HW138459   0.482   3.300   8.313  2.3022 -1.9746 -1.5199
 9000SOL    HW238460   0.450   3.429   8.242  0.1061  0.4157 -2.1184
 9001SOL     OW38461   1.588   4.683  17.649  0.3074 -0.1752 -0.4406
 9001SOL    HW138462   1.665   0.006  17.614 -1.1064  1.2579 -1.6717
 9001SOL    HW238463   1.595   4.594  17.616 -0.5502 -0.3708 -0.0873
 9002SOL     OW38464   4.377   2.167   5.161 -0.2736 -0.1195 -0.3952
 9002SOL    HW138465   4.289   2.169   5.198  0.2705  0.0707  0.8934
 9002SOL    HW238466   4.368   2.138   5.070  2.1233  0.2929 -0.7789
 9003SOL     OW38467   0.898   1.198   3.985  0.7017  0.3150 -0.2334
 9003SOL    HW138468   0.881   1.113   3.944 -0.9454 -0.1584  1.4404
 9003SOL    HW238469   0.840   1.254   3.932  1.0659 -0.5932 -1.6117
 9004SOL     OW38470   2.172   2.866   8.400  0.2888  0.2011 -0.1626
 9004SOL    HW138471   2.168   2.961   8.407  0.8097  0.1814  0.3879
 9004SOL    HW238472   2.223   2.855   8.319  0.2855 -1.2791  0.0335
 9005SOL     OW38473   3.371   3.934   3.555  0.3504 -0.1651  0.7312
 9005SOL    HW138474   3.300   3.987   3.518 -0.0854 -1.6627 -0.5763
 9005SOL    HW238475   3.362   3.850   3.510 -0.6305  0.5627 -0.4492
 9006SOL     OW38476   4.467   3.836   5.344  0.5289  0.2938  0.6489
 9006SOL    HW138477   4.464   3.926   5.311  0.1853  0.8932  2.2987
 9006SOL    HW238478   4.430   3.789   5.269  1.5318  2.2147 -1.0314
 9007SOL     OW38479   2.468   1.595   4.348 -0.1796 -0.2032 -0.6586
 9007SOL    HW138480   2.432   1.536   4.282  0.4386  1.1962 -2.2515
 9007SOL    HW238481   2.392   1.585   4.405 -0.1368 -0.6135 -0.6769
 9008SOL     OW38482   0.856   0.348   0.231  0.3142  0.2760 -0.0455
 9008SOL    HW138483   0.868   0.442   0.243  2.3639  0.2751 -2.1513
 9008SOL    HW238484   0.760   0.346   0.239  0.4037 -0.9143  0.6673
 9009SOL     OW38485   3.571   3.739   1.817 -0.0782  0.0577  0.4622
 9009SOL    HW138486   3.576   3.663   1.875 -0.3769 -1.7886 -1.9601
 9009SOL    HW238487   3.619   3.799   1.875 -0.0015 -1.4921  1.9930
 9010SOL     OW38488   2.832   0.887   6.745 -0.1083 -0.2229 -0.2966
 9010SOL    HW138489   2.737   0.900   6.754  0.6516  3.1179  2.6369
 9010SOL    HW238490   2.844   0.794   6.761  1.4103 -0.3067 -1.9343
 9011SOL     OW38491   4.191   1.242  13.986  0.1284 -0.0014  0.3545
 9011SOL    HW138492   4.246   1.226  14.063 -0.7968  1.9534  1.4474
 9011SOL    HW238493   4.237   1.191  13.920  1.7102 -1.9419  2.9650
 9012SOL     OW38494   4.050   2.195   2.454  0.0693 -0.0701 -0.1354
 9012SOL    HW138495   4.133   2.165   2.491 -0.5625 -2.5881 -0.7443
 9012SOL    HW238496   4.060   2.289   2.468  2.5057 -0.4365  0.6340
 9013SOL     OW38497   0.351   3.906   3.584 -0.0657  0.0407 -0.3893
 9013SOL    HW138498   0.283   3.955   3.631 -0.6918 -0.7047 -0.5263
 9013SOL    HW238499   0.422   3.968   3.566 -1.4592  1.7805  0.1462
 9014SOL     OW38500   4.311   2.926  12.259  0.1201  0.0185 -0.2367
 9014SOL    HW138501   4.357   2.857  12.307 -3.0852 -1.0855  1.2713
 9014SOL    HW238502   4.326   3.005  12.312 -0.3221  0.3063 -0.5442
 9015SOL     OW38503   3.697   0.464  16.807 -0.4529 -0.2131  0.4163
 9015SOL    HW138504   3.632   0.511  16.755  0.5152  0.3532 -0.2964
 9015SOL    HW238505   3.695   0.517  16.886  1.0019 -0.1494  0.4093
 9016SOL     OW38506   2.248   3.327  10.154 -0.4647  0.5298  0.1244
 9016SOL    HW138507   2.307   3.252  10.152  1.4602  2.0109  1.3582
 9016SOL    HW238508   2.285   3.380  10.084  0.4204  0.0825  0.2576
 9017SOL     OW38509   3.361   3.891   3.041 -0.1905  0.4284 -0.1689
 9017SOL    HW138510   3.277   3.867   3.078 -0.8628  0.4569 -1.6729
 9017SOL    HW238511   3.426   3.853   3.101  0.7309 -2.6090 -3.0490
 9018SOL     OW38512   2.116   1.981   8.672  0.0993 -0.4620  0.2038
 9018SOL    HW138513   2.152   2.062   8.635 -0.1180 -0.0093  0.9980
 9018SOL    HW238514   2.185   1.921   8.642 -0.1457 -0.9638  0.6692
 9019SOL     OW38515   1.809   2.879   4.677  0.1388 -0.0666  0.1856
 9019SOL    HW138516   1.804   2.879   4.773 -0.4430 -1.0872  0.1455
 9019SOL    HW238517   1.764   2.800   4.648 -1.3640  0.6929  0.4497
 9020SOL     OW38518   0.211   3.143  16.812  0.7715  0.5263  0.4596
 9020SOL    HW138519   0.275   3.145  16.883 -0.1349 -0.2615  1.2801
 9020SOL    HW238520   0.272   3.100  16.752 -1.0088  0.1586 -1.0858
 9021SOL     OW38521   3.778   2.579   4.198 -0.4525 -0.0828  0.3481
 9021SOL    HW138522   3.871   2.599   4.206 -0.5527  1.2128 -1.5620
 9021SOL    HW238523   3.755   2.532   4.278  2.6742 -1.5389  0.3762
 9022SOL     OW38524   1.808   3.670   1.386  0.4994  0.5842 -0.3023
 9022SOL    HW138525   1.759   3.752   1.388 -1.8290 -0.8198  0.3099
 9022SOL    HW238526   1.763   3.612   1.448  3.1257  0.4919  1.5492
 9023SOL     OW38527   0.198   2.233   5.321  0.0970 -0.3271 -0.6833
 9023SOL    HW138528   0.201   2.138   5.337  4.3865  0.0409  0.7260
 9023SOL    HW238529   0.291   2.255   5.320  0.4378 -1.6741  1.4724
 9024SOL     OW38530   3.809   2.150   2.803 -0.2991  0.0793  0.2688
 9024SOL    HW138531   3.768   2.224   2.759 -0.1841  0.0616  0.1337
 9024SOL    HW238532   3.784   2.081   2.742 -1.1296 -0.8556  1.6461
 9025SOL     OW38533   2.778   0.565   9.725  0.6690  0.1536 -0.1554
 9025SOL    HW138534   2.845   0.508   9.763  0.6227 -0.5465 -1.0946
 9025SOL    HW238535   2.836   0.612   9.665  0.3411 -0.1133 -0.6858
 9026SOL     OW38536   3.660   0.370   3.794  0.2002  0.1921  0.2932
 9026SOL    HW138537   3.579   0.418   3.776  1.0434  0.0974 -3.8194
 9026SOL    HW238538   3.714   0.445   3.816 -0.9627  1.4841 -1.2926
 9027SOL     OW38539   4.601   0.068   6.728  0.7129 -0.4497 -0.9107
 9027SOL    HW138540   4.597   0.161   6.750 -2.4186 -0.8307  0.1468
 9027SOL    HW238541   4.688   0.063   6.688  0.3746  0.1325 -1.7100
 9028SOL     OW38542   2.918   2.340  10.292  0.0802  0.3162 -0.3154
 9028SOL    HW138543   2.903   2.401  10.364  0.7120  0.6197 -0.4402
 9028SOL    HW238544   3.014   2.330  10.292  0.0307 -0.0358 -3.2000
 9029SOL     OW38545   3.725   2.537   6.004  0.0488  0.1131 -0.2822
 9029SOL    HW138546   3.670   2.586   6.066 -0.7075 -4.2751  2.5110
 9029SOL    HW238547   3.712   2.591   5.927 -0.1432 -0.8140 -0.8959
 9030SOL     OW38548   4.355   4.691   4.878 -0.0298  0.2108  0.8774
 9030SOL    HW138549   4.271   4.646   4.881 -0.4029  0.9663  1.8345
 9030SOL    HW238550   4.367   4.722   4.968 -1.5763  0.0456  1.1364
 9031SOL     OW38551   2.232   4.055   4.912 -0.2300 -0.0564  1.3309
 9031SOL    HW138552   2.244   4.145   4.883  1.5165 -1.1940 -1.5297
 9031SOL    HW238553   2.305   4.029   4.855  0.1451 -0.1264  1.8384
 9032SOL     OW38554   1.479   1.192   7.534 -0.0809  0.2526 -0.2768
 9032SOL    HW138555   1.438   1.265   7.488  0.7800 -0.1790 -1.7381
 9032SOL    HW238556   1.442   1.113   7.494 -0.3614 -0.9831  2.4672
 9033SOL     OW38557   4.513   3.471   5.276 -0.5848 -0.0872  0.5398
 9033SOL    HW138558   4.513   3.376   5.281  0.4048 -0.1263 -0.1067
 9033SOL    HW238559   4.421   3.481   5.252  0.1671  1.3329 -1.8663
 9034SOL     OW38560   4.688   2.400   4.127 -0.0761  0.7916 -0.2213
 9034SOL    HW138561   0.048   2.408   4.080 -0.1722 -0.0324 -0.5213
 9034SOL    HW238562   4.701   2.314   4.167  1.2971  1.2382  0.2801
 9035SOL     OW38563   2.411   2.743  13.635 -0.2829  0.0118 -0.2646
 9035SOL    HW138564   2.459   2.752  13.717  2.1181 -0.1305 -1.6644
 9035SOL    HW238565   2.472   2.699  13.576 -0.0696 -0.0503  0.0086
 9036SOL     OW38566   0.410   1.447   2.746  0.3918  0.0726 -0.5141
 9036SOL    HW138567   0.324   1.421   2.779  0.3827 -0.5175 -0.9864
 9036SOL    HW238568   0.457   1.370   2.778  0.8837  0.6541  0.1496
 9037SOL     OW38569   3.756   0.592   0.828  0.1995 -0.4294  0.8190
 9037SOL    HW138570   3.840   0.624   0.860 -0.3391 -0.2929  2.0940
 9037SOL    HW238571   3.718   0.663   0.776  0.1838 -2.1131 -1.4420
 9038SOL     OW38572   3.576   2.248   8.729 -0.5245 -0.4221  0.8165
 9038SOL    HW138573   3.509   2.238   8.797  1.3303  0.1329  2.7436
 9038SOL    HW238574   3.634   2.174   8.748  0.7602  0.0365 -1.3804
 9039SOL     OW38575   3.282   4.699   5.439 -0.3561 -0.1617  0.4695
 9039SOL    HW138576   3.231   4.709   5.359  0.5839 -1.5721 -0.3100
 9039SOL    HW238577   3.367   0.008   5.409 -0.3637  0.8150  1.4675
 9040SOL     OW38578   0.742   2.700   1.444  0.5254  0.3184  0.2589
 9040SOL    HW138579   0.659   2.718   1.489 -0.7040 -2.0675 -1.0373
 9040SOL    HW238580   0.741   2.767   1.375 -1.5349  2.3521  2.2422
 9041SOL     OW38581   4.582   2.593  10.555  0.3629  0.3740 -0.1589
 9041SOL    HW138582   4.606   2.525  10.619 -0.7768 -1.4964 -1.7210
 9041SOL    HW238583   4.504   2.629  10.597  1.1812  0.4620  1.3068
 9042SOL     OW38584   4.318   3.112   5.562  0.0912  0.3474 -0.0354
 9042SOL    HW138585   4.234   3.119   5.516  1.1349  1.9053 -1.7031
 9042SOL    HW238586   4.380   3.128   5.491  0.7078  0.1413  0.4510
 9043SOL     OW38587   3.019   1.225   3.676 -0.1561 -0.2362 -0.8750
 9043SOL    HW138588   2.986   1.270   3.598 -1.0591  1.9579  0.7573
 9043SOL    HW238589   3.041   1.297   3.735  0.1274 -0.5906 -0.5526
 9044SOL     OW38590   2.893   0.019   9.285  0.1993 -0.5461 -0.2169
 9044SOL    HW138591   2.888   0.085   9.354  2.2959 -0.2206 -0.3809
 9044SOL    HW238592   2.971   4.697   9.317  0.8161  0.0300 -0.9155
 9045SOL     OW38593   2.626   3.171  11.945  0.5055  0.1767 -0.4656
 9045SOL    HW138594   2.714   3.137  11.931  0.8601  1.9040 -2.3398
 9045SOL    HW238595   2.625   3.227  11.868  3.7043 -0.7995 -1.2264
 9046SOL     OW38596   0.013   2.719   7.201  0.4070  0.6592 -0.4039
 9046SOL    HW138597   4.672   2.790   7.208 -0.5793 -0.1819 -0.7618
 9046SOL    HW238598   0.095   2.761   7.175  0.8545 -0.7442 -1.2822
 9047SOL     OW38599   1.488   1.515   5.151  0.0523  0.2866  0.4252
 9047SOL    HW138600   1.569   1.521   5.101  1.0492 -0.2680  1.9745
 9047SOL    HW238601   1.469   1.609   5.153  1.0224  0.3675  4.7323
 9048SOL     OW38602   2.314   3.636   4.111 -0.6859 -0.4121  0.0300
 9048SOL    HW138603   2.219   3.632   4.119 -0.5400 -2.4479  0.7135
 9048SOL    HW238604   2.322   3.649   4.017  1.1218 -1.4370  0.0348
 9049SOL     OW38605   2.729   4.369   5.779  0.4949 -1.1828 -0.1062
 9049SOL    HW138606   2.747   4.275   5.786  2.1441 -0.9509 -1.2471
 9049SOL    HW238607   2.697   4.383   5.690  2.8680 -0.2390 -0.8142
 9050SOL     OW38608   1.242   0.229  14.531 -0.3354  0.4365 -0.2197
 9050SOL    HW138609   1.304   0.158  14.545 -1.5796 -0.3647  1.2161
 9050SOL    HW238610   1.199   0.194  14.453  0.5925  2.6596 -1.7375
 9051SOL     OW38611   1.729   4.578   5.541  0.5587 -0.1903  0.1463
 9051SOL    HW138612   1.658   4.585   5.604 -0.1596  1.4487 -0.8366
 9051SOL    HW238613   1.771   4.499   5.576 -1.9960 -2.3815 -1.6733
 9052SOL     OW38614   0.327   1.204  17.390  0.3989 -0.2702 -0.0164
 9052SOL    HW138615   0.233   1.210  17.368  0.5233  1.3131 -0.1329
 9052SOL    HW238616   0.333   1.109  17.380  2.8299  0.0285 -1.3049
 9053SOL     OW38617   3.246   3.901  16.093  0.0117  0.3104 -0.4051
 9053SOL    HW138618   3.165   3.918  16.141  0.9097  0.7040  0.9602
 9053SOL    HW238619   3.231   3.947  16.010  1.5612  0.9462 -0.3154
 9054SOL     OW38620   4.175   1.966   5.639 -0.1931 -0.1094  0.3354
 9054SOL    HW138621   4.201   2.056   5.622 -2.7492  1.0410  2.6411
 9054SOL    HW238622   4.099   1.967   5.582  0.3645 -0.9056 -0.4358
 9055SOL     OW38623   0.033   1.688   8.024  0.5407  0.0369  0.7420
 9055SOL    HW138624   0.090   1.625   7.980 -0.6821 -0.7398  0.2704
 9055SOL    HW238625   4.721   1.750   7.960  0.9636 -0.2468  0.2357
 9056SOL     OW38626   2.106   4.675   5.481  0.0013 -0.4167  0.3003
 9056SOL    HW138627   2.154   0.003   5.415  0.7434  0.1561  1.2673
 9056SOL    HW238628   2.020   4.718   5.480  0.0900 -0.2652 -1.5067
 9057SOL     OW38629   4.245   1.671   8.984  0.1899  0.1447 -0.4524
 9057SOL    HW138630   4.221   1.700   9.072  1.6765  1.0965 -0.3587
 9057SOL    HW238631   4.302   1.746   8.968  1.1905 -0.3603  0.7215
 9058SOL     OW38632   2.517   2.192   9.212 -0.0087 -0.2321 -0.1483
 9058SOL    HW138633   2.518   2.105   9.251  0.1606 -0.5654 -0.8953
 9058SOL    HW238634   2.422   2.186   9.201  0.1504  0.3749 -1.8135
 9059SOL     OW38635   1.688   0.743  13.416 -0.6833 -0.1586  0.1809
 9059SOL    HW138636   1.638   0.742  13.498 -1.7287 -0.9691 -0.4848
 9059SOL    HW238637   1.775   0.760  13.453 -0.7479 -1.5748  0.9962
 9060SOL     OW38638   4.535   4.481   6.048  0.0326 -0.1145  0.4323
 9060SOL    HW138639   4.607   4.511   6.104  2.5341 -0.9720 -2.3533
 9060SOL    HW238640   4.467   4.546   6.064 -1.5526 -2.1467  2.0577
 9061SOL     OW38641   3.778   1.504   8.171 -0.1887 -0.1500 -0.0276
 9061SOL    HW138642   3.798   1.596   8.152  2.1510 -0.9850 -1.5844
 9061SOL    HW238643   3.842   1.487   8.240 -0.9095 -3.1055 -0.0791
 9062SOL     OW38644   0.934   3.006   8.447 -0.1251 -0.3444 -0.1739
 9062SOL    HW138645   0.933   3.074   8.514  1.8632  0.5654 -1.0671
 9062SOL    HW238646   0.843   3.006   8.417 -0.2681  0.5163  0.2546
 9063SOL     OW38647   1.638   3.223   7.832 -0.4043 -0.2133  0.1844
 9063SOL    HW138648   1.727   3.191   7.818 -0.7446 -0.0375 -2.4260
 9063SOL    HW238649   1.656   3.316   7.838  3.1555 -1.0453  1.9861
 9064SOL     OW38650   0.624   3.621   6.633 -0.5491  0.0735  0.4092
 9064SOL    HW138651   0.637   3.582   6.546  2.1871  2.4079 -0.2164
 9064SOL    HW238652   0.567   3.697   6.621 -0.3521 -0.0077 -0.9787
 9065SOL     OW38653   4.563   2.258   5.427 -0.6596  0.3759  0.6739
 9065SOL    HW138654   4.477   2.297   5.408 -1.1877 -1.6994 -1.2454
 9065SOL    HW238655   4.566   2.256   5.523 -2.5952  0.7307  0.7582
 9066SOL     OW38656   3.140   1.939   0.791  0.0399  0.4170  0.2334
 9066SOL    HW138657   3.160   2.031   0.809  2.5629  0.0378 -0.6466
 9066SOL    HW238658   3.097   1.948   0.706 -0.5876 -2.9585  0.2094
 9067SOL     OW38659   0.133   4.465   6.706  0.2348 -0.8897 -0.3193
 9067SOL    HW138660   0.196   4.520   6.660 -0.7969  1.7201  1.4037
 9067SOL    HW238661   0.057   4.522   6.699  0.2192 -0.7896  0.7045
 9068SOL     OW38662   2.979   2.435  13.800 -0.4629 -0.3900 -0.1416
 9068SOL    HW138663   3.047   2.388  13.753  1.3689  2.2047 -0.0694
 9068SOL    HW238664   3.023   2.517  13.778 -0.3220 -0.5740 -0.5331
 9069SOL     OW38665   4.607   1.635   1.275 -0.3300  0.6294 -0.0117
 9069SOL    HW138666   4.532   1.684   1.309 -1.9945 -0.2157 -2.3822
 9069SOL    HW238667   4.564   1.552   1.253 -1.6433  1.6950 -1.5618
 9070SOL     OW38668   0.594   1.509   5.980  0.2412  0.0443 -0.2064
 9070SOL    HW138669   0.559   1.598   5.992 -0.4372 -0.3011  0.3584
 9070SOL    HW238670   0.633   1.495   6.066 -1.4002  1.2012  0.7285
 9071SOL     OW38671   4.000   4.677   8.720 -0.1962  0.3698 -0.3333
 9071SOL    HW138672   3.943   4.610   8.758 -0.3442  1.7688  1.9221
 9071SOL    HW238673   4.084   4.638   8.744 -0.8018 -0.1880  0.8886
 9072SOL     OW38674   4.436   2.737  10.728 -0.1976 -0.0415  0.5772
 9072SOL    HW138675   4.355   2.712  10.773 -0.7882  2.3017  0.7978
 9072SOL    HW238676   4.407   2.796  10.658 -1.2864  0.5391  1.5310
 9073SOL     OW38677   3.133   2.008   3.484 -0.2020 -0.0910 -0.0189
 9073SOL    HW138678   3.108   2.100   3.494  3.0779  0.8676 -0.5938
 9073SOL    HW238679   3.050   1.973   3.453 -0.8960 -1.2803  3.2043
 9074SOL     OW38680   3.129   3.722   4.007 -0.4103 -0.0872 -0.3832
 9074SOL    HW138681   3.042   3.763   4.011  0.3026  1.4848 -0.7150
 9074SOL    HW238682   3.173   3.778   4.072  2.7357  0.6813 -3.1943
 9075SOL     OW38683   1.391   3.981   6.278 -0.0312  0.2493  0.0112
 9075SOL    HW138684   1.406   3.999   6.371 -0.8769  2.1071 -0.2098
 9075SOL    HW238685   1.460   4.037   6.243  1.2499 -0.3772  1.5095
 9076SOL     OW38686   4.008   1.603   3.479 -0.2407  0.7986 -0.1128
 9076SOL    HW138687   4.046   1.651   3.404  1.5900 -0.8245 -0.2258
 9076SOL    HW238688   3.950   1.543   3.433 -1.8952  1.6555  0.8725
 9077SOL     OW38689   3.725   0.587   8.097  0.1563 -0.4763 -0.4214
 9077SOL    HW138690   3.757   0.593   8.006 -1.7356 -0.8107 -1.1003
 9077SOL    HW238691   3.796   0.631   8.143 -0.5264 -2.0405  2.0999
 9078SOL     OW38692   3.616   3.016  11.735 -0.2161 -0.7745  0.4654
 9078SOL    HW138693   3.551   3.040  11.669  0.3274  0.6313  0.4481
 9078SOL    HW238694   3.628   3.102  11.775 -0.8665 -0.9695  1.0850
 9079SOL     OW38695   2.581   0.454   8.168 -1.0053  1.0656  0.0068
 9079SOL    HW138696   2.534   0.538   8.167 -0.9461  1.0541 -2.5822
 9079SOL    HW238697   2.501   0.408   8.193  0.6206 -1.2814  0.8170
 9080SOL     OW38698   2.853   1.566   3.811  0.1753  0.3113  0.8384
 9080SOL    HW138699   2.848   1.488   3.866 -0.5275 -0.5430 -0.4307
 9080SOL    HW238700   2.948   1.561   3.797  0.2562  0.0188  1.4782
 9081SOL     OW38701   1.856   4.524   2.142 -0.5734  0.5521  0.4363
 9081SOL    HW138702   1.947   4.554   2.148 -0.6929  0.7513  1.1985
 9081SOL    HW238703   1.876   4.430   2.140 -1.0872  0.4936 -2.4153
 9082SOL     OW38704   2.187   2.293   4.121  0.0348 -0.1270 -0.0973
 9082SOL    HW138705   2.201   2.218   4.064  1.7325  1.0184 -1.1893
 9082SOL    HW238706   2.199   2.371   4.067  3.9537  2.1451  4.0450
 9083SOL     OW38707   2.822   2.877   0.206  0.7036  0.4610  0.0594
 9083SOL    HW138708   2.893   2.814   0.222  0.7532  0.6098  0.4446
 9083SOL    HW238709   2.817   2.933   0.284  0.4659 -0.3732  0.6496
 9084SOL     OW38710   4.068   3.983   3.856 -0.1517  0.0762 -0.2871
 9084SOL    HW138711   4.070   3.970   3.761  1.2584  0.3950 -0.3139
 9084SOL    HW238712   4.159   3.958   3.874 -0.3436 -0.8367 -0.5969
 9085SOL     OW38713   3.413   1.536   7.541  0.1906 -0.3587 -0.3593
 9085SOL    HW138714   3.355   1.470   7.579  0.1996  0.2389  0.7080
 9085SOL    HW238715   3.504   1.519   7.565  0.5982  0.7432 -1.0975
 9086SOL     OW38716   4.195   1.973   8.264  0.3745  0.4745 -0.7307
 9086SOL    HW138717   4.256   1.952   8.193  2.6797  1.1033  1.0504
 9086SOL    HW238718   4.179   2.062   8.231  2.0789  0.4898 -1.5137
 9087SOL     OW38719   0.534   1.437   6.436  0.3002  0.0958 -0.2583
 9087SOL    HW138720   0.460   1.384   6.466 -1.2301  1.1690 -2.0909
 9087SOL    HW238721   0.490   1.513   6.397  0.0453 -0.9392 -2.0058
 9088SOL     OW38722   3.195   3.229   6.026 -0.2629 -0.4401  0.5342
 9088SOL    HW138723   3.206   3.324   6.023 -0.5152 -0.4346 -0.0916
 9088SOL    HW238724   3.101   3.218   6.042 -0.4529  0.0358 -0.2915
 9089SOL     OW38725   2.938   0.791   4.868 -0.2277 -0.0421  0.1299
 9089SOL    HW138726   2.965   0.714   4.918  0.3902  0.7532  1.0107
 9089SOL    HW238727   2.986   0.774   4.787 -2.4471 -1.4940 -0.8792
 9090SOL     OW38728   1.765   0.498   4.733 -0.1181 -0.3804  0.1459
 9090SOL    HW138729   1.715   0.485   4.653 -0.6907  2.5423  0.0487
 9090SOL    HW238730   1.850   0.508   4.690  0.4659  0.2912  1.4620
 9091SOL     OW38731   4.450   2.360   0.251 -0.6862 -0.0864  0.2150
 9091SOL    HW138732   4.534   2.340   0.293 -0.7412 -1.9241 -0.5488
 9091SOL    HW238733   4.395   2.298   0.300  0.3062 -1.1416  0.0199
 9092SOL     OW38734   2.156   0.806   8.187  0.4068  0.4865 -0.0685
 9092SOL    HW138735   2.188   0.857   8.261 -0.9587  0.6642  0.4148
 9092SOL    HW238736   2.077   0.854   8.163  0.0870  0.1754  0.3316
 9093SOL     OW38737   4.433   2.155   1.834  0.0399  0.3583 -0.4788
 9093SOL    HW138738   4.476   2.073   1.811 -1.9201 -1.3504  1.9900
 9093SOL    HW238739   4.342   2.136   1.810 -1.1804  0.6213  3.8992
 9094SOL     OW38740   1.744   0.212   8.324 -0.0070  0.2321 -0.1882
 9094SOL    HW138741   1.765   0.172   8.408 -1.2116  0.2433  0.1194
 9094SOL    HW238742   1.831   0.210   8.284 -0.4841  1.1563 -1.2553
 9095SOL     OW38743   3.774   3.507  13.532 -0.1159  0.0786  0.0708
 9095SOL    HW138744   3.704   3.551  13.581 -1.6593 -1.6028 -0.6260
 9095SOL    HW238745   3.744   3.517  13.442  0.2002  2.2709  0.2068
 9096SOL     OW38746   2.908   3.950   4.770 -0.6143  0.2098  0.0460
 9096SOL    HW138747   2.821   3.930   4.804 -1.7890  3.4776 -0.9713
 9096SOL    HW238748   2.904   4.044   4.750  0.0757  0.5128  1.3420
 9097SOL     OW38749   4.604   3.581   2.889  0.8002 -0.1293  0.0084
 9097SOL    HW138750   4.694   3.611   2.899  0.8072 -0.4727  0.9844
 9097SOL    HW238751   4.574   3.623   2.969  1.6436  1.6015 -0.5800
 9098SOL     OW38752   2.703   1.727  10.854  0.1535 -0.2540  0.8129
 9098SOL    HW138753   2.635   1.660  10.863  1.9797 -2.4924 -2.1781
 9098SOL    HW238754   2.710   1.744  10.760 -0.8953 -0.3742  0.7173
 9099SOL     OW38755   0.797   4.341   2.297 -0.1875  0.3816  0.2072
 9099SOL    HW138756   0.761   4.423   2.331 -2.3987 -0.1511 -0.8637
 9099SOL    HW238757   0.796   4.355   2.202  2.1037  0.4292  0.1742
 9100SOL     OW38758   2.474   2.807   8.979 -0.1461  0.3881  0.1324
 9100SOL    HW138759   2.532   2.841   8.910  1.1815  1.8859  1.9674
 9100SOL    HW238760   2.492   2.714   8.974  0.2716  0.3979  1.4218
 9101SOL     OW38761   1.006   4.371   7.227 -0.5723 -0.0846 -0.2508
 9101SOL    HW138762   1.019   4.459   7.191 -0.2745 -0.6108 -1.4412
 9101SOL    HW238763   0.983   4.320   7.149 -1.5490  0.5183 -0.3606
 9102SOL     OW38764   0.788   1.299   7.146  0.6772  0.1327  0.1493
 9102SOL    HW138765   0.731   1.349   7.203 -0.0005 -0.3805 -0.0764
 9102SOL    HW238766   0.802   1.212   7.184  1.0112  0.5197  0.8963
 9103SOL     OW38767   3.725   2.082   0.922 -0.8031 -0.0525 -0.4968
 9103SOL    HW138768   3.814   2.073   0.956 -1.2414 -0.7344  0.4459
 9103SOL    HW238769   3.727   2.023   0.847  1.6793 -2.7434  1.6968
 9104SOL     OW38770   3.276   1.171  13.413  0.0480 -0.2264  0.1619
 9104SOL    HW138771   3.186   1.144  13.432  0.0913  1.4145  2.5881
 9104SOL    HW238772   3.265   1.264  13.395  2.8148  0.0741  0.0306
 9105SOL     OW38773   3.617   0.158   9.497  0.1919  0.0419 -0.2756
 9105SOL    HW138774   3.627   0.191   9.587 -0.8829  1.5702 -0.7192
 9105SOL    HW238775   3.652   0.241   9.464 -1.2480  0.5954 -0.3863
 9106SOL     OW38776   4.456   1.690   6.497 -0.2245  0.4342  0.2116
 9106SOL    HW138777   4.496   1.649   6.574 -0.4755  4.3370  2.4330
 9106SOL    HW238778   4.394   1.619   6.479  0.8681 -0.0005 -1.8190
 9107SOL     OW38779   0.507   3.420   2.966 -0.4512 -0.2817 -0.5338
 9107SOL    HW138780   0.515   3.448   2.874  0.2877  0.0249 -0.3770
 9107SOL    HW238781   0.444   3.350   2.956 -2.0963  1.2669 -1.0286
 9108SOL     OW38782   3.421   1.938   2.372 -0.3653 -0.5707 -0.2548
 9108SOL    HW138783   3.325   1.935   2.372 -0.3709 -0.3020  1.6110
 9108SOL    HW238784   3.444   1.978   2.456 -0.6615  0.4069 -0.6433
 9109SOL     OW38785   4.394   0.194   3.453  0.0107  0.4568 -0.0602
 9109SOL    HW138786   4.358   0.283   3.455  0.5785  0.6584  1.2410
 9109SOL    HW238787   4.313   0.147   3.430  0.1947  0.4008 -0.5915
 9110SOL     OW38788   2.168   1.704   2.381 -0.1003 -0.3735 -0.1418
 9110SOL    HW138789   2.115   1.723   2.459  0.2872  0.5201 -0.0883
 9110SOL    HW238790   2.211   1.623   2.408  1.1362  0.0090 -0.9875
 9111SOL     OW38791   4.148   3.569   7.548  0.3571  0.3518 -0.2355
 9111SOL    HW138792   4.208   3.523   7.607 -2.6388 -0.8270  1.9211
 9111SOL    HW238793   4.172   3.530   7.464  0.3264  2.3219 -1.1424
 9112SOL     OW38794   0.427   1.555   0.919  0.0066  0.1744 -0.4204
 9112SOL    HW138795   0.504   1.541   0.974 -0.4748 -1.0970 -0.0703
 9112SOL    HW238796   0.403   1.466   0.942 -1.8833  1.0768  1.1017
 9113SOL     OW38797   1.841   4.422   6.500 -0.7588 -0.1091  0.0893
 9113SOL    HW138798   1.901   4.486   6.461 -0.6725 -1.0660 -1.3229
 9113SOL    HW238799   1.903   4.388   6.565 -0.3813 -0.9604 -0.7292
 9114SOL     OW38800   3.912   1.492   7.323 -0.2032  0.4494  1.1574
 9114SOL    HW138801   3.849   1.422   7.306  1.0021 -0.5014  0.6515
 9114SOL    HW238802   3.985   1.435   7.349  0.0743 -0.8937 -2.5438
 9115SOL     OW38803   0.409   0.520   7.292 -0.2151 -0.6822  0.2530
 9115SOL    HW138804   0.435   0.428   7.293  0.7262 -0.4258 -1.7803
 9115SOL    HW238805   0.433   0.539   7.383  2.9780 -1.4946 -0.4078
 9116SOL     OW38806   0.178   0.102   4.675 -0.0627  0.0751 -0.1165
 9116SOL    HW138807   0.089   0.080   4.704 -0.0643 -0.1651 -0.2990
 9116SOL    HW238808   0.224   0.022   4.698 -0.0035  0.4182  0.9697
 9117SOL     OW38809   3.642   1.464   4.654 -0.0740  0.0700  0.0534
 9117SOL    HW138810   3.678   1.454   4.743  2.0451 -0.4420 -0.8530
 9117SOL    HW238811   3.695   1.396   4.614  0.2408  1.4905 -1.9451
 9118SOL     OW38812   3.902   1.319   4.576 -0.2958  0.0302  0.2553
 9118SOL    HW138813   3.945   1.392   4.532 -0.5611 -0.0467 -0.1272
 9118SOL    HW238814   3.973   1.288   4.632  0.9743  1.4911 -0.5716
 9119SOL     OW38815   2.635   4.038   3.843 -0.1786 -0.0457 -0.2558
 9119SOL    HW138816   2.721   4.034   3.885 -0.7442 -0.6649  0.8467
 9119SOL    HW238817   2.603   4.122   3.876 -1.2223 -0.9704  1.0738
 9120SOL     OW38818   1.947   3.633   8.094 -0.3145 -0.4527 -0.3538
 9120SOL    HW138819   2.016   3.625   8.160 -1.5383 -2.7368  0.6793
 9120SOL    HW238820   1.989   3.698   8.038  0.3634  0.7996  1.6232
 9121SOL     OW38821   3.148   4.248   2.562  0.0207  0.1408 -0.2191
 9121SOL    HW138822   3.055   4.241   2.585  0.0119 -0.9969 -0.6006
 9121SOL    HW238823   3.176   4.318   2.622 -1.5794  2.2180 -1.8698
 9122SOL     OW38824   3.603   3.591   2.928 -0.4021  0.3838 -0.1294
 9122SOL    HW138825   3.641   3.647   2.860 -0.6119 -0.5243 -0.9894
 9122SOL    HW238826   3.515   3.566   2.899  0.9376 -1.9982 -2.1900
 9123SOL     OW38827   0.414   0.128   6.810  0.3531 -0.1831 -0.0593
 9123SOL    HW138828   0.323   0.129   6.838  0.1663  0.1390 -0.6633
 9123SOL    HW238829   0.424   0.209   6.759  2.2898  0.3953  1.2482
 9124SOL     OW38830   4.227   3.223  13.239 -0.0788  0.0518 -0.1812
 9124SOL    HW138831   4.265   3.144  13.279 -0.7601 -0.2254 -0.0789
 9124SOL    HW238832   4.272   3.223  13.155  1.6653  1.1912  0.7408
 9125SOL     OW38833   4.475   3.278  14.576  0.3151  0.1965  0.0917
 9125SOL    HW138834   4.384   3.253  14.593  0.4063 -0.3593 -0.2199
 9125SOL    HW238835   4.460   3.366  14.541  0.1172  0.5641  1.0997
 9126SOL     OW38836   4.039   4.240   7.199  0.3981  0.2724  0.4910
 9126SOL    HW138837   4.065   4.331   7.214 -0.0612  0.9017 -2.5221
 9126SOL    HW238838   3.983   4.252   7.122  0.3726 -3.0641  0.0175
 9127SOL     OW38839   2.998   2.534   1.975 -0.2343 -0.8930 -0.7043
 9127SOL    HW138840   3.077   2.585   1.991  0.8626 -2.8409  0.0314
 9127SOL    HW238841   3.026   2.482   1.901 -0.8162 -3.6696  1.0137
 9128SOL     OW38842   2.058   4.098   3.476 -0.4251  0.2807  0.1458
 9128SOL    HW138843   2.149   4.070   3.468 -0.9743 -0.7802 -2.3744
 9128SOL    HW238844   2.026   4.054   3.555  0.8238 -1.8611 -0.5349
 9129SOL     OW38845   0.727   1.807   8.136 -0.2916 -0.1059  0.0444
 9129SOL    HW138846   0.754   1.895   8.112  1.8752 -0.6585  0.4804
 9129SOL    HW238847   0.795   1.766   8.189 -1.1975  1.0232  2.0797
 9130SOL     OW38848   1.299   0.636   7.071 -0.0438  0.0066 -0.7885
 9130SOL    HW138849   1.299   0.716   7.019  1.1086  0.3366 -0.2910
 9130SOL    HW238850   1.265   0.569   7.013 -2.5300 -0.4294  1.1940
 9131SOL     OW38851   2.122   4.569  17.216 -0.3433 -0.2903 -0.8441
 9131SOL    HW138852   2.186   4.563  17.145  0.1012  0.5251 -0.5099
 9131SOL    HW238853   2.073   4.487  17.212 -0.6724 -0.0776 -1.2006
 9132SOL     OW38854   3.571   4.180   1.394  0.2543  0.0142 -0.3342
 9132SOL    HW138855   3.602   4.126   1.321 -1.3470 -1.4450  0.0524
 9132SOL    HW238856   3.497   4.126   1.421  1.1696 -0.2299  1.7277
 9133SOL     OW38857   0.125   4.264   6.892 -0.1848  0.2878 -0.3723
 9133SOL    HW138858   0.062   4.207   6.849 -0.1885  0.1315 -0.1601
 9133SOL    HW238859   0.130   4.325   6.818 -1.1372 -1.5512 -1.9574
 9134SOL     OW38860   0.751   1.162   8.498  0.2667 -0.1272  0.0190
 9134SOL    HW138861   0.786   1.246   8.469  0.3737 -0.1117  0.1922
 9134SOL    HW238862   0.819   1.097   8.479  0.6186  0.0226  0.7459
 9135SOL     OW38863   0.206   0.857   3.080 -0.2855 -0.1906  1.2760
 9135SOL    HW138864   0.194   0.874   3.173 -0.4816  0.9750  1.0464
 9135SOL    HW238865   0.166   0.771   3.073 -1.4549  0.5923 -2.0133
 9136SOL     OW38866   1.028   4.381  11.296  0.1547  0.2130 -0.2423
 9136SOL    HW138867   1.117   4.353  11.276  0.7113  0.9476  1.2076
 9136SOL    HW238868   1.003   4.415  11.210  1.1201  1.5105 -0.0048
 9137SOL     OW38869   3.794   2.499   6.717  0.0498  0.9525  0.1028
 9137SOL    HW138870   3.828   2.429   6.773  1.7634  0.1085 -1.9671
 9137SOL    HW238871   3.869   2.559   6.722  0.1574  0.8023  0.3284
 9138SOL     OW38872   2.346   0.265   1.943 -0.5418 -0.3116 -0.2574
 9138SOL    HW138873   2.287   0.238   2.013  1.8334 -0.2328  1.7705
 9138SOL    HW238874   2.412   0.315   1.991 -0.9038  0.6195 -0.7366
 9139SOL     OW38875   4.629   0.889  12.353 -0.0175 -0.2294 -0.7379
 9139SOL    HW138876   4.583   0.924  12.429  0.3063 -0.8467 -0.2544
 9139SOL    HW238877   4.718   0.923  12.362  0.4246 -0.9279 -2.3162
 9140SOL     OW38878   1.181   1.500   8.346  0.2411 -0.2761  0.8102
 9140SOL    HW138879   1.240   1.553   8.400 -0.4875  1.6931 -0.3184
 9140SOL    HW238880   1.161   1.570   8.284  0.3461  0.3683  1.4916
 9141SOL     OW38881   3.099   1.632   8.165 -0.1205  0.0593  0.5624
 9141SOL    HW138882   3.015   1.640   8.211  1.4308 -0.4296  3.4481
 9141SOL    HW238883   3.118   1.725   8.150 -1.9344  0.1130 -1.4685
 9142SOL     OW38884   2.758   3.169   3.686  0.7608 -0.9171  0.4958
 9142SOL    HW138885   2.747   3.107   3.614 -0.5219  0.8404 -0.8107
 9142SOL    HW238886   2.788   3.104   3.749  0.0341 -0.3931  1.3776
 9143SOL     OW38887   2.673   2.102   3.391 -0.5843 -0.2259 -0.2217
 9143SOL    HW138888   2.724   2.021   3.394  0.8383  0.7920  3.4752
 9143SOL    HW238889   2.649   2.107   3.299  0.1269  2.8562 -0.2339
 9144SOL     OW38890   4.190   2.865  14.133  0.1310 -1.0716  0.1480
 9144SOL    HW138891   4.138   2.924  14.188 -1.4065 -0.6716 -1.7047
 9144SOL    HW238892   4.207   2.908  14.049  1.3888  2.1050  2.0156
 9145SOL     OW38893   0.048   4.061   5.379 -1.1402 -0.0274  0.2629
 9145SOL    HW138894   0.089   4.143   5.354 -0.2273 -0.5606  0.0219
 9145SOL    HW238895   4.704   4.047   5.311 -1.7286  2.0603  0.4114
 9146SOL     OW38896   0.948   2.080   4.462  0.2388  0.0537  0.1529
 9146SOL    HW138897   1.033   2.114   4.489 -0.5958  2.3208 -0.0817
 9146SOL    HW238898   0.909   2.074   4.549  3.2799 -1.9423  1.3746
 9147SOL     OW38899   2.482   3.934   9.409 -0.1024 -0.1412  0.1864
 9147SOL    HW138900   2.543   3.914   9.339 -1.8827  0.1353 -1.4610
 9147SOL    HW238901   2.474   3.849   9.452 -1.6185  0.7146  1.6012
 9148SOL     OW38902   1.158   0.654  14.685 -0.3644  0.1952 -0.0794
 9148SOL    HW138903   1.182   0.716  14.616 -3.0491 -0.8816 -1.9537
 9148SOL    HW238904   1.079   0.689  14.725  1.9739  1.2496  3.6774
 9149SOL     OW38905   3.825   3.482   8.864 -0.5676  0.0279 -0.6690
 9149SOL    HW138906   3.884   3.407   8.865 -1.3275 -0.5681 -0.1385
 9149SOL    HW238907   3.849   3.535   8.940 -0.9120  0.8442 -1.1387
 9150SOL     OW38908   4.705   0.672   5.759  0.1549 -0.5336 -0.0766
 9150SOL    HW138909   4.667   0.666   5.671 -1.0928  0.4548  0.3945
 9150SOL    HW238910   4.627   0.694   5.810 -0.5336 -0.4114 -1.1643
 9151SOL     OW38911   1.335   3.740   4.390 -0.3965  0.9655  0.2374
 9151SOL    HW138912   1.324   3.649   4.415  0.3119  0.8944  0.3072
 9151SOL    HW238913   1.251   3.761   4.350  0.9025  1.7453 -2.0658
 9152SOL     OW38914   3.504   1.074   2.592  0.1278  0.1763 -0.8241
 9152SOL    HW138915   3.417   1.076   2.630 -0.0532 -1.1736 -1.1562
 9152SOL    HW238916   3.476   1.091   2.503  1.2756  1.3634 -0.9593
 9153SOL     OW38917   1.694   1.978  15.988 -0.1273 -0.5269 -0.4396
 9153SOL    HW138918   1.621   1.995  15.928 -0.7126  0.0467  0.4351
 9153SOL    HW238919   1.771   2.012  15.942 -1.2389  0.6569 -1.4088
 9154SOL     OW38920   1.697   4.346   4.882  0.2080  0.1513  0.2483
 9154SOL    HW138921   1.769   4.291   4.914  0.4989  1.1533  1.2988
 9154SOL    HW238922   1.622   4.317   4.935  0.8876 -1.2787  0.4394
 9155SOL     OW38923   4.094   3.267   3.958 -0.6748  0.4497 -0.8796
 9155SOL    HW138924   4.035   3.235   3.890 -0.3572  1.6441 -1.7030
 9155SOL    HW238925   4.042   3.284   4.036  0.1271 -0.7232 -0.0883
 9156SOL     OW38926   0.682   3.218  15.270 -0.1073  0.0766  0.0822
 9156SOL    HW138927   0.689   3.193  15.178  0.5674  1.0309 -0.1216
 9156SOL    HW238928   0.688   3.135  15.319  1.8636 -0.8550 -1.7533
 9157SOL     OW38929   1.125   4.210  15.455 -0.2613  0.0465 -0.6748
 9157SOL    HW138930   1.106   4.303  15.461 -0.1616  0.0037  0.2342
 9157SOL    HW238931   1.076   4.184  15.377 -0.6704  1.0973 -0.7610
 9158SOL     OW38932   0.343   4.013  16.904 -0.5069  0.0559  0.8932
 9158SOL    HW138933   0.292   4.014  16.824 -0.0725  1.1417  0.6322
 9158SOL    HW238934   0.352   3.919  16.920  2.6828 -0.0605 -1.6929
 9159SOL     OW38935   3.055   0.407   6.157 -0.0648  0.1472  0.4863
 9159SOL    HW138936   3.139   0.451   6.142 -1.1862  0.9233 -3.6351
 9159SOL    HW238937   2.994   0.475   6.129  1.0365  0.1885 -1.8659
 9160SOL     OW38938   3.154   1.386  14.573 -0.6729 -0.0349  0.2452
 9160SOL    HW138939   3.086   1.324  14.600 -0.5443 -0.3676 -0.2027
 9160SOL    HW238940   3.162   1.444  14.649 -0.6650 -2.1233  1.8319
 9161SOL     OW38941   3.726   0.982   4.021  0.0472 -0.2465  0.0672
 9161SOL    HW138942   3.685   0.992   3.935 -3.3627  1.0368  1.8448
 9161SOL    HW238943   3.656   1.012   4.078 -1.3761 -0.6419 -1.4815
 9162SOL     OW38944   3.126   0.387  12.837 -0.7980  0.0317  0.0983
 9162SOL    HW138945   3.140   0.342  12.754 -1.4110  1.4468 -0.7873
 9162SOL    HW238946   3.070   0.323  12.881 -0.6231 -0.2289 -0.0583
 9163SOL     OW38947   4.091   3.565   4.496  0.1495 -0.1726 -0.3905
 9163SOL    HW138948   4.161   3.629   4.509 -3.0015  2.9188  1.5633
 9163SOL    HW238949   4.075   3.561   4.402 -0.4484  1.9466 -0.3918
 9164SOL     OW38950   2.302   1.114  16.713  0.6315  0.2824  0.5818
 9164SOL    HW138951   2.295   1.132  16.807  1.9445  2.7312  0.2139
 9164SOL    HW238952   2.219   1.070  16.693  0.7953 -0.3738  1.3406
 9165SOL     OW38953   1.687   1.216  14.786 -0.2455 -0.0039  0.2843
 9165SOL    HW138954   1.638   1.169  14.719 -0.1255 -0.6441  0.6532
 9165SOL    HW238955   1.707   1.299  14.742  0.1638  0.1301  0.7197
 9166SOL     OW38956   0.581   4.197   2.799  0.2305  0.1991  0.1446
 9166SOL    HW138957   0.653   4.138   2.823 -0.7510 -1.2082 -0.3604
 9166SOL    HW238958   0.635   4.276   2.808 -0.8513  0.9396  0.1334
 9167SOL     OW38959   3.296   1.482   8.620  0.3067 -0.6965 -0.2763
 9167SOL    HW138960   3.239   1.407   8.605  0.5521 -0.7063 -1.1783
 9167SOL    HW238961   3.360   1.432   8.670 -0.7337  0.4285  2.1622
 9168SOL     OW38962   3.252   4.299   4.656  0.3462 -0.1110 -0.0701
 9168SOL    HW138963   3.287   4.294   4.568  2.7357  1.8801  0.7781
 9168SOL    HW238964   3.300   4.241   4.716 -1.3613 -0.6142  0.8250
 9169SOL     OW38965   2.586   0.911   2.598 -0.2287  0.0032  0.5203
 9169SOL    HW138966   2.496   0.919   2.630 -1.1411  0.3152 -2.0718
 9169SOL    HW238967   2.588   0.816   2.586  1.2441  0.2511 -1.1748
 9170SOL     OW38968   3.115   1.898   0.217 -0.2779  0.1434 -0.2293
 9170SOL    HW138969   3.187   1.912   0.279 -1.3047  0.1079  0.9518
 9170SOL    HW238970   3.045   1.940   0.266 -0.1334  0.4833 -0.3177
 9171SOL     OW38971   2.959   3.583   6.941  1.0567 -0.4786  0.1920
 9171SOL    HW138972   3.030   3.646   6.929 -2.2837  3.2607 -0.0187
 9171SOL    HW238973   2.954   3.549   6.852  1.2747 -0.7679  0.2928
 9172SOL     OW38974   0.820   1.928   3.125  0.3587  0.2145  0.1285
 9172SOL    HW138975   0.857   1.910   3.039 -0.5350  3.3775 -0.9368
 9172SOL    HW238976   0.891   1.909   3.186  1.3043  3.0436 -0.0621
 9173SOL     OW38977   0.165   1.853   6.177 -0.1701  0.2800 -0.1976
 9173SOL    HW138978   0.117   1.885   6.101 -1.4643 -0.0224  0.4995
 9173SOL    HW238979   0.234   1.919   6.185 -0.6439  0.9420 -1.4952
 9174SOL     OW38980   0.897   2.720   2.905 -0.3593 -0.3133  0.1396
 9174SOL    HW138981   0.935   2.806   2.890 -0.7360  0.5022  3.6975
 9174SOL    HW238982   0.875   2.718   2.999  0.0802  2.7912  0.2937
 9175SOL     OW38983   3.918   4.687  12.108 -0.4485  0.1723 -0.1587
 9175SOL    HW138984   3.920   0.030  12.038  0.5729  0.9851  0.6295
 9175SOL    HW238985   4.013   4.675  12.107 -0.4228  0.2711  0.9127
 9176SOL     OW38986   4.106   0.317   5.787  0.3584 -0.2643  0.1983
 9176SOL    HW138987   4.129   0.410   5.791 -1.2051  0.1701 -0.5890
 9176SOL    HW238988   4.174   0.276   5.734  1.8499  2.3055  0.1241
 9177SOL     OW38989   2.672   1.699   0.521  0.0983 -0.0134 -0.3968
 9177SOL    HW138990   2.607   1.630   0.529  0.3809 -0.3982 -1.3842
 9177SOL    HW238991   2.687   1.705   0.426 -0.6570  1.7809 -0.4062
 9178SOL     OW38992   4.263   3.022   5.143  0.2721 -0.0182  0.3344
 9178SOL    HW138993   4.315   2.974   5.207 -1.4480 -1.0868  0.9167
 9178SOL    HW238994   4.197   3.065   5.197 -1.6417 -0.2780 -1.8062
 9179SOL     OW38995   1.794   3.172   2.403  0.2144  0.2568  0.5388
 9179SOL    HW138996   1.839   3.141   2.324 -1.3946 -0.7835  0.0468
 9179SOL    HW238997   1.866   3.147   2.461  0.3824  0.9710  0.6395
 9180SOL     OW38998   3.037   2.062   6.005  0.0937 -0.2306 -0.2883
 9180SOL    HW138999   3.048   1.996   6.073  1.3663 -0.0140 -0.2783
 9180SOL    HW239000   3.010   2.010   5.929 -2.7873 -0.0651  0.6233
 9181SOL     OW39001   0.285   3.490   4.120 -0.1043 -0.0819 -0.3541
 9181SOL    HW139002   0.233   3.485   4.200 -1.0151 -0.3681 -0.9651
 9181SOL    HW239003   0.340   3.565   4.143 -0.8937 -0.0167  1.4032
 9182SOL     OW39004   3.883   0.179   3.886  0.0428 -0.0218 -0.1368
 9182SOL    HW139005   3.892   0.223   3.801 -2.1794 -1.4026 -1.0790
 9182SOL    HW239006   3.915   0.247   3.945  1.0856 -0.0462 -0.6619
 9183SOL     OW39007   2.037   2.604   3.043 -0.3363  0.5063  0.1689
 9183SOL    HW139008   2.039   2.617   2.948  0.9921  2.5284  0.4859
 9183SOL    HW239009   1.954   2.640   3.075 -0.1393  2.0015 -1.0458
 9184SOL     OW39010   2.419   3.924  16.671 -0.8132  0.2639  0.2438
 9184SOL    HW139011   2.417   3.934  16.576  0.9480 -0.9532  0.0688
 9184SOL    HW239012   2.327   3.904  16.681 -0.6813 -0.5012 -0.1047
 9185SOL     OW39013   2.032   1.739   5.553  0.2686  0.4683  0.2565
 9185SOL    HW139014   2.114   1.693   5.532  0.5179  0.7717  0.5595
 9185SOL    HW239015   1.977   1.686   5.610 -1.1921  1.0793 -0.5938
 9186SOL     OW39016   2.767   4.062   0.503 -0.3912 -0.5887  0.2470
 9186SOL    HW139017   2.757   3.978   0.548  1.0850 -0.9918 -0.1819
 9186SOL    HW239018   2.824   4.106   0.566 -1.6067 -0.3779  1.2017
 9187SOL     OW39019   2.142   3.208   9.102 -0.1483 -0.3372  0.2547
 9187SOL    HW139020   2.227   3.249   9.088 -0.7030  0.0517 -2.0108
 9187SOL    HW239021   2.085   3.283   9.121  0.6058 -0.0686  1.4198
 9188SOL     OW39022   1.532   4.581   3.498  0.6162 -0.2395  0.2026
 9188SOL    HW139023   1.506   4.577   3.406 -0.9742 -1.8288  0.7191
 9188SOL    HW239024   1.627   4.573   3.493  0.6145  0.4293 -1.1329
 9189SOL     OW39025   1.285   4.064   0.769  0.5105 -0.3631  0.2929
 9189SOL    HW139026   1.340   4.119   0.825 -0.2056  0.7825 -0.1192
 9189SOL    HW239027   1.353   4.033   0.709 -0.3299 -0.9506 -0.3633
 9190SOL     OW39028   3.768   1.702   2.619  0.1501  0.5865  0.2524
 9190SOL    HW139029   3.785   1.777   2.676 -0.6192  1.5677 -0.8096
 9190SOL    HW239030   3.832   1.646   2.663 -1.4440 -0.1092  1.7310
 9191SOL     OW39031   3.949   3.888   6.641  0.1653  0.2546 -0.2533
 9191SOL    HW139032   3.967   3.795   6.627 -1.9222 -0.0742 -0.8270
 9191SOL    HW239033   3.858   3.877   6.612  0.6224 -2.1941 -0.7282
 9192SOL     OW39034   2.647   1.363   2.510  0.3580 -0.5483  0.1385
 9192SOL    HW139035   2.611   1.289   2.460  0.2301 -0.6295  0.3494
 9192SOL    HW239036   2.637   1.428   2.441 -1.2476 -1.1950 -0.2493
 9193SOL     OW39037   3.351   3.784   5.951  0.3435 -0.5207  0.1649
 9193SOL    HW139038   3.365   3.858   6.010 -0.5745 -1.7056  1.8663
 9193SOL    HW239039   3.441   3.752   5.947  0.7329  0.6045 -0.2162
 9194SOL     OW39040   3.430   1.092   5.006  0.2375  0.1263  0.0596
 9194SOL    HW139041   3.341   1.086   4.972 -0.5007  1.7392  1.7205
 9194SOL    HW239042   3.481   1.047   4.939  0.8162  0.5482  0.2195
 9195SOL     OW39043   4.605   2.033   6.584 -0.2413  0.5028 -0.3051
 9195SOL    HW139044   4.664   1.957   6.592 -1.3633 -0.5662 -2.3098
 9195SOL    HW239045   4.552   2.009   6.509  0.0676 -0.3940 -0.2419
 9196SOL     OW39046   2.754   4.061   5.776  0.3969 -0.4303 -0.5525
 9196SOL    HW139047   2.845   4.089   5.765 -0.6144  3.0543 -0.1223
 9196SOL    HW239048   2.766   3.967   5.786  0.2404 -0.2318  1.6201
 9197SOL     OW39049   3.654   3.094   1.320 -0.6935 -0.2262  0.0626
 9197SOL    HW139050   3.639   3.185   1.293 -0.8086  0.1548  1.4112
 9197SOL    HW239051   3.744   3.074   1.296 -1.2423 -3.1255  0.4646
 9198SOL     OW39052   1.488   2.665   5.971  0.0139  0.0158  0.0362
 9198SOL    HW139053   1.472   2.590   5.913 -0.5037  0.0990  0.0738
 9198SOL    HW239054   1.574   2.645   6.007 -0.5511  1.8128  2.3578
 9199SOL     OW39055   2.737   1.816   5.267 -0.1918 -0.0549 -0.3427
 9199SOL    HW139056   2.753   1.786   5.177 -4.0966 -3.4462  0.0996
 9199SOL    HW239057   2.776   1.903   5.269  0.5451 -0.4494  2.6609
 9200SOL     OW39058   3.318   0.686   5.659  0.8953 -0.4711 -0.3091
 9200SOL    HW139059   3.309   0.779   5.681  2.1236 -0.2328 -0.8276
 9200SOL    HW239060   3.412   0.670   5.671  1.2874  0.7149 -1.8207
 9201SOL     OW39061   1.081   3.759  10.621 -0.8171 -1.0841 -0.3005
 9201SOL    HW139062   1.127   3.737  10.541 -1.2971 -0.0515 -0.8654
 9201SOL    HW239063   1.003   3.797  10.581 -0.6604 -0.4343  0.0052
 9202SOL     OW39064   2.997   0.406   4.251  0.6104  0.0300  0.0992
 9202SOL    HW139065   2.998   0.377   4.159 -0.0328  1.3693 -0.3333
 9202SOL    HW239066   2.908   0.434   4.270  0.3743 -1.4458  1.1087
 9203SOL     OW39067   3.382   4.027   4.816  0.3171 -0.0840  0.0960
 9203SOL    HW139068   3.393   3.942   4.858  0.2652 -0.3316 -0.3982
 9203SOL    HW239069   3.461   4.029   4.762  0.0460  0.0499 -0.2935
 9204SOL     OW39070   0.832   3.092   4.492  0.5149  0.2196  0.4642
 9204SOL    HW139071   0.812   3.006   4.528 -0.7258 -0.5580 -2.0906
 9204SOL    HW239072   0.836   3.145   4.572 -1.4060  0.3615  0.4735
 9205SOL     OW39073   0.242   1.276   3.715 -0.1084  0.1714  0.6982
 9205SOL    HW139074   0.174   1.216   3.683 -0.6624  0.6262  1.0242
 9205SOL    HW239075   0.298   1.215   3.764 -1.8982 -2.1687 -0.1623
 9206SOL     OW39076   0.351   4.425   3.521  0.3658 -0.2680  0.0059
 9206SOL    HW139077   0.373   4.333   3.537  0.7758 -0.1311  0.2238
 9206SOL    HW239078   0.316   4.420   3.432 -1.2029 -0.0904  0.6166
 9207SOL     OW39079   0.717   2.490  17.531  0.0480  0.2391  0.2704
 9207SOL    HW139080   0.811   2.499  17.515  0.0552 -1.8932 -0.8234
 9207SOL    HW239081   0.695   2.449  17.448 -2.1140 -1.4051  1.6658
 9208SOL     OW39082   3.865   3.598   1.758  0.6465 -0.1109 -0.1912
 9208SOL    HW139083   3.802   3.557   1.699  0.6708  0.0747 -0.3441
 9208SOL    HW239084   3.838   3.577   1.848  1.4531 -0.3732 -0.0109
 9209SOL     OW39085   3.706   1.272   3.837 -0.1551  0.8155 -0.3635
 9209SOL    HW139086   3.791   1.283   3.878 -0.1611 -1.4293  0.2402
 9209SOL    HW239087   3.688   1.179   3.828 -0.8578  0.9615 -0.5135
 9210SOL     OW39088   1.809   1.310   4.468  0.4040  0.0041 -0.2352
 9210SOL    HW139089   1.825   1.253   4.393 -0.4152  2.0262 -1.9544
 9210SOL    HW239090   1.888   1.364   4.457 -0.0674  0.8598  0.5531
 9211SOL     OW39091   2.697   4.017   8.951  0.1076 -0.3131 -0.3908
 9211SOL    HW139092   2.792   4.003   8.957  0.2409  0.6675 -0.2017
 9211SOL    HW239093   2.684   4.003   8.857 -0.3300 -0.1671 -0.3513
 9212SOL     OW39094   1.084   1.773   7.329  0.3500 -0.0956  0.6848
 9212SOL    HW139095   1.072   1.768   7.234 -1.2112  0.5022  0.8499
 9212SOL    HW239096   1.015   1.833   7.354 -2.0810 -3.1492  1.2701
 9213SOL     OW39097   3.230   1.476   2.125  0.1639  0.1178  0.5673
 9213SOL    HW139098   3.268   1.497   2.039  1.0059  1.2036  1.2091
 9213SOL    HW239099   3.221   1.565   2.157  1.4757  1.1411 -1.9368
 9214SOL     OW39100   4.153   0.957   7.825  0.2873 -0.1248 -0.1922
 9214SOL    HW139101   4.222   0.915   7.774 -0.2030  3.2737 -3.6546
 9214SOL    HW239102   4.117   1.018   7.760  0.7528  1.1224  0.7207
 9215SOL     OW39103   1.722   1.802  16.189  0.3629 -0.3675 -0.1498
 9215SOL    HW139104   1.712   1.859  16.112  0.3659 -0.5600 -0.2910
 9215SOL    HW239105   1.765   1.861  16.251 -0.7265 -0.4108  0.6545
 9216SOL     OW39106   0.373   0.769  11.089 -0.1020 -0.2173 -0.2644
 9216SOL    HW139107   0.285   0.735  11.078 -0.1714 -0.0064 -0.3682
 9216SOL    HW239108   0.392   0.815  11.007 -0.8546  0.6921  0.0683
 9217SOL     OW39109   2.672   4.110   6.546 -0.1324 -0.3561  0.0846
 9217SOL    HW139110   2.591   4.160   6.546 -0.3639 -0.7016 -1.6628
 9217SOL    HW239111   2.694   4.099   6.453  0.9731  2.0967  0.0674
 9218SOL     OW39112   3.113   0.940   4.088 -0.0149  0.0914 -0.1551
 9218SOL    HW139113   3.102   1.017   4.144 -0.6970 -1.1021  1.3775
 9218SOL    HW239114   3.185   0.890   4.127  1.1216  2.1909  0.4267
 9219SOL     OW39115   0.015   3.449   1.908  0.4047  0.5835  0.0467
 9219SOL    HW139116   0.038   3.369   1.860 -0.6580  0.6528 -0.5776
 9219SOL    HW239117   4.662   3.480   1.858  0.0037 -0.5887 -0.0749
 9220SOL     OW39118   1.425   0.818  13.206 -0.0854  0.0181  0.4063
 9220SOL    HW139119   1.428   0.852  13.296 -0.0608 -0.4353  0.5769
 9220SOL    HW239120   1.436   0.903  13.162 -1.4282 -0.5428 -0.9794
 9221SOL     OW39121   0.648   2.045   5.399  0.0094 -0.4998  0.0461
 9221SOL    HW139122   0.698   2.076   5.475 -3.3149 -1.6262  2.7064
 9221SOL    HW239123   0.726   2.028   5.346 -0.3291 -0.2260 -0.5393
 9222SOL     OW39124   1.010   3.887   7.240  0.3105  0.4991  0.4987
 9222SOL    HW139125   0.978   3.969   7.276 -0.5966  0.6176 -0.5843
 9222SOL    HW239126   0.972   3.816   7.292 -0.4226 -1.7347 -3.1270
 9223SOL     OW39127   2.598   3.388   6.103 -0.0027 -0.8017 -0.1232
 9223SOL    HW139128   2.641   3.362   6.185  0.4206  1.1384  0.2653
 9223SOL    HW239129   2.528   3.449   6.128 -0.2498 -1.0723 -0.1478
 9224SOL     OW39130   2.776   0.584   4.296  0.4249 -0.3431 -0.4993
 9224SOL    HW139131   2.820   0.662   4.264  2.2232 -0.9432  0.5261
 9224SOL    HW239132   2.710   0.579   4.227 -0.7868  1.0043  0.5632
 9225SOL     OW39133   1.614   2.017   9.067 -0.4844  0.2470  0.0661
 9225SOL    HW139134   1.676   1.945   9.078 -0.2534  0.4130 -0.1342
 9225SOL    HW239135   1.586   2.050   9.152 -1.6037  0.4090 -0.3660
 9226SOL     OW39136   3.525   2.877   7.771  0.5033  0.1438 -0.1103
 9226SOL    HW139137   3.504   2.814   7.840 -0.8907  0.2108 -0.4757
 9226SOL    HW239138   3.528   2.815   7.699 -1.8074 -1.3699  1.1168
 9227SOL     OW39139   3.618   3.029   5.679  0.0702 -0.5451 -0.1984
 9227SOL    HW139140   3.584   3.091   5.744  1.6686  0.4530 -0.3023
 9227SOL    HW239141   3.588   3.065   5.596 -1.4001  1.0288  1.0304
 9228SOL     OW39142   2.126   4.623   2.141 -0.0830 -0.1175  0.0185
 9228SOL    HW139143   2.144   4.641   2.049  3.4393  0.4025  0.7683
 9228SOL    HW239144   2.217   4.632   2.172 -0.4942  1.2535  0.8478
 9229SOL     OW39145   1.409   4.253   7.365  0.6269 -0.1159 -0.3937
 9229SOL    HW139146   1.392   4.321   7.300  0.4432 -1.6039 -1.8885
 9229SOL    HW239147   1.357   4.296   7.433 -0.7765  0.1398 -1.6234
 9230SOL     OW39148   2.106   4.149  13.901  0.1751 -0.0169 -0.0937
 9230SOL    HW139149   2.153   4.211  13.957 -0.2057 -0.9269  1.2399
 9230SOL    HW239150   2.091   4.196  13.819  1.1265  1.5706  0.6455
 9231SOL     OW39151   3.895   1.279  17.138  0.2720 -0.0716  0.2118
 9231SOL    HW139152   3.881   1.304  17.047 -0.4740  0.2894  0.4264
 9231SOL    HW239153   3.821   1.218  17.138 -0.6246  1.0280  0.5951
 9232SOL     OW39154   3.350   4.549   4.060  0.2781 -0.3423 -0.2925
 9232SOL    HW139155   3.353   4.470   4.005  0.2396 -0.8547  0.4381
 9232SOL    HW239156   3.277   4.596   4.021  1.6783  0.8369 -1.5373
 9233SOL     OW39157   0.584   4.359   8.968 -0.2048  0.5098 -0.7530
 9233SOL    HW139158   0.495   4.355   9.003 -0.0625  1.9535 -0.2479
 9233SOL    HW239159   0.627   4.345   9.053 -1.8754 -0.2563 -0.0359
 9234SOL     OW39160   2.250   0.027   5.727  0.2406 -0.0500  0.8184
 9234SOL    HW139161   2.238   4.699   5.647  3.4025 -0.3952  0.5770
 9234SOL    HW239162   2.313   0.089   5.691  0.7982  1.2758  4.0708
 9235SOL     OW39163   2.161   1.305  15.004 -0.0182  0.2058 -0.3255
 9235SOL    HW139164   2.073   1.301  14.968  0.8864 -0.5644 -2.4701
 9235SOL    HW239165   2.158   1.232  15.066 -3.0344 -1.2276 -2.1775
 9236SOL     OW39166   0.646   2.747   2.158 -0.1201 -0.1238  0.6181
 9236SOL    HW139167   0.622   2.835   2.129  0.6739  0.0022  0.3311
 9236SOL    HW239168   0.716   2.756   2.223 -0.3646  0.2528  0.8274
 9237SOL     OW39169   4.297   2.824   7.318 -0.3588  0.6036  0.4520
 9237SOL    HW139170   4.236   2.875   7.371 -0.1435  1.1055  0.2110
 9237SOL    HW239171   4.276   2.852   7.229  4.2625  0.2507 -0.7364
 9238SOL     OW39172   1.393   2.879   4.460 -0.1831 -0.2777 -0.1781
 9238SOL    HW139173   1.405   2.891   4.366 -0.8564 -0.0694 -0.2412
 9238SOL    HW239174   1.338   2.956   4.476  0.4094 -0.0332  0.6917
 9239SOL     OW39175   3.923   4.262   8.301  0.3205 -0.0162 -0.2935
 9239SOL    HW139176   3.973   4.316   8.240 -1.2813  0.6628 -0.9877
 9239SOL    HW239177   3.897   4.314   8.377 -0.0125  1.2704 -1.2916
 9240SOL     OW39178   4.029   0.831   2.484 -0.2680  0.1292 -0.7487
 9240SOL    HW139179   4.009   0.921   2.511  1.4239 -0.3903  2.2969
 9240SOL    HW239180   4.118   0.850   2.455 -0.7046  1.6123 -1.1161
 9241SOL     OW39181   0.207   4.425  17.088  0.0752 -0.0497  0.1132
 9241SOL    HW139182   0.267   4.381  17.027 -0.4846 -1.4089  0.5344
 9241SOL    HW239183   0.247   4.418  17.174  0.4127 -0.7539 -0.1005
 9242SOL     OW39184   4.651   3.087   8.736  0.2872 -0.6331 -0.0994
 9242SOL    HW139185   4.588   3.158   8.742  0.1041 -0.6312 -1.9097
 9242SOL    HW239186   4.599   3.021   8.691  0.8910 -1.0815 -0.1416
 9243SOL     OW39187   0.698   4.236  16.224 -0.5873  0.8861  0.4748
 9243SOL    HW139188   0.694   4.308  16.287  2.7583  0.7140  0.8738
 9243SOL    HW239189   0.780   4.246  16.175  0.9694 -2.2035  2.4693
 9244SOL     OW39190   2.988   2.435   7.151 -0.3564 -0.2116  0.3445
 9244SOL    HW139191   3.024   2.398   7.232 -1.6986 -2.1536  0.0700
 9244SOL    HW239192   2.895   2.428   7.171 -0.0332  1.7720  2.4787
 9245SOL     OW39193   3.828   2.477   7.885  0.0698 -0.0336 -0.2748
 9245SOL    HW139194   3.747   2.427   7.884  1.0135 -1.5555 -1.6822
 9245SOL    HW239195   3.831   2.504   7.793 -1.6891  2.2339  0.3400
 9246SOL     OW39196   0.430   3.642   3.602 -0.0759 -0.6221 -0.0682
 9246SOL    HW139197   0.382   3.723   3.587  0.5743 -0.2745 -0.2902
 9246SOL    HW239198   0.515   3.676   3.632 -0.1010 -0.5188 -0.1159
 9247SOL     OW39199   4.549   0.748   7.049  0.0714 -0.2634 -0.4808
 9247SOL    HW139200   4.629   0.710   7.011  0.7854  2.8360 -2.1083
 9247SOL    HW239201   4.499   0.784   6.976  0.5094  1.0751 -0.1314
 9248SOL     OW39202   3.731   4.070   8.760 -0.0805 -0.3934 -0.4699
 9248SOL    HW139203   3.743   4.108   8.673  2.4051  0.3249  0.2036
 9248SOL    HW239204   3.778   3.987   8.751 -1.4350 -0.9967 -2.0952
 9249SOL     OW39205   2.671   2.321   2.473 -0.2855 -0.4708 -0.0329
 9249SOL    HW139206   2.613   2.248   2.450  0.1305 -1.5906  2.4698
 9249SOL    HW239207   2.600   2.378   2.503 -0.8868 -1.3889  0.2904
 9250SOL     OW39208   3.504   0.815   7.147  0.3367 -0.5098 -0.3962
 9250SOL    HW139209   3.558   0.748   7.105  1.9951  0.6230 -0.0810
 9250SOL    HW239210   3.507   0.877   7.074  0.4461  0.2014  0.2130
 9251SOL     OW39211   1.668   4.063   8.984 -0.3613  0.3015 -0.1431
 9251SOL    HW139212   1.689   3.974   8.955  1.2733  0.4293  0.7068
 9251SOL    HW239213   1.598   4.046   9.047  1.7193 -0.0431  2.0764
 9252SOL     OW39214   4.476   4.049   6.602  0.6203 -0.2175  0.0906
 9252SOL    HW139215   4.498   4.043   6.695 -0.8946  3.4557  0.6832
 9252SOL    HW239216   4.383   4.069   6.612  0.2318  0.1667 -4.1361
 9253SOL     OW39217   3.573   1.637   6.971 -0.4041 -0.1678  0.0575
 9253SOL    HW139218   3.611   1.634   7.059 -2.5958 -0.0542  1.0274
 9253SOL    HW239219   3.511   1.564   6.965 -0.0007 -0.5177  0.2268
 9254SOL     OW39220   1.428   4.624   4.143 -0.0652 -0.1473 -0.3470
 9254SOL    HW139221   1.388   4.642   4.228 -0.1304 -0.0744 -0.3941
 9254SOL    HW239222   1.363   4.649   4.078  1.4018  2.2121 -0.8870
 9255SOL     OW39223   2.028   2.159   1.442 -0.0669  0.0152  0.1906
 9255SOL    HW139224   2.058   2.216   1.372  1.5599 -2.0128 -0.7525
 9255SOL    HW239225   1.945   2.199   1.469  0.7411  2.3208 -0.6755
 9256SOL     OW39226   0.784   0.798   9.489 -0.1091  0.4143  0.7363
 9256SOL    HW139227   0.867   0.846   9.488  1.5752 -2.5773 -1.4050
 9256SOL    HW239228   0.714   0.859   9.513 -0.4598 -0.5637  2.2153
 9257SOL     OW39229   3.649   4.244   4.908 -0.1755  0.0246 -0.1137
 9257SOL    HW139230   3.685   4.278   4.990 -0.5186  0.0747  0.0171
 9257SOL    HW239231   3.568   4.293   4.893 -0.2970  0.0399  0.6013
 9258SOL     OW39232   1.197   3.656  17.124 -0.4794  0.0350 -0.2473
 9258SOL    HW139233   1.228   3.619  17.041  1.0860  1.6701 -0.4041
 9258SOL    HW239234   1.261   3.727  17.137 -0.1976 -0.2853  0.1201
 9259SOL     OW39235   2.297   4.087  11.557  0.7065 -0.7545 -0.0812
 9259SOL    HW139236   2.244   4.072  11.479  0.0728  0.0743  0.1809
 9259SOL    HW239237   2.241   4.059  11.630 -1.0723  0.0633 -1.1261
 9260SOL     OW39238   4.644   2.059  16.964 -0.0286 -0.0914  0.3374
 9260SOL    HW139239   4.612   2.113  16.891 -0.7685 -0.0023  0.7261
 9260SOL    HW239240   4.647   2.124  17.034 -1.5435 -1.1217  1.3432
 9261SOL     OW39241   2.214   1.906  14.980  0.3298  0.2746 -0.1268
 9261SOL    HW139242   2.284   1.856  14.939  2.3832  2.8568  0.2334
 9261SOL    HW239243   2.218   1.876  15.070 -1.1256 -0.5084 -0.3133
 9262SOL     OW39244   3.446   2.392   3.473 -0.3822 -0.2403  0.0047
 9262SOL    HW139245   3.518   2.358   3.526  1.6673  3.2447 -0.4949
 9262SOL    HW239246   3.491   2.382   3.389 -2.4889 -0.5516 -1.0878
 9263SOL     OW39247   4.719   2.421   0.040  0.5113 -0.1978  0.5329
 9263SOL    HW139248   0.059   2.375   0.096  1.1629  0.4399  0.3190
 9263SOL    HW239249   4.687   2.343  17.686  0.5377  1.0486 -1.5530
 9264SOL     OW39250   2.931   0.917   0.569  0.2997  0.4210  0.5318
 9264SOL    HW139251   2.947   0.972   0.645 -2.3215  0.6846  0.9076
 9264SOL    HW239252   3.009   0.933   0.517  0.7892 -1.7692  0.6205
 9265SOL     OW39253   3.961   1.247   5.137  0.0455  0.4426  0.7346
 9265SOL    HW139254   4.049   1.274   5.163 -0.0478 -0.1024  1.6001
 9265SOL    HW239255   3.961   1.152   5.152 -0.5048 -0.0971 -2.5930
 9266SOL     OW39256   3.329   1.571   5.696 -0.3091  0.0196  0.0099
 9266SOL    HW139257   3.418   1.580   5.660 -0.8368 -0.7333 -1.4643
 9266SOL    HW239258   3.317   1.659   5.729  2.7155  0.2627  0.4777
 9267SOL     OW39259   2.343   2.485  11.936  0.2453  0.2907 -0.1099
 9267SOL    HW139260   2.359   2.572  11.972  0.8369  0.5165 -0.9232
 9267SOL    HW239261   2.309   2.441  12.014 -0.1578  0.6381 -0.0847
 9268SOL     OW39262   4.529   4.370  11.945 -0.5225 -0.3435 -0.3048
 9268SOL    HW139263   4.557   4.323  11.866  0.0992 -0.2471 -0.1378
 9268SOL    HW239264   4.481   4.297  11.984 -2.6474  1.4826  0.5026
 9269SOL     OW39265   3.548   3.235   8.282 -0.4100 -1.1147 -0.2187
 9269SOL    HW139266   3.555   3.157   8.337  0.7138 -1.0429 -0.2624
 9269SOL    HW239267   3.636   3.270   8.294 -0.7631  0.1493 -1.3909
 9270SOL     OW39268   2.887   4.607   3.821  1.0053 -0.5996  0.5431
 9270SOL    HW139269   2.863   4.555   3.744 -0.9046  0.2864  0.5451
 9270SOL    HW239270   2.871   4.546   3.892  2.1802 -1.3390  0.1677
 9271SOL     OW39271   0.109   3.224   1.688 -0.4700 -0.2543  0.5055
 9271SOL    HW139272   0.106   3.295   1.623 -2.2774 -0.2581  0.5707
 9271SOL    HW239273   0.042   3.169   1.647  0.2888 -0.5900 -0.2846
 9272SOL     OW39274   1.277   2.397   7.424  0.2074 -0.1244  0.5231
 9272SOL    HW139275   1.359   2.355   7.452  0.5972 -0.4315 -1.0723
 9272SOL    HW239276   1.307   2.485   7.400 -0.6939  0.2785  0.8748
 9273SOL     OW39277   1.479   2.254   3.920  0.0338 -0.1064  0.0413
 9273SOL    HW139278   1.573   2.237   3.929  0.4446  3.0095  1.6098
 9273SOL    HW239279   1.466   2.329   3.978  0.7000  0.6852 -0.8386
 9274SOL     OW39280   4.150   3.159   2.131 -0.1049  0.6575 -0.1473
 9274SOL    HW139281   4.060   3.132   2.116 -0.8080  3.1886 -0.5309
 9274SOL    HW239282   4.142   3.255   2.132 -2.3963  0.4341  0.9253
 9275SOL     OW39283   2.888   3.365   7.101 -1.0525  0.0534 -0.1877
 9275SOL    HW139284   2.888   3.448   7.053  1.2220 -0.2228 -0.6618
 9275SOL    HW239285   2.936   3.389   7.180  0.8342 -1.0633 -0.9994
 9276SOL     OW39286   1.700   0.230   2.420  0.1174  0.0721  0.3325
 9276SOL    HW139287   1.778   0.212   2.367  0.2708  1.9586 -0.0885
 9276SOL    HW239288   1.649   0.294   2.370 -0.4312  0.6052  1.5811
 9277SOL     OW39289   3.110   4.119   5.985  0.1682  0.2362  0.8040
 9277SOL    HW139290   3.112   4.033   6.028 -2.3497  0.7445  1.9081
 9277SOL    HW239291   3.058   4.171   6.045 -3.7183 -1.5390 -1.0092
 9278SOL     OW39292   1.578   2.546  10.987  0.3048  0.3636 -0.7409
 9278SOL    HW139293   1.587   2.549  10.891  2.3952 -1.5043 -0.5987
 9278SOL    HW239294   1.540   2.459  10.996  0.9832  0.2592  0.9813
 9279SOL     OW39295   2.029   2.650   4.233 -0.0380  0.7502  0.7205
 9279SOL    HW139296   2.077   2.689   4.306  1.3197 -1.0860  0.8235
 9279SOL    HW239297   1.968   2.588   4.273  0.6118  1.1240  2.2943
 9280SOL     OW39298   1.258   1.675   2.415  0.1486 -0.2819 -0.0332
 9280SOL    HW139299   1.264   1.676   2.320 -1.2514 -1.4189 -0.1250
 9280SOL    HW239300   1.334   1.620   2.436  0.1844 -0.7230 -1.3085
 9281SOL     OW39301   1.364   0.183  11.900  0.1349  0.0431 -0.1808
 9281SOL    HW139302   1.429   0.219  11.840 -0.3081 -0.7356 -1.1331
 9281SOL    HW239303   1.414   0.203  11.979 -0.1821  1.7452 -0.4099
 9282SOL     OW39304   1.449   1.443   6.002 -0.3586 -0.2111 -0.1596
 9282SOL    HW139305   1.479   1.534   6.003 -0.3892 -0.2085  1.3388
 9282SOL    HW239306   1.402   1.430   6.085 -1.7149  2.5170 -0.4736
 9283SOL     OW39307   1.534   0.233  12.179 -0.0740  0.1823  0.4217
 9283SOL    HW139308   1.460   0.207  12.234 -0.2775 -0.9400 -0.3927
 9283SOL    HW239309   1.505   0.324  12.171  3.3244  1.3056  0.8856
 9284SOL     OW39310   2.495   1.234   8.887  0.1511  0.0266  0.0752
 9284SOL    HW139311   2.458   1.288   8.957 -1.5175 -1.1338  0.0787
 9284SOL    HW239312   2.531   1.157   8.932  1.2171  0.2411 -0.4168
 9285SOL     OW39313   4.621   2.654   1.028  0.1321 -0.1780 -0.1492
 9285SOL    HW139314   4.533   2.620   1.043  0.4348 -1.1676 -0.6797
 9285SOL    HW239315   4.607   2.749   1.027 -0.2929 -0.2473 -0.8523
 9286SOL     OW39316   0.891   3.696   7.385 -0.2894 -0.3308  0.0004
 9286SOL    HW139317   0.837   3.698   7.464  0.4407  0.6672  0.4794
 9286SOL    HW239318   0.889   3.604   7.360  0.8787 -0.0488 -1.1569
 9287SOL     OW39319   3.876   4.367   5.387  0.4136  0.1178  0.5172
 9287SOL    HW139320   3.946   4.347   5.324  1.2457  1.4245  1.0100
 9287SOL    HW239321   3.910   4.449   5.423  0.0046  0.5085 -0.0052
 9288SOL     OW39322   0.655   3.670   2.530 -0.2691 -0.7831  0.3555
 9288SOL    HW139323   0.569   3.634   2.507 -0.7480  0.9117 -0.5059
 9288SOL    HW239324   0.706   3.636   2.457  0.5397  2.2384 -0.4979
 9289SOL     OW39325   0.558   0.928   8.278  0.4805  0.2489 -0.4007
 9289SOL    HW139326   0.499   0.987   8.324  0.5871 -0.7647  1.0182
 9289SOL    HW239327   0.548   0.848   8.329  0.5436  0.6546  0.2463
 9290SOL     OW39328   0.684   2.935  15.294  0.3540  0.1518 -0.1750
 9290SOL    HW139329   0.709   2.851  15.332  0.0940  0.4158  0.5687
 9290SOL    HW239330   0.730   2.925  15.211  0.7851 -0.4960  0.1440
 9291SOL     OW39331   3.321   3.576   8.372 -0.0052 -0.2943  0.8491
 9291SOL    HW139332   3.281   3.561   8.458  0.6388  2.4226  1.5973
 9291SOL    HW239333   3.301   3.496   8.323  1.7597 -0.3977  0.2968
 9292SOL     OW39334   4.419   3.714   5.721 -0.4554 -0.4163  0.7451
 9292SOL    HW139335   4.451   3.669   5.798  1.0461  2.0400  1.5446
 9292SOL    HW239336   4.433   3.656   5.646  1.1757  2.6801 -1.3515
 9293SOL     OW39337   4.005   4.326   3.579 -0.4503 -0.3506 -0.0706
 9293SOL    HW139338   3.992   4.420   3.576 -3.1963 -0.7362 -0.3708
 9293SOL    HW239339   3.974   4.298   3.665 -2.2753  0.6851 -0.4079
 9294SOL     OW39340   3.998   2.271   0.315  0.5448  0.0422 -0.2474
 9294SOL    HW139341   4.017   2.192   0.264  1.5465  0.5440 -0.6549
 9294SOL    HW239342   3.910   2.291   0.281 -0.9276 -2.0570  2.3698
 9295SOL     OW39343   1.949   1.508   8.236  0.1733  0.6041 -0.6436
 9295SOL    HW139344   2.038   1.523   8.267  0.1990 -0.2085 -0.3295
 9295SOL    HW239345   1.900   1.589   8.253  2.3175  2.0133 -1.0823
 9296SOL     OW39346   3.394   2.204   7.970 -0.8302  0.3587  0.0257
 9296SOL    HW139347   3.334   2.152   8.023 -0.1185 -1.1117 -0.6120
 9296SOL    HW239348   3.344   2.285   7.973  2.0825  2.1095  1.2778
 9297SOL     OW39349   4.431   2.189   7.358  0.0839 -0.2925 -0.8894
 9297SOL    HW139350   4.489   2.219   7.288 -0.0045 -1.6278 -1.5184
 9297SOL    HW239351   4.350   2.235   7.337  0.4031  0.4030 -0.6202
 9298SOL     OW39352   1.313   0.995  11.000 -0.0583  0.1805 -0.1900
 9298SOL    HW139353   1.348   0.931  10.938  1.4738 -0.7052  1.5895
 9298SOL    HW239354   1.363   0.963  11.075  1.2268 -0.1477 -1.1909
 9299SOL     OW39355   1.732   0.070  10.503  0.2310  0.2213  0.2884
 9299SOL    HW139356   1.692   0.085  10.588 -0.7129  0.9367 -0.2742
 9299SOL    HW239357   1.732   4.697  10.500 -0.3415  0.2697 -2.0528
 9300SOL     OW39358   1.511   0.771  15.212  0.5421  0.4112  0.7887
 9300SOL    HW139359   1.455   0.839  15.251  1.5053  1.6051  0.0952
 9300SOL    HW239360   1.550   0.819  15.139 -1.2126 -1.0897 -1.1151
 9301SOL     OW39361   3.741   1.162   6.786 -0.1978 -0.1782  0.0976
 9301SOL    HW139362   3.730   1.070   6.761 -1.4566 -0.0189  0.0596
 9301SOL    HW239363   3.684   1.215   6.731 -0.7574  0.1753  1.0150
 9302SOL     OW39364   2.472   4.181   9.286 -0.2291  0.0072 -0.3467
 9302SOL    HW139365   2.489   4.257   9.341  0.3754  0.5827 -1.3345
 9302SOL    HW239366   2.444   4.118   9.352  0.9718 -0.7689 -0.5747
 9303SOL     OW39367   0.228   3.801   2.002 -0.1044  0.2808  0.1289
 9303SOL    HW139368   0.235   3.757   1.918 -1.2754  1.2659 -0.4821
 9303SOL    HW239369   0.311   3.779   2.045 -0.0773  0.6797  0.2888
 9304SOL     OW39370   2.234   1.747   1.415  0.4196  0.2782 -0.1908
 9304SOL    HW139371   2.292   1.727   1.342  0.6377 -1.3752  0.4206
 9304SOL    HW239372   2.207   1.837   1.399 -0.6265  0.2898  1.6238
 9305SOL     OW39373   1.661   3.784   2.705  0.2517  0.4294  0.7467
 9305SOL    HW139374   1.740   3.738   2.675 -1.2462  0.2433 -2.9826
 9305SOL    HW239375   1.593   3.744   2.650  0.6715  1.9764 -0.8801
 9306SOL     OW39376   3.668   0.110  15.304  0.3142  0.4370 -0.7484
 9306SOL    HW139377   3.627   0.184  15.259  3.1135  1.3692 -1.7717
 9306SOL    HW239378   3.746   0.076  15.260  0.5898 -0.5021  0.4501
 9307SOL     OW39379   2.769   2.697  12.113 -1.1471  0.5117 -0.1639
 9307SOL    HW139380   2.849   2.719  12.066 -1.7093  0.0662 -1.3340
 9307SOL    HW239381   2.793   2.714  12.204  0.5262 -2.7856  0.0338
 9308SOL     OW39382   2.877   1.217   5.383  0.0015  0.4546  0.0303
 9308SOL    HW139383   2.865   1.122   5.388  0.8852  0.3666  0.3776
 9308SOL    HW239384   2.957   1.220   5.330 -1.6091  2.1189 -2.3376
 9309SOL     OW39385   0.306   3.288   2.542 -0.3458  0.0530 -0.0318
 9309SOL    HW139386   0.242   3.250   2.481  0.3324  0.1080 -0.7783
 9309SOL    HW239387   0.306   3.377   2.508 -0.8786  0.1341  0.1788
 9310SOL     OW39388   3.467   1.132   2.291  0.8581 -0.4409  0.2672
 9310SOL    HW139389   3.474   1.186   2.213  0.0775 -0.0507  0.4633
 9310SOL    HW239390   3.373   1.118   2.295  0.9519 -1.5303 -1.4374
 9311SOL     OW39391   1.857   1.548   5.215  0.4126  0.1994 -0.0006
 9311SOL    HW139392   1.826   1.529   5.126  0.2744  0.7821 -0.0745
 9311SOL    HW239393   1.951   1.556   5.198  0.1239  2.6291 -0.3886
 9312SOL     OW39394   0.957   0.382   3.715 -0.2316  0.0591  0.4171
 9312SOL    HW139395   0.920   0.327   3.784  0.1324 -1.9575 -1.0008
 9312SOL    HW239396   0.965   0.326   3.638 -0.2563 -1.1721  1.3107
 9313SOL     OW39397   0.947   1.172   3.173 -0.4661  0.7183 -0.2510
 9313SOL    HW139398   0.989   1.171   3.087 -0.4356  2.2990 -0.2650
 9313SOL    HW239399   0.982   1.091   3.209  0.0005  0.7009 -0.7368
 9314SOL     OW39400   2.896   0.895   2.717 -0.4023  0.1752  0.1214
 9314SOL    HW139401   2.933   0.916   2.632 -0.0490 -1.5699 -0.1470
 9314SOL    HW239402   2.899   0.801   2.731 -0.7038  0.3123  1.1276
 9315SOL     OW39403   2.377   1.266   6.138  0.2452  0.8564 -0.4828
 9315SOL    HW139404   2.350   1.179   6.109 -2.8631  1.8468 -0.5670
 9315SOL    HW239405   2.470   1.270   6.116  0.2280  2.4642 -0.2792
 9316SOL     OW39406   1.503   2.235   5.205  0.1929 -0.2176  0.2502
 9316SOL    HW139407   1.530   2.152   5.245  0.5268 -1.7658 -3.0932
 9316SOL    HW239408   1.408   2.228   5.192  0.0447 -0.0801  1.3054
 9317SOL     OW39409   0.777   4.005   3.645  0.0316 -0.0736 -0.5415
 9317SOL    HW139410   0.749   4.052   3.724 -0.2988  1.0477 -1.3215
 9317SOL    HW239411   0.724   3.926   3.656 -2.7584  1.9913  0.7429
 9318SOL     OW39412   3.760   3.413  11.067 -0.2598  0.1820 -0.0840
 9318SOL    HW139413   3.722   3.350  11.005  0.5150 -0.7433  0.3816
 9318SOL    HW239414   3.800   3.481  11.012 -0.3300 -0.0360 -0.4069
 9319SOL     OW39415   0.107   2.953   1.880 -0.0000  0.0616 -0.0340
 9319SOL    HW139416   0.055   2.912   1.950 -1.4625  0.1140 -1.0923
 9319SOL    HW239417   0.046   3.020   1.849 -0.2355 -0.0678  0.1432
 9320SOL     OW39418   2.416   0.016   2.426 -0.2524 -0.2967  0.1816
 9320SOL    HW139419   2.491   0.072   2.404  0.5069 -1.2845  0.2377
 9320SOL    HW239420   2.393   4.699   2.342  1.4787 -2.6348  0.8049
 9321SOL     OW39421   3.877   3.264   0.843  0.1277  0.4161  0.1056
 9321SOL    HW139422   3.947   3.328   0.831  2.0360 -1.5842  0.4772
 9321SOL    HW239423   3.877   3.226   0.755  1.5817 -0.4835  0.4843
 9322SOL     OW39424   4.659   0.691   3.634  0.0672 -0.2067 -0.1451
 9322SOL    HW139425   0.029   0.679   3.613 -0.3027 -0.6473 -1.5578
 9322SOL    HW239426   4.625   0.604   3.654 -0.4084 -0.3023 -1.3620
 9323SOL     OW39427   1.812   2.876   4.946 -0.2786 -0.6000 -0.1341
 9323SOL    HW139428   1.776   2.866   5.035  0.2152  1.4483  0.2798
 9323SOL    HW239429   1.886   2.816   4.946  0.9445  0.9148  0.2234
 9324SOL     OW39430   1.471   3.510   9.930 -0.2724  0.2097  0.8375
 9324SOL    HW139431   1.553   3.553   9.907  0.7040 -1.6656  0.8468
 9324SOL    HW239432   1.399   3.561   9.894  0.5578  1.0802  0.4220
 9325SOL     OW39433   2.277   3.311  11.578 -0.0506 -0.3954 -0.2519
 9325SOL    HW139434   2.276   3.359  11.661  1.9303  2.5092 -1.9066
 9325SOL    HW239435   2.182   3.306  11.582 -0.0170  0.3118  1.4942
 9326SOL     OW39436   1.128   3.931   4.345  0.1575  0.5585 -0.1524
 9326SOL    HW139437   1.059   3.950   4.281  0.2851  2.6765  0.3547
 9326SOL    HW239438   1.184   4.008   4.339 -0.4836  0.8568 -2.5445
 9327SOL     OW39439   3.391   1.295   5.627 -0.1216 -0.2564  0.4389
 9327SOL    HW139440   3.352   1.360   5.684 -1.1663 -0.4816 -0.0216
 9327SOL    HW239441   3.329   1.274   5.557 -0.5922 -0.7234  0.9939
 9328SOL     OW39442   4.653   4.473   8.122  0.1070 -0.0170 -0.1025
 9328SOL    HW139443   0.001   4.426   8.076 -0.0482  0.0088 -0.3675
 9328SOL    HW239444   4.585   4.406   8.122  1.2038 -1.1051  3.2786
 9329SOL     OW39445   0.637   0.653   7.712  0.5135 -0.0003 -0.4334
 9329SOL    HW139446   0.567   0.632   7.650  0.9562  0.6682 -1.1609
 9329SOL    HW239447   0.709   0.594   7.689 -0.0801 -1.2949  1.1045
 9330SOL     OW39448   3.472   1.674   6.693 -0.7499  0.3098 -0.6730
 9330SOL    HW139449   3.472   1.710   6.782 -1.1783  0.5866 -0.7857
 9330SOL    HW239450   3.552   1.621   6.701 -1.1597  0.1652  2.2400
 9331SOL     OW39451   1.061   2.592   1.994  0.2577 -0.1389 -0.2358
 9331SOL    HW139452   0.967   2.590   1.975 -0.1301 -1.5210  1.7934
 9331SOL    HW239453   1.063   2.514   2.050  2.4101  0.3570  0.3537
 9332SOL     OW39454   4.086   2.464  17.401 -0.8313  0.3644 -0.1584
 9332SOL    HW139455   4.095   2.377  17.361  1.1583  0.0366  1.0155
 9332SOL    HW239456   4.151   2.517  17.355  0.6079  0.2553  1.7766
 9333SOL     OW39457   1.471   0.539   3.441  0.0908  0.3167  0.0238
 9333SOL    HW139458   1.435   0.450   3.446 -1.5729  1.0569  1.0543
 9333SOL    HW239459   1.389   0.582   3.416  0.6277  0.8094 -0.8943
 9334SOL     OW39460   4.007   2.343  14.683 -0.1193  0.0132  0.2015
 9334SOL    HW139461   4.023   2.362  14.590 -1.1413  0.2517  0.0750
 9334SOL    HW239462   3.940   2.275  14.680 -1.1047  1.0747 -1.7062
 9335SOL     OW39463   1.517   4.104   6.704  0.4989 -0.4102 -0.2476
 9335SOL    HW139464   1.516   4.109   6.800  1.2640 -1.9474 -0.1488
 9335SOL    HW239465   1.463   4.026   6.690 -3.4315  2.3576 -0.2829
 9336SOL     OW39466   1.038   4.583   4.248 -0.1890  1.1429  0.1418
 9336SOL    HW139467   1.088   4.616   4.174  0.0242  0.6065  0.0455
 9336SOL    HW239468   1.095   4.517   4.287 -0.1278 -0.0462 -1.9588
 9337SOL     OW39469   1.440   1.973   8.665 -0.1126  0.2148 -0.1997
 9337SOL    HW139470   1.349   1.987   8.639  0.1373  0.4445 -0.9707
 9337SOL    HW239471   1.443   1.886   8.704  0.1936  0.4288  0.2467
 9338SOL     OW39472   1.224   4.132  14.018 -0.7541 -0.1758  0.3789
 9338SOL    HW139473   1.163   4.160  13.950  1.2814  2.8139 -0.1885
 9338SOL    HW239474   1.304   4.178  13.992 -0.5543  0.8777  2.8962
 9339SOL     OW39475   1.683   0.505   5.614  0.2652 -0.4642 -0.2754
 9339SOL    HW139476   1.695   0.511   5.519 -2.4534  2.7771 -0.3915
 9339SOL    HW239477   1.747   0.567   5.649  0.4425 -1.1415  0.5995
 9340SOL     OW39478   0.768   2.714   4.886 -0.3668 -0.7718 -0.1895
 9340SOL    HW139479   0.775   2.732   4.980  2.3087 -0.6317 -0.4293
 9340SOL    HW239480   0.827   2.781   4.854 -0.2904 -0.5627  0.3867
 9341SOL     OW39481   0.761   1.980  16.838 -0.3258 -0.6283 -0.1719
 9341SOL    HW139482   0.704   1.925  16.786 -0.0558 -0.6927 -0.3995
 9341SOL    HW239483   0.702   2.044  16.878  0.2340 -1.0318  1.3174
 9342SOL     OW39484   1.401   1.071   7.289  0.1759  0.0123 -0.5299
 9342SOL    HW139485   1.340   1.105   7.224 -1.3652 -0.1176  0.8462
 9342SOL    HW239486   1.459   1.031   7.224 -1.7293 -0.9671 -1.6383
 9343SOL     OW39487   0.951   1.798   6.451  0.4599  0.0292 -0.1625
 9343SOL    HW139488   0.929   1.885   6.483  1.9769 -0.5013  2.2951
 9343SOL    HW239489   0.940   1.740   6.526 -2.0951  0.1585 -0.4370
 9344SOL     OW39490   3.790   4.220   0.025  0.1102  0.0886 -0.3736
 9344SOL    HW139491   3.725   4.202   0.093  1.6677 -0.3988  0.9783
 9344SOL    HW239492   3.769   4.161  17.645  0.5264 -2.4884  1.6311
 9345SOL     OW39493   3.603   4.133   6.707 -0.0309 -0.2444 -0.7369
 9345SOL    HW139494   3.681   4.187   6.693 -0.7040  0.0832 -3.1991
 9345SOL    HW239495   3.532   4.184   6.668  0.0012 -0.0939 -0.5986
 9346SOL     OW39496   1.554   1.300   3.704  0.0998 -0.2690  0.7422
 9346SOL    HW139497   1.582   1.210   3.719  0.8576  0.0646  1.3311
 9346SOL    HW239498   1.461   1.303   3.723 -0.2143  1.3831 -0.9470
 9347SOL     OW39499   0.430   1.751  13.666  0.2334  0.0555 -0.2241
 9347SOL    HW139500   0.464   1.672  13.623 -1.0717 -1.4430  1.5267
 9347SOL    HW239501   0.350   1.709  13.695 -0.1422 -0.7366 -2.3924
 9348SOL     OW39502   4.153   4.492   4.871  0.0495 -0.5776  0.3029
 9348SOL    HW139503   4.154   4.430   4.798 -0.5498 -2.6459  2.0564
 9348SOL    HW239504   4.195   4.436   4.936 -0.5680 -1.0302  0.3205
 9349SOL     OW39505   2.088   2.706   4.503 -0.5484  1.0698  0.5672
 9349SOL    HW139506   2.046   2.677   4.584 -0.5589  1.4074  0.6832
 9349SOL    HW239507   2.181   2.689   4.514 -0.4698  0.7537 -0.6095
 9350SOL     OW39508   1.299   1.018   8.453  0.2655  0.1092  0.2719
 9350SOL    HW139509   1.367   0.952   8.438  1.2491  0.9088  1.2254
 9350SOL    HW239510   1.346   1.101   8.456  2.2648 -0.9951 -0.3948
 9351SOL     OW39511   3.501   0.399   5.735  0.0332 -0.4551 -0.6301
 9351SOL    HW139512   3.592   0.407   5.763 -0.5786  0.8956  0.9483
 9351SOL    HW239513   3.492   0.472   5.674 -0.3066  0.8616  0.9924
 9352SOL     OW39514   2.085   3.148   3.735  0.5248  0.3832 -0.7840
 9352SOL    HW139515   2.024   3.076   3.752  2.8713 -1.6343 -0.8730
 9352SOL    HW239516   2.020   3.218   3.739  0.2098 -0.0217  1.5548
 9353SOL     OW39517   2.462   2.300   7.036  0.1768 -0.0112  0.7376
 9353SOL    HW139518   2.399   2.270   7.101 -1.6593 -1.7359 -1.8201
 9353SOL    HW239519   2.451   2.395   7.035 -0.2726 -0.0743 -0.8817
 9354SOL     OW39520   0.564   3.806  15.750  0.3234 -0.5522 -0.4263
 9354SOL    HW139521   0.513   3.806  15.670 -1.4250  3.7431  0.7002
 9354SOL    HW239522   0.491   3.811  15.811  2.5417 -1.4146  2.3188
 9355SOL     OW39523   2.933   3.046   8.419  0.0303 -0.6243 -0.2746
 9355SOL    HW139524   2.986   3.070   8.343 -0.2603 -1.6091 -0.7865
 9355SOL    HW239525   2.861   3.004   8.371  0.3085  0.1644 -1.3777
 9356SOL     OW39526   1.726   3.721   4.556 -0.5939  0.4230 -0.2987
 9356SOL    HW139527   1.747   3.813   4.572 -1.6533  0.7029 -0.5197
 9356SOL    HW239528   1.801   3.677   4.595 -0.6889  1.9579  1.5603
 9357SOL     OW39529   3.187   0.874   2.856 -0.1657 -0.6308  0.6406
 9357SOL    HW139530   3.249   0.807   2.826 -0.7900  0.2396 -2.4997
 9357SOL    HW239531   3.213   0.952   2.808 -1.0077 -0.2737  0.7818
 9358SOL     OW39532   3.211   3.176   0.936  0.3457  0.0379 -0.0306
 9358SOL    HW139533   3.295   3.211   0.967  0.9070 -0.9364 -0.4251
 9358SOL    HW239534   3.172   3.143   1.016  0.1701 -0.3736 -0.2877
 9359SOL     OW39535   2.244   3.605   7.937  0.0668 -1.1955 -0.4104
 9359SOL    HW139536   2.195   3.530   7.970 -0.5545 -0.9119 -0.6905
 9359SOL    HW239537   2.304   3.634   8.005 -1.9436  1.0730  0.3853
 9360SOL     OW39538   2.618   1.137   6.378 -0.2223 -0.1147 -0.0534
 9360SOL    HW139539   2.696   1.093   6.412 -1.4730 -2.2804 -0.0149
 9360SOL    HW239540   2.548   1.074   6.389  0.7641 -1.2095 -0.0072
 9361SOL     OW39541   3.939   1.476  12.060  0.4749 -0.3432  0.3521
 9361SOL    HW139542   3.934   1.384  12.087  1.3794 -1.0240 -1.7735
 9361SOL    HW239543   3.997   1.468  11.983  0.7848 -0.1825  0.5694
 9362SOL     OW39544   1.190   2.957  11.461 -0.2950 -0.4735 -0.4476
 9362SOL    HW139545   1.201   2.984  11.369  0.1275 -2.4500 -0.9936
 9362SOL    HW239546   1.205   2.863  11.454  1.3089 -0.1798 -1.0246
 9363SOL     OW39547   0.093   3.539   2.552  0.0684  0.0444 -0.2132
 9363SOL    HW139548   0.165   3.586   2.594  1.3058 -0.5351 -1.6608
 9363SOL    HW239549   0.031   3.611   2.562  0.1736  0.7734 -4.8874
 9364SOL     OW39550   0.569   4.718   9.245  0.3729 -0.8981  0.6056
 9364SOL    HW139551   0.542   4.647   9.187  1.0388  0.9242 -1.9705
 9364SOL    HW239552   0.654   4.690   9.279 -0.2464 -0.1110  2.7959
 9365SOL     OW39553   3.498   2.083   3.111  0.2835 -0.4759  0.3890
 9365SOL    HW139554   3.547   2.123   3.038  0.7181  0.0382  0.9609
 9365SOL    HW239555   3.510   1.993   3.083 -1.5522 -1.2144  2.0070
 9366SOL     OW39556   2.102   2.456  11.126 -0.0642  0.1085 -0.2043
 9366SOL    HW139557   2.021   2.489  11.166  0.5844  1.4091  0.0137
 9366SOL    HW239558   2.146   2.409  11.196  0.2957 -1.0399 -1.1849
 9367SOL     OW39559   0.628   3.675   5.220  0.8112  0.1661 -0.0596
 9367SOL    HW139560   0.677   3.610   5.171 -1.2362 -1.2000 -0.3174
 9367SOL    HW239561   0.550   3.698   5.169 -0.0065  0.4055  1.3086
 9368SOL     OW39562   1.522   2.385  17.271  0.5387 -0.2544  0.9280
 9368SOL    HW139563   1.531   2.317  17.205  1.6863 -1.1434  1.9723
 9368SOL    HW239564   1.491   2.343  17.352 -1.2384 -1.4216 -0.3651
 9369SOL     OW39565   3.896   2.686  10.523  0.2824 -0.1618 -0.3602
 9369SOL    HW139566   3.960   2.721  10.586  0.1541 -1.9199  0.7493
 9369SOL    HW239567   3.869   2.602  10.561 -0.1694 -0.1674 -0.6971
 9370SOL     OW39568   0.486   2.215   5.234  0.1230  0.3774  0.5393
 9370SOL    HW139569   0.534   2.297   5.247  3.3631 -1.3640 -0.3982
 9370SOL    HW239570   0.521   2.159   5.304  2.2191  0.4143 -0.4572
 9371SOL     OW39571   4.227   4.211   9.084  0.3328  0.4835  0.3314
 9371SOL    HW139572   4.240   4.156   9.162  1.7182  0.6901  0.2473
 9371SOL    HW239573   4.250   4.293   9.128  0.6999  0.4399  0.2246
 9372SOL     OW39574   2.092   1.094  16.892  0.0521 -0.0974  0.3547
 9372SOL    HW139575   2.086   1.008  16.851  0.2279 -1.0501  2.3436
 9372SOL    HW239576   2.017   1.141  16.855 -0.4662 -1.6129 -0.5037
 9373SOL     OW39577   3.738   0.861   0.802 -0.6489  0.1401  0.4769
 9373SOL    HW139578   3.791   0.926   0.756 -0.5064  0.3239  0.9007
 9373SOL    HW239579   3.681   0.911   0.861  1.3315  1.7142  1.0592
 9374SOL     OW39580   4.680   0.601   6.126  0.1262  0.4688  1.2856
 9374SOL    HW139581   4.624   0.616   6.050  1.6601  1.1658  0.2816
 9374SOL    HW239582   0.002   0.685   6.142 -1.2709  1.6209 -0.7890
 9375SOL     OW39583   4.686   2.526   8.989  0.2546 -0.4177  0.2853
 9375SOL    HW139584   4.703   2.525   9.083 -0.5347  0.2934  0.4368
 9375SOL    HW239585   4.605   2.476   8.980 -0.9250  1.8303 -1.5234
 9376SOL     OW39586   1.810   4.677   2.501  0.4001  0.1816 -0.2818
 9376SOL    HW139587   1.750   4.603   2.505  0.4425  0.1794  0.3177
 9376SOL    HW239588   1.765   0.004   2.570  1.6687  2.1695 -0.8856
 9377SOL     OW39589   0.082   3.366   8.581 -0.3112 -0.7972 -0.0111
 9377SOL    HW139590   0.060   3.457   8.563 -2.0663 -1.1793  0.1193
 9377SOL    HW239591   0.176   3.366   8.598 -0.3248 -0.2610  0.0521
 9378SOL     OW39592   0.568   1.558   1.160 -0.2920 -0.4855  1.0389
 9378SOL    HW139593   0.556   1.467   1.186 -2.5885 -0.1621  1.0832
 9378SOL    HW239594   0.629   1.592   1.226  1.4631 -0.8431 -0.3833
 9379SOL     OW39595   3.522   3.277   3.477 -0.4499  0.1991 -0.1934
 9379SOL    HW139596   3.524   3.185   3.452 -1.2693  0.4708 -1.2799
 9379SOL    HW239597   3.497   3.265   3.569  0.8698  1.2641  0.3172
 9380SOL     OW39598   0.252   4.029   2.913  0.4240 -0.1744 -0.2152
 9380SOL    HW139599   0.314   4.031   2.986  2.1560 -3.5860 -1.5826
 9380SOL    HW239600   0.192   4.099   2.938 -0.2527 -1.2700  1.2037
 9381SOL     OW39601   0.744   1.415  14.797  0.3716 -0.0255 -0.0469
 9381SOL    HW139602   0.677   1.361  14.756  1.0645  0.8796 -2.3789
 9381SOL    HW239603   0.823   1.381  14.754  1.6764 -0.2945  2.5302
 9382SOL     OW39604   2.290   0.904   0.524 -0.0991 -0.0150 -0.0273
 9382SOL    HW139605   2.265   0.813   0.536  1.5178 -0.5158 -0.4302
 9382SOL    HW239606   2.293   0.928   0.617  0.6230 -1.0643  0.2186
 9383SOL     OW39607   0.685   0.965   8.916  0.0894  0.1912 -0.5426
 9383SOL    HW139608   0.707   0.907   8.843 -1.8239 -0.8087 -0.3453
 9383SOL    HW239609   0.640   0.901   8.972 -0.6420  0.7379 -0.5037
 9384SOL     OW39610   2.173   0.375  15.307 -0.0243  0.1944  0.1598
 9384SOL    HW139611   2.165   0.310  15.377 -0.0656  2.1969  2.0129
 9384SOL    HW239612   2.186   0.452  15.363  0.0406 -0.9097  1.6731
 9385SOL     OW39613   1.901   1.154   8.956  0.4235  0.1914 -0.0533
 9385SOL    HW139614   1.866   1.068   8.980 -0.5960 -0.0288 -2.3090
 9385SOL    HW239615   1.824   1.210   8.952  0.5533  0.2191 -2.3254
 9386SOL     OW39616   2.687   2.841   5.578  0.0682 -0.2939  0.4774
 9386SOL    HW139617   2.657   2.866   5.665  1.5893  2.4672  0.2056
 9386SOL    HW239618   2.669   2.748   5.568  1.4309 -0.6802  1.6454
 9387SOL     OW39619   1.522   0.998   6.580 -0.4941 -0.4788 -0.2327
 9387SOL    HW139620   1.608   1.003   6.539 -0.1712 -2.8231  0.1241
 9387SOL    HW239621   1.511   0.903   6.576  3.1917 -0.9242  0.6932
 9388SOL     OW39622   2.385   0.840  17.171  0.2097 -0.2515 -0.0731
 9388SOL    HW139623   2.362   0.918  17.221 -1.2813 -0.0157 -1.1393
 9388SOL    HW239624   2.440   0.885  17.106  1.2936 -1.4761 -0.0167
 9389SOL     OW39625   2.358   0.475   6.704  0.6030  0.0945  0.5341
 9389SOL    HW139626   2.270   0.465   6.666  0.8343 -0.0297  0.0350
 9389SOL    HW239627   2.339   0.555   6.754  1.4378  1.9682 -2.1279
 9390SOL     OW39628   2.518   0.253   6.757 -0.4858  0.2842 -0.6279
 9390SOL    HW139629   2.472   0.337   6.752 -1.8370 -0.6283 -3.3818
 9390SOL    HW239630   2.438   0.200   6.750 -0.9268  0.8027  0.3856
 9391SOL     OW39631   4.225   4.664   2.054 -0.2589  0.3578  0.0035
 9391SOL    HW139632   4.289   0.005   2.021  0.5563 -0.8534 -0.7256
 9391SOL    HW239633   4.185   4.628   1.975  3.1006  2.2364 -2.5877
 9392SOL     OW39634   2.291   1.273   3.726 -0.1215 -0.6770 -0.0259
 9392SOL    HW139635   2.327   1.361   3.716 -0.9530 -0.0988  2.0848
 9392SOL    HW239636   2.372   1.223   3.728  0.4945  0.4367  2.2427
 9393SOL     OW39637   0.068   4.430  13.354 -0.1180 -0.0814 -0.2756
 9393SOL    HW139638   4.714   4.400  13.404 -1.2153 -1.0495 -2.5650
 9393SOL    HW239639   0.028   4.507  13.315  2.2326  1.1163 -0.2772
 9394SOL     OW39640   2.206   4.042   4.143  0.1707  0.6493  0.0449
 9394SOL    HW139641   2.143   4.027   4.213  0.4279  1.5930  0.4723
 9394SOL    HW239642   2.170   3.987   4.073 -1.3249  0.0814  1.2650
 9395SOL     OW39643   1.027   3.195   2.416  0.4912 -0.5504  0.2002
 9395SOL    HW139644   1.011   3.115   2.365 -0.9494 -1.6588  2.3845
 9395SOL    HW239645   1.059   3.257   2.351 -2.3241 -0.4348 -1.0858
 9396SOL     OW39646   3.585   4.478   6.930  0.2380  0.3255  0.8233
 9396SOL    HW139647   3.648   4.459   6.860 -0.3132 -0.5780  0.5705
 9396SOL    HW239648   3.538   4.395   6.940 -0.1137  0.5077  0.6888
 9397SOL     OW39649   0.715   0.402   4.296 -0.1524 -0.0815  0.0081
 9397SOL    HW139650   0.624   0.375   4.312 -0.0702 -0.4638 -0.1670
 9397SOL    HW239651   0.721   0.486   4.252 -1.6391 -1.5038 -2.9162
 9398SOL     OW39652   4.651   3.325   4.966  0.2990 -0.9117  0.1243
 9398SOL    HW139653   4.644   3.346   4.872  1.0081  1.6482  0.6392
 9398SOL    HW239654   4.558   3.311   4.983  0.5408 -1.3304  1.0746
 9399SOL     OW39655   4.671   3.209  14.779  0.4961  0.1388  0.4455
 9399SOL    HW139656   4.629   3.130  14.813 -0.4148  0.3409 -0.2020
 9399SOL    HW239657   4.603   3.238  14.719 -0.3070 -1.6854  0.4897
 9400SOL     OW39658   1.735   3.831   8.883  0.4075  0.3867 -0.4178
 9400SOL    HW139659   1.818   3.797   8.852  1.4663  0.8156  1.8881
 9400SOL    HW239660   1.713   3.782   8.963  0.0947  2.4553  0.7713
 9401SOL     OW39661   1.033   0.889   9.451  0.4432  0.1561  0.3568
 9401SOL    HW139662   1.036   0.843   9.535 -0.4367 -0.7612 -0.1119
 9401SOL    HW239663   1.120   0.926   9.444 -0.2127  2.1444  2.7940
 9402SOL     OW39664   4.034   3.034   4.497  0.3422  0.3345  0.0472
 9402SOL    HW139665   4.061   2.980   4.423  1.3676  0.3881  0.3801
 9402SOL    HW239666   4.050   2.969   4.566  0.7184 -0.9873 -1.2925
 9403SOL     OW39667   4.452   4.497   9.518  0.5106 -0.4430 -0.2086
 9403SOL    HW139668   4.448   4.453   9.603  3.2123 -0.4421 -0.0871
 9403SOL    HW239669   4.394   4.572   9.529 -0.5511 -1.2101 -0.5286
 9404SOL     OW39670   4.594   2.402   6.158 -0.1456 -0.0537 -0.2028
 9404SOL    HW139671   4.535   2.476   6.176 -0.1303 -0.3827  1.1630
 9404SOL    HW239672   4.556   2.360   6.081  0.9744 -0.7781 -0.3585
 9405SOL     OW39673   4.080   1.178  12.367  0.4239  0.2465 -0.0265
 9405SOL    HW139674   4.159   1.141  12.327 -0.8733 -1.9177 -0.5616
 9405SOL    HW239675   4.090   1.155  12.460  1.4522 -2.9748 -0.9427
 9406SOL     OW39676   0.700   1.226  14.593  0.4105  0.0569  0.0956
 9406SOL    HW139677   0.643   1.177  14.534  2.3510 -0.6490 -1.2045
 9406SOL    HW239678   0.727   1.292  14.529  0.1950 -1.1913 -1.2920
 9407SOL     OW39679   0.068   0.743  11.145  0.0678 -0.0859 -0.2511
 9407SOL    HW139680   0.111   0.818  11.187 -1.0948  0.6623 -0.3994
 9407SOL    HW239681   0.025   0.789  11.073 -0.4821 -1.4135 -0.7688
 9408SOL     OW39682   3.693   0.941   5.022 -0.2197  0.0353 -0.2951
 9408SOL    HW139683   3.779   0.982   5.031  0.7609 -2.1410  0.3189
 9408SOL    HW239684   3.627   0.995   5.065 -0.5897 -0.9910  0.4279
 9409SOL     OW39685   4.698   3.745   5.690 -0.1951 -0.6715  0.3763
 9409SOL    HW139686   4.655   3.721   5.608  0.3859 -0.2341 -0.0484
 9409SOL    HW239687   0.054   3.793   5.664 -0.2887 -0.7692 -0.0842
 9410SOL     OW39688   1.746   0.918  13.216  0.4752 -0.1216 -0.8728
 9410SOL    HW139689   1.836   0.927  13.246  0.2594 -0.2273 -0.1881
 9410SOL    HW239690   1.716   0.879  13.298 -0.9282  1.3121 -0.6861
 9411SOL     OW39691   1.478   1.751   4.450  0.6521 -0.2754 -0.0824
 9411SOL    HW139692   1.496   1.678   4.390  1.5240 -1.0763  1.1739
 9411SOL    HW239693   1.476   1.695   4.527  1.8521 -2.4195 -1.5857
 9412SOL     OW39694   1.667   0.414  10.685  1.0837  0.5130  0.2455
 9412SOL    HW139695   1.667   0.492  10.741 -2.0965 -0.4262  1.5978
 9412SOL    HW239696   1.589   0.365  10.713  2.2005 -0.4695  1.6368
 9413SOL     OW39697   0.644   1.388   1.703  0.0174 -0.3926 -0.0191
 9413SOL    HW139698   0.598   1.386   1.618  1.6687 -0.6775 -0.9080
 9413SOL    HW239699   0.586   1.439   1.760 -1.9077 -0.9382 -1.4530
 9414SOL     OW39700   2.402   2.718   7.386  0.2797 -0.4043  0.3327
 9414SOL    HW139701   2.466   2.701   7.317  0.5076 -0.4231  0.5454
 9414SOL    HW239702   2.396   2.629   7.421  3.6143 -1.6684 -2.2748
 9415SOL     OW39703   0.337   4.147   8.444 -0.2358 -0.7090 -0.7219
 9415SOL    HW139704   0.429   4.172   8.453 -0.4666  0.5381 -1.8888
 9415SOL    HW239705   0.349   4.055   8.469 -0.1272 -0.6139 -0.4276
 9416SOL     OW39706   0.088   4.712   5.953  0.4438 -0.1186  0.0774
 9416SOL    HW139707   0.078   4.651   6.026 -1.3460  1.6205  1.2779
 9416SOL    HW239708   0.070   4.665   5.871 -1.0109 -0.0254  0.3415
 9417SOL     OW39709   4.168   2.951   8.194  0.1245  0.0822 -0.4490
 9417SOL    HW139710   4.193   2.859   8.185 -0.0118  0.2169 -2.3885
 9417SOL    HW239711   4.168   2.972   8.100  0.3451 -3.7479 -1.2871
 9418SOL     OW39712   0.557   1.960   4.100  0.1959 -0.6088  0.1829
 9418SOL    HW139713   0.548   1.889   4.164  0.8828 -0.9927 -0.1551
 9418SOL    HW239714   0.618   2.019   4.143 -0.9931 -1.2021  2.7427
 9419SOL     OW39715   0.090   0.744  16.696 -0.7320 -0.1779  0.7151
 9419SOL    HW139716   0.142   0.742  16.616 -1.2643  0.9889  0.3397
 9419SOL    HW239717   0.129   0.810  16.753  0.3687 -0.0611 -0.1865
 9420SOL     OW39718   1.425   2.344   0.429 -0.1315  0.2127  0.1951
 9420SOL    HW139719   1.348   2.310   0.475  0.7977 -1.3893  0.5695
 9420SOL    HW239720   1.398   2.363   0.340 -1.9381 -0.8016  0.5291
 9421SOL     OW39721   1.626   0.458   7.243  0.1492  0.2802  0.1943
 9421SOL    HW139722   1.710   0.497   7.267  2.0530 -2.1640 -2.5304
 9421SOL    HW239723   1.586   0.531   7.195 -0.0010  0.5063  0.6610
 9422SOL     OW39724   4.139   1.699   4.915  0.1461  0.3222 -0.0104
 9422SOL    HW139725   4.198   1.716   4.988 -0.2756  0.9590  0.1792
 9422SOL    HW239726   4.207   1.682   4.849 -0.8137 -1.7221 -0.4478
 9423SOL     OW39727   2.445   0.195   5.688 -0.8353 -0.3130 -0.2449
 9423SOL    HW139728   2.461   0.220   5.597  0.5189 -0.0011  0.0801
 9423SOL    HW239729   2.532   0.159   5.705 -0.3658  1.0690  0.3223
 9424SOL     OW39730   0.863   1.642  16.736 -0.5214  0.1278  0.0846
 9424SOL    HW139731   0.954   1.613  16.732 -0.1769  1.0852  0.7604
 9424SOL    HW239732   0.887   1.732  16.713 -0.1058  0.7025  2.7248
 9425SOL     OW39733   0.438   1.403   8.332 -0.1761 -0.3616 -0.6228
 9425SOL    HW139734   0.515   1.426   8.384 -1.3154 -1.0865  1.4054
 9425SOL    HW239735   0.369   1.430   8.392 -0.3936  0.5000 -1.2728
 9426SOL     OW39736   2.197   3.399   6.078  0.6677  0.2723  0.0565
 9426SOL    HW139737   2.198   3.314   6.033 -1.9186  0.8724 -1.1502
 9426SOL    HW239738   2.110   3.428   6.051  0.6823 -1.5666 -1.9568
 9427SOL     OW39739   3.847   3.961   3.319  0.0438 -0.3049  0.3434
 9427SOL    HW139740   3.819   3.879   3.361  1.6834 -1.7202 -1.3290
 9427SOL    HW239741   3.798   4.017   3.379 -0.4962 -0.2574 -0.1386
 9428SOL     OW39742   2.646   0.996   5.692  0.1235  0.7374  0.1125
 9428SOL    HW139743   2.719   1.047   5.727  0.0642  2.4303 -2.2962
 9428SOL    HW239744   2.591   1.069   5.663  1.6389  0.5711 -3.1011
 9429SOL     OW39745   0.987   1.519   4.095  0.4900  0.4518  0.1062
 9429SOL    HW139746   0.990   1.427   4.122  2.2263  0.5702  0.2870
 9429SOL    HW239747   0.987   1.563   4.180 -0.3418 -0.1000  0.3935
 9430SOL     OW39748   1.245   4.561  11.512  0.3419  0.6937  0.5502
 9430SOL    HW139749   1.231   4.496  11.580  0.4672 -0.9766 -1.0259
 9430SOL    HW239750   1.203   4.517  11.438  1.2674  1.4077 -0.4109
 9431SOL     OW39751   0.963   0.597   4.166  0.3550  0.2818 -0.6555
 9431SOL    HW139752   0.941   0.663   4.232  0.5365  1.2787 -1.6120
 9431SOL    HW239753   0.877   0.596   4.125 -0.7011 -0.8987  1.5446
 9432SOL     OW39754   3.571   3.498   6.405  0.4282 -0.7627  0.6629
 9432SOL    HW139755   3.506   3.429   6.391 -0.8675  1.2224 -3.1484
 9432SOL    HW239756   3.609   3.515   6.318  0.2285 -1.8807  0.3578
 9433SOL     OW39757   3.469   2.376   1.812  0.0667  0.0063 -0.0943
 9433SOL    HW139758   3.544   2.349   1.864 -1.1642 -0.3883  1.4712
 9433SOL    HW239759   3.506   2.420   1.735 -1.1149  2.7023  0.8564
 9434SOL     OW39760   0.807   1.983   6.617 -0.2228 -0.3122 -0.0694
 9434SOL    HW139761   0.748   2.024   6.681 -0.0596 -0.8861  0.4561
 9434SOL    HW239762   0.786   1.889   6.623  0.1706 -0.4876 -1.5810
 9435SOL     OW39763   2.963   0.073   8.500 -0.5371  0.4391  0.3585
 9435SOL    HW139764   2.937   0.021   8.424  0.4833  0.7508 -0.2021
 9435SOL    HW239765   2.917   0.034   8.574  0.8526  0.5407  1.2807
 9436SOL     OW39766   3.420   0.268   8.864  0.3482 -0.3799  0.5874
 9436SOL    HW139767   3.336   0.306   8.889 -0.2440 -2.5246  1.8576
 9436SOL    HW239768   3.477   0.328   8.912 -0.7789  0.9003  0.3329
 9437SOL     OW39769   0.127   1.293   6.927 -0.3542 -0.6515 -0.0241
 9437SOL    HW139770   0.085   1.281   6.842  3.5906 -1.4152 -1.8683
 9437SOL    HW239771   0.076   1.359   6.974 -0.9990 -0.0962 -1.5044
 9438SOL     OW39772   3.561   1.450  11.522  0.1354 -0.0587  0.3520
 9438SOL    HW139773   3.520   1.363  11.524 -0.2209  0.0576 -2.0741
 9438SOL    HW239774   3.482   1.503  11.530  0.2947  0.1843  0.3138
 9439SOL     OW39775   1.672   3.779   7.808 -0.1502 -0.2380 -0.2835
 9439SOL    HW139776   1.630   3.801   7.725  1.9165  0.5853 -1.0954
 9439SOL    HW239777   1.688   3.867   7.842  0.1050 -0.3645 -0.0811
 9440SOL     OW39778   2.631   3.737  16.717  0.6362 -0.7169 -0.2272
 9440SOL    HW139779   2.558   3.799  16.722 -0.1315 -1.4736 -2.0092
 9440SOL    HW239780   2.678   3.744  16.800  1.6725 -2.2996 -0.6686
 9441SOL     OW39781   0.856   0.673  12.881  0.2079 -0.0680 -0.2687
 9441SOL    HW139782   0.884   0.599  12.827  1.6794  1.2523 -1.3295
 9441SOL    HW239783   0.771   0.685  12.840 -0.7331 -0.8611  1.4364
 9442SOL     OW39784   2.399   4.156   6.969 -0.2241  0.4219 -0.4437
 9442SOL    HW139785   2.323   4.162   7.027 -0.7581 -1.3806 -0.9508
 9442SOL    HW239786   2.413   4.061   6.969  0.3915  0.5080  0.5090
 9443SOL     OW39787   0.694   0.786  10.510  0.1047  0.4153 -0.2116
 9443SOL    HW139788   0.654   0.863  10.551  0.5347 -0.3290  1.6051
 9443SOL    HW239789   0.628   0.719  10.525  0.9901 -0.3433  0.2990
 9444SOL     OW39790   2.194   2.736   7.937  0.4051  0.4142 -0.0912
 9444SOL    HW139791   2.259   2.673   7.968  1.1607  2.1355  1.8062
 9444SOL    HW239792   2.239   2.819   7.952  2.8625 -0.7542 -1.1552
 9445SOL     OW39793   1.460   4.585   7.548  0.6142  0.0056 -0.5181
 9445SOL    HW139794   1.538   4.540   7.581  2.0742  1.6686 -1.6693
 9445SOL    HW239795   1.464   4.566   7.455  0.5684  2.4937 -1.0340
 9446SOL     OW39796   2.047   3.224   5.223  0.3001 -0.8374 -0.2082
 9446SOL    HW139797   2.118   3.174   5.181 -0.0111 -0.5842 -1.0395
 9446SOL    HW239798   1.993   3.239   5.145 -0.2721 -2.2571 -0.0977
 9447SOL     OW39799   0.519   2.375   4.776  0.5166 -0.0204  0.2252
 9447SOL    HW139800   0.483   2.292   4.807 -1.1275  0.2156 -1.0416
 9447SOL    HW239801   0.494   2.378   4.683 -1.4520 -1.2432  0.7246
 9448SOL     OW39802   3.794   3.497   3.238 -0.1570  0.4414  0.3754
 9448SOL    HW139803   3.814   3.565   3.173  0.1573  0.2059  0.2326
 9448SOL    HW239804   3.867   3.437   3.225 -0.5644 -0.0499  0.3613
 9449SOL     OW39805   4.113   1.678  13.994 -0.1932 -0.1152 -0.3286
 9449SOL    HW139806   4.147   1.646  14.077  0.7413  1.7096  0.0069
 9449SOL    HW239807   4.069   1.604  13.953 -1.3230  0.9390 -1.0468
 9450SOL     OW39808   3.713   0.146   2.336  0.1703 -0.2034 -0.2484
 9450SOL    HW139809   3.706   0.240   2.350 -2.0932 -0.0501 -2.4144
 9450SOL    HW239810   3.620   0.126   2.333 -0.1144  1.1080 -0.2229
 9451SOL     OW39811   1.001   2.736   1.190 -0.2027 -0.2495 -0.4737
 9451SOL    HW139812   0.924   2.788   1.214 -0.7186 -0.3595 -1.8822
 9451SOL    HW239813   1.062   2.759   1.260  0.7713 -1.6359 -0.8706
 9452SOL     OW39814   0.499   3.807  16.109 -0.3621  0.1475  0.5839
 9452SOL    HW139815   0.546   3.890  16.113 -0.5346  0.3852 -2.3162
 9452SOL    HW239816   0.570   3.744  16.094 -0.5722  0.2374 -0.7553
 9453SOL     OW39817   3.490   3.082   2.411  0.1798  0.4360  0.1848
 9453SOL    HW139818   3.430   3.129   2.469  0.2582  0.4950  0.2193
 9453SOL    HW239819   3.519   3.152   2.353 -0.7486  0.9187  0.3006
 9454SOL     OW39820   0.940   3.629   6.345 -0.1873 -0.1758 -0.1342
 9454SOL    HW139821   0.982   3.663   6.266 -1.8139  0.1584 -0.8624
 9454SOL    HW239822   0.886   3.700   6.381 -2.0979 -1.5564 -0.2499
 9455SOL     OW39823   1.806   0.423  15.923 -0.0612  0.7700 -0.1096
 9455SOL    HW139824   1.796   0.447  15.831  1.8744 -0.9619 -0.7850
 9455SOL    HW239825   1.876   0.358  15.919  0.2576  1.0946  0.1575
 9456SOL     OW39826   3.146   1.230   8.448  0.0027  0.0695  0.6097
 9456SOL    HW139827   3.221   1.177   8.477  0.2630 -1.1358 -2.3360
 9456SOL    HW239828   3.116   1.270   8.530 -2.8532  1.2429 -1.0177
 9457SOL     OW39829   2.118   3.027   7.267  0.1047 -0.4305  0.4078
 9457SOL    HW139830   2.135   3.006   7.359  2.3548 -0.9449 -0.1399
 9457SOL    HW239831   2.059   3.101   7.276 -0.3738 -0.8748  0.9364
 9458SOL     OW39832   2.033   2.442   2.028  0.1455 -0.0640 -0.2160
 9458SOL    HW139833   2.015   2.358   2.070 -0.0993  1.2136  2.1959
 9458SOL    HW239834   2.069   2.492   2.101  2.4026  1.5743 -2.4585
 9459SOL     OW39835   0.767   2.626   2.400 -0.8221 -0.0576  0.0540
 9459SOL    HW139836   0.769   2.722   2.398  1.7126 -0.0496  2.4728
 9459SOL    HW239837   0.841   2.621   2.461  1.4201  3.3360 -2.3575
 9460SOL     OW39838   0.098   3.818  11.768  0.0031 -0.1206 -0.1204
 9460SOL    HW139839   0.019   3.777  11.803 -2.1252  1.6298 -2.9011
 9460SOL    HW239840   0.099   3.905  11.808 -1.9701  0.3346 -1.0378
 9461SOL     OW39841   0.363   2.881   7.935  0.4368  0.5084  0.3199
 9461SOL    HW139842   0.430   2.945   7.911  1.7362 -0.4310  1.4895
 9461SOL    HW239843   0.311   2.932   7.997 -0.8056  0.3542 -0.5964
 9462SOL     OW39844   0.504   3.114   5.129 -0.2477 -0.0576 -0.2247
 9462SOL    HW139845   0.545   3.184   5.179  1.0157 -0.2541 -0.9816
 9462SOL    HW239846   0.433   3.166   5.091 -0.4306  0.6606  1.0852
 9463SOL     OW39847   3.081   0.989   5.446 -0.5122  0.7827  0.8397
 9463SOL    HW139848   3.012   0.929   5.473 -2.3947  2.7287  0.3701
 9463SOL    HW239849   3.037   1.070   5.475  0.1215  1.6760 -0.6625
 9464SOL     OW39850   4.585   1.733   7.416 -0.1568  0.0910 -0.2083
 9464SOL    HW139851   4.541   1.814   7.390  1.1017  0.6991 -0.4410
 9464SOL    HW239852   4.527   1.667   7.377  1.5710 -1.3333 -0.3816
 9465SOL     OW39853   1.126   0.733   5.738 -0.0648 -0.2051 -0.0327
 9465SOL    HW139854   1.184   0.806   5.762 -1.2060  0.0786  1.9140
 9465SOL    HW239855   1.184   0.662   5.767 -0.9426 -0.8601  0.1244
 9466SOL     OW39856   1.327   1.765   1.313  0.0193 -0.4619  0.1423
 9466SOL    HW139857   1.255   1.723   1.360  0.1080  1.7853  2.3418
 9466SOL    HW239858   1.401   1.722   1.357  1.4334  2.2832  0.4859
 9467SOL     OW39859   3.743   4.151   8.503 -0.1335 -0.6515  0.3491
 9467SOL    HW139860   3.702   4.115   8.425 -0.1199  0.4506 -0.1715
 9467SOL    HW239861   3.663   4.193   8.536 -0.6242  0.7573 -2.6326
 9468SOL     OW39862   1.581   0.479   3.017 -0.0761  0.6818  0.2577
 9468SOL    HW139863   1.613   0.511   2.933 -2.6095 -0.3044 -1.0648
 9468SOL    HW239864   1.653   0.427   3.053  0.0484 -0.6299 -1.9193
 9469SOL     OW39865   0.989   4.184  13.828 -0.0521  0.3903 -0.5119
 9469SOL    HW139866   0.916   4.238  13.798 -1.6761 -1.0560  0.8498
 9469SOL    HW239867   0.945   4.099  13.827 -1.8660  1.3478 -1.7946
 9470SOL     OW39868   2.608   2.819   4.761  0.1050  0.1159  0.0377
 9470SOL    HW139869   2.568   2.891   4.713 -3.1725  0.2493  3.0624
 9470SOL    HW239870   2.631   2.768   4.683  2.6537 -1.0301  1.5491
 9471SOL     OW39871   3.673   1.387   7.898 -0.4820  0.0200 -0.0411
 9471SOL    HW139872   3.743   1.406   7.961 -0.2751 -0.0666 -0.2432
 9471SOL    HW239873   3.595   1.389   7.953  0.7937 -3.6504  1.9347
 9472SOL     OW39874   1.205   3.091   5.177  0.2363 -0.4523  0.0354
 9472SOL    HW139875   1.145   3.073   5.248 -0.7080  0.4188 -0.5319
 9472SOL    HW239876   1.207   3.012   5.123  2.7257  0.7084 -1.6059
 9473SOL     OW39877   3.944   1.995   1.087 -0.2661  0.6595  0.0965
 9473SOL    HW139878   4.006   2.036   1.148  2.0608 -1.7031 -0.7089
 9473SOL    HW239879   3.879   1.964   1.150 -0.5075 -2.2337 -1.6126
 9474SOL     OW39880   0.212   3.015   3.693  0.1764 -0.2759 -0.3752
 9474SOL    HW139881   0.304   3.021   3.667  0.3141  0.0038  0.1575
 9474SOL    HW239882   0.178   3.094   3.651  0.3572  0.2127  0.3735
 9475SOL     OW39883   3.697   2.596  13.350 -0.0654  0.2871  0.2221
 9475SOL    HW139884   3.643   2.628  13.423  1.5730  2.7003  0.3394
 9475SOL    HW239885   3.751   2.529  13.394  1.8937  1.9197  0.2937
 9476SOL     OW39886   2.375   1.647   2.643  0.4375  0.0066 -0.0346
 9476SOL    HW139887   2.354   1.582   2.576  0.3914  0.9659 -0.9420
 9476SOL    HW239888   2.458   1.688   2.618  0.5587 -1.4684 -2.0015
 9477SOL     OW39889   0.500   2.740   1.108  0.0723 -0.1652  0.1479
 9477SOL    HW139890   0.548   2.658   1.116  0.0751 -0.0158  1.6599
 9477SOL    HW239891   0.452   2.734   1.025  1.8790  0.0095 -0.9021
 9478SOL     OW39892   2.645   0.029   8.706 -0.5960  0.4837  0.2989
 9478SOL    HW139893   2.562   0.004   8.745 -1.0723  0.0802 -0.9838
 9478SOL    HW239894   2.675   0.089   8.775  0.6352  0.5080 -0.2435
 9479SOL     OW39895   2.475   4.046   4.740 -0.1525  0.3858  0.2707
 9479SOL    HW139896   2.486   4.002   4.656 -2.0040  2.5758 -1.1282
 9479SOL    HW239897   2.534   3.994   4.795 -0.0208 -2.2349 -2.3467
 9480SOL     OW39898   4.674   1.573   1.805 -0.0097 -0.1958 -0.9715
 9480SOL    HW139899   0.009   1.561   1.730  1.3695 -0.2961  0.0826
 9480SOL    HW239900   4.601   1.613   1.758 -1.4336 -0.3562  1.0600
 9481SOL     OW39901   4.587   4.545   8.714  0.1398 -0.2678 -0.0430
 9481SOL    HW139902   4.517   4.484   8.689  0.8373 -0.4244 -1.6519
 9481SOL    HW239903   4.597   4.525   8.807 -0.8847 -3.7329 -0.6485
 9482SOL     OW39904   4.249   2.644  14.537 -0.5157  0.1994 -0.2101
 9482SOL    HW139905   4.231   2.727  14.580  0.9962  0.0079  0.8051
 9482SOL    HW239906   4.344   2.638  14.524 -0.7526  0.9624 -2.2290
 9483SOL     OW39907   0.749   4.535   9.433  0.5145 -0.4107 -0.5762
 9483SOL    HW139908   0.814   4.602   9.451 -0.0183 -0.4802  1.5274
 9483SOL    HW239909   0.724   4.515   9.523  1.9069  0.8403  0.0863
 9484SOL     OW39910   1.606   4.129   6.442 -0.0064  0.1648  0.2377
 9484SOL    HW139911   1.663   4.206   6.449 -0.8101  0.5256  2.7745
 9484SOL    HW239912   1.574   4.119   6.531 -2.4342  0.7232 -0.5752
 9485SOL     OW39913   2.070   2.318   7.331 -0.1422  0.0818 -0.0909
 9485SOL    HW139914   1.994   2.324   7.273  0.3251 -1.2596 -0.8501
 9485SOL    HW239915   2.073   2.403   7.376 -2.0037  0.1376 -0.1102
 9486SOL     OW39916   4.605   4.019  12.147 -0.6668 -0.6827 -0.2507
 9486SOL    HW139917   4.572   3.938  12.187  1.7869 -0.9285  1.2943
 9486SOL    HW239918   4.525   4.038  12.098  0.4079 -0.2162 -1.7832
 9487SOL     OW39919   0.446   2.145   9.021 -0.2216 -0.3570  0.3968
 9487SOL    HW139920   0.483   2.228   9.052  0.8760 -0.7844  0.2231
 9487SOL    HW239921   0.360   2.182   9.003  1.6574  3.4400 -0.9102
 9488SOL     OW39922   2.999   4.661  14.738 -0.3667 -0.1321 -0.8134
 9488SOL    HW139923   3.015   4.647  14.831  2.1543  2.4810 -0.8503
 9488SOL    HW239924   2.903   4.670  14.741 -0.0977  2.7516 -0.7596
 9489SOL     OW39925   0.155   0.607   2.962  0.3147 -0.3689 -0.3036
 9489SOL    HW139926   0.070   0.570   2.987  1.9180 -2.7147  1.5880
 9489SOL    HW239927   0.125   0.637   2.875 -0.9507 -0.4786  0.0978
 9490SOL     OW39928   2.036   3.215   7.668 -0.0898 -0.5897  0.3468
 9490SOL    HW139929   2.107   3.219   7.733  0.1879 -1.8067  0.1170
 9490SOL    HW239930   2.070   3.133   7.632  1.7494  0.4981 -0.3631
 9491SOL     OW39931   4.530   2.971   1.913 -0.1229  0.8779  0.1960
 9491SOL    HW139932   4.490   2.907   1.972  2.1873 -0.0572  0.7532
 9491SOL    HW239933   4.486   3.051   1.940 -3.4548 -0.5310 -0.9224
 9492SOL     OW39934   2.464   0.088  16.448 -0.1451  0.6080  0.1654
 9492SOL    HW139935   2.393   0.026  16.466 -0.5452  0.8035 -0.7500
 9492SOL    HW239936   2.500   0.049  16.368 -0.3660 -0.0520  0.3846
 9493SOL     OW39937   4.434   3.545  12.430  0.2454  0.8223 -0.0463
 9493SOL    HW139938   4.347   3.577  12.454  0.4536  0.9272  0.5661
 9493SOL    HW239939   4.480   3.575  12.508  2.8556  0.1286 -1.3240
 9494SOL     OW39940   2.394   1.051   5.978 -0.0729 -0.1002 -0.0472
 9494SOL    HW139941   2.315   1.011   5.943 -0.6798  0.7478  0.3711
 9494SOL    HW239942   2.433   0.977   6.025 -1.1375  0.2923  1.4358
 9495SOL     OW39943   3.741   3.331   5.451  0.2988 -0.2632 -0.1978
 9495SOL    HW139944   3.834   3.343   5.472  0.2878 -0.6893  0.0998
 9495SOL    HW239945   3.722   3.393   5.380  3.9703  0.6467 -0.3775
 9496SOL     OW39946   3.613   2.039   8.026  0.0290  0.5347  0.3170
 9496SOL    HW139947   3.602   2.003   7.938  1.7379  0.7115  0.0418
 9496SOL    HW239948   3.533   2.091   8.025  0.4012  1.0987  0.1788
 9497SOL     OW39949   2.962   2.548  15.977 -0.0916 -0.1465  0.1670
 9497SOL    HW139950   2.870   2.527  15.997 -0.4565  1.6937  0.4173
 9497SOL    HW239951   2.971   2.576  16.068 -2.9879  3.4078 -0.6245
 9498SOL     OW39952   1.931   2.424   7.938 -0.5475  0.4897  0.8048
 9498SOL    HW139953   1.991   2.454   8.006 -0.2611  0.2748  0.6482
 9498SOL    HW239954   1.854   2.478   7.954  0.5409  1.5445  2.4227
 9499SOL     OW39955   0.368   4.430   7.601 -0.2110 -0.6228 -0.2720
 9499SOL    HW139956   0.375   4.447   7.507  1.8942  0.0741  0.0052
 9499SOL    HW239957   0.284   4.469   7.627 -0.6126 -1.0885 -0.8938
 9500SOL     OW39958   3.994   0.499  13.353 -0.0656 -0.3051  0.1204
 9500SOL    HW139959   3.906   0.535  13.344  0.2747  0.7501  0.9701
 9500SOL    HW239960   4.015   0.476  13.263 -2.8024  0.8019 -0.7749
 9501SOL     OW39961   0.851   3.433   7.339  0.2257  0.2301  0.0101
 9501SOL    HW139962   0.831   3.412   7.248 -1.3202  1.5326  0.0520
 9501SOL    HW239963   0.810   3.356   7.378 -1.7554 -0.0657 -2.6883
 9502SOL     OW39964   0.013   2.824   2.102 -0.0982  0.2110 -0.4424
 9502SOL    HW139965   4.642   2.802   2.097  0.3864 -1.6214 -1.4042
 9502SOL    HW239966   0.048   2.757   2.160 -3.0822 -1.4993 -0.5952
 9503SOL     OW39967   4.625   0.147   2.170 -0.7496 -0.6465 -0.1723
 9503SOL    HW139968   4.645   0.240   2.165 -0.3608 -0.7114  0.1937
 9503SOL    HW239969   4.581   0.136   2.255 -2.4718  1.7652 -0.7509
 9504SOL     OW39970   1.509   3.435   6.804  0.7360  0.1713 -0.1981
 9504SOL    HW139971   1.593   3.423   6.848  1.0195  0.3336 -0.6935
 9504SOL    HW239972   1.465   3.491   6.868 -2.6026 -2.1909 -0.4267
 9505SOL     OW39973   2.027   3.179   8.701 -0.3773  0.1434 -0.3188
 9505SOL    HW139974   2.037   3.085   8.688  1.5274  0.9274 -4.6937
 9505SOL    HW239975   1.952   3.160   8.757 -0.5701 -0.7628 -0.8842
 9506SOL     OW39976   0.040   0.766   1.561  0.2104 -0.1730 -0.4037
 9506SOL    HW139977   4.722   0.794   1.643  1.4955  1.4907 -0.3567
 9506SOL    HW239978   0.132   0.773   1.584 -0.1076  1.6529  0.3296
 9507SOL     OW39979   2.780   2.172   8.305 -0.4005  0.0738 -0.3030
 9507SOL    HW139980   2.777   2.088   8.260 -2.2421  0.7114 -1.3752
 9507SOL    HW239981   2.873   2.195   8.306 -0.2397 -0.7080  2.3461
 9508SOL     OW39982   0.648   2.358   0.377  0.1244  0.2119  0.2423
 9508SOL    HW139983   0.563   2.363   0.334  1.2786  1.3917 -1.8752
 9508SOL    HW239984   0.633   2.332   0.468  0.3743 -0.7726  0.0027
 9509SOL     OW39985   0.447   0.724   2.190 -0.2323  0.5620 -1.1720
 9509SOL    HW139986   0.404   0.683   2.114  0.5521 -1.2510 -0.6417
 9509SOL    HW239987   0.439   0.818   2.175 -1.1342  0.9243  1.5388
 9510SOL     OW39988   4.152   3.884  12.558  0.2343  0.5466  0.1888
 9510SOL    HW139989   4.234   3.931  12.575  1.1178  0.0703 -2.6997
 9510SOL    HW239990   4.093   3.956  12.581  0.5032  0.9845 -0.4833
 9511SOL     OW39991   2.240   3.892   6.072 -0.1191  0.2951 -0.1399
 9511SOL    HW139992   2.199   3.858   6.152 -1.2799 -0.1764 -0.9382
 9511SOL    HW239993   2.310   3.938   6.118  1.3744 -2.4210  0.2781
 9512SOL     OW39994   4.359   0.802   7.773 -0.3569  0.4860 -0.2625
 9512SOL    HW139995   4.367   0.711   7.745 -1.2578  0.2370  0.2902
 9512SOL    HW239996   4.401   0.804   7.859 -2.0412 -0.4986  0.5858
 9513SOL     OW39997   1.532   0.379  17.298 -0.0016  0.0114  0.0367
 9513SOL    HW139998   1.571   0.420  17.375  0.6218 -0.3631 -0.0738
 9513SOL    HW239999   1.456   0.331  17.330 -0.1017  0.0634 -0.1222
 9514SOL     OW40000   3.298   0.900   3.867  0.1900  0.3352 -0.0046
 9514SOL    HW140001   3.376   0.879   3.815  1.0714  0.1352  1.3859
 9514SOL    HW240002   3.325   0.874   3.956 -0.8951 -2.7362 -0.5706
 9515SOL     OW40003   2.122   2.677  11.829 -0.6995  0.4031  0.2015
 9515SOL    HW140004   2.181   2.658  11.756  0.0878  2.9428  0.1472
 9515SOL    HW240005   2.159   2.755  11.871  1.7212  0.8611 -2.7505
 9516SOL     OW40006   2.232   3.442   8.540  0.4785  0.0927  0.3739
 9516SOL    HW140007   2.296   3.412   8.605  1.0287 -0.3268 -0.3649
 9516SOL    HW240008   2.162   3.383   8.569  2.1793 -2.4215 -0.6170
 9517SOL     OW40009   2.135   3.314   3.110  0.0306 -0.4238 -0.4091
 9517SOL    HW140010   2.097   3.402   3.109  1.6138  0.2709  1.1802
 9517SOL    HW240011   2.177   3.315   3.196 -0.1525  1.3255 -0.3402
 9518SOL     OW40012   0.350   2.291   3.613  0.7461  0.4092  0.0620
 9518SOL    HW140013   0.432   2.319   3.572  1.4777  0.2689  1.4387
 9518SOL    HW240014   0.302   2.373   3.624 -0.5045 -0.2950 -0.1427
 9519SOL     OW40015   4.141   4.385   1.048 -0.6587 -0.6967 -0.5037
 9519SOL    HW140016   4.210   4.420   1.106 -2.2154  0.1322  0.8531
 9519SOL    HW240017   4.063   4.396   1.102 -1.0910 -1.7019 -0.9254
 9520SOL     OW40018   1.206   2.707   5.883 -0.3302 -0.7921 -0.3297
 9520SOL    HW140019   1.300   2.718   5.890 -0.6307  1.3442  0.0938
 9520SOL    HW240020   1.202   2.626   5.831 -0.0450 -0.7679 -0.3856
 9521SOL     OW40021   0.339   4.473   9.158 -0.1503  0.0240 -0.6138
 9521SOL    HW140022   0.427   4.435   9.157  0.8195  2.2220  0.8269
 9521SOL    HW240023   0.293   4.400   9.201 -0.1756  0.1874 -0.3600
 9522SOL     OW40024   0.725   3.206  17.220 -0.0259 -0.0319  0.9606
 9522SOL    HW140025   0.699   3.180  17.131  0.6340  2.2421  0.0830
 9522SOL    HW240026   0.652   3.266  17.239  0.9566  1.4446  0.1543
 9523SOL     OW40027   2.527   0.127   8.116 -0.0095 -0.7803 -0.4488
 9523SOL    HW140028   2.491   0.195   8.059  0.2699 -0.8407 -0.6964
 9523SOL    HW240029   2.480   0.131   8.199  1.1623 -0.2237  0.1766
 9524SOL     OW40030   2.727   2.445   7.230 -0.1909  0.4862  0.1209
 9524SOL    HW140031   2.664   2.506   7.192  1.1373 -0.1047 -3.0804
 9524SOL    HW240032   2.706   2.448   7.323 -2.0935 -0.1395 -0.2963
 9525SOL     OW40033   0.154   1.469   1.168 -0.0617  0.1298  0.4387
 9525SOL    HW140034   0.153   1.560   1.197 -0.5792  0.9721 -2.1918
 9525SOL    HW240035   0.202   1.475   1.086  1.9773 -3.0885  1.3657
 9526SOL     OW40036   0.171   3.268   6.311 -0.0619 -0.1464  0.5033
 9526SOL    HW140037   0.176   3.190   6.255 -1.6619 -1.6897  2.5395
 9526SOL    HW240038   0.096   3.315   6.276  0.1847 -0.6429 -0.7048
 9527SOL     OW40039   0.732   0.120   5.941 -0.1539 -0.4312 -0.0988
 9527SOL    HW140040   0.652   0.172   5.945 -1.1961 -2.1031  0.7699
 9527SOL    HW240041   0.751   0.151   5.852  0.3534 -0.2259  0.0856
 9528SOL     OW40042   0.014   2.294   6.963  0.7051 -0.2138 -0.4660
 9528SOL    HW140043   0.074   2.348   7.014 -1.2779 -0.1215  1.7458
 9528SOL    HW240044   4.660   2.351   6.963 -1.5550 -3.2208 -1.1892
 9529SOL     OW40045   4.345   2.886   1.282  0.7373 -0.1035  0.1624
 9529SOL    HW140046   4.384   2.889   1.195 -0.5500 -1.9929 -0.4674
 9529SOL    HW240047   4.260   2.846   1.264 -0.1597  1.4608  0.8429
 9530SOL     OW40048   1.895   1.791   4.930 -0.2208 -0.0677 -0.5562
 9530SOL    HW140049   1.904   1.746   4.846  1.6303 -1.8570  0.5953
 9530SOL    HW240050   1.987   1.798   4.954 -0.7735  1.6502  0.9859
 9531SOL     OW40051   2.651   4.048  16.616  0.0273  0.0904  0.2510
 9531SOL    HW140052   2.564   4.009  16.617  0.5186 -1.0183 -0.0020
 9531SOL    HW240053   2.661   4.063  16.710 -1.3505 -1.2914  0.6211
 9532SOL     OW40054   2.517   3.557   8.535 -0.4689 -0.3991  0.1853
 9532SOL    HW140055   2.524   3.616   8.610  0.3505 -0.5441  0.2239
 9532SOL    HW240056   2.610   3.534   8.530 -0.7016 -1.0664 -1.0154
 9533SOL     OW40057   1.016   3.690   3.409 -0.3384 -0.2547  0.4532
 9533SOL    HW140058   0.941   3.678   3.468 -1.1851 -0.3605 -0.6493
 9533SOL    HW240059   1.092   3.651   3.452 -0.3985  2.0659  2.6949
 9534SOL     OW40060   2.084   1.560  15.350  0.4147 -0.0875  0.3448
 9534SOL    HW140061   1.998   1.602  15.345 -0.9882 -2.8730  1.1520
 9534SOL    HW240062   2.069   1.491  15.415 -3.8014  1.3355  0.8539
 9535SOL     OW40063   3.127   1.548  15.362  0.0411 -0.3299  0.1929
 9535SOL    HW140064   3.188   1.621  15.367 -3.0738  2.3315 -0.0245
 9535SOL    HW240065   3.074   1.572  15.286  1.7778  1.0199 -0.5842
 9536SOL     OW40066   0.448   0.977   2.067  0.1274 -0.4734  0.5291
 9536SOL    HW140067   0.493   1.055   2.100  0.0078 -0.9421  1.7710
 9536SOL    HW240068   0.488   0.963   1.980 -0.0772  1.6652  0.0881
 9537SOL     OW40069   1.348   1.837  16.570  0.5116 -0.1226 -0.1240
 9537SOL    HW140070   1.368   1.864  16.659 -1.3709 -0.3969  0.3734
 9537SOL    HW240071   1.430   1.858  16.524  0.4838 -1.2481 -0.6903
 9538SOL     OW40072   1.757   3.447   5.082 -0.8157 -0.4051 -0.3965
 9538SOL    HW140073   1.733   3.402   5.000 -0.2197  1.8734 -1.8266
 9538SOL    HW240074   1.818   3.514   5.051 -1.3409  0.1636 -0.2091
 9539SOL     OW40075   2.670   2.412   9.699  0.3211  0.4816 -0.4453
 9539SOL    HW140076   2.688   2.499   9.664  2.2090 -0.3540 -1.5492
 9539SOL    HW240077   2.589   2.393   9.650 -1.5392  0.7238  2.5553
 9540SOL     OW40078   1.299   4.698   8.105  0.0569  0.2044 -0.0948
 9540SOL    HW140079   1.332   4.696   8.195 -3.0453 -0.7367  1.0120
 9540SOL    HW240080   1.343   0.048   8.062 -1.2246 -0.2164 -2.1152
 9541SOL     OW40081   3.999   0.746   6.337  0.1200  0.1727  0.4304
 9541SOL    HW140082   3.940   0.821   6.345 -0.7190 -0.4306 -0.0604
 9541SOL    HW240083   4.040   0.750   6.423  0.5336 -1.7107  0.3170
 9542SOL     OW40084   2.800   4.486   2.426 -0.2939 -0.1222 -0.5331
 9542SOL    HW140085   2.737   4.551   2.395  0.3229  0.3122 -0.8934
 9542SOL    HW240086   2.798   4.474   2.521 -2.8044  0.4981 -0.5194
 9543SOL     OW40087   2.175   1.482   9.261 -0.0011 -0.0370  0.2009
 9543SOL    HW140088   2.234   1.436   9.320 -2.9166 -3.1640  0.7182
 9543SOL    HW240089   2.136   1.543   9.324 -2.8121 -1.2122 -0.3789
 9544SOL     OW40090   2.868   1.667  12.119 -0.5541 -0.4637 -0.0671
 9544SOL    HW140091   2.900   1.730  12.054  0.6462 -1.8836 -0.8510
 9544SOL    HW240092   2.786   1.645  12.075 -0.9702 -0.8758  0.9234
 9545SOL     OW40093   4.237   1.790   1.708  0.1518  0.1438  0.3282
 9545SOL    HW140094   4.158   1.811   1.657  1.0569  0.7752 -0.8200
 9545SOL    HW240095   4.206   1.803   1.797  1.3532 -0.4046  0.8313
 9546SOL     OW40096   3.750   3.585   0.376  0.2786  0.2876  0.5441
 9546SOL    HW140097   3.728   3.656   0.316  1.0936  1.3355  1.5099
 9546SOL    HW240098   3.692   3.526   0.326  0.8167 -0.2707  0.5803
 9547SOL     OW40099   3.415   0.465   3.694  0.4507 -0.1017 -0.0576
 9547SOL    HW140100   3.408   0.552   3.655 -1.4021 -0.9953 -1.7708
 9547SOL    HW240101   3.368   0.411   3.630  0.4735 -0.1052 -0.0714
 9548SOL     OW40102   3.259   0.285   2.419  0.1567 -1.0024 -0.7576
 9548SOL    HW140103   3.322   0.216   2.398 -1.6926 -2.1908 -2.5305
 9548SOL    HW240104   3.181   0.233   2.398 -2.3069  1.8276  1.5039
 9549SOL     OW40105   3.741   0.326  12.792  0.3221 -0.5302 -0.5262
 9549SOL    HW140106   3.739   0.393  12.723 -0.4189 -0.8465 -0.8128
 9549SOL    HW240107   3.647   0.315  12.803  0.4888  0.9963  2.4238
 9550SOL     OW40108   4.271   2.841   8.989 -0.4608 -0.2587  0.1709
 9550SOL    HW140109   4.220   2.921   9.002 -1.8407 -0.9801 -0.7058
 9550SOL    HW240110   4.238   2.778   9.053  1.3117 -1.9267 -0.5192
 9551SOL     OW40111   2.178   0.114  11.728 -0.1594 -0.2561 -0.5764
 9551SOL    HW140112   2.154   0.199  11.691  2.1319  0.3606 -0.6737
 9551SOL    HW240113   2.221   0.154  11.804 -1.5258  0.3053 -0.0964
 9552SOL     OW40114   3.556   3.563   2.210  0.2801  0.5085  0.1977
 9552SOL    HW140115   3.472   3.574   2.254 -0.3509 -0.0530 -0.8647
 9552SOL    HW240116   3.625   3.610   2.256 -0.1630  1.9888 -0.6441
 9553SOL     OW40117   2.025   0.385   1.960 -0.0647 -0.1565 -0.6751
 9553SOL    HW140118   1.997   0.449   1.895 -0.2861 -0.3254 -0.7511
 9553SOL    HW240119   2.038   0.306   1.907 -1.9442 -0.0137 -1.3744
 9554SOL     OW40120   0.409   2.498  14.622 -0.2914 -0.1049 -0.0955
 9554SOL    HW140121   0.481   2.434  14.620 -0.2458 -0.1008  1.4029
 9554SOL    HW240122   0.425   2.540  14.706  0.6518 -0.1239 -0.2695
 9555SOL     OW40123   0.066   0.067  11.519 -0.7844 -0.0905 -0.1742
 9555SOL    HW140124   0.050   0.090  11.427  0.9436  1.7575 -0.0156
 9555SOL    HW240125   0.011   4.712  11.525 -0.5736 -0.2323 -0.0624
 9556SOL     OW40126   1.290   2.866   4.759 -0.1643  0.2830  0.1680
 9556SOL    HW140127   1.319   2.956   4.773 -1.3769  0.1684  3.4372
 9556SOL    HW240128   1.329   2.854   4.672  0.0018  0.3447  0.2343
 9557SOL     OW40129   0.088   4.286   8.889  0.2555  0.1575 -0.2656
 9557SOL    HW140130   0.140   4.334   8.825 -0.3990 -0.1607 -1.0350
 9557SOL    HW240131   0.045   4.357   8.936  2.6907  0.5443  1.4144
 9558SOL     OW40132   0.141   2.688   2.626 -0.3958  0.6740  0.8961
 9558SOL    HW140133   0.215   2.703   2.568 -2.0869 -1.5582 -1.8430
 9558SOL    HW240134   0.073   2.740   2.584 -0.6174 -0.9590 -0.7837
 9559SOL     OW40135   2.299   1.631   1.993  0.0965 -0.6906 -0.2746
 9559SOL    HW140136   2.370   1.691   1.973  1.2225 -2.2248 -0.8790
 9559SOL    HW240137   2.224   1.690   1.992  0.2387 -0.4749  0.9154
 9560SOL     OW40138   3.089   1.641  15.100 -0.7557 -0.0480 -0.5801
 9560SOL    HW140139   3.175   1.633  15.058 -0.7278 -0.0844 -0.5169
 9560SOL    HW240140   3.073   1.735  15.096  0.8908  0.1708 -1.7699
 9561SOL     OW40141   0.857   3.691  13.120  0.1960 -0.1071 -0.3465
 9561SOL    HW140142   0.887   3.687  13.030 -1.3853 -0.6867 -0.8577
 9561SOL    HW240143   0.919   3.628  13.155  2.3840  2.6578  0.7463
 9562SOL     OW40144   4.676   2.622   0.649  0.2642 -0.3878  0.2388
 9562SOL    HW140145   4.655   2.715   0.658 -2.0159 -0.6529 -2.5085
 9562SOL    HW240146   4.667   2.610   0.555  2.4318 -0.4058  0.0270
 9563SOL     OW40147   0.119   3.588   4.331 -0.1730  0.5200  0.1380
 9563SOL    HW140148   0.039   3.587   4.384  0.6215 -0.2541  1.3384
 9563SOL    HW240149   0.165   3.662   4.371 -0.8706  0.4841  1.0007
 9564SOL     OW40150   2.261   3.542  13.142 -0.5659 -0.2655 -0.1235
 9564SOL    HW140151   2.270   3.457  13.186 -1.0824 -0.6791 -0.8089
 9564SOL    HW240152   2.186   3.520  13.086  0.4273 -1.2866 -1.0578
 9565SOL     OW40153   3.169   2.182   2.951  0.5497 -0.6847 -0.0013
 9565SOL    HW140154   3.230   2.179   2.877  1.4663 -1.2039  0.7742
 9565SOL    HW240155   3.151   2.092   2.976  0.6671 -0.6768  0.1113
   4.72251   4.72251  17.69209
