Membrane in water
40167
    1TCq1    O1    1   1.938   2.076  10.986  0.6124 -0.3091  0.5308
    1TCq1    C1    2   1.887   1.954  11.023  0.2803  0.4507 -0.4350
    1TCq1    O2    3   1.962   1.861  11.068  0.0984  0.6541  0.2875
    1TCq1    C2    4   1.745   1.951  11.044  0.8638  0.5557  0.5704
    1TCq1    C3    5   1.675   2.062  11.087  0.0403 -0.1784 -0.0403
    1TCq1    C4    6   1.548   2.034  11.131 -0.5383  0.2567 -0.8256
    1TCq1    C5    7   1.490   1.913  11.116  0.4770  0.6573 -0.0908
    1TCq1    C6    8   1.555   1.813  11.057  0.0394 -0.1263 -0.3233
    1TCq1    C7    9   1.688   1.829  11.019 -0.1820  0.3259  0.5794
    1TCq1    C8   10   1.497   1.682  11.071 -0.1165 -0.5897 -1.0957
    1TCq1    O4   11   1.373   1.675  11.077 -0.2749 -0.1311  0.1190
    1TCq1    C9   12   1.480   2.131  11.212  0.3899  0.0211 -0.1856
    1TCq1    O5   13   1.355   2.118  11.222 -0.0412  0.2410 -0.0338
    1TCq1    O6   14   1.531   2.250  11.220 -0.3333 -0.2176  0.1195
    1TCq1    H1   15   1.868   2.120  10.932 -0.7123  1.2385  3.5385
    1TCq1    H2   16   1.708   2.162  11.111  0.6950 -0.6895  1.1876
    1TCq1    H3   17   1.391   1.889  11.154  0.0928  0.4740 -1.1982
    1TCq1    H4   18   1.746   1.745  10.985  0.8774  1.2557  0.0877
    2MPD2     C   19   1.498   1.176  11.126 -0.0296  0.8527 -0.2409
    2MPD2    C1   20   1.391   1.263  11.113  0.4922 -0.0602 -0.0257
    2MPD2    C2   21   1.417   1.391  11.081 -0.2285  0.0523  0.6083
    2MPD2    C3   22   1.552   1.438  11.077 -0.1708  0.0674  0.2816
    2MPD2    C4   23   1.656   1.350  11.081  0.0271 -0.4835 -0.4412
    2MPD2    C5   24   1.626   1.220  11.102  0.1866 -0.3781  0.5332
    2MPD2     H   25   1.327   1.452  11.078 -1.4522 -1.7513  0.0411
    2MPD2    H1   26   1.759   1.380  11.095 -0.8906  3.3757 -2.0779
    2MPD2    H2   27   1.487   1.080  11.175 -1.1311  1.4884  0.7569
    2MPD2    H3   28   1.704   1.144  11.103 -0.4721 -1.0480  1.6227
    2MPD2     N   29   1.584   1.574  11.087  0.4747  0.0517  0.7945
    2MPD2    H5   30   1.683   1.589  11.104  0.6364 -0.4894  0.3486
    2MPD2    N1   31   1.257   1.227  11.145 -0.0055 -0.0521  0.1204
    2MPD2    H7   32   1.186   1.294  11.119  1.4496  1.1019 -0.8384
    3TCq1    O1   33   0.144   1.829  11.465  0.5160 -0.3431  0.4476
    3TCq1    C1   34   0.075   1.916  11.539  0.1132 -0.5604 -0.4827
    3TCq1    O2   35   0.011   1.889  11.640 -0.3009 -0.3772 -0.1721
    3TCq1    C2   36   0.094   2.057  11.502 -0.0467  0.0297 -0.6708
    3TCq1    C3   37   0.137   2.085  11.374 -0.4881 -0.2428  0.3274
    3TCq1    C4   38   0.120   2.219  11.333 -0.0057 -0.3785  0.3172
    3TCq1    C5   39   0.067   2.316  11.421 -0.1628  0.6328 -0.2676
    3TCq1    C6   40   0.019   2.274  11.549  0.3203 -0.0190 -1.1706
    3TCq1    C7   41   0.048   2.148  11.588  0.1847 -0.0263  0.2311
    3TCq1    C8   42   0.003   2.378  11.655  0.1292  0.7664  0.1063
    3TCq1    O4   43   0.024   2.349  11.773 -0.1061 -0.0331  0.4748
    3TCq1    C9   44   0.163   2.265  11.208 -0.0934 -0.0641 -0.3056
    3TCq1    O5   45   0.169   2.185  11.115  0.1767  0.1701 -0.0270
    3TCq1    O6   46   0.179   2.393  11.196  0.0719 -0.3412  0.0140
    3TCq1    H1   47   0.212   1.870  11.408  0.0611  0.7606  0.7015
    3TCq1    H2   48   0.188   2.014  11.309 -0.1356 -0.2642  0.6294
    3TCq1    H3   49   0.072   2.419  11.389 -3.0996  0.8706  0.0474
    3TCq1    H4   50   0.027   2.131  11.693  2.2947 -1.2837  0.4439
    4MPD2     C   51   4.549   2.837  11.804  0.0576 -0.6741 -0.6394
    4MPD2    C1   52   4.529   2.826  11.669  0.1613  0.1739  0.1061
    4MPD2    C2   53   4.552   2.707  11.602  0.2530  0.6542  0.6482
    4MPD2    C3   54   4.610   2.597  11.670 -0.1561  0.1940 -0.6360
    4MPD2    C4   55   4.623   2.614  11.802  0.2815  0.7384  0.1571
    4MPD2    C5   56   4.601   2.733  11.873 -0.1404  0.2155 -0.1096
    4MPD2     H   57   4.542   2.706  11.494 -1.1533  2.8469  0.7470
    4MPD2    H1   58   4.672   2.531  11.852  1.6955  0.6769 -1.3566
    4MPD2    H2   59   4.528   2.930  11.856 -1.4755 -1.8219  0.7676
    4MPD2    H3   60   4.624   2.747  11.978 -2.5718  0.0052  0.4459
    4MPD2     N   61   4.659   2.486  11.599 -0.3471  0.0976 -0.1753
    4MPD2    H5   62   4.646   2.486  11.499 -0.0939 -0.1580 -0.2061
    4MPD2    N1   63   4.487   2.947  11.595  0.2838  0.4204 -0.1394
    4MPD2    H7   64   4.458   2.927  11.500 -1.8043  0.0713  0.5666
    5TCq1    O1   65   0.301   4.557  11.659 -0.2240 -0.0794  0.5946
    5TCq1    C1   66   0.288   4.479  11.556  0.0482  1.6586 -0.0602
    5TCq1    O2   67   0.329   4.509  11.447  0.2929 -0.3982  1.3921
    5TCq1    C2   68   0.268   4.339  11.595 -0.5663 -0.6441  0.4757
    5TCq1    C3   69   0.215   4.303  11.717  0.9390  0.0990  0.1810
    5TCq1    C4   70   0.220   4.168  11.750 -0.9878  0.1607 -0.0608
    5TCq1    C5   71   0.270   4.078  11.667 -0.1924 -0.1031 -0.3016
    5TCq1    C6   72   0.316   4.113  11.540  0.5019 -0.1674 -0.5977
    5TCq1    C7   73   0.314   4.248  11.501 -0.0739  0.4323  0.5549
    5TCq1    C8   74   0.411   4.027  11.481 -0.3428 -0.1068 -0.1638
    5TCq1    O4   75   0.448   3.930  11.547 -0.2955  0.0439 -0.0435
    5TCq1    C9   76   0.163   4.124  11.878  0.7262 -0.1932 -0.6973
    5TCq1    O5   77   0.143   4.004  11.905  0.2196 -0.0972 -0.1776
    5TCq1    O6   78   0.151   4.216  11.965  0.3351  0.1325 -0.1172
    5TCq1    H1   79   0.291   4.525  11.751  1.6479 -0.8168  0.5401
    5TCq1    H2   80   0.170   4.374  11.785  0.0286 -1.3826  1.1282
    5TCq1    H3   81   0.284   3.976  11.702 -0.0196 -0.5694 -1.7175
    5TCq1    H4   82   0.347   4.290  11.407 -0.9773  0.0603  0.0646
    6MPD2     C   83   0.639   4.091  11.211  0.0808  0.3195 -0.4044
    6MPD2    C1   84   0.561   4.008  11.288 -0.4530 -0.7350 -0.5201
    6MPD2    C2   85   0.593   3.879  11.301  0.0222 -0.7772  0.2590
    6MPD2    C3   86   0.712   3.831  11.247 -0.2692  0.9779 -0.4736
    6MPD2    C4   87   0.792   3.906  11.168 -0.2575  0.9105  0.8229
    6MPD2    C5   88   0.751   4.043  11.152 -0.4191  0.3453  0.5065
    6MPD2     H   89   0.540   3.819  11.373 -2.1726 -2.4071 -2.6968
    6MPD2    H1   90   0.879   3.863  11.120 -1.1350  0.5776 -0.4641
    6MPD2    H2   91   0.611   4.195  11.198 -1.1225 -0.4263 -3.9919
    6MPD2    H3   92   0.813   4.113  11.097 -3.4339 -0.0831 -3.3634
    6MPD2     N   93   0.740   3.694  11.283 -0.5525  0.1868  0.6765
    6MPD2    H5   94   0.668   3.638  11.327 -0.1296 -1.0605 -0.2132
    6MPD2    N1   95   0.461   4.075  11.360  0.2474 -0.0093 -0.8311
    6MPD2    H7   96   0.427   4.165  11.327 -1.1753 -0.0623  0.4997
    7TCq1    O1   97   3.520   3.636  13.002 -0.4918  0.2173  0.0440
    7TCq1    C1   98   3.406   3.702  13.033  0.0327  0.7009  0.0587
    7TCq1    O2   99   3.380   3.822  13.008  0.4208  0.4847 -0.0527
    7TCq1    C2  100   3.330   3.617  13.120 -0.1062 -0.4704  0.1158
    7TCq1    C3  101   3.251   3.678  13.221 -0.0628  0.1287  0.1182
    7TCq1    C4  102   3.159   3.596  13.289 -0.4952 -0.1421 -0.5302
    7TCq1    C5  103   3.161   3.461  13.265  0.0549 -0.2302 -0.1357
    7TCq1    C6  104   3.250   3.404  13.176 -0.1838  0.3143  0.1683
    7TCq1    C7  105   3.338   3.479  13.107  0.0534  0.6377  0.7666
    7TCq1    C8  106   3.274   3.260  13.181 -0.1232 -0.3199  0.0683
    7TCq1    O4  107   3.173   3.197  13.212 -0.1840  0.2192 -0.1177
    7TCq1    C9  108   3.051   3.664  13.365  0.3915 -0.3117 -0.6994
    7TCq1    O5  109   3.049   3.787  13.361 -0.4423  0.6426 -0.3545
    7TCq1    O6  110   2.971   3.586  13.424  0.1026  0.2174  0.1687
    7TCq1    H1  111   3.537   3.555  13.054  1.4386  1.6300  1.6108
    7TCq1    H2  112   3.225   3.783  13.220 -2.6422 -0.4714  1.7372
    7TCq1    H3  113   3.084   3.402  13.313 -0.5680  0.2670 -0.5304
    7TCq1    H4  114   3.385   3.432  13.022  0.8170  0.8588  1.0677
    8MPD2     C  115   3.538   2.818  13.144 -0.1468  0.1213 -0.5776
    8MPD2    C1  116   3.416   2.851  13.188 -0.2387 -0.7240  0.3111
    8MPD2    C2  117   3.361   2.974  13.191  0.5054 -0.6757  0.0713
    8MPD2    C3  118   3.435   3.074  13.129  0.4062  0.4025  0.3031
    8MPD2    C4  119   3.557   3.046  13.081 -0.7701  0.2907  0.0220
    8MPD2    C5  120   3.609   2.918  13.081  0.2497  0.5606 -0.3183
    8MPD2     H  121   3.261   3.000  13.226 -0.0409 -1.3729 -0.9520
    8MPD2    H1  122   3.608   3.125  13.027  0.5259 -0.0231  0.7966
    8MPD2    H2  123   3.581   2.719  13.141 -0.6301 -0.0483 -1.9643
    8MPD2    H3  124   3.704   2.891  13.037  0.4123  2.9952 -1.4671
    8MPD2     N  125   3.396   3.216  13.127 -0.4083  0.1100  0.3312
    8MPD2    H5  126   3.452   3.291  13.089 -0.1136  0.3623  1.2544
    8MPD2    N1  127   3.350   2.742  13.245  0.2866 -0.4739 -0.3670
    8MPD2    H7  128   3.396   2.652  13.254 -0.0849 -0.8174 -1.8105
    9TCq1    O1  129   1.333   1.796  10.538 -0.1423 -0.3618  0.0192
    9TCq1    C1  130   1.325   1.823  10.668 -0.4078 -0.1797  1.0149
    9TCq1    O2  131   1.274   1.763  10.762 -0.5093 -0.1447  0.5421
    9TCq1    C2  132   1.391   1.950  10.687  0.0476 -0.0542 -0.2276
    9TCq1    C3  133   1.486   1.988  10.597 -0.3739  0.1328  0.8145
    9TCq1    C4  134   1.539   2.113  10.625 -0.4111  0.4662 -0.2359
    9TCq1    C5  135   1.490   2.198  10.723  0.0528 -0.2293 -0.5247
    9TCq1    C6  136   1.396   2.154  10.809 -0.1476 -0.1710  0.3600
    9TCq1    C7  137   1.337   2.034  10.784  0.5054 -0.2961 -0.4054
    9TCq1    C8  138   1.324   2.266  10.877  0.1890  0.1838  0.1336
    9TCq1    O4  139   1.374   2.380  10.869 -0.0431 -0.0671 -0.4516
    9TCq1    C9  140   1.651   2.156  10.553 -0.2324 -0.0535  0.6642
    9TCq1    O5  141   1.704   2.076  10.471 -0.0902 -0.1651 -0.1871
    9TCq1    O6  142   1.710   2.262  10.580 -0.0173  0.4006 -0.2648
    9TCq1    H1  143   1.360   1.878  10.491  0.3424 -0.5292  0.0099
    9TCq1    H2  144   1.524   1.920  10.522  0.0440  0.5565  0.6411
    9TCq1    H3  145   1.536   2.296  10.738 -1.0124  0.3053 -0.7548
    9TCq1    H4  146   1.263   1.997  10.855 -1.4696 -0.5229 -2.5867
   10MPD2     C  147   1.162   2.468  11.040  0.2153 -0.1731  0.4751
   10MPD2    C1  148   1.137   2.327  11.032  0.0349  0.0533 -0.7110
   10MPD2    C2  149   1.035   2.272  11.111  0.8768  0.1547 -0.0494
   10MPD2    C3  150   0.970   2.355  11.206  0.1387  0.4953  0.0024
   10MPD2    C4  151   0.997   2.486  11.204 -0.7413 -0.4582 -0.3745
   10MPD2    C5  152   1.087   2.541  11.123 -0.5639 -0.5264 -0.1457
   10MPD2     H  153   1.011   2.166  11.112 -1.0297  0.6027  1.6346
   10MPD2    H1  154   0.956   2.551  11.281 -1.6176  2.3986 -3.2419
   10MPD2    H2  155   1.240   2.517  10.983 -0.7474  1.1953  0.3229
   10MPD2    H3  156   1.106   2.645  11.143 -0.5261 -0.3944 -0.8603
   10MPD2     N  157   0.893   2.299  11.309 -0.4143  0.3740 -0.1220
   10MPD2    H5  158   0.847   2.360  11.376 -0.6065  1.0039 -0.8289
   10MPD2    N1  159   1.215   2.236  10.953 -0.5043 -0.1969  0.3317
   10MPD2    H7  160   1.178   2.142  10.953  0.0170 -0.3885 -0.9324
   11TCq1    O1  161   2.066   2.287  14.501  0.0698 -0.0861 -0.0082
   11TCq1    C1  162   1.989   2.201  14.426 -0.1918  0.2717 -0.1214
   11TCq1    O2  163   1.949   2.220  14.309 -0.2028  0.1180 -0.1559
   11TCq1    C2  164   1.937   2.091  14.503  0.3002  1.1837  0.3465
   11TCq1    C3  165   2.015   2.035  14.601  0.4954 -0.1491  0.2453
   11TCq1    C4  166   1.961   1.955  14.699 -0.3959 -0.2141 -0.3410
   11TCq1    C5  167   1.821   1.936  14.705 -0.3053  0.5292 -0.8165
   11TCq1    C6  168   1.753   1.991  14.605 -0.2587 -0.9569  0.1298
   11TCq1    C7  169   1.801   2.074  14.508  0.0406 -0.3989  0.3659
   11TCq1    C8  170   1.614   1.971  14.604 -0.6545  0.0967 -0.3125
   11TCq1    O4  171   1.557   1.953  14.712 -0.0277  0.4789  0.1249
   11TCq1    C9  172   2.050   1.887  14.789  0.4643 -0.6952 -0.3077
   11TCq1    O5  173   1.993   1.838  14.889 -0.1925 -0.0706 -0.1310
   11TCq1    O6  174   2.171   1.889  14.765 -0.0399 -0.3102  0.0293
   11TCq1    H1  175   2.076   2.271  14.597  1.7421 -2.4431 -0.5884
   11TCq1    H2  176   2.121   2.058  14.607  0.3509  1.0560 -1.7795
   11TCq1    H3  177   1.775   1.870  14.777  0.8606  2.2856  1.5636
   11TCq1    H4  178   1.744   2.141  14.446  1.5307  0.7649  0.2593
   12MPD2     C  179   1.327   1.929  14.517 -0.2773 -0.0837  0.3165
   12MPD2    C1  180   1.439   1.914  14.433  0.3861  0.1510 -0.1320
   12MPD2    C2  181   1.427   1.847  14.308 -0.0904  0.5694 -0.4756
   12MPD2    C3  182   1.303   1.800  14.266  0.0751  0.6714  1.0738
   12MPD2    C4  183   1.194   1.832  14.346 -0.0213 -0.2090  0.4319
   12MPD2    C5  184   1.209   1.902  14.461  0.2774 -0.1160  0.3193
   12MPD2     H  185   1.513   1.847  14.243  0.2654  3.4959 -0.0004
   12MPD2    H1  186   1.094   1.795  14.323  0.4378 -0.9296 -0.4107
   12MPD2    H2  187   1.323   1.987  14.609  4.0446 -0.9930  1.0823
   12MPD2    H3  188   1.116   1.916  14.514  1.4079 -0.5528  2.4293
   12MPD2     N  189   1.283   1.738  14.137  0.1506 -0.4822  0.0540
   12MPD2    H5  190   1.366   1.722  14.082  0.3328 -2.1880  0.8322
   12MPD2    N1  191   1.568   1.958  14.467  0.5814 -0.4252  0.7059
   12MPD2    H7  192   1.636   1.971  14.393  0.1670  1.7890  0.7043
   13TCq1    O1  193   0.574   1.712   9.942  0.3570 -0.5457  1.0652
   13TCq1    C1  194   0.471   1.779   9.886  0.1293  0.2267 -0.5425
   13TCq1    O2  195   0.487   1.830   9.772  0.2926 -0.2432  0.3715
   13TCq1    C2  196   0.411   1.848   9.998 -0.2143  0.3828  0.0368
   13TCq1    C3  197   0.429   1.982   9.996  0.1535 -0.1973 -0.0271
   13TCq1    C4  198   0.424   2.042  10.124  0.1278  0.6280  0.5310
   13TCq1    C5  199   0.418   1.970  10.243  0.0668 -0.1827  0.8050
   13TCq1    C6  200   0.404   1.834  10.238  0.1543 -0.4643 -1.2842
   13TCq1    C7  201   0.395   1.773  10.113 -0.1719 -0.6957 -1.2617
   13TCq1    C8  202   0.391   1.768  10.368 -0.0857  0.6682  0.9409
   13TCq1    O4  203   0.361   1.840  10.463 -0.2421  0.3155 -0.0745
   13TCq1    C9  204   0.423   2.187  10.131  0.3359  0.3985 -0.0790
   13TCq1    O5  205   0.401   2.249  10.235  0.7021  0.3310  1.3810
   13TCq1    O6  206   0.446   2.245  10.021 -0.0904  0.2700 -0.7290
   13TCq1    H1  207   0.558   1.683  10.034 -2.7200  1.3086  1.1256
   13TCq1    H2  208   0.439   2.038   9.904 -1.4480  0.5061  0.2340
   13TCq1    H3  209   0.416   2.021  10.339 -4.5047 -0.1321  0.6671
   13TCq1    H4  210   0.375   1.667  10.100  0.7784 -0.9824 -0.4315
   14MPD2     C  211   0.440   1.415  10.454  0.3473  0.3282  0.2153
   14MPD2    C1  212   0.406   1.545  10.484 -0.5507 -0.0798 -0.2798
   14MPD2    C2  213   0.394   1.585  10.612 -0.1978 -0.2400 -0.6638
   14MPD2    C3  214   0.407   1.489  10.711 -0.1407 -0.5641 -0.9691
   14MPD2    C4  215   0.454   1.364  10.676  0.5307 -0.7292 -0.8636
   14MPD2    C5  216   0.461   1.319  10.551 -0.2299  0.1382 -0.4137
   14MPD2     H  217   0.374   1.687  10.645  0.8237  0.2648 -1.5997
   14MPD2    H1  218   0.467   1.293  10.758  1.1119  0.6270  0.2324
   14MPD2    H2  219   0.454   1.385  10.351 -1.6800  1.0527 -0.2713
   14MPD2    H3  220   0.498   1.220  10.527 -1.0408  0.3511 -2.4793
   14MPD2     N  221   0.387   1.530  10.846  0.2834  0.3748 -0.1553
   14MPD2    H5  222   0.353   1.623  10.869 -0.2435  0.1694 -0.1095
   14MPD2    N1  223   0.405   1.629  10.367  0.2981 -0.2715  0.3764
   14MPD2    H7  224   0.427   1.583  10.279 -1.1335  0.1053 -0.1678
   15TCq1    O1  225   3.466   1.434   1.623  0.3143 -0.0421  0.2593
   15TCq1    C1  226   3.448   1.362   1.731 -0.8149 -0.2721  0.0286
   15TCq1    O2  227   3.455   1.412   1.843 -0.3325  0.1567 -0.1015
   15TCq1    C2  228   3.345   1.264   1.698  0.2903  0.4800  0.7769
   15TCq1    C3  229   3.235   1.251   1.775  0.8893 -0.2862 -0.1953
   15TCq1    C4  230   3.130   1.173   1.743  0.6574  0.6100 -0.6671
   15TCq1    C5  231   3.128   1.111   1.627 -0.3137  0.4077 -0.5092
   15TCq1    C6  232   3.238   1.118   1.545 -0.4595 -0.1434  0.7328
   15TCq1    C7  233   3.349   1.198   1.578  1.0226 -0.2919  0.2766
   15TCq1    C8  234   3.251   1.037   1.421 -0.6751 -0.0495 -0.2974
   15TCq1    O4  235   3.353   1.043   1.357  0.7906 -0.4437 -0.2820
   15TCq1    C9  236   3.014   1.184   1.825 -0.3035 -0.5006 -0.0634
   15TCq1    O5  237   3.020   1.279   1.907 -0.3535  0.5427 -0.2160
   15TCq1    O6  238   2.910   1.130   1.783 -0.3445  0.4890 -0.3366
   15TCq1    H1  239   3.426   1.391   1.544  1.2075 -0.2663 -0.0673
   15TCq1    H2  240   3.231   1.311   1.865 -3.0595  0.4224 -0.8368
   15TCq1    H3  241   3.031   1.071   1.599 -0.1577 -0.2542 -0.0965
   15TCq1    H4  242   3.441   1.200   1.522 -0.1155  0.0200 -1.5744
   16MPD2     C  243   3.008   0.791   1.293 -0.0248  0.4328  0.1016
   16MPD2    C1  244   3.136   0.842   1.317  0.4346 -0.2668  0.6320
   16MPD2    C2  245   3.245   0.789   1.247 -0.2422 -0.3432 -0.2817
   16MPD2    C3  246   3.235   0.677   1.168 -0.0049  0.2139  0.8269
   16MPD2    C4  247   3.109   0.628   1.150  0.4266  0.3299 -0.6253
   16MPD2    C5  248   2.999   0.679   1.215  0.0012 -0.4937  0.3518
   16MPD2     H  249   3.343   0.831   1.261 -0.3543 -0.2446  0.1904
   16MPD2    H1  250   3.087   0.533   1.102  1.8594 -0.2445 -0.1465
   16MPD2    H2  251   2.910   0.821   1.328 -0.5148 -1.3583  0.2436
   16MPD2    H3  252   2.905   0.636   1.184  0.5649 -0.5762 -1.2028
   16MPD2     N  253   3.348   0.624   1.110 -0.3607 -0.5064  0.3107
   16MPD2    H5  254   3.433   0.680   1.114  0.0469 -0.8307 -3.3153
   16MPD2    N1  255   3.146   0.959   1.400 -0.4439  0.3388  0.0170
   16MPD2    H7  256   3.051   0.978   1.428 -0.8881 -2.3378  0.3375
   17TCq1    O1  257   0.199   1.954  11.027 -0.2773 -0.4261  0.2288
   17TCq1    C1  258   0.269   1.906  10.927  0.9032 -0.4777 -0.2910
   17TCq1    O2  259   0.284   1.791  10.895  0.0171 -0.0450  0.2260
   17TCq1    C2  260   0.365   2.004  10.872 -0.6595 -0.0736 -0.4620
   17TCq1    C3  261   0.340   2.142  10.873  0.1447 -0.4268 -0.4100
   17TCq1    C4  262   0.421   2.220  10.797 -0.1963 -0.4599  0.1085
   17TCq1    C5  263   0.525   2.170  10.718 -0.0534 -0.2807 -0.1867
   17TCq1    C6  264   0.538   2.037  10.712 -0.1864 -0.0322 -0.2544
   17TCq1    C7  265   0.459   1.953  10.789 -0.4046  0.1455  0.3163
   17TCq1    C8  266   0.628   1.988  10.611 -0.4795  0.3982  0.1889
   17TCq1    O4  267   0.662   2.068  10.526 -0.1275 -0.3418  0.4575
   17TCq1    C9  268   0.386   2.360  10.783  0.6477 -0.4430  0.7621
   17TCq1    O5  269   0.262   2.380  10.778  1.1205  0.2497  0.4031
   17TCq1    O6  270   0.482   2.442  10.767  0.2953  0.6236  0.5370
   17TCq1    H1  271   0.201   2.050  11.049 -1.2250 -0.0325 -1.3747
   17TCq1    H2  272   0.257   2.189  10.924 -0.7771 -1.1538 -1.2287
   17TCq1    H3  273   0.573   2.237  10.648  0.9430 -2.7006 -1.7849
   17TCq1    H4  274   0.462   1.844  10.784 -2.5153  0.0357  1.8349
   18MPD2     C  275   0.726   1.824  10.375  0.0290 -0.0075  0.5366
   18MPD2    C1  276   0.703   1.771  10.499 -0.0291 -0.3617 -0.2335
   18MPD2    C2  277   0.717   1.636  10.527  0.1370  0.3822  0.4445
   18MPD2    C3  278   0.777   1.559  10.433  0.3175 -0.1908  0.1271
   18MPD2    C4  279   0.801   1.609  10.306 -0.2443 -0.7666 -0.2286
   18MPD2    C5  280   0.775   1.738  10.276 -0.3523 -0.2814  0.1286
   18MPD2     H  281   0.678   1.604  10.623  0.2500  0.1157  0.4013
   18MPD2    H1  282   0.850   1.539  10.240  3.0294  1.6310 -0.3324
   18MPD2    H2  283   0.709   1.926  10.342 -1.3521 -0.7840 -1.0852
   18MPD2    H3  284   0.794   1.763  10.172  1.1175  1.3765  0.7815
   18MPD2     N  285   0.798   1.416  10.458  0.0952  0.0239  0.5123
   18MPD2    H5  286   0.840   1.368  10.379 -1.7308  1.8117 -1.5526
   18MPD2    N1  287   0.634   1.846  10.602 -0.2403 -0.1058  0.1684
   18MPD2    H7  288   0.606   1.794  10.684  1.2002 -0.5200  0.4012
   19TMC2    C1  289   2.574   1.660  13.561 -0.0734 -0.5294  0.9300
   19TMC2    C2  290   2.528   1.724  13.448  0.3427  0.1286  0.2124
   19TMC2    C3  291   2.512   1.646  13.338  0.3907 -0.3016  0.1335
   19TMC2    C4  292   2.602   1.531  13.566 -0.3040 -0.6770 -0.3522
   19TMC2    C5  293   2.582   1.457  13.454  0.2544  0.1766  0.3414
   19TMC2    C6  294   2.540   1.514  13.338 -0.3212 -0.2339  0.5405
   19TMC2     C  295   2.630   1.747  13.663 -0.5298  0.5173  0.5975
   19TMC2     O  296   2.670   1.855  13.616  0.3376 -0.3513 -0.2292
   19TMC2     H  297   2.542   1.831  13.441 -2.8061  0.4756 -0.6303
   19TMC2    H1  298   2.634   1.496  13.663 -2.7078 -1.2419  0.2231
   19TMC2    H2  299   2.534   1.451  13.249  2.0951 -1.1023  0.9978
   19TMC2    C7  300   2.579   1.309  13.456  0.1723 -1.2390 -0.5932
   19TMC2    C8  301   2.485   1.698  13.212  0.3445 -0.4513  0.2086
   19TMC2    O1  302   2.645   1.253  13.371  0.1053 -0.2486 -0.2622
   19TMC2    O2  303   2.523   1.665  13.101  1.1048 -0.0847 -0.5041
   19TMC2    O5  304   2.398   1.796  13.239 -0.1827  0.4927 -0.3819
   19TMC2    H5  305   2.362   1.796  13.330  0.7881 -0.5320  0.0081
   20MPD2     C  306   2.759   1.871  13.885  0.0710  0.0478 -0.1242
   20MPD2    C1  307   2.663   1.783  13.905  0.4625 -0.1475  0.4480
   20MPD2    C2  308   2.629   1.743  14.035  0.4457 -0.6690  0.4212
   20MPD2    C3  309   2.682   1.805  14.144  0.1629 -0.2128  0.0529
   20MPD2    C4  310   2.770   1.912  14.128 -0.2134  0.0373  0.2231
   20MPD2    C5  311   2.809   1.941  13.997 -0.9330  0.4831  0.3619
   20MPD2     H  312   2.549   1.674  14.060  0.3798 -0.6118  0.3704
   20MPD2    H1  313   2.815   1.963  14.213 -1.3422  3.6269 -1.3348
   20MPD2    H2  314   2.800   1.895  13.787  0.9617  1.9643  0.7060
   20MPD2    H3  315   2.889   2.012  13.980 -0.5451  0.1375  0.7419
   20MPD2     N  316   2.658   1.775  14.282  0.0360  0.7462 -0.5769
   20MPD2    H5  317   2.714   1.827  14.349 -1.7276 -2.0771  3.1070
   20MPD2    N1  318   2.611   1.706  13.794  0.1958 -0.3658  0.0699
   20MPD2    H7  319   2.548   1.628  13.809 -0.0054 -0.1456  0.3764
   21MPD2     C  320   0.130   2.366  14.703 -0.3693 -0.1195  0.7322
   21MPD2    C1  321   0.254   2.310  14.747  0.3138  0.0611 -0.1227
   21MPD2    C2  322   0.353   2.284  14.653 -0.3216 -0.4546 -0.0216
   21MPD2    C3  323   0.325   2.280  14.514  0.2826 -0.4288  1.3519
   21MPD2    C4  324   0.204   2.336  14.477  0.4193  0.2896  0.2711
   21MPD2    C5  325   0.116   2.378  14.571 -0.5317 -0.6966 -0.3116
   21MPD2     H  326   0.448   2.241  14.681  0.7226  1.7706 -0.1335
   21MPD2    H1  327   0.176   2.346  14.373  0.2652 -2.6537  0.0126
   21MPD2    H2  328   0.054   2.400  14.771  0.3841  2.9095  0.0818
   21MPD2    H3  329   0.021   2.420  14.538 -1.6465 -0.6839  2.8709
   21MPD2     N  330   0.400   2.211  14.418  0.5334 -0.8000 -0.2426
   21MPD2    H5  331   0.389   2.242  14.322 -0.8184  0.6330  0.3820
   21MPD2    N1  332   0.275   2.281  14.885  0.0229  0.0311  0.4650
   21MPD2    H7  333   0.368   2.255  14.915 -1.1721 -2.7125  1.7218
   22TCq2    C1  334   0.488   2.112  14.442 -0.5594 -0.3280 -0.1756
   22TCq2    O2  335   0.581   2.074  14.373 -0.5944  0.7293 -0.0950
   22TCq2    C2  336   0.462   2.023  14.548  0.1475 -0.1680  0.6427
   22TCq2    C3  337   0.559   1.930  14.571 -0.0243 -0.0255  0.1428
   22TCq2    C4  338   0.529   1.824  14.650 -0.2500  0.3228 -1.1266
   22TCq2    C5  339   0.404   1.804  14.699  0.3465  0.3299  0.3700
   22TCq2    C6  340   0.313   1.896  14.670 -0.1628 -0.5811 -0.3929
   22TCq2    C7  341   0.332   1.998  14.586  0.3793 -0.1223  0.2483
   22TCq2    C8  342   0.189   1.902  14.751 -0.1897  0.3300  0.0134
   22TCq2    O4  343   0.186   1.831  14.850  0.3223  0.3439  0.6444
   22TCq2    C9  344   0.629   1.726  14.682  0.5347  0.9555  0.3587
   22TCq2    O5  345   0.747   1.761  14.652 -0.7160 -0.1913 -0.4335
   22TCq2    O6  346   0.596   1.618  14.739 -0.5002 -0.3518 -0.0167
   22TCq2    H2  347   0.658   1.944  14.529 -0.1090 -0.8774 -0.3348
   22TCq2    H3  348   0.387   1.722  14.768 -1.4895 -0.5424 -1.1258
   22TCq2    H4  349   0.251   2.063  14.557 -0.2581 -0.2921  1.6491
   23MPD2     C  350   2.092   2.648  14.628 -0.2621  0.0966  0.5152
   23MPD2    C1  351   2.083   2.748  14.720  0.3638  0.1380 -0.2362
   23MPD2    C2  352   2.016   2.866  14.688  0.4745 -0.1489 -0.3123
   23MPD2    C3  353   1.977   2.893  14.562  0.0975 -0.4084  0.2439
   23MPD2    C4  354   1.984   2.788  14.470 -0.7469  0.7913 -0.1712
   23MPD2    C5  355   2.038   2.668  14.504  0.0202 -0.1494 -0.5256
   23MPD2     H  356   2.027   2.940  14.766  0.0984 -0.6531  0.2148
   23MPD2    H1  357   1.945   2.807  14.371  0.3268  1.8583 -0.3903
   23MPD2    H2  358   2.156   2.565  14.656 -0.7291  0.8385  3.8112
   23MPD2    H3  359   2.045   2.600  14.420 -0.4314 -0.4299 -0.3337
   23MPD2     N  360   1.919   3.022  14.534  0.5360  0.0685 -0.0431
   23MPD2    H5  361   1.892   3.049  14.440 -1.9064  1.9155  1.1970
   23MPD2    N1  362   2.123   2.731  14.854  0.0428 -0.4969 -0.2943
   23MPD2    H7  363   2.113   2.808  14.920  1.5666 -0.0482 -0.5894
   24TCq2    C1  364   1.898   3.123  14.627 -0.5930 -0.1264  0.3584
   24TCq2    O2  365   1.927   3.123  14.743  0.1399  0.3981  0.0051
   24TCq2    C2  366   1.804   3.224  14.576 -0.1752 -0.3633  0.5795
   24TCq2    C3  367   1.776   3.233  14.441  0.1500 -0.1484 -0.7964
   24TCq2    C4  368   1.651   3.274  14.401 -0.5663 -0.0822  0.9192
   24TCq2    C5  369   1.550   3.301  14.491  0.4239  0.1330  0.5769
   24TCq2    C6  370   1.574   3.287  14.627 -0.8563 -0.2962 -0.5074
   24TCq2    C7  371   1.702   3.247  14.664  0.9716  0.6984  0.0829
   24TCq2    C8  372   1.472   3.250  14.727 -0.3735  0.1821  0.0435
   24TCq2    O4  373   1.515   3.176  14.814 -0.3037  0.2480  0.9752
   24TCq2    C9  374   1.630   3.275  14.259 -0.3392 -0.8124  0.5174
   24TCq2    O5  375   1.536   3.342  14.215 -1.1873  0.3696 -0.1838
   24TCq2    O6  376   1.675   3.172  14.196  0.0442 -0.0347 -0.4103
   24TCq2    H2  377   1.845   3.207  14.362  1.4903  1.9354 -0.3168
   24TCq2    H3  378   1.454   3.330  14.450  0.1783 -2.3071 -0.6114
   24TCq2    H4  379   1.730   3.254  14.768  1.3817 -1.2928  0.0936
   25TMC2    C1  380   0.509   0.607  11.171 -0.0801  0.1109 -0.2173
   25TMC2    C2  381   0.576   0.723  11.141  0.3489  0.5426 -0.2587
   25TMC2    C3  382   0.563   0.824  11.230  0.4387  0.4067  0.1347
   25TMC2    C4  383   0.431   0.591  11.283 -0.1285  0.4140  0.6562
   25TMC2    C5  384   0.416   0.702  11.363  0.1004  0.1424 -0.8446
   25TMC2    C6  385   0.485   0.819  11.341  0.0653 -0.4947 -0.8011
   25TMC2     C  386   0.535   0.489  11.089  0.0124  0.5138  0.3818
   25TMC2     O  387   0.632   0.500  11.014  0.0278 -0.6455  0.3085
   25TMC2     H  388   0.643   0.744  11.058 -1.9043  0.4594 -2.0857
   25TMC2    H1  389   0.358   0.511  11.294 -0.7841  0.8361 -0.5635
   25TMC2    H2  390   0.485   0.898  11.415  0.9152 -1.4237  0.2053
   25TMC2    C7  391   0.347   0.703  11.488 -0.0815  0.4704  0.3290
   25TMC2    C8  392   0.628   0.944  11.201  0.0970 -0.5012 -0.2519
   25TMC2    O1  393   0.355   0.804  11.553 -0.8805  0.4315 -0.3748
   25TMC2    O2  394   0.713   0.957  11.121  0.4772 -0.5874 -0.1916
   25TMC2    O5  395   0.535   1.043  11.215  0.1604 -0.6487  0.8221
   25TMC2    H5  396   0.454   1.012  11.261 -0.3354  1.2286  1.2302
   26MPD2     C  397   0.501   4.712  10.987 -0.5326  0.4783 -0.6351
   26MPD2    C1  398   0.384   0.039  11.033 -0.3301  0.1737  0.4264
   26MPD2    C2  399   0.367   0.167  11.075  0.0630 -0.1824 -0.0094
   26MPD2    C3  400   0.475   0.250  11.065  0.3655  0.5407  0.0193
   26MPD2    C4  401   0.594   0.201  11.013 -0.4191  0.1921  0.0794
   26MPD2    C5  402   0.605   0.075  10.969 -0.1487 -0.2607  0.6751
   26MPD2     H  403   0.275   0.203  11.119  1.2955 -1.4551  3.6181
   26MPD2    H1  404   0.679   0.266  10.997 -1.5282  1.6387  0.0027
   26MPD2    H2  405   0.512   4.613  10.944  0.1190  0.1017  0.4122
   26MPD2    H3  406   0.695   0.057  10.911 -0.9177  0.1290 -0.6319
   26MPD2     N  407   0.451   0.389  11.102  0.0530 -0.1825  0.3965
   26MPD2    H5  408   0.366   0.397  11.157 -1.7012 -3.2244 -1.8917
   26MPD2    N1  409   0.283   4.655  11.053 -0.6310 -0.0068  0.3342
   26MPD2    H7  410   0.321   4.561  11.051  0.4062  0.4489 -1.3469
   27TMC2    C1  411   3.983   2.382  12.049 -0.4389  0.1546 -0.3370
   27TMC2    C2  412   3.875   2.474  12.045 -0.4716 -0.2468 -0.1240
   27TMC2    C3  413   3.874   2.571  11.950 -0.1161  0.9231 -0.0700
   27TMC2    C4  414   4.101   2.402  11.988  1.1718 -0.4577 -0.1224
   27TMC2    C5  415   4.094   2.503  11.900  0.3739  0.1854 -0.2922
   27TMC2    C6  416   3.985   2.578  11.875  0.3750  0.1303  0.5884
   27TMC2     C  417   3.982   2.281  12.148  0.0295  0.4278 -0.0489
   27TMC2     O  418   4.070   2.192  12.151  0.5094  0.0623 -0.4364
   27TMC2     H  419   3.779   2.444  12.086 -0.2294 -2.6876 -1.3465
   27TMC2    H1  420   4.190   2.347  12.013  0.4487 -1.2409  0.7534
   27TMC2    H2  421   3.975   2.625  11.779  2.5787  0.0797  0.3364
   27TMC2    C7  422   4.211   2.586  11.892 -0.2241 -0.6951  0.3874
   27TMC2    C8  423   3.756   2.642  11.917 -0.2341  0.3481  0.0758
   27TMC2    O1  424   4.304   2.549  11.965 -0.3712 -0.0031  0.2939
   27TMC2    O2  425   3.744   2.700  11.810 -0.1537 -0.5579  0.1822
   27TMC2    O5  426   3.699   2.669  12.037 -0.3602 -0.3263 -0.1664
   27TMC2    H5  427   3.741   2.625  12.114 -2.0212 -1.1274  0.2647
   28MPD2     C  428   3.855   2.143  12.634  0.4595 -0.9730 -0.4114
   28MPD2    C1  429   3.787   2.263  12.598  0.2111 -0.7550  0.7334
   28MPD2    C2  430   3.804   2.314  12.471 -0.0155 -0.2136 -0.3174
   28MPD2    C3  431   3.880   2.253  12.378  0.4272 -0.4778  0.7373
   28MPD2    C4  432   3.950   2.138  12.408 -0.2486  0.4201 -0.6217
   28MPD2    C5  433   3.928   2.081  12.530  0.0889 -0.0721  0.5510
   28MPD2     H  434   3.751   2.404  12.442  1.5055  0.7249 -0.1498
   28MPD2    H1  435   4.021   2.093  12.340 -2.2849 -0.4053 -2.1893
   28MPD2    H2  436   3.849   2.098  12.732  1.4722  0.4846  0.3197
   28MPD2    H3  437   3.981   1.991  12.560 -1.7290 -1.6871 -1.1006
   28MPD2     N  438   3.888   2.316  12.249 -0.4696 -0.3821  0.1669
   28MPD2    H5  439   3.847   2.408  12.239  1.2818  0.4083  0.2449
   28MPD2    N1  440   3.708   2.331  12.700  0.5692  0.9025 -0.2926
   28MPD2    H7  441   3.705   2.279  12.787  2.3467  2.3911  0.6665
   29MPD2     C  442   3.564   0.149  13.962  1.1385 -0.0379 -0.2207
   29MPD2    C1  443   3.697   0.152  14.001  0.2989  0.1961 -0.7495
   29MPD2    C2  444   3.748   0.274  14.024 -0.5105  0.2751  0.2345
   29MPD2    C3  445   3.678   0.395  14.012  0.3284  0.1802  0.1467
   29MPD2    C4  446   3.548   0.386  13.966 -0.7133 -0.1013  0.7832
   29MPD2    C5  447   3.494   0.266  13.951 -0.3563  0.0844 -0.4817
   29MPD2     H  448   3.847   0.272  14.069 -1.4469  0.0846  2.2263
   29MPD2    H1  449   3.493   0.479  13.952  0.3036  0.4263  0.3121
   29MPD2    H2  450   3.511   0.060  13.930 -1.6348  1.1398  1.0835
   29MPD2    H3  451   3.393   0.264  13.911  0.1850  0.9802 -1.9095
   29MPD2     N  452   3.725   0.521  14.044  0.6250 -0.2852  0.1978
   29MPD2    H5  453   3.669   0.605  14.048  0.7953 -0.2358  1.5026
   29MPD2    N1  454   3.779   0.036  14.000  0.2088 -0.1366  0.1281
   29MPD2    H7  455   3.873   0.054  14.035  0.8453 -1.2897 -1.0086
   30TCq2    C1  456   3.855   0.552  14.055  0.9724  0.5891 -0.6896
   30TCq2    O2  457   3.953   0.488  14.019 -0.0956 -0.0796  0.1462
   30TCq2    C2  458   3.877   0.690  14.109 -0.2954  0.1163 -0.2671
   30TCq2    C3  459   3.799   0.754  14.203  0.5345  0.4635 -0.1142
   30TCq2    C4  460   3.845   0.861  14.274  0.1575 -0.2837  0.2439
   30TCq2    C5  461   3.972   0.902  14.241 -0.0166  0.3531 -1.2329
   30TCq2    C6  462   4.056   0.831  14.146 -0.2660 -0.1518 -0.5820
   30TCq2    C7  463   4.007   0.718  14.086  0.2841  0.1570 -0.1317
   30TCq2    C8  464   4.181   0.886  14.092  0.3108 -0.7407 -0.2796
   30TCq2    O4  465   4.218   0.854  13.979 -0.6050  0.1982  0.0528
   30TCq2    C9  466   3.768   0.941  14.365  0.0119  0.5572  0.1826
   30TCq2    O5  467   3.644   0.900  14.381  0.4846 -0.1071 -0.7710
   30TCq2    O6  468   3.822   1.045  14.407 -0.5304  0.3928 -0.4116
   30TCq2    H2  469   3.698   0.716  14.217  1.1955 -0.8907  0.9644
   30TCq2    H3  470   4.011   0.994  14.284 -1.8824  0.8502 -0.6436
   30TCq2    H4  471   4.067   0.663  14.015 -0.6215  0.2869 -0.9967
   31MPD2     C  472   1.774   3.675  14.434 -0.2827 -0.4011 -0.3821
   31MPD2    C1  473   1.694   3.782  14.444 -0.2094 -0.0332  0.9447
   31MPD2    C2  474   1.634   3.809  14.564 -0.6007 -0.5640 -0.0054
   31MPD2    C3  475   1.648   3.727  14.671 -0.1656  1.0099 -0.1858
   31MPD2    C4  476   1.707   3.606  14.647 -0.1604  0.4565 -0.5007
   31MPD2    C5  477   1.770   3.578  14.529 -0.6678 -0.4422  0.3966
   31MPD2     H  478   1.587   3.906  14.573 -0.4459 -0.5874  1.1208
   31MPD2    H1  479   1.717   3.538  14.731  1.3445  2.8804  1.2649
   31MPD2    H2  480   1.836   3.656  14.347 -0.5568  1.6888 -1.0230
   31MPD2    H3  481   1.821   3.485  14.506  0.7025 -0.1725  2.3624
   31MPD2     N  482   1.597   3.758  14.801  0.4875 -0.2934  0.2219
   31MPD2    H5  483   1.589   3.688  14.874 -1.0816  0.4757  0.7886
   31MPD2    N1  484   1.678   3.862  14.330 -0.2087 -0.2164  0.0628
   31MPD2    H7  485   1.733   3.839  14.248  1.8990  1.2714  1.0529
   32TCq2    C1  486   1.529   3.873  14.833  0.1254 -0.0180 -0.8473
   32TCq2    O2  487   1.491   3.962  14.758 -0.4072 -0.4376 -0.2210
   32TCq2    C2  488   1.469   3.881  14.962 -0.8652  0.7488  0.0423
   32TCq2    C3  489   1.358   3.957  14.973 -0.3849 -0.1918 -0.0236
   32TCq2    C4  490   1.273   3.941  15.077  0.5017  0.1191 -0.0725
   32TCq2    C5  491   1.312   3.869  15.186  0.0292 -0.2026  0.2734
   32TCq2    C6  492   1.428   3.798  15.175 -0.8013  0.2571  0.2413
   32TCq2    C7  493   1.499   3.793  15.061 -0.0575 -0.0061  0.2733
   32TCq2    C8  494   1.476   3.728  15.293 -0.6219  0.2146  0.3699
   32TCq2    O4  495   1.568   3.649  15.285 -0.2634  0.2141 -1.3718
   32TCq2    C9  496   1.149   4.012  15.088 -0.4306  0.2091  0.4074
   32TCq2    O5  497   1.126   4.096  14.994 -0.0199  0.0775 -0.2058
   32TCq2    O6  498   1.075   4.001  15.189 -0.3153  0.0514 -0.3021
   32TCq2    H2  499   1.327   4.023  14.892  0.3135 -1.9486 -1.7159
   32TCq2    H3  500   1.249   3.877  15.274  0.1559  0.6938  0.2835
   32TCq2    H4  501   1.588   3.730  15.067  0.6006  1.0076  1.0325
   33MPD2     C  502   1.023   0.987   9.938  0.2574  0.4353  0.6048
   33MPD2    C1  503   1.114   1.059  10.017 -0.4551  0.6968 -0.2613
   33MPD2    C2  504   1.231   1.107   9.963  0.4551  0.0742 -0.1667
   33MPD2    C3  505   1.255   1.095   9.830 -0.6748 -0.3004  0.6568
   33MPD2    C4  506   1.163   1.039   9.751  0.4489  0.0567  0.6273
   33MPD2    C5  507   1.052   0.977   9.803  0.1240  0.5631 -0.4308
   33MPD2     H  508   1.298   1.159  10.030  1.1302 -2.5961  1.1995
   33MPD2    H1  509   1.187   1.023   9.647  0.6113  2.6605  0.2619
   33MPD2    H2  510   0.930   0.955   9.981  0.5913 -0.3158  0.7658
   33MPD2    H3  511   0.979   0.931   9.737 -0.0903  1.0007 -0.4993
   33MPD2     N  512   1.363   1.152   9.762  0.2485  0.1224  0.7722
   33MPD2    H5  513   1.367   1.130   9.663 -0.9361 -0.4720  0.8483
   33MPD2    N1  514   1.091   1.081  10.158 -0.3136  0.6011 -0.3095
   33MPD2    H7  515   1.170   1.122  10.208  1.1201  2.6374 -4.2359
   34TCq2    C1  516   1.463   1.228   9.823  0.1054  0.0291  0.8276
   34TCq2    O2  517   1.470   1.275   9.933 -0.5952  0.0035  0.1723
   34TCq2    C2  518   1.577   1.243   9.732  0.4549 -0.0395 -0.2588
   34TCq2    C3  519   1.564   1.186   9.609 -0.7006 -0.7739 -0.6054
   34TCq2    C4  520   1.618   1.259   9.500 -0.2977  0.4510  0.0015
   34TCq2    C5  521   1.695   1.373   9.518 -0.0293 -0.3155  0.1741
   34TCq2    C6  522   1.720   1.412   9.651 -0.1524  0.4530 -0.1449
   34TCq2    C7  523   1.652   1.355   9.753 -0.2797 -1.4257 -0.1165
   34TCq2    C8  524   1.806   1.531   9.683  0.1544  0.1906 -0.0258
   34TCq2    O4  525   1.784   1.587   9.794  0.3174 -0.6414  0.0389
   34TCq2    C9  526   1.573   1.221   9.372 -0.2692  0.1029  1.0029
   34TCq2    O5  527   1.589   1.292   9.273  0.3848 -0.8237  0.0485
   34TCq2    O6  528   1.496   1.120   9.369 -0.2356  0.2215 -0.0497
   34TCq2    H2  529   1.506   1.097   9.584 -2.1950 -0.1051  0.4803
   34TCq2    H3  530   1.728   1.432   9.433 -0.0808 -1.6758 -0.7874
   34TCq2    H4  531   1.677   1.389   9.853  1.5270 -1.4334 -0.5631
   35MPD2     C  532   2.915   3.126  12.350 -0.0611 -0.6606  0.4413
   35MPD2    C1  533   2.810   3.034  12.336 -0.1253  0.2247 -0.2540
   35MPD2    C2  534   2.742   3.027  12.217  0.0734  0.1773  0.2492
   35MPD2    C3  535   2.794   3.090  12.112 -0.4564  0.3704  0.1187
   35MPD2    C4  536   2.903   3.172  12.120  0.2314 -0.2366  0.1813
   35MPD2    C5  537   2.963   3.195  12.239 -0.4779  1.0482 -0.0481
   35MPD2     H  538   2.658   2.960  12.206  0.7049 -0.4907 -0.4811
   35MPD2    H1  539   2.943   3.216  12.030  0.1953 -1.8156 -0.6057
   35MPD2    H2  540   2.966   3.147  12.443  0.2972 -1.0008  0.3230
   35MPD2    H3  541   3.045   3.262  12.261  1.0671 -0.0112 -2.5808
   35MPD2     N  542   2.748   3.040  11.988  0.2430 -0.2469  0.2058
   35MPD2    H5  543   2.665   2.982  11.985  1.5456 -2.1696  1.0054
   35MPD2    N1  544   2.790   2.946  12.446 -0.3705  0.1338 -0.5862
   35MPD2    H7  545   2.845   2.950  12.532  0.3268  1.0618 -1.0833
   36TCq2    C1  546   2.792   3.076  11.857 -0.2033 -0.2224 -0.0066
   36TCq2    O2  547   2.881   3.154  11.834  0.3455 -0.0201  0.2286
   36TCq2    C2  548   2.723   3.011  11.744 -0.0448  0.1737 -0.0786
   36TCq2    C3  549   2.724   3.078  11.622  0.5351 -0.5210 -0.1386
   36TCq2    C4  550   2.660   3.024  11.513  0.4249 -0.0226  0.4633
   36TCq2    C5  551   2.584   2.911  11.516  0.4012 -0.3656  0.3147
   36TCq2    C6  552   2.584   2.848  11.646  0.6523  0.1808 -0.3270
   36TCq2    C7  553   2.656   2.896  11.755 -0.3789  0.0646 -0.1886
   36TCq2    C8  554   2.514   2.720  11.658  0.2577  0.1683 -0.1356
   36TCq2    O4  555   2.419   2.700  11.586  0.3867  0.0071  0.0108
   36TCq2    C9  556   2.662   3.099  11.385 -0.2935  0.0550 -0.3759
   36TCq2    O5  557   2.597   3.044  11.289  0.1398 -0.0102 -0.1110
   36TCq2    O6  558   2.711   3.217  11.393  0.2582  0.6522 -0.5253
   36TCq2    H2  559   2.792   3.162  11.610 -1.3495  1.2429  1.4350
   36TCq2    H3  560   2.536   2.866  11.430 -1.7313  2.1534  0.1910
   36TCq2    H4  561   2.673   2.833  11.842  0.1583  0.1760 -0.2118
   37TMC2    C1  562   0.166   3.026  11.562 -0.3795  0.3601  0.1295
   37TMC2    C2  563   0.096   3.002  11.446 -0.3333  0.2633 -0.5546
   37TMC2    C3  564   0.161   2.936  11.342 -0.3567  0.3076 -0.4962
   37TMC2    C4  565   0.294   2.988  11.578  0.5053 -0.9859  0.4708
   37TMC2    C5  566   0.354   2.924  11.470  0.0172  0.5233 -0.2092
   37TMC2    C6  567   0.298   2.906  11.349 -0.0136  0.0674  0.4488
   37TMC2     C  568   0.097   3.094  11.662  0.1852  0.0985  0.2308
   37TMC2     O  569   0.010   3.173  11.634  0.3094  0.3390 -0.5042
   37TMC2     H  570   4.719   3.040  11.431 -0.5575 -0.2499 -0.3767
   37TMC2    H1  571   0.340   3.004  11.675 -0.7878  0.3892  0.8597
   37TMC2    H2  572   0.339   2.850  11.266  0.5924  1.8539 -0.4611
   37TMC2    C7  573   0.493   2.896  11.487  0.8038 -0.0122 -0.0298
   37TMC2    C8  574   0.073   2.905  11.235  0.1678 -0.1554 -0.5184
   37TMC2    O1  575   0.542   2.915  11.596  0.2595 -0.2841  0.1952
   37TMC2    O2  576   4.673   2.915  11.245 -0.5040 -0.0107 -0.4895
   37TMC2    O5  577   0.150   2.903  11.123 -0.0330  0.4049 -0.4534
   37TMC2    H5  578   0.243   2.926  11.143  0.6665 -0.9535 -2.2342
   38MPD2     C  579   0.026   3.125  12.172 -0.1934 -0.4696  0.2786
   38MPD2    C1  580   0.129   3.042  12.146 -0.4298 -0.6270  0.1036
   38MPD2    C2  581   0.170   3.022  12.013  0.7887  0.7661 -0.6500
   38MPD2    C3  582   0.102   3.072  11.908 -0.2444  0.3025  0.2082
   38MPD2    C4  583   4.720   3.147  11.937  0.2358  0.2967  0.6393
   38MPD2    C5  584   4.677   3.177  12.067  0.2647  0.4070 -0.0074
   38MPD2     H  585   0.265   2.974  11.992 -0.2512 -1.5162 -0.2245
   38MPD2    H1  586   4.651   3.190  11.866  0.1457  0.4856  0.8408
   38MPD2    H2  587   4.713   3.145  12.272  0.9603 -3.0495  1.2227
   38MPD2    H3  588   4.603   3.255  12.086 -1.3156 -1.0825 -0.0500
   38MPD2     N  589   0.148   3.046  11.781 -0.3598 -0.3371 -0.3798
   38MPD2    H5  590   0.222   2.977  11.778 -0.0415 -0.0407  0.7317
   38MPD2    N1  591   0.217   2.991  12.243 -0.6243 -0.0637 -0.0641
   38MPD2    H7  592   0.292   2.930  12.214  2.3254  3.0397  1.0620
   39MPD2     C  593   3.656   0.468   1.502 -0.3210  0.0433 -0.6571
   39MPD2    C1  594   3.747   0.372   1.457  0.6147  0.1394  0.2595
   39MPD2    C2  595   3.711   0.263   1.380 -0.7328 -0.5583  0.2564
   39MPD2    C3  596   3.574   0.241   1.346  0.0771  0.5041  0.6091
   39MPD2    C4  597   3.484   0.339   1.393  0.1387  0.4734 -0.7340
   39MPD2    C5  598   3.529   0.448   1.467  0.2280  0.0374 -0.3002
   39MPD2     H  599   3.787   0.191   1.350 -2.1298 -1.1563 -1.8690
   39MPD2    H1  600   3.377   0.324   1.397  0.2612 -0.6897 -2.2411
   39MPD2    H2  601   3.686   0.550   1.565 -1.2616 -0.7078  0.7622
   39MPD2    H3  602   3.452   0.521   1.491 -0.2072  0.0079 -1.6020
   39MPD2     N  603   3.524   0.127   1.282  0.6022  0.1807  0.0043
   39MPD2    H5  604   3.422   0.126   1.274  0.4077 -0.7962  2.4475
   39MPD2    N1  605   3.883   0.397   1.495  0.7169  0.3817  0.2908
   39MPD2    H7  606   3.901   0.472   1.560  1.0797  0.9483 -0.4565
   40TCq2    C1  607   3.991   0.317   1.470 -0.6639  0.6111 -0.0510
   40TCq2    O2  608   4.000   0.212   1.411  0.2421 -0.2624  0.7037
   40TCq2    C2  609   4.113   0.368   1.529 -0.3402 -0.2498  0.1874
   40TCq2    C3  610   4.113   0.451   1.634  0.7158  0.6643 -0.3666
   40TCq2    C4  611   4.231   0.461   1.712 -0.3715  0.1439  0.0390
   40TCq2    C5  612   4.343   0.396   1.672  0.4606 -0.3640  0.0712
   40TCq2    C6  613   4.338   0.324   1.558  0.1710 -0.3411  0.3716
   40TCq2    C7  614   4.221   0.298   1.492  0.4172 -0.9586  0.9584
   40TCq2    C8  615   4.463   0.282   1.506  0.4382  0.1712 -0.1779
   40TCq2    O4  616   4.468   0.187   1.434  0.2077  0.4572  0.0491
   40TCq2    C9  617   4.238   0.549   1.824 -0.7850  0.3149  0.1733
   40TCq2    O5  618   4.140   0.619   1.843  0.1771 -0.2203  0.1958
   40TCq2    O6  619   4.344   0.553   1.892 -0.3098 -0.1984 -0.1520
   40TCq2    H2  620   4.031   0.513   1.670 -0.0583 -1.3916  1.3598
   40TCq2    H3  621   4.435   0.421   1.723 -0.4960 -0.1274  1.6648
   40TCq2    H4  622   4.220   0.238   1.402 -1.8418  2.1500 -1.0933
   41TMC2    C1  623   1.969   3.089  13.861  0.1469  0.4542  0.5298
   41TMC2    C2  624   1.849   3.079  13.920 -0.3158  0.6572  0.2765
   41TMC2    C3  625   1.739   3.073  13.838  0.1229 -0.4376  0.1066
   41TMC2    C4  626   1.988   3.099  13.722 -0.3293  0.5690  0.3223
   41TMC2    C5  627   1.875   3.091  13.649 -0.9847  0.4330  0.4847
   41TMC2    C6  628   1.754   3.074  13.701  0.5957  0.0139 -0.7660
   41TMC2     C  629   2.091   3.100  13.939  0.0175  0.9100  1.1966
   41TMC2     O  630   2.187   3.024  13.917 -0.1431  0.6861 -0.2717
   41TMC2     H  631   1.835   3.070  14.027  2.3191 -1.7213  0.4167
   41TMC2    H1  632   2.084   3.130  13.682  0.3866  0.0846  1.6780
   41TMC2    H2  633   1.660   3.075  13.647  0.0644 -1.3350  0.1130
   41TMC2    C7  634   1.876   3.164  13.518 -0.4491  0.0699 -0.0330
   41TMC2    C8  635   1.621   3.005  13.882  0.0493 -0.0690 -0.2621
   41TMC2    O1  636   1.772   3.210  13.477  0.0171  0.6523  0.8276
   41TMC2    O2  637   1.562   2.930  13.810 -0.1558  0.0889 -0.3437
   41TMC2    O5  638   1.593   3.008  14.013 -0.4349 -0.0076 -0.1331
   41TMC2    H5  639   1.640   3.067  14.076 -0.6323 -1.8902  1.7739
   42MPD2     C  640   2.189   3.043  14.207  0.4255 -0.5369 -0.3225
   42MPD2    C1  641   2.127   3.163  14.176 -0.0850 -0.3738  0.6180
   42MPD2    C2  642   2.114   3.262  14.274 -0.5615 -0.5360  0.2942
   42MPD2    C3  643   2.153   3.239  14.407  1.1078 -0.1055 -0.3676
   42MPD2    C4  644   2.214   3.114  14.440 -0.2071  0.2064  0.2724
   42MPD2    C5  645   2.230   3.025  14.339 -0.0757 -0.5853 -0.4522
   42MPD2     H  646   2.061   3.356  14.261 -0.8373 -0.9889 -1.8178
   42MPD2    H1  647   2.270   3.093  14.530  0.4490 -1.5825 -0.5567
   42MPD2    H2  648   2.202   2.961  14.138  1.2254 -0.7094  0.0235
   42MPD2    H3  649   2.285   2.933  14.359 -0.3222 -0.4331  0.9225
   42MPD2     N  650   2.139   3.334  14.513 -0.4220  0.2409 -0.0141
   42MPD2    H5  651   2.161   3.298  14.606 -2.9191 -1.6123 -0.1579
   42MPD2    N1  652   2.070   3.178  14.047 -0.4923  0.5434  0.4793
   42MPD2    H7  653   2.009   3.259  14.043 -2.0956 -0.7809 -1.5354
   43MPD2     C  654   0.420   1.491   0.886 -0.1834  0.0088 -0.2968
   43MPD2    C1  655   0.379   1.428   0.770 -0.0113 -0.5139 -0.1918
   43MPD2    C2  656   0.262   1.464   0.710 -0.6573  0.3152 -0.1822
   43MPD2    C3  657   0.182   1.554   0.775  0.3138  0.2645  0.1788
   43MPD2    C4  658   0.226   1.626   0.881  0.5446 -0.4120 -0.3918
   43MPD2    C5  659   0.348   1.595   0.933  0.2502  0.3184  0.1456
   43MPD2     H  660   0.238   1.410   0.619  0.9670  0.6860 -0.8356
   43MPD2    H1  661   0.160   1.700   0.927  0.7425 -1.1460  1.0866
   43MPD2    H2  662   0.493   1.449   0.954  0.4190 -0.5391 -1.2889
   43MPD2    H3  663   0.374   1.635   1.030  3.0281  0.7506 -0.7683
   43MPD2     N  664   0.047   1.584   0.732 -0.0294  0.0838  0.4267
   43MPD2    H5  665   4.718   1.666   0.761 -1.1121 -0.3036 -0.4152
   43MPD2    N1  666   0.442   1.316   0.712 -0.2773 -0.7281 -0.1985
   43MPD2    H7  667   0.399   1.268   0.634 -0.1472  1.5485 -1.6543
   44TCq2    C1  668   4.365   1.846   0.727 -0.4651  0.1191  0.0161
   44TCq2    O2  669   4.425   1.928   0.661 -0.6742  0.4264 -0.1954
   44TCq2    C2  670   4.403   1.703   0.709  0.5645  0.0353 -0.7954
   44TCq2    C3  671   4.310   1.600   0.719  0.0048  0.1630  0.4429
   44TCq2    C4  672   4.348   1.480   0.668  1.2309  0.4573 -0.6543
   44TCq2    C5  673   4.476   1.454   0.627  0.1259 -0.3101  0.0837
   44TCq2    C6  674   4.556   1.557   0.629 -0.1215  0.1446 -0.4873
   44TCq2    C7  675   4.525   1.688   0.663  0.8715  0.0570 -0.1061
   44TCq2    C8  676   4.705   1.516   0.630  0.3886 -0.2552 -0.4275
   44TCq2    O4  677   0.015   1.417   0.567 -0.2889 -0.2036  0.1517
   44TCq2    C9  678   4.253   1.371   0.665 -0.1583 -0.1912 -0.3187
   44TCq2    O5  679   4.295   1.254   0.648  0.3125  0.0212 -0.5988
   44TCq2    O6  680   4.128   1.406   0.669  0.1764 -0.0386 -0.0578
   44TCq2    H2  681   4.208   1.617   0.750  0.5505  2.9148  0.6828
   44TCq2    H3  682   4.498   1.357   0.582 -3.2420 -1.3319  0.6337
   44TCq2    H4  683   4.594   1.770   0.651  1.2967 -0.5468 -1.6904
   45TMC2    C1  684   4.251   3.268   9.501  0.2645 -0.0052  0.1123
   45TMC2    C2  685   4.143   3.348   9.480 -0.4691 -0.2414 -0.8580
   45TMC2    C3  686   4.145   3.452   9.567 -0.0562  0.0904  0.8454
   45TMC2    C4  687   4.334   3.277   9.609 -0.1867 -0.5023  0.4839
   45TMC2    C5  688   4.304   3.366   9.707 -1.0222  0.0276  0.3833
   45TMC2    C6  689   4.209   3.456   9.692  0.1898 -0.3225  0.2547
   45TMC2     C  690   4.263   3.151   9.421 -0.2914  0.1274  0.0692
   45TMC2     O  691   4.372   3.095   9.409 -0.5190 -0.2673 -0.5037
   45TMC2     H  692   4.070   3.341   9.401 -2.3457  0.5390  0.8140
   45TMC2    H1  693   4.414   3.206   9.625 -0.0218 -0.6991 -1.1799
   45TMC2    H2  694   4.194   3.545   9.753  1.1624 -0.0800  0.1330
   45TMC2    C7  695   4.370   3.362   9.837  0.1242 -0.1271  0.1184
   45TMC2    C8  696   4.045   3.553   9.542  0.2493 -0.5689  0.0227
   45TMC2    O1  697   4.364   3.466   9.902  0.2374 -0.2205  0.2420
   45TMC2    O2  698   4.009   3.576   9.430  0.8539 -0.1380  0.5419
   45TMC2    O5  699   3.959   3.550   9.647  0.0153  0.1929  0.2789
   45TMC2    H5  700   3.978   3.477   9.709  1.6295  0.3017 -0.1006
   46MPD2     C  701   4.215   2.974   9.177 -0.0141 -0.6562  0.1605
   46MPD2    C1  702   4.120   3.008   9.273 -0.1751 -0.0467  0.1277
   46MPD2    C2  703   3.988   2.963   9.263  0.4063  0.4243 -0.3194
   46MPD2    C3  704   3.951   2.875   9.163  0.6606  0.3456 -0.2322
   46MPD2    C4  705   4.041   2.847   9.065 -0.5662 -0.0753  0.4199
   46MPD2    C5  706   4.174   2.891   9.078 -0.1932 -0.3141 -0.5231
   46MPD2     H  707   3.924   2.996   9.344 -0.7561 -1.2019 -0.5794
   46MPD2    H1  708   4.020   2.784   8.979  2.1057 -1.0017  0.4507
   46MPD2    H2  709   4.318   3.005   9.187 -0.2034 -0.6885  2.2852
   46MPD2    H3  710   4.250   2.850   9.012 -0.5342 -2.7214  0.5892
   46MPD2     N  711   3.818   2.827   9.166  0.4162 -0.5169 -0.1758
   46MPD2    H5  712   3.759   2.834   9.248  1.2584 -1.9236  0.5514
   46MPD2    N1  713   4.139   3.100   9.374 -0.4551 -0.4513  0.1539
   46MPD2    H7  714   4.058   3.140   9.422 -1.9340 -2.7209 -0.4410
   47TMC2    C1  715   2.401   3.934   9.642  0.7777  0.4573  0.3919
   47TMC2    C2  716   2.520   3.895   9.592 -0.1575  0.0492 -0.4533
   47TMC2    C3  717   2.518   3.845   9.464  0.0695 -0.2027 -0.7643
   47TMC2    C4  718   2.283   3.916   9.571 -0.4674 -0.5638  0.1573
   47TMC2    C5  719   2.287   3.865   9.445  0.0920 -0.3452  0.0563
   47TMC2    C6  720   2.406   3.833   9.386 -0.1270 -0.6961  0.2406
   47TMC2     C  721   2.386   3.930   9.784  0.8596 -0.1329  0.3563
   47TMC2     O  722   2.288   3.992   9.831  0.1567  0.0065  0.2876
   47TMC2     H  723   2.609   3.919   9.650  0.3056 -4.3702  0.6816
   47TMC2    H1  724   2.191   3.933   9.626 -0.5923  0.3331 -0.3307
   47TMC2    H2  725   2.412   3.796   9.285 -0.9618  0.2248 -0.1540
   47TMC2    C7  726   2.165   3.796   9.410  0.7284  0.2997 -0.7232
   47TMC2    C8  727   2.639   3.824   9.390 -0.3069 -0.6166 -0.1289
   47TMC2    O1  728   2.061   3.843   9.454 -0.2826  0.2531  0.2386
   47TMC2    O2  729   2.653   3.771   9.283 -0.1629  0.7605 -0.1596
   47TMC2    O5  730   2.717   3.937   9.424  0.3506  0.1617  0.0792
   47TMC2    H5  731   2.661   4.002   9.473  0.2055 -0.3003  0.5314
   48MPD2     C  732   2.446   3.893  10.074  0.7919  0.2988 -0.0602
   48MPD2    C1  733   2.477   3.809   9.967  0.3471 -0.1355  0.1429
   48MPD2    C2  734   2.528   3.687   9.997  0.0878  0.3069 -0.0598
   48MPD2    C3  735   2.556   3.647  10.127 -1.4597 -0.0155 -0.0418
   48MPD2    C4  736   2.511   3.727  10.230 -0.3836  0.4366 -0.3712
   48MPD2    C5  737   2.474   3.856  10.205 -0.6461  0.0123  0.3120
   48MPD2     H  738   2.562   3.628   9.913  1.3008  1.7758 -0.5962
   48MPD2    H1  739   2.530   3.702  10.333  1.6594  0.1619 -0.8109
   48MPD2    H2  740   2.427   3.997  10.054  1.1573  0.3641 -0.0717
   48MPD2    H3  741   2.453   3.922  10.288  0.5396 -0.2734  0.8438
   48MPD2     N  742   2.596   3.517  10.150 -0.3248  0.0337  0.0999
   48MPD2    H5  743   2.589   3.461  10.066  2.0051 -1.8767  1.1719
   48MPD2    N1  744   2.459   3.833   9.832 -0.4664  0.0565  0.8309
   48MPD2    H7  745   2.507   3.779   9.761  0.0491  0.6702  0.7136
   49MPD2     C  746   0.099   2.081  10.003 -0.1184 -0.0398  0.0236
   49MPD2    C1  747   0.079   1.969   9.929  0.4182 -0.5855  0.1460
   49MPD2    C2  748   0.062   1.848   9.995  0.4887  0.3599 -0.6416
   49MPD2    C3  749   0.063   1.837  10.134  0.8287  0.1384 -0.1962
   49MPD2    C4  750   0.072   1.958  10.199  0.1791  0.7870 -0.0129
   49MPD2    C5  751   0.094   2.078  10.140  1.0006 -0.2015 -0.1626
   49MPD2     H  752   0.055   1.757   9.937  0.1905  0.2566 -0.4431
   49MPD2    H1  753   0.064   1.965  10.307  0.4963 -0.1688  0.0742
   49MPD2    H2  754   0.127   2.180   9.969  2.2321  0.0128  2.0602
   49MPD2    H3  755   0.092   2.163  10.207  0.9626 -0.6091  0.3509
   49MPD2     N  756   0.059   1.723  10.212  0.0919 -0.5274  0.1406
   49MPD2    H5  757   0.076   1.736  10.311  0.1398  0.5441 -0.0023
   49MPD2    N1  758   0.099   1.967   9.789  0.5857  0.1665  0.1797
   49MPD2    H7  759   0.101   1.876   9.744  0.0661 -0.4074  1.3107
   50TCq2    C1  760   0.106   2.079   9.706  0.7302  0.0340 -0.2451
   50TCq2    O2  761   0.111   2.199   9.737 -0.6046  0.4028 -0.4064
   50TCq2    C2  762   0.111   2.046   9.563 -0.4384 -0.7877 -0.6463
   50TCq2    C3  763   0.175   2.135   9.482  0.3027 -0.8112  0.2285
   50TCq2    C4  764   0.207   2.080   9.358 -0.2468  0.0253 -0.5634
   50TCq2    C5  765   0.163   1.958   9.317 -0.0907 -0.3011 -0.6330
   50TCq2    C6  766   0.078   1.888   9.391  0.2571 -0.6413  0.2819
   50TCq2    C7  767   0.044   1.927   9.517  0.4610 -0.6992 -0.0399
   50TCq2    C8  768   0.011   1.775   9.336 -0.5820  0.0692 -0.5807
   50TCq2    O4  769   0.084   1.721   9.256 -0.2808 -0.1973 -0.2559
   50TCq2    C9  770   0.297   2.161   9.273 -0.3037  0.2827  0.3587
   50TCq2    O5  771   0.294   2.286   9.297  0.1854  0.3569 -0.2602
   50TCq2    O6  772   0.349   2.109   9.169 -0.0628  0.5388  0.5185
   50TCq2    H2  773   0.220   2.224   9.524 -0.8396  0.1495 -0.5939
   50TCq2    H3  774   0.188   1.920   9.218  0.7798 -0.9012 -0.1818
   50TCq2    H4  775   4.715   1.856   9.580  0.6412  0.2110  1.1535
   51MPD2     C  776   0.876   3.987   1.862  0.2143  0.3310 -0.0883
   51MPD2    C1  777   0.932   3.869   1.823  0.0714  0.2030  0.1641
   51MPD2    C2  778   0.929   3.764   1.916 -0.5691 -0.1362 -0.3201
   51MPD2    C3  779   0.897   3.788   2.047 -0.7222  0.3664 -0.2729
   51MPD2    C4  780   0.845   3.911   2.079 -0.1065 -0.3114 -0.7489
   51MPD2    C5  781   0.823   4.000   1.979 -0.1509  0.0164 -0.1040
   51MPD2     H  782   0.965   3.665   1.892 -2.8625 -1.4102  1.4036
   51MPD2    H1  783   0.795   3.936   2.171  1.5107 -0.6237  0.2133
   51MPD2    H2  784   0.852   4.064   1.790  0.4101  0.6478  0.1869
   51MPD2    H3  785   0.778   4.092   2.014 -2.6667 -0.1005 -2.9795
   51MPD2     N  786   0.925   3.695   2.152  0.1470 -0.3392 -0.1574
   51MPD2    H5  787   0.890   3.724   2.243  0.5167  2.8729 -1.0553
   51MPD2    N1  788   0.992   3.847   1.694  0.6629  0.4515  0.2521
   51MPD2    H7  789   1.064   3.776   1.693  0.8826  0.6994 -2.5686
   52TCq2    C1  790   0.990   3.574   2.141  0.5576 -0.7080 -0.8499
   52TCq2    O2  791   1.050   3.532   2.041 -0.6998 -0.4728  0.2914
   52TCq2    C2  792   1.030   3.535   2.275 -0.5898  0.2929  0.9747
   52TCq2    C3  793   0.970   3.584   2.385 -0.3646 -0.7222  0.2196
   52TCq2    C4  794   1.031   3.595   2.507 -0.4056  0.3114  0.2717
   52TCq2    C5  795   1.160   3.545   2.526  0.8243 -0.3608  0.0750
   52TCq2    C6  796   1.218   3.493   2.414  0.8105  0.0540 -0.6097
   52TCq2    C7  797   1.156   3.484   2.292 -0.5766 -0.5719 -0.5603
   52TCq2    C8  798   1.357   3.459   2.423 -0.4016 -0.1403 -0.6401
   52TCq2    O4  799   1.423   3.536   2.496 -0.2269 -0.2044 -0.2584
   52TCq2    C9  800   0.960   3.643   2.621  0.4887  0.3914 -0.6543
   52TCq2    O5  801   0.859   3.709   2.596 -0.5751 -0.1337 -0.1819
   52TCq2    O6  802   1.015   3.631   2.732  0.0456 -0.2014 -0.3390
   52TCq2    H2  803   0.863   3.594   2.369 -0.0350  0.0916 -1.4414
   52TCq2    H3  804   1.210   3.538   2.622 -0.6006 -1.9827  0.7066
   52TCq2    H4  805   1.211   3.460   2.201  0.3375 -0.5576 -0.0101
   53TMC2    C1  806   1.205   2.921  11.656  0.2978 -0.2952  0.1054
   53TMC2    C2  807   1.325   2.872  11.685  0.4976  0.1872 -0.5318
   53TMC2    C3  808   1.368   2.876  11.816  0.3840  1.0227 -0.6983
   53TMC2    C4  809   1.134   2.996  11.743 -0.1571  0.3461  0.8710
   53TMC2    C5  810   1.189   3.023  11.866  0.0780 -0.1235 -0.6277
   53TMC2    C6  811   1.298   2.953  11.909  0.5061 -0.3844  0.0016
   53TMC2     C  812   1.144   2.886  11.523  0.0635 -0.2748 -0.3277
   53TMC2     O  813   1.213   2.829  11.440  0.3567 -0.7705  0.0091
   53TMC2     H  814   1.384   2.815  11.613  0.4572  1.4805 -1.5838
   53TMC2    H1  815   1.052   3.053  11.702  0.5693  0.5012 -0.3669
   53TMC2    H2  816   1.340   2.969  12.008  1.6057  1.7564 -0.8128
   53TMC2    C7  817   1.084   3.068  11.960 -0.4232 -0.0745  0.2954
   53TMC2    C8  818   1.496   2.823  11.851  0.5699 -0.0206  0.0061
   53TMC2    O1  819   0.973   3.082  11.916  0.1985  0.7636 -0.8237
   53TMC2    O2  820   1.591   2.867  11.788  0.5765 -0.0213  0.0130
   53TMC2    O5  821   1.479   2.781  11.975 -0.1424 -0.9511  0.1644
   53TMC2    H5  822   1.384   2.761  11.987 -0.2139 -1.2471 -0.8651
   54MPD2     C  823   0.958   2.853  11.295  1.2459 -0.5601 -0.8675
   54MPD2    C1  824   0.914   2.866  11.427 -0.5251  0.6585  0.5531
   54MPD2    C2  825   0.778   2.855  11.455  0.2488 -0.1210  0.0492
   54MPD2    C3  826   0.684   2.840  11.349 -0.4620  0.0173 -0.0895
   54MPD2    C4  827   0.734   2.824  11.230  0.4673  0.2735  0.3844
   54MPD2    C5  828   0.868   2.823  11.203  0.0260 -0.6266 -0.6900
   54MPD2     H  829   0.753   2.828  11.557  1.8501  0.7996  0.6712
   54MPD2    H1  830   0.674   2.803  11.143  2.4047 -0.6476 -0.7285
   54MPD2    H2  831   1.064   2.862  11.271  1.6016  1.9280  1.6076
   54MPD2    H3  832   0.896   2.817  11.099  2.6342  0.1636 -0.0230
   54MPD2     N  833   0.545   2.853  11.368  0.4930 -0.4277  0.2906
   54MPD2    H5  834   0.494   2.834  11.282 -0.6389 -1.2422  1.1386
   54MPD2    N1  835   1.002   2.889  11.535  0.4060  0.7398 -0.2198
   54MPD2    H7  836   0.960   2.897  11.627 -0.3388 -0.9169 -0.4186
   55MPD2     C  837   1.886   1.072  17.426 -0.1279  0.0087 -0.5785
   55MPD2    C1  838   1.890   0.992  17.533  0.6850 -0.1537  0.4489
   55MPD2    C2  839   1.837   1.041  17.652  0.1090 -0.6842 -0.0635
   55MPD2    C3  840   1.796   1.171  17.666 -0.5287 -0.2048  0.9057
   55MPD2    C4  841   1.798   1.253  17.554 -0.0848  0.2102  0.1393
   55MPD2    C5  842   1.836   1.200  17.436 -0.9201 -0.3694 -0.1252
   55MPD2     H  843   1.846   0.976   0.043 -0.9601  0.0144  0.5912
   55MPD2    H1  844   1.773   1.359  17.554  1.9413  0.6996 -0.0893
   55MPD2    H2  845   1.940   1.042  17.337  1.3268 -1.8971  0.9440
   55MPD2    H3  846   1.833   1.264  17.349 -1.3443 -0.9820 -0.5692
   55MPD2     N  847   1.738   1.210   0.090  0.1746  0.5053 -0.4642
   55MPD2    H5  848   1.732   1.146   0.169 -0.7906  0.5846 -0.4735
   55MPD2    N1  849   1.951   0.870  17.513  0.2033 -0.1755 -0.0342
   55MPD2    H7  850   2.001   0.855  17.427 -1.1071 -1.5384 -0.5703
   56TCq2    C1  851   1.957   0.761  17.602  0.3830 -0.1767 -0.4234
   56TCq2    O2  852   1.888   0.734   0.002  0.0419  0.1451 -0.3275
   56TCq2    C2  853   2.069   0.677  17.577 -0.2547  0.5917  0.4275
   56TCq2    C3  854   2.138   0.695  17.463  0.3099  0.2988 -0.6432
   56TCq2    C4  855   2.249   0.612  17.448  0.3120  0.3629 -0.1712
   56TCq2    C5  856   2.294   0.528  17.544 -0.4704 -0.7674 -0.2319
   56TCq2    C6  857   2.216   0.509  17.656 -0.0185 -0.2671 -0.1380
   56TCq2    C7  858   2.100   0.578  17.671  0.4675  0.2417  0.0725
   56TCq2    C8  859   2.278   0.462   0.074 -0.6911  0.2540  0.1105
   56TCq2    O4  860   2.398   0.461   0.070  0.4705 -0.2038  0.3901
   56TCq2    C9  861   2.317   0.620  17.321 -0.2240 -0.2866 -0.3887
   56TCq2    O5  862   2.382   0.518  17.294  0.4325 -0.3326  1.1409
   56TCq2    O6  863   2.301   0.716  17.248 -0.2732  0.8647  0.4622
   56TCq2    H2  864   2.115   0.763  17.382 -0.6951  2.1966  1.2483
   56TCq2    H3  865   2.393   0.487  17.529  0.2196  1.1507 -0.9091
   56TCq2    H4  866   2.038   0.567   0.064 -0.1042 -0.7677 -0.4552
   57TMC2    C1  867   1.264   1.759  13.313  0.4713  0.4566  0.3828
   57TMC2    C2  868   1.247   1.628  13.348  0.9353 -0.4216  0.7084
   57TMC2    C3  869   1.264   1.524  13.257  0.7881 -0.2180  0.4130
   57TMC2    C4  870   1.279   1.794  13.185  0.4324  0.2022 -0.0005
   57TMC2    C5  871   1.292   1.696  13.092 -0.2030 -0.1105  0.7302
   57TMC2    C6  872   1.277   1.561  13.128  0.0921 -0.1357  0.2741
   57TMC2     C  873   1.189   1.852  13.398  0.1797 -0.2880  0.1335
   57TMC2     O  874   1.167   1.835  13.516  0.8003 -0.0599  0.0168
   57TMC2     H  875   1.211   1.611  13.449  2.9467 -0.9139  1.3369
   57TMC2    H1  876   1.291   1.893  13.142  0.4628  0.5464  0.8142
   57TMC2    H2  877   1.266   1.495  13.043 -0.5863  0.1486  0.1338
   57TMC2    C7  878   1.277   1.732  12.954  0.8367 -0.2673  0.9827
   57TMC2    C8  879   1.157   1.419  13.257  0.3875 -0.7147 -0.6664
   57TMC2    O1  880   1.206   1.827  12.927  0.1874 -0.9090  0.1519
   57TMC2    O2  881   1.069   1.427  13.171  0.8187 -0.0863  0.2280
   57TMC2    O5  882   1.140   1.387  13.391 -0.3619  0.2577 -0.2651
   57TMC2    H5  883   1.226   1.380  13.437 -1.5279  2.7012  2.2914
   58MPD2     C  884   0.774   2.154  13.373  0.0855  1.4066 -0.3083
   58MPD2    C1  885   0.835   2.090  13.476 -0.3516  0.7055  0.2328
   58MPD2    C2  886   0.953   2.025  13.464  0.6815 -0.5678  0.7290
   58MPD2    C3  887   1.008   2.002  13.340  0.1177 -0.3423  0.1679
   58MPD2    C4  888   0.943   2.057  13.232 -0.8357 -0.0398 -0.1987
   58MPD2    C5  889   0.825   2.128  13.249  0.2050 -0.5881  0.5371
   58MPD2     H  890   0.999   1.987  13.554  0.6896 -1.0760  0.5091
   58MPD2    H1  891   0.971   2.029  13.131 -1.5629 -0.5640 -0.2515
   58MPD2    H2  892   0.679   2.207  13.370 -2.0376 -2.3626  0.2684
   58MPD2    H3  893   0.787   2.175  13.159  0.4939 -0.1106  0.6642
   58MPD2     N  894   1.116   1.929  13.311 -0.2327  0.0116  0.5177
   58MPD2    H5  895   1.136   1.923  13.211 -2.1860  1.6925  0.0437
   58MPD2    N1  896   0.790   2.105  13.606 -0.1181  0.1398  0.1078
   58MPD2    H7  897   0.819   2.039  13.677 -2.5214 -1.3500 -0.2998
   59MPD2     C  898   3.603   1.856  13.507 -0.1083 -0.1421 -0.0716
   59MPD2    C1  899   3.618   1.927  13.394 -0.3336 -0.7434  0.1474
   59MPD2    C2  900   3.688   2.050  13.402 -0.4864 -0.0218 -0.3126
   59MPD2    C3  901   3.745   2.096  13.519 -0.9333  0.0599 -0.3862
   59MPD2    C4  902   3.737   2.018  13.630  0.3030  0.0835  0.3594
   59MPD2    C5  903   3.663   1.899  13.621 -0.5525  0.6538  0.0736
   59MPD2     H  904   3.690   2.120  13.320  0.6742 -0.8327 -0.9742
   59MPD2    H1  905   3.757   2.064  13.726 -2.4352 -0.8674  1.3916
   59MPD2    H2  906   3.546   1.764  13.506  0.2564 -0.3717  2.0328
   59MPD2    H3  907   3.622   1.857  13.713 -2.0039  0.3291 -0.7142
   59MPD2     N  908   3.809   2.217  13.535  0.2268  0.2396  0.2536
   59MPD2    H5  909   3.827   2.242  13.632  0.1127  2.0710 -0.1841
   59MPD2    N1  910   3.550   1.885  13.279  0.1249 -0.6364  0.2116
   59MPD2    H7  911   3.494   1.801  13.281  2.8175 -2.4223  1.1327
   60TCq2    C1  912   3.562   1.945  13.156 -0.2521 -0.1975 -0.4738
   60TCq2    O2  913   3.628   2.038  13.125 -0.3627  0.1811  0.9973
   60TCq2    C2  914   3.475   1.886  13.053  0.0900 -0.2025  0.2047
   60TCq2    C3  915   3.348   1.856  13.096 -0.5620  1.2131  0.4964
   60TCq2    C4  916   3.254   1.861  12.998  0.4977 -0.4614  0.5063
   60TCq2    C5  917   3.266   1.919  12.882  0.0908 -0.2378 -0.1840
   60TCq2    C6  918   3.394   1.956  12.851  0.2173 -0.2679 -0.1998
   60TCq2    C7  919   3.503   1.932  12.926  0.4915  0.1991  1.0988
   60TCq2    C8  920   3.403   2.052  12.748 -0.5302  0.4627 -0.1972
   60TCq2    O4  921   3.504   2.044  12.681  0.1132  0.1766 -0.2377
   60TCq2    C9  922   3.114   1.822  13.025  0.7338 -0.5313  0.9624
   60TCq2    O5  923   3.087   1.783  13.140  0.4246  0.0184 -0.1574
   60TCq2    O6  924   3.023   1.850  12.944  0.3878 -0.2381 -0.7881
   60TCq2    H2  925   3.325   1.818  13.194  1.1927 -2.2274 -0.4519
   60TCq2    H3  926   3.191   1.923  12.805  1.0664  1.1034 -1.0669
   60TCq2    H4  927   3.600   1.966  12.892  0.9993 -2.5472 -0.1572
   61MPD2     C  928   2.373   3.779  14.249 -0.0783  0.1808  0.1956
   61MPD2    C1  929   2.468   3.847  14.319 -0.0938 -0.1201  0.2422
   61MPD2    C2  930   2.552   3.926  14.243 -0.0839  0.0926  0.2330
   61MPD2    C3  931   2.551   3.928  14.109  0.2945  0.1212  0.3919
   61MPD2    C4  932   2.463   3.844  14.043 -0.5851 -0.4066  0.0524
   61MPD2    C5  933   2.374   3.769  14.115 -0.2754 -0.3041  0.3741
   61MPD2     H  934   2.640   3.968  14.290 -2.9382  2.8890  3.0965
   61MPD2    H1  935   2.447   3.841  13.936 -0.3583  0.7778 -0.0081
   61MPD2    H2  936   2.293   3.726  14.299  0.6326  0.4100  1.5916
   61MPD2    H3  937   2.293   3.713  14.069 -0.1675 -1.0291  1.0603
   61MPD2     N  938   2.635   4.008  14.022  0.7201 -0.1301 -0.2642
   61MPD2    H5  939   2.635   3.973  13.927 -0.9952  1.9678 -1.0508
   61MPD2    N1  940   2.490   3.841  14.459  0.4892  0.0479  0.5115
   61MPD2    H7  941   2.562   3.901  14.497  2.6089 -1.6756 -0.7924
   62TCq2    C1  942   2.427   3.758  14.542 -0.9815 -0.0164  0.7475
   62TCq2    O2  943   2.342   3.674  14.517 -0.4502  0.7720 -0.1022
   62TCq2    C2  944   2.451   3.783  14.675  0.3667 -0.7393  0.1241
   62TCq2    C3  945   2.431   3.675  14.759 -0.1183  0.3714 -0.1021
   62TCq2    C4  946   2.452   3.693  14.890 -0.3192  0.1691  1.0898
   62TCq2    C5  947   2.499   3.810  14.938 -0.0875  0.1374  0.4220
   62TCq2    C6  948   2.512   3.918  14.852  0.0522 -0.1778  0.1844
   62TCq2    C7  949   2.495   3.907  14.714  0.3913 -0.7539 -0.4655
   62TCq2    C8  950   2.547   4.048  14.915  0.3218 -0.2853 -0.4813
   62TCq2    O4  951   2.522   4.158  14.864  0.7894  0.3844 -0.4839
   62TCq2    C9  952   2.422   3.589  14.981  1.0733 -0.6717 -0.1828
   62TCq2    O5  953   2.459   3.600  15.099 -0.3346  0.4003 -0.4278
   62TCq2    O6  954   2.385   3.479  14.931  1.1081 -0.1995 -0.1894
   62TCq2    H2  955   2.384   3.584  14.725 -0.2625 -0.4188  2.2355
   62TCq2    H3  956   2.529   3.813  15.042 -0.8201 -1.1655  0.6757
   62TCq2    H4  957   2.497   3.998  14.655 -0.7296 -0.1663  0.4107
   63TMC2    C1  958   1.765   3.028   9.231 -0.1856 -0.5342 -0.3742
   63TMC2    C2  959   1.806   3.032   9.107 -0.4442  0.4823  0.2854
   63TMC2    C3  960   1.733   3.112   9.028  0.0163  1.3054  0.0083
   63TMC2    C4  961   1.645   3.069   9.277  0.9376 -0.5411  0.3093
   63TMC2    C5  962   1.569   3.140   9.189 -0.0510 -0.3889 -0.6781
   63TMC2    C6  963   1.615   3.170   9.070  0.0546  0.7246  0.0160
   63TMC2     C  964   1.870   3.043   9.326 -0.0959 -0.1314  0.4674
   63TMC2     O  965   1.967   3.114   9.290 -0.1813  0.4966 -0.1096
   63TMC2     H  966   1.907   3.004   9.078 -0.8542  0.5401 -1.2230
   63TMC2    H1  967   1.617   3.043   9.379 -0.9812  2.8125  0.6163
   63TMC2    H2  968   1.565   3.248   9.014  2.5370  1.0866 -1.6910
   63TMC2    C7  969   1.502   3.246   9.244  0.0453  0.6287 -0.0023
   63TMC2    C8  970   1.801   3.155   8.908 -0.1799  0.3456  0.0208
   63TMC2    O1  971   1.393   3.282   9.197  0.2405  0.1971 -0.6490
   63TMC2    O2  972   1.921   3.156   8.881  0.2686  0.2062  0.1719
   63TMC2    O5  973   1.709   3.202   8.827  0.9777  0.5514 -0.0130
   63TMC2    H5  974   1.618   3.165   8.830  1.2036  0.0203  0.3062
   64MPD2     C  975   2.014   3.081   9.810  0.5157  0.3606  0.2180
   64MPD2    C1  976   1.947   2.960   9.801 -0.5987  0.1557 -0.1292
   64MPD2    C2  977   1.885   2.937   9.679 -0.3295 -0.5062 -0.0933
   64MPD2    C3  978   1.900   3.018   9.565  0.2018  0.3838 -0.0044
   64MPD2    C4  979   1.973   3.136   9.576 -0.2093 -1.6173  0.8595
   64MPD2    C5  980   2.017   3.167   9.702 -0.3399  0.3617  0.0518
   64MPD2     H  981   1.830   2.844   9.679 -0.0343 -0.6816  1.9306
   64MPD2    H1  982   1.981   3.206   9.494 -0.6213  1.8379  3.7746
   64MPD2    H2  983   2.068   3.100   9.902 -1.4522  0.3867  1.3709
   64MPD2    H3  984   2.056   3.266   9.722  0.1131  0.2148 -0.1097
   64MPD2     N  985   1.835   2.990   9.447  0.3127 -0.0051  1.0828
   64MPD2    H5  986   1.766   2.916   9.442  2.1147 -1.6706  0.9105
   64MPD2    N1  987   1.935   2.874   9.907  0.2802 -0.4616 -0.0194
   64MPD2    H7  988   1.867   2.799   9.911  0.4529 -0.7231 -1.7407
   65MPD2     C  989   3.262   3.389  15.551 -0.5196  0.6110 -0.5942
   65MPD2    C1  990   3.174   3.447  15.467  0.1615  0.4594 -0.0305
   65MPD2    C2  991   3.057   3.384  15.433  0.2949 -0.8645 -0.8324
   65MPD2    C3  992   3.021   3.265  15.504 -0.6701 -0.5042 -0.6211
   65MPD2    C4  993   3.113   3.205  15.588 -0.0665  0.0135 -0.1014
   65MPD2    C5  994   3.230   3.270  15.612  0.3626 -0.4403 -0.6083
   65MPD2     H  995   2.999   3.430  15.353 -1.9667 -0.3595  1.1061
   65MPD2    H1  996   3.086   3.112  15.637 -0.1156  0.3829  0.5742
   65MPD2    H2  997   3.360   3.430  15.568 -0.4429  0.0405  0.3550
   65MPD2    H3  998   3.295   3.233  15.690 -0.2415 -0.3834 -0.0830
   65MPD2     N  999   2.898   3.200  15.475  0.0129 -0.5274 -0.0162
   65MPD2    H5 1000   2.884   3.107  15.511 -0.4456 -1.2875 -2.1658
   65MPD2    N1 1001   3.218   3.557  15.390 -0.1951 -0.6012  0.1873
   65MPD2    H7 1002   3.159   3.595  15.317 -2.1795 -1.7353  1.1970
   66TCq2    C1 1003   3.318   3.641  15.425 -0.5638 -0.0750  0.2080
   66TCq2    O2 1004   3.371   3.659  15.533 -0.1997 -0.3609  0.6668
   66TCq2    C2 1005   3.354   3.737  15.320  0.7208  0.8718 -0.6142
   66TCq2    C3 1006   3.327   3.705  15.188  0.8965 -0.0960 -0.4586
   66TCq2    C4 1007   3.375   3.790  15.098 -0.0541  0.0083  0.2123
   66TCq2    C5 1008   3.431   3.908  15.131  0.0436  0.5008  0.3635
   66TCq2    C6 1009   3.457   3.941  15.262 -0.1451  0.3833  0.7560
   66TCq2    C7 1010   3.420   3.851  15.356 -0.2685  0.3142 -0.4655
   66TCq2    C8 1011   3.487   4.081  15.299  0.4580  0.0950  1.3162
   66TCq2    O4 1012   3.502   4.156  15.206  0.5451 -0.0434  0.2160
   66TCq2    C9 1013   3.374   3.751  14.958 -0.5548 -0.3599 -0.1967
   66TCq2    O5 1014   3.435   3.824  14.876  0.1257 -0.7213 -0.2778
   66TCq2    O6 1015   3.327   3.639  14.927 -0.5296  0.1021  0.4879
   66TCq2    H2 1016   3.303   3.607  15.148 -3.2296  1.3502 -1.4879
   66TCq2    H3 1017   3.458   3.979  15.054  1.1487  1.2245  1.4193
   66TCq2    H4 1018   3.436   3.866  15.462 -2.6205  0.3521 -0.1292
   67MPD2     C 1019   3.199   2.116  14.242  0.4764 -0.0387 -0.4328
   67MPD2    C1 1020   3.186   2.227  14.328  0.3221  0.0140 -0.3191
   67MPD2    C2 1021   3.163   2.351  14.272  0.2119 -0.0953  0.1052
   67MPD2    C3 1022   3.162   2.370  14.135  0.4738 -0.4997 -0.1968
   67MPD2    C4 1023   3.194   2.261  14.057  0.3064  0.3592  0.1237
   67MPD2    C5 1024   3.192   2.135  14.106  0.8399 -0.3944 -1.2900
   67MPD2     H 1025   3.136   2.429  14.343 -0.4226 -0.7072  0.5340
   67MPD2    H1 1026   3.202   2.270  13.950  2.6777  1.3675  0.4018
   67MPD2    H2 1027   3.209   2.016  14.284  2.3814  0.3017 -0.0663
   67MPD2    H3 1028   3.191   2.048  14.042 -0.3813 -0.6133 -0.9775
   67MPD2     N 1029   3.142   2.493  14.066  0.2574  0.2152 -0.1268
   67MPD2    H5 1030   3.148   2.494  13.965 -2.5035 -2.4309 -0.3241
   67MPD2    N1 1031   3.187   2.207  14.469  0.1688 -0.3168  0.7896
   67MPD2    H7 1032   3.175   2.287  14.531  1.8998  0.5404  0.0140
   68TCq2    C1 1033   3.228   2.092  14.532 -0.7735  0.0565 -0.5562
   68TCq2    O2 1034   3.270   1.982  14.499  0.2311  1.4855  0.1012
   68TCq2    C2 1035   3.228   2.123  14.677 -0.3715  0.1238 -0.5334
   68TCq2    C3 1036   3.120   2.206  14.715 -0.1999 -0.6692 -0.0681
   68TCq2    C4 1037   3.137   2.260  14.837  0.1167 -0.6684  0.6284
   68TCq2    C5 1038   3.232   2.227  14.924  0.3891 -0.0323  0.8546
   68TCq2    C6 1039   3.341   2.151  14.877 -0.1871  0.5291  0.3377
   68TCq2    C7 1040   3.338   2.102  14.752 -0.0146  0.1650  0.4773
   68TCq2    C8 1041   3.477   2.168  14.933  0.5204 -0.1756 -1.0145
   68TCq2    O4 1042   3.574   2.134  14.869  0.4043 -0.2402 -0.6223
   68TCq2    C9 1043   3.050   2.377  14.869  0.4856 -0.0696 -0.3870
   68TCq2    O5 1044   2.984   2.433  14.777 -0.1994 -0.1219  0.3224
   68TCq2    O6 1045   3.068   2.427  14.984 -0.2160  0.7056  0.2179
   68TCq2    H2 1046   3.031   2.231  14.658  0.2254  1.3670  0.1447
   68TCq2    H3 1047   3.238   2.279  15.019  3.1428  0.9642  0.1326
   68TCq2    H4 1048   3.425   2.049  14.715 -0.9051  0.5256 -2.0963
   69TMC2    C1 1049   0.284   3.818  13.002 -0.2888  0.0712  0.3732
   69TMC2    C2 1050   0.258   3.946  13.053  0.0775 -0.0375 -0.4262
   69TMC2    C3 1051   0.311   4.051  12.985 -0.6311  0.1553  0.6303
   69TMC2    C4 1052   0.349   3.790  12.884  0.0692  0.3775  0.7976
   69TMC2    C5 1053   0.394   3.898  12.817 -0.6846  0.3639  0.5714
   69TMC2    C6 1054   0.376   4.030  12.866 -0.2841 -0.0835 -0.2168
   69TMC2     C 1055   0.224   3.701  13.062  0.2528  0.5290 -0.2489
   69TMC2     O 1056   0.260   3.591  13.020  0.0297 -0.2543  0.0643
   69TMC2     H 1057   0.212   3.963  13.150 -0.1044 -3.0033  0.0143
   69TMC2    H1 1058   0.343   3.689  12.845 -0.8662  0.5902  0.3911
   69TMC2    H2 1059   0.407   4.118  12.811 -2.3703 -0.1086 -1.4048
   69TMC2    C7 1060   0.500   3.880  12.722  0.0706  0.1035 -0.2234
   69TMC2    C8 1061   0.275   4.193  12.995  0.9856  0.2616  0.2056
   69TMC2    O1 1062   0.570   3.780  12.727 -1.1792  0.0662 -0.5979
   69TMC2    O2 1063   0.299   4.278  12.913 -0.3160  0.2320  0.6084
   69TMC2    O5 1064   0.220   4.222  13.114 -0.3266  0.1547  0.0601
   69TMC2    H5 1065   0.220   4.146  13.176 -0.3875  0.2516  0.1800
   70MPD2     C 1066   4.670   3.701  13.290  0.0456 -0.2701  0.0882
   70MPD2    C1 1067   0.055   3.656  13.229 -0.5215  0.1281 -0.0137
   70MPD2    C2 1068   0.101   3.528  13.251  0.1331 -0.6365  1.6948
   70MPD2    C3 1069   0.039   3.447  13.342  0.5409  0.8548  0.2908
   70MPD2    C4 1070   4.653   3.497  13.407  0.3903 -0.9656 -0.6637
   70MPD2    C5 1071   4.605   3.628  13.388  0.2992  0.5299  0.0867
   70MPD2     H 1072   0.180   3.482  13.192  0.4098  0.6057  1.0887
   70MPD2    H1 1073   4.598   3.439  13.481  0.5089  0.1310  0.2833
   70MPD2    H2 1074   4.622   3.798  13.279 -0.7546 -0.6088  0.5365
   70MPD2    H3 1075   4.509   3.648  13.435 -0.5418  2.5523 -2.5181
   70MPD2     N 1076   0.084   3.313  13.373 -0.0238 -0.3551 -0.2878
   70MPD2    H5 1077   0.026   3.269  13.444  1.0955 -1.5280 -0.1118
   70MPD2    N1 1078   0.120   3.741  13.140 -0.0540  0.2431  0.4313
   70MPD2    H7 1079   0.093   3.838  13.136  0.4000  0.3286 -0.5787
   71TMC2    C1 1080   3.929   3.426   0.827  0.4827  0.3400 -0.0070
   71TMC2    C2 1081   4.062   3.382   0.811 -0.0419 -0.6007  0.4739
   71TMC2    C3 1082   4.083   3.261   0.867 -0.5049 -0.3044 -0.1944
   71TMC2    C4 1083   3.834   3.379   0.911 -0.0474  0.1304  0.5017
   71TMC2    C5 1084   3.857   3.260   0.962  0.2863 -0.2966 -0.1488
   71TMC2    C6 1085   3.983   3.203   0.941  0.6417 -0.3537  0.4769
   71TMC2     C 1086   3.889   3.537   0.750 -0.1896 -0.0062 -0.1252
   71TMC2     O 1087   3.809   3.614   0.799 -0.6765  0.1447 -0.0805
   71TMC2     H 1088   4.133   3.430   0.745  0.0408  1.7582  2.2510
   71TMC2    H1 1089   3.733   3.417   0.911 -0.9008 -2.1127  1.0080
   71TMC2    H2 1090   4.005   3.104   0.979  1.7435 -0.0292  0.7100
   71TMC2    C7 1091   3.782   3.215   1.079  0.3051 -0.3085  0.8650
   71TMC2    C8 1092   4.183   3.161   0.824  0.3054  0.3062  0.0791
   71TMC2    O1 1093   3.847   3.131   1.138 -0.1351 -0.2817  0.2930
   71TMC2    O2 1094   4.231   3.078   0.903 -0.6494  0.6565 -0.0103
   71TMC2    O5 1095   4.249   3.223   0.722 -0.0466  0.2113  0.0466
   71TMC2    H5 1096   4.192   3.272   0.659  1.6116  3.1695  0.7973
   72MPD2     C 1097   3.826   3.787   0.289  0.1057  0.7482  0.7618
   72MPD2    C1 1098   3.779   3.816   0.415 -0.2782 -0.1767  0.2058
   72MPD2    C2 1099   3.813   3.735   0.524 -0.2295  0.3960 -0.2422
   72MPD2    C3 1100   3.897   3.626   0.510 -0.1936  0.0226  0.2235
   72MPD2    C4 1101   3.936   3.592   0.380 -0.3239  0.2384 -0.0065
   72MPD2    C5 1102   3.905   3.675   0.275  0.6610  0.1274 -0.1782
   72MPD2     H 1103   3.762   3.765   0.615 -0.8272 -0.5882 -0.2609
   72MPD2    H1 1104   4.002   3.508   0.358  1.6714  1.5623  0.9562
   72MPD2    H2 1105   3.809   3.847   0.200  0.9834  3.2568  2.3000
   72MPD2    H3 1106   3.948   3.643   0.181  0.8560  2.2969 -0.8088
   72MPD2     N 1107   3.930   3.528   0.612 -0.0259 -0.2630  0.1183
   72MPD2    H5 1108   3.981   3.448   0.578  2.6187  0.7697  1.6365
   72MPD2    N1 1109   3.697   3.928   0.444 -0.0954  0.0850  0.2817
   72MPD2    H7 1110   3.660   3.939   0.538  1.4016 -0.4365  0.9250
   73TMC2    C1 1111   2.683   1.209  14.198  0.0963 -0.1550  0.0185
   73TMC2    C2 1112   2.748   1.098  14.230  0.2449  0.2164  0.8338
   73TMC2    C3 1113   2.812   1.088  14.348 -0.0087  0.4025 -0.1382
   73TMC2    C4 1114   2.674   1.309  14.285  0.4013 -0.6657 -0.2048
   73TMC2    C5 1115   2.745   1.299  14.407  0.0550 -0.9453 -0.7140
   73TMC2    C6 1116   2.810   1.186  14.443 -0.4406 -1.0846 -0.1162
   73TMC2     C 1117   2.708   1.258  14.064 -0.1593 -0.4443 -0.8101
   73TMC2     O 1118   2.741   1.376  14.062 -0.1176 -0.1437  0.2013
   73TMC2     H 1119   2.739   1.012  14.164  0.7522  1.3353 -0.6891
   73TMC2    H1 1120   2.619   1.401  14.267  2.3917  0.7902  1.0727
   73TMC2    H2 1121   2.849   1.175  14.544 -0.5689  1.1799  0.1885
   73TMC2    C7 1122   2.838   1.408  14.428 -1.0058 -0.3579 -0.0738
   73TMC2    C8 1123   2.883   0.967  14.389 -0.0367  0.1343  0.3468
   73TMC2    O1 1124   2.890   1.419  14.537  0.2226 -0.4367 -0.2133
   73TMC2    O2 1125   2.908   0.955  14.509  0.5697  0.0533  0.4958
   73TMC2    O5 1126   2.853   0.866  14.301 -0.7339  0.0202 -0.6344
   73TMC2    H5 1127   2.868   0.875  14.205  2.0793  0.9182 -0.1200
   74MPD2     C 1128   2.920   1.167  13.603 -0.0773  0.3178 -0.3035
   74MPD2    C1 1129   2.925   1.278  13.685 -0.6876 -0.0512 -0.4506
   74MPD2    C2 1130   2.857   1.281  13.806 -0.3653  0.1443  0.6795
   74MPD2    C3 1131   2.780   1.174  13.844 -0.2677  0.4112  0.2239
   74MPD2    C4 1132   2.779   1.065  13.764 -0.1180 -0.0027  0.3567
   74MPD2    C5 1133   2.846   1.059  13.648 -0.1361 -0.2924 -0.7509
   74MPD2     H 1134   2.863   1.365  13.875 -0.1130  2.2082 -1.8257
   74MPD2    H1 1135   2.731   0.974  13.798  0.6178 -0.5172  0.0051
   74MPD2    H2 1136   2.953   1.166  13.500 -0.6557  2.6723 -0.5121
   74MPD2    H3 1137   2.852   0.962  13.600  2.9748 -0.3969 -0.1742
   74MPD2     N 1138   2.724   1.156  13.973 -0.5454 -0.1383  0.4553
   74MPD2    H5 1139   2.712   1.060  14.004 -0.3556 -0.8889 -1.8332
   74MPD2    N1 1140   2.990   1.390  13.635  0.1954 -0.1149  0.1377
   74MPD2    H7 1141   3.051   1.368  13.556 -0.5083 -1.1733 -0.1089
   75TCq2    C1 1142   3.135   2.616  14.127 -0.5599  1.0330 -0.4836
   75TCq2    O2 1143   3.180   2.643  14.239  0.6686 -0.1788 -0.7240
   75TCq2    C2 1144   3.107   2.730  14.038 -0.7914 -0.0618  0.0825
   75TCq2    C3 1145   3.153   2.853  14.082  0.8619  0.4842 -0.2260
   75TCq2    C4 1146   3.132   2.961  14.003  0.2616 -0.9426  0.2354
   75TCq2    C5 1147   3.059   2.948  13.891  0.3609  0.1600  0.3795
   75TCq2    C6 1148   3.022   2.825  13.844  0.0198  0.3682 -0.0328
   75TCq2    C7 1149   3.053   2.712  13.917  0.4136  0.3120  0.2648
   75TCq2    C8 1150   2.923   2.811  13.735  0.0453  0.6498 -0.0750
   75TCq2    O4 1151   2.906   2.703  13.680  0.8276  0.0574  0.0289
   75TCq2    C9 1152   3.172   3.092  14.038 -0.7448  0.2209  0.2186
   75TCq2    O5 1153   3.160   3.185  13.953  0.1979  0.1863 -0.2335
   75TCq2    O6 1154   3.224   3.103  14.159  0.3861  0.0259  0.3432
   75TCq2    H2 1155   3.201   2.861  14.178  1.8705  2.8722 -0.9132
   75TCq2    H3 1156   3.039   3.028  13.820 -1.2549 -0.4233  0.1799
   75TCq2    H4 1157   3.026   2.617  13.873  1.8385  0.0908 -0.1349
   76MPD2     C 1158   1.658   3.310  12.505 -0.0568  0.0618  1.3596
   76MPD2    C1 1159   1.602   3.424  12.455 -0.2500  0.8574 -0.0208
   76MPD2    C2 1160   1.688   3.526  12.407  0.0029  0.7385 -0.5990
   76MPD2    C3 1161   1.819   3.501  12.379 -0.1967  0.7489  0.2866
   76MPD2    C4 1162   1.875   3.395  12.443 -0.2084 -0.0978  0.2519
   76MPD2    C5 1163   1.796   3.299  12.506  0.1060  0.1951 -0.0623
   76MPD2     H 1164   1.650   3.623  12.377  1.4028  1.9586  1.5692
   76MPD2    H1 1165   1.982   3.376  12.434 -0.7122 -2.9652  0.1550
   76MPD2    H2 1166   1.592   3.234  12.546  2.2034 -1.0542  2.9517
   76MPD2    H3 1167   1.840   3.214  12.557 -0.4557  1.0236  1.8249
   76MPD2     N 1168   1.911   3.591  12.317 -0.3109  0.2800 -0.2705
   76MPD2    H5 1169   2.002   3.546  12.305 -0.2245 -0.3397  2.7287
   76MPD2    N1 1170   1.460   3.436  12.458  0.3477  0.0228 -0.4027
   76MPD2    H7 1171   1.411   3.357  12.499  0.8875  0.1059  0.3871
   77TCq2    C1 1172   1.879   3.711  12.260 -0.8694 -0.0196  1.0091
   77TCq2    O2 1173   1.774   3.772  12.275 -0.0727  0.0940 -0.3356
   77TCq2    C2 1174   1.991   3.774  12.189  0.3337 -0.0774  0.8018
   77TCq2    C3 1175   1.964   3.897  12.140  0.0727  0.4239  0.3636
   77TCq2    C4 1176   2.062   3.964  12.079 -0.0212 -0.4297  0.4795
   77TCq2    C5 1177   2.187   3.918  12.084 -0.0745  0.2891 -0.4559
   77TCq2    C6 1178   2.218   3.793  12.139 -0.3758 -0.5812 -0.1051
   77TCq2    C7 1179   2.121   3.712  12.194  0.2113  0.0756  0.2064
   77TCq2    C8 1180   2.362   3.760  12.170  1.3086 -0.3628 -0.3724
   77TCq2    O4 1181   2.442   3.803  12.088  0.2884 -0.3752 -0.2493
   77TCq2    C9 1182   2.027   4.081  11.999 -0.1149 -0.0097  0.0974
   77TCq2    O5 1183   1.907   4.098  11.964 -0.5402  0.2159  0.1314
   77TCq2    O6 1184   2.125   4.150  11.953  0.6692 -0.3492 -0.0454
   77TCq2    H2 1185   1.860   3.923  12.127  0.2967  0.9108 -0.4398
   77TCq2    H3 1186   2.262   3.981  12.039  1.0558 -1.3138 -0.8306
   77TCq2    H4 1187   2.145   3.613  12.229  0.3709 -0.3745 -1.1727
   78MPD1     C 1188   4.242   1.358   1.062  0.1578  0.5511 -0.4918
   78MPD1    C1 1189   4.131   1.372   1.142  0.2502  0.3365 -0.2966
   78MPD1    C2 1190   4.132   1.477   1.229 -0.6785 -0.7228  0.2445
   78MPD1    C3 1191   4.244   1.556   1.254  0.3223 -0.5677  0.4541
   78MPD1    C4 1192   4.354   1.542   1.174  0.0241 -0.5934 -0.2070
   78MPD1    C5 1193   4.347   1.446   1.076 -1.1578 -0.4846 -0.4957
   78MPD1     H 1194   4.044   1.492   1.290  1.8826  3.2550  2.9808
   78MPD1    H1 1195   4.439   1.609   1.173  0.4465 -1.0894  2.3251
   78MPD1    H2 1196   4.248   1.284   0.983 -2.6948 -1.3564  1.0484
   78MPD1    H3 1197   4.434   1.442   1.011 -2.1000 -1.7388 -1.6821
   78MPD1     N 1198   4.245   1.649   1.363 -0.1226 -0.2086  0.0371
   78MPD1    H5 1199   4.339   1.686   1.379 -0.1266 -0.7685  1.3306
   78MPD1    N1 1200   4.013   1.301   1.119  0.2256  0.3418 -0.3727
   78MPD1    H6 1201   3.948   1.312   1.197  0.7341 -1.6093  0.3353
   78MPD1    H7 1202   4.017   1.206   1.082  1.1948  0.2563 -0.0337
   79TCq2    C1 1203   4.140   1.694   1.438  0.6839 -0.4597 -0.1249
   79TCq2    O2 1204   4.032   1.642   1.455 -0.1137  0.4737  0.0197
   79TCq2    C2 1205   4.165   1.814   1.520 -0.3557  0.5157 -0.4989
   79TCq2    C3 1206   4.066   1.848   1.609  0.0421 -0.2402 -0.1001
   79TCq2    C4 1207   4.080   1.967   1.678  0.4658 -0.0567  1.3217
   79TCq2    C5 1208   4.197   2.046   1.672 -0.1424  0.2335  0.4190
   79TCq2    C6 1209   4.289   2.007   1.581 -0.7121  0.5440 -0.0592
   79TCq2    C7 1210   4.273   1.892   1.502  0.1151  1.0470  0.6105
   79TCq2    C8 1211   4.406   2.095   1.564  0.1409  0.4064 -0.9192
   79TCq2    O4 1212   4.398   2.203   1.623  0.3751  0.5903  0.2769
   79TCq2    C9 1213   3.987   1.993   1.781 -0.2779 -0.0146  0.2509
   79TCq2    O5 1214   3.870   1.957   1.759 -0.1338 -0.1007  0.2291
   79TCq2    O6 1215   4.022   2.053   1.890  0.1152  0.4766 -0.7384
   79TCq2    H2 1216   3.977   1.792   1.635 -0.1823 -0.1327 -0.6371
   79TCq2    H3 1217   4.212   2.133   1.735  0.2894  0.3471  0.1586
   79TCq2    H4 1218   4.341   1.878   1.418  1.2534  2.2324  1.3488
   80MPD2     C 1219   1.108   2.777  12.248  0.1181 -0.0858  0.2827
   80MPD2    C1 1220   0.994   2.754  12.176 -0.2414  0.7330  0.2904
   80MPD2    C2 1221   0.872   2.760  12.245 -0.2179 -0.5585 -0.4551
   80MPD2    C3 1222   0.871   2.792  12.381  0.6354 -0.1704  0.0623
   80MPD2    C4 1223   0.989   2.817  12.442  0.4479 -0.2447 -0.8890
   80MPD2    C5 1224   1.108   2.808  12.381 -0.1978  0.2683 -0.0500
   80MPD2     H 1225   0.785   2.729  12.189 -3.6869 -0.2985  4.8091
   80MPD2    H1 1226   0.990   2.857  12.544 -0.2805  0.5918 -1.2051
   80MPD2    H2 1227   1.206   2.774  12.203 -0.6784 -1.0435 -1.3970
   80MPD2    H3 1228   1.201   2.826  12.434 -0.4840 -1.2931  0.9727
   80MPD2     N 1229   0.748   2.815  12.448  0.6062  0.0436  0.4573
   80MPD2    H5 1230   0.758   2.844  12.544  0.9422  1.0727  0.1063
   80MPD2    N1 1231   0.988   2.711  12.043 -0.1524  0.3397 -0.1753
   80MPD2    H7 1232   0.898   2.696  11.999 -1.1350  1.3453  1.4703
   81TCq2    C1 1233   1.105   2.679  11.974  0.3041  0.1254 -0.6874
   81TCq2    O2 1234   1.224   2.681  12.007 -0.3399  0.3202 -0.3547
   81TCq2    C2 1235   1.079   2.634  11.833 -0.1782  0.5099  1.1593
   81TCq2    C3 1236   1.196   2.588  11.773  0.1923 -0.1498 -0.3442
   81TCq2    C4 1237   1.172   2.541  11.646 -0.3192  0.1958  0.5529
   81TCq2    C5 1238   1.054   2.534  11.586  0.4453 -0.1468  0.6724
   81TCq2    C6 1239   0.942   2.575  11.656 -0.2784  0.0868 -0.2287
   81TCq2    C7 1240   0.951   2.621  11.784 -0.8391 -0.6380 -0.9733
   81TCq2    C8 1241   0.806   2.531  11.618 -0.0505  0.4023 -0.4558
   81TCq2    O4 1242   0.799   2.492  11.501  0.6148  0.4212  0.0628
   81TCq2    C9 1243   1.278   2.483  11.572 -0.6767 -0.5477 -0.3105
   81TCq2    O5 1244   1.254   2.440  11.455 -0.2409 -0.1717  0.3720
   81TCq2    O6 1245   1.385   2.470  11.632  0.5383  0.2218 -0.0876
   81TCq2    H2 1246   1.297   2.577  11.812  0.2276 -0.8874 -0.6416
   81TCq2    H3 1247   1.050   2.492  11.486  2.0877  0.7618  0.2190
   81TCq2    H4 1248   0.861   2.659  11.831  0.7143  0.8363  0.8423
   82MPD2     C 1249   3.929   2.472  10.763 -0.4140 -0.7301  0.0200
   82MPD2    C1 1250   3.838   2.402  10.837 -0.9702 -0.5010  0.4583
   82MPD2    C2 1251   3.886   2.295  10.910 -0.4912 -0.6358 -0.4258
   82MPD2    C3 1252   4.027   2.270  10.915 -0.6947  0.0589 -0.3156
   82MPD2    C4 1253   4.106   2.325  10.816  0.1454  0.0069  0.2081
   82MPD2    C5 1254   4.060   2.432  10.750 -0.8005 -0.7588 -0.2836
   82MPD2     H 1255   3.822   2.237  10.975 -0.1211  0.7379  1.1369
   82MPD2    H1 1256   4.210   2.307  10.792 -1.0194 -1.7905 -3.3817
   82MPD2    H2 1257   3.892   2.562  10.715  1.2650  0.5374  1.1399
   82MPD2    H3 1258   4.121   2.489  10.682 -0.9064  1.9079  1.8300
   82MPD2     N 1259   4.077   2.163  10.981  0.0072 -0.6229 -0.2883
   82MPD2    H5 1260   4.171   2.138  10.950  0.1822 -0.4678  0.1097
   82MPD2    N1 1261   3.696   2.437  10.842  0.1210  0.5851 -0.1204
   82MPD2    H7 1262   3.662   2.492  10.763  0.2201  0.6306 -0.1308
   83TCq2    C1 1263   4.015   2.089  11.082 -0.1425 -0.2884 -0.3908
   83TCq2    O2 1264   3.920   2.132  11.148 -0.0375  0.0026  0.0100
   83TCq2    C2 1265   4.056   1.951  11.097 -0.2100  0.0218 -0.1171
   83TCq2    C3 1266   4.171   1.904  11.046 -0.5809  0.7364 -0.2743
   83TCq2    C4 1267   4.181   1.764  11.040 -0.8808 -1.1145  0.4605
   83TCq2    C5 1268   4.081   1.678  11.089  0.2852 -0.4053 -0.4688
   83TCq2    C6 1269   3.970   1.735  11.144  0.1013  0.1504 -1.0112
   83TCq2    C7 1270   3.961   1.871  11.150  0.3854 -0.8166  0.3206
   83TCq2    C8 1271   3.854   1.660  11.182  0.4739 -0.2063 -0.5082
   83TCq2    O4 1272   3.762   1.699  11.251 -0.4388  0.4186 -0.0052
   83TCq2    C9 1273   4.302   1.696  11.007  0.1899 -0.6684  0.3753
   83TCq2    O5 1274   4.404   1.768  11.021 -0.6353 -0.4792 -0.0354
   83TCq2    O6 1275   4.305   1.577  10.974 -0.3571  0.1417  0.2157
   83TCq2    H2 1276   4.246   1.973  11.009 -1.6120 -0.0325 -3.7733
   83TCq2    H3 1277   4.085   1.570  11.088  0.8011 -0.3735 -1.0205
   83TCq2    H4 1278   3.868   1.914  11.184  1.9019  1.9266  0.9429
   84TCq2    C1 1279   0.064   1.594  10.161 -0.9256 -0.0077  0.5126
   84TCq2    O2 1280   0.060   1.561  10.043  0.4015  0.3742 -0.2499
   84TCq2    C2 1281   0.082   1.489  10.262 -0.1422  0.0743 -0.0343
   84TCq2    C3 1282   0.130   1.372  10.225  0.8133  0.4492 -1.5130
   84TCq2    C4 1283   0.165   1.288  10.325 -0.1734 -0.0441  0.8049
   84TCq2    C5 1284   0.125   1.308  10.454 -0.3355 -0.0027  0.0064
   84TCq2    C6 1285   0.072   1.427  10.494  0.0871 -0.4549 -0.1628
   84TCq2    C7 1286   0.048   1.521  10.395 -0.2370  0.0395 -0.2722
   84TCq2    C8 1287   0.050   1.470  10.635  0.3389 -0.2918  0.0634
   84TCq2    O4 1288   4.698   1.564  10.650  0.1749  0.3206 -0.5661
   84TCq2    C9 1289   0.215   1.153  10.287 -0.4798 -0.5135 -0.2306
   84TCq2    O5 1290   0.237   1.077  10.388  0.4292  0.0341 -0.6535
   84TCq2    O6 1291   0.268   1.137  10.176 -0.1493 -0.3975  0.0955
   84TCq2    H2 1292   0.163   1.358  10.122  2.3702 -0.5066 -0.8756
   84TCq2    H3 1293   0.128   1.226  10.525 -0.4355  1.0034  1.1699
   84TCq2    H4 1294   0.010   1.616  10.428  0.2680  0.3431 -0.5564
   85MPD2     C 1295   0.560   4.274  16.385 -0.4225  0.0637  0.5508
   85MPD2    C1 1296   0.593   4.208  16.269 -0.1587 -0.1558 -0.0948
   85MPD2    C2 1297   0.647   4.286  16.164 -0.7871  0.0751 -0.1802
   85MPD2    C3 1298   0.668   4.422  16.180 -0.2551  0.0010  0.1518
   85MPD2    C4 1299   0.633   4.475  16.300 -0.6586  0.0113  0.2773
   85MPD2    C5 1300   0.576   4.405  16.399  0.0053  0.4424 -0.2127
   85MPD2     H 1301   0.666   4.234  16.071 -0.9000  0.3631 -0.3635
   85MPD2    H1 1302   0.651   4.580  16.319 -0.3373  0.6747 -3.5910
   85MPD2    H2 1303   0.519   4.222  16.471  0.2420 -1.3259  0.0391
   85MPD2    H3 1304   0.536   4.460  16.483 -0.9473 -0.0359 -0.3585
   85MPD2     N 1305   0.724   4.488  16.076 -0.9827 -0.5761  0.4632
   85MPD2    H5 1306   0.740   4.437  15.990 -0.4055  1.4854 -0.6646
   85MPD2    N1 1307   0.572   4.070  16.255  0.3931 -0.5823  0.1394
   85MPD2    H7 1308   0.610   4.029  16.170 -0.3048 -0.6512 -0.1467
   86TCq2    C1 1309   0.752   4.620  16.085  0.0432  0.2784 -0.3549
   86TCq2    O2 1310   0.727   4.710  16.164 -0.0796 -0.3834 -0.2714
   86TCq2    C2 1311   0.809   4.668  15.954 -0.5538 -0.5928  0.4648
   86TCq2    C3 1312   0.774   0.077  15.925  0.0073 -0.0795  0.2818
   86TCq2    C4 1313   0.834   0.138  15.815  0.6217  0.2880  0.1892
   86TCq2    C5 1314   0.916   0.064  15.746  0.3573  0.3337 -0.8811
   86TCq2    C6 1315   0.950   4.657  15.780 -0.1275  0.0515  0.0683
   86TCq2    C7 1316   0.896   4.590  15.883  0.2256  0.0823  0.0388
   86TCq2    C8 1317   1.039   4.583  15.695  0.4402  0.1529  0.2063
   86TCq2    O4 1318   1.089   4.482  15.735  0.1116  0.2516 -0.4101
   86TCq2    C9 1319   0.808   0.274  15.780  0.6454  0.3466 -0.8757
   86TCq2    O5 1320   0.828   0.305  15.658 -0.2912  0.0820  0.5299
   86TCq2    O6 1321   0.767   0.349  15.873  0.2721 -0.4369  0.1195
   86TCq2    H2 1322   0.703   0.134  15.985 -0.8192  0.4031 -1.1654
   86TCq2    H3 1323   0.973   0.115  15.669  2.2138 -0.0477  0.2399
   86TCq2    H4 1324   0.944   4.499  15.920  1.5248  0.5963 -0.3903
   87MPD2     C 1325   2.979   3.092   1.302  0.3643 -0.5554  0.2576
   87MPD2    C1 1326   3.066   3.130   1.203 -1.0079  0.2439 -0.7258
   87MPD2    C2 1327   3.014   3.217   1.108 -0.3859  0.7825 -0.6147
   87MPD2    C3 1328   2.882   3.267   1.106  0.3439  0.0034  0.3568
   87MPD2    C4 1329   2.807   3.229   1.209  0.2070  0.0157  0.6787
   87MPD2    C5 1330   2.857   3.143   1.305  0.2435  0.2643  0.4673
   87MPD2     H 1331   3.080   3.240   1.024  3.7468 -1.1539  2.1304
   87MPD2    H1 1332   2.703   3.257   1.224  0.5377  1.9550 -0.6765
   87MPD2    H2 1333   3.007   3.028   1.385 -1.4154 -1.5236  0.0869
   87MPD2    H3 1334   2.792   3.117   1.389  1.5935  1.1487  1.7782
   87MPD2     N 1335   2.829   3.357   1.005  0.1730 -0.4562  1.1155
   87MPD2    H5 1336   2.729   3.371   1.015  0.0069 -1.1663  0.3738
   87MPD2    N1 1337   3.195   3.075   1.177  0.6147 -0.4336  0.2265
   87MPD2    H7 1338   3.238   3.110   1.093  0.7169 -1.1154 -0.0007
   88TCq2    C1 1339   3.259   2.976   1.246  0.3839 -0.5790  0.6054
   88TCq2    O2 1340   3.222   2.928   1.351 -0.6654 -0.0483  0.1745
   88TCq2    C2 1341   3.389   2.940   1.189 -0.5921 -1.0690  0.4054
   88TCq2    C3 1342   3.467   2.852   1.263  0.1243  0.3899 -0.1653
   88TCq2    C4 1343   3.595   2.836   1.224 -0.2711  0.0134 -0.0973
   88TCq2    C5 1344   3.638   2.876   1.102 -0.9794 -1.2443  0.0353
   88TCq2    C6 1345   3.548   2.944   1.023  0.1170  0.4378 -0.2991
   88TCq2    C7 1346   3.427   2.988   1.066  0.0797 -0.0609  0.1472
   88TCq2    C8 1347   3.588   2.976   0.889 -0.2144 -0.2882  0.2757
   88TCq2    O4 1348   3.710   2.988   0.868 -0.0823  0.1766  0.1489
   88TCq2    C9 1349   3.692   2.782   1.319  0.4864  0.0262  0.1526
   88TCq2    O5 1350   3.642   2.732   1.423 -0.7641 -0.4607  0.5994
   88TCq2    O6 1351   3.812   2.801   1.288  0.4928  0.0496 -0.0656
   88TCq2    H2 1352   3.434   2.809   1.357 -0.2673  1.0234 -0.0145
   88TCq2    H3 1353   3.738   2.855   1.066 -1.0816 -0.5568 -0.6585
   88TCq2    H4 1354   3.369   3.060   1.010 -0.0288  0.2840  0.7068
   89MPD2     C 1355   0.034   0.231   1.465 -0.6933  0.2943 -0.1330
   89MPD2    C1 1356   4.699   0.353   1.500  0.8157 -0.0351  0.2463
   89MPD2    C2 1357   0.055   0.470   1.497 -0.1393  0.5004  0.4961
   89MPD2    C3 1358   0.193   0.464   1.471  0.2675 -0.5877  0.3705
   89MPD2    C4 1359   0.242   0.336   1.444 -0.3992 -0.0022  0.3577
   89MPD2    C5 1360   0.166   0.228   1.433  0.4022 -0.5662 -0.2314
   89MPD2     H 1361   0.013   0.568   1.520  0.8068  1.0241 -0.0140
   89MPD2    H1 1362   0.338   0.328   1.394 -0.2354 -2.2952  1.0411
   89MPD2    H2 1363   4.696   0.142   1.461  1.0004 -0.8485 -0.2044
   89MPD2    H3 1364   0.220   0.137   1.410  0.0436 -0.1414 -2.7759
   89MPD2     N 1365   0.274   0.581   1.461 -0.0120  0.7075  0.0780
   89MPD2    H5 1366   0.229   0.670   1.484  1.7284  1.9192 -1.2019
   89MPD2    N1 1367   4.564   0.370   1.538  0.2499  0.3407  0.0054
   89MPD2    H7 1368   4.537   0.462   1.571  0.2459  0.5008 -0.4475
   90TCq2    C1 1369   0.412   0.585   1.433 -0.6110 -0.4105  0.1607
   90TCq2    O2 1370   0.486   0.493   1.431 -0.1490 -0.0949  0.0297
   90TCq2    C2 1371   0.466   0.718   1.436 -0.4444  0.3264 -0.5917
   90TCq2    C3 1372   0.605   0.719   1.441 -0.2894  0.6050 -0.8436
   90TCq2    C4 1373   0.660   0.838   1.477  0.8474 -0.8714  0.2998
   90TCq2    C5 1374   0.586   0.953   1.485 -0.1159 -0.0390 -0.2706
   90TCq2    C6 1375   0.451   0.948   1.470  0.3049  0.0469  0.3319
   90TCq2    C7 1376   0.388   0.824   1.452  0.1305  0.2956 -0.0967
   90TCq2    C8 1377   0.371   1.070   1.467  0.1384 -0.3342 -0.5053
   90TCq2    O4 1378   0.258   1.053   1.511 -0.1226 -0.2986  0.4310
   90TCq2    C9 1379   0.807   0.844   1.482 -0.5422  0.6019 -0.2717
   90TCq2    O5 1380   0.862   0.955   1.510 -0.2929  0.2072  0.6413
   90TCq2    O6 1381   0.863   0.737   1.450 -0.4136 -0.1286  0.1749
   90TCq2    H2 1382   0.668   0.632   1.425  2.8175  2.8257 -0.6489
   90TCq2    H3 1383   0.645   1.040   1.512 -2.2142  1.6759 -1.2081
   90TCq2    H4 1384   0.283   0.818   1.427  0.2474  0.2848 -0.5810
   91TMC2    C1 1385   0.537   0.456  16.605  0.4317 -0.2853  0.0699
   91TMC2    C2 1386   0.593   0.533  16.505 -0.1342 -0.4295  0.2983
   91TMC2    C3 1387   0.520   0.554  16.395 -0.8967  0.0289  0.4374
   91TMC2    C4 1388   0.416   0.393  16.590 -0.7065 -0.0705  0.1190
   91TMC2    C5 1389   0.347   0.410  16.476  0.3394  0.0599  0.0432
   91TMC2    C6 1390   0.400   0.487  16.375  0.5108 -0.3725 -0.4621
   91TMC2     C 1391   0.610   0.400  16.712  0.1390  0.3638  0.2339
   91TMC2     O 1392   0.545   0.362  16.810 -0.1166  0.1657 -0.5702
   91TMC2     H 1393   0.690   0.579  16.517 -0.5003  0.7934 -1.3698
   91TMC2    H1 1394   0.374   0.325  16.663 -0.5362 -1.2746 -0.9062
   91TMC2    H2 1395   0.354   0.477  16.277  0.7405 -0.5833 -0.5475
   91TMC2    C7 1396   0.236   0.310  16.456  0.8794 -0.1057  0.0382
   91TMC2    C8 1397   0.591   0.627  16.285 -0.2371  1.2107  0.4957
   91TMC2    O1 1398   0.221   0.227  16.543 -0.2958  0.2797 -0.0232
   91TMC2    O2 1399   0.715   0.638  16.271  1.1213  0.0652 -0.0477
   91TMC2    O5 1400   0.502   0.654  16.180 -0.0778 -0.7100  0.1126
   91TMC2    H5 1401   0.412   0.624  16.206 -0.0144 -0.2445  0.8714
   92MPD2     C 1402   0.829   0.297  16.891  0.4481 -0.2413  0.1694
   92MPD2    C1 1403   0.846   0.342  16.761 -0.4879 -1.2093 -0.3867
   92MPD2    C2 1404   0.973   0.340  16.707 -0.5035 -0.1645 -0.1390
   92MPD2    C3 1405   1.086   0.292  16.776  0.4471  0.7479  1.2183
   92MPD2    C4 1406   1.066   0.232  16.900  0.0293  0.6700  0.0891
   92MPD2    C5 1407   0.938   0.246  16.956 -0.3065 -0.5120 -0.0941
   92MPD2     H 1408   0.972   0.376  16.605 -0.3776  1.4099  0.4199
   92MPD2    H1 1409   1.146   0.204  16.967  0.4287 -0.9377 -1.0807
   92MPD2    H2 1410   0.733   0.287  16.940  0.8294 -2.0192  0.5355
   92MPD2    H3 1411   0.924   0.205  17.056 -2.0400  2.5444  0.9102
   92MPD2     N 1412   1.208   0.298  16.709  0.2004 -0.0446 -0.1934
   92MPD2    H5 1413   1.200   0.338  16.615 -1.2181  1.5530  0.6037
   92MPD2    N1 1414   0.743   0.387  16.679 -0.3020 -0.2421 -0.0019
   92MPD2    H7 1415   0.768   0.417  16.585 -0.8015 -0.4051 -0.1856
   93MPD2     C 1416   2.559   0.374  13.456 -0.6872 -0.2014 -0.4052
   93MPD2    C1 1417   2.541   0.464  13.558  0.1887  0.0942 -0.2296
   93MPD2    C2 1418   2.418   0.474  13.624 -0.5809 -0.1371 -0.1691
   93MPD2    C3 1419   2.319   0.395  13.581  0.1633  0.4882  0.0584
   93MPD2    C4 1420   2.341   0.298  13.487 -0.3892 -0.1455  0.6575
   93MPD2    C5 1421   2.458   0.289  13.419  0.2895  0.2923  0.3390
   93MPD2     H 1422   2.403   0.543  13.707 -0.0467 -0.6514  0.3547
   93MPD2    H1 1423   2.264   0.224  13.470  0.7211 -0.6177 -2.3017
   93MPD2    H2 1424   2.657   0.363  13.410 -1.2803  1.7630 -2.1552
   93MPD2    H3 1425   2.479   0.224  13.335 -0.2072  0.4989  0.0579
   93MPD2     N 1426   2.182   0.401  13.623 -0.2769 -0.2732 -0.1155
   93MPD2    H5 1427   2.119   0.332  13.584 -1.1031  0.8484 -0.7843
   93MPD2    N1 1428   2.646   0.534  13.620  0.3612 -0.1544  0.2154
   93MPD2    H7 1429   2.621   0.584  13.705 -0.3022 -1.3323  0.7132
   94TCq2    C1 1430   2.773   0.562  13.570 -0.9607 -0.0563  0.3478
   94TCq2    O2 1431   2.817   0.528  13.461 -0.0887  0.0948 -0.3664
   94TCq2    C2 1432   2.861   0.637  13.661 -0.5851  0.2606 -0.0698
   94TCq2    C3 1433   2.814   0.690  13.779 -0.1262  0.4245 -0.5343
   94TCq2    C4 1434   2.902   0.757  13.854 -0.4041  0.1935 -0.2675
   94TCq2    C5 1435   3.029   0.790  13.814  0.1485 -0.2210  0.4679
   94TCq2    C6 1436   3.069   0.744  13.693  0.0067 -0.0192  0.1290
   94TCq2    C7 1437   2.985   0.670  13.614 -0.0791  0.7125  0.2042
   94TCq2    C8 1438   3.213   0.737  13.674 -0.0236  0.0846 -0.0694
   94TCq2    O4 1439   3.245   0.652  13.592 -0.2295  0.5882 -0.4660
   94TCq2    C9 1440   2.861   0.819  13.978 -0.3467 -0.6242  0.0588
   94TCq2    O5 1441   2.948   0.871  14.051 -0.0503 -0.0098 -0.4311
   94TCq2    O6 1442   2.740   0.820  14.008  0.2544 -0.1447  0.1044
   94TCq2    H2 1443   2.720   0.661  13.825 -0.0759  1.3249  0.1379
   94TCq2    H3 1444   3.096   0.843  13.881  1.1838  2.3929 -2.6440
   94TCq2    H4 1445   3.013   0.637  13.514  0.8348 -0.2979  0.7931
   95TMC2    C1 1446   2.332   2.129  15.644  0.1070  0.1189  0.3316
   95TMC2    C2 1447   2.392   2.014  15.606  0.4179 -0.0564  0.0546
   95TMC2    C3 1448   2.336   1.893  15.643  0.0760  0.4748  0.4207
   95TMC2    C4 1449   2.207   2.127  15.697 -0.3067 -0.1941 -0.2399
   95TMC2    C5 1450   2.158   2.001  15.734  0.4050  0.2842 -0.1908
   95TMC2    C6 1451   2.218   1.878  15.708  0.3846  0.0003 -0.8329
   95TMC2     C 1452   2.395   2.257  15.620  0.0672  0.2637 -0.4819
   95TMC2     O 1453   2.313   2.350  15.623  0.1732  0.8498  0.0376
   95TMC2     H 1454   2.486   2.017  15.553 -0.0357  0.0969 -0.7515
   95TMC2    H1 1455   2.149   2.217  15.713  1.1775  0.9695 -1.3033
   95TMC2    H2 1456   2.182   1.783  15.744 -0.5763  0.8925  0.5646
   95TMC2    C7 1457   2.035   1.986  15.819 -0.3959 -0.6751  0.1874
   95TMC2    C8 1458   2.413   1.781  15.602 -0.2908 -0.3105  0.4436
   95TMC2    O1 1459   1.976   1.876  15.837  0.0204 -0.6184  1.0194
   95TMC2    O2 1460   2.537   1.791  15.584  0.1366 -0.1947  0.6351
   95TMC2    O5 1461   2.329   1.684  15.558  0.0687  0.2402 -0.1823
   95TMC2    H5 1462   2.232   1.694  15.575  0.5126  0.3600  2.2651
   96MPD2     C 1463   2.783   2.586  15.622  0.4949  0.3361 -0.6046
   96MPD2    C1 1464   2.659   2.600  15.579  0.0123 -0.1237  0.1052
   96MPD2    C2 1465   2.577   2.503  15.571 -0.7293  0.2810 -0.3891
   96MPD2    C3 1466   2.611   2.377  15.623 -0.3575 -0.3257  0.5271
   96MPD2    C4 1467   2.743   2.356  15.655 -0.0953 -0.2268 -0.3194
   96MPD2    C5 1468   2.825   2.461  15.669 -0.0251  0.0184 -0.6434
   96MPD2     H 1469   2.476   2.529  15.538 -1.8517 -0.3058  2.6363
   96MPD2    H1 1470   2.777   2.260  15.694 -1.7385 -1.4071 -1.7849
   96MPD2    H2 1471   2.856   2.666  15.621  1.3376 -0.3893  1.7539
   96MPD2    H3 1472   2.931   2.456  15.690  0.0662  0.3866 -1.0083
   96MPD2     N 1473   2.533   2.261  15.623 -0.4362 -0.3337  0.0217
   96MPD2    H5 1474   2.583   2.174  15.641  3.0902  1.6589 -0.1416
   96MPD2    N1 1475   2.617   2.721  15.515  0.0661  0.2968  0.5107
   96MPD2    H7 1476   2.550   2.705  15.441  1.8415  1.8993 -1.4278
   97MPD2     C 1477   0.396   3.856   1.446 -0.4504 -0.3898  0.7311
   97MPD2    C1 1478   0.400   3.941   1.343 -1.4442  0.8125  0.2419
   97MPD2    C2 1479   0.509   4.023   1.322  0.3591 -0.9951 -0.0310
   97MPD2    C3 1480   0.616   4.014   1.406  0.7873 -0.2294 -0.9581
   97MPD2    C4 1481   0.623   3.914   1.506 -0.2657 -0.5618 -0.3291
   97MPD2    C5 1482   0.501   3.848   1.533 -0.3055  0.5452 -0.7867
   97MPD2     H 1483   0.511   4.102   1.247  0.9740 -0.5403  0.4687
   97MPD2    H1 1484   0.704   3.902   1.577  0.4003  0.9784 -0.8335
   97MPD2    H2 1485   0.313   3.788   1.466  0.1302 -1.9018 -2.0342
   97MPD2    H3 1486   0.497   3.770   1.608  0.2693  1.2266 -0.0452
   97MPD2     N 1487   0.730   4.095   1.385 -0.7200  0.5419  0.2841
   97MPD2    H5 1488   0.799   4.106   1.459  1.1625 -1.2682 -1.2150
   97MPD2    N1 1489   0.281   3.932   1.264  0.3416  0.1929  0.3606
   97MPD2    H7 1490   0.206   3.878   1.306  0.2162 -1.7541 -2.3510
   98TCq2    C1 1491   0.751   4.168   1.272  0.6170 -0.7980 -0.1887
   98TCq2    O2 1492   0.703   4.150   1.161 -0.4127 -0.5090  0.6677
   98TCq2    C2 1493   0.828   4.286   1.289 -0.2619 -0.0347 -0.8108
   98TCq2    C3 1494   0.882   4.316   1.410  0.1697  0.2552  0.3266
   98TCq2    C4 1495   0.983   4.406   1.417  0.6619  0.4299 -0.2143
   98TCq2    C5 1496   1.031   4.473   1.304 -0.4714  0.4211  0.1812
   98TCq2    C6 1497   0.968   4.445   1.185 -0.4637 -0.2997  0.5103
   98TCq2    C7 1498   0.865   4.355   1.176 -0.2266 -0.0088 -0.1935
   98TCq2    C8 1499   0.968   4.539   1.080  0.2198  0.0749 -0.0523
   98TCq2    O4 1500   1.060   4.622   1.079 -0.3904 -0.9009  0.2724
   98TCq2    C9 1501   1.036   4.451   1.539 -0.4623 -0.0382 -0.3992
   98TCq2    O5 1502   1.036   4.377   1.643  0.1183 -0.0008 -0.0032
   98TCq2    O6 1503   1.106   4.554   1.528  0.1369 -0.1254  0.6367
   98TCq2    H2 1504   0.854   4.264   1.501 -1.5474 -0.7671 -0.7903
   98TCq2    H3 1505   1.112   4.544   1.317 -0.0060  0.1565 -1.3400
   98TCq2    H4 1506   0.834   4.309   1.082 -0.0735  1.7508 -1.1135
   99MPD2     C 1507   3.991   2.206   0.783 -0.2125 -0.0623  0.1454
   99MPD2    C1 1508   3.947   2.084   0.835 -0.4684  0.4008  0.4660
   99MPD2    C2 1509   4.033   1.974   0.842  0.0964 -0.0376 -0.2257
   99MPD2    C3 1510   4.163   1.989   0.784 -0.3800 -0.1951  0.0451
   99MPD2    C4 1511   4.200   2.109   0.728  0.4208 -0.1927  0.1734
   99MPD2    C5 1512   4.113   2.216   0.728  0.5406 -0.1886 -0.4193
   99MPD2     H 1513   4.004   1.889   0.902 -1.7822  0.4814 -0.4118
   99MPD2    H1 1514   4.300   2.117   0.686  0.0328 -1.0713 -0.9156
   99MPD2    H2 1515   3.930   2.296   0.786 -0.5920 -0.3418  0.7361
   99MPD2    H3 1516   4.148   2.315   0.704 -0.9769  0.6465  0.7870
   99MPD2     N 1517   4.242   1.872   0.791 -0.2979  0.4462 -0.6420
   99MPD2    H5 1518   4.199   1.791   0.834  2.3204 -1.1974 -1.1201
   99MPD2    N1 1519   3.824   2.070   0.904  0.0705  0.1636 -0.3808
   99MPD2    H7 1520   3.823   1.980   0.950  2.6440 -0.2131 -1.0886
  100TCq2    C1 1521   3.718   2.155   0.877 -0.6287  0.9558 -0.6204
  100TCq2    O2 1522   3.713   2.249   0.803 -0.2047  0.1894 -0.5241
  100TCq2    C2 1523   3.594   2.095   0.931 -0.3321  0.4296  0.1193
  100TCq2    C3 1524   3.473   2.126   0.869  0.3641 -0.3285 -1.1587
  100TCq2    C4 1525   3.362   2.074   0.939 -0.7706  0.0738 -0.3715
  100TCq2    C5 1526   3.373   1.982   1.041  0.3190 -0.6342  0.4415
  100TCq2    C6 1527   3.497   1.952   1.090 -0.2813 -0.2203 -0.0880
  100TCq2    C7 1528   3.613   2.016   1.039 -0.3539  0.3388 -0.0152
  100TCq2    C8 1529   3.514   1.924   1.232  0.7895 -0.2817  0.4831
  100TCq2    O4 1530   3.624   1.956   1.277 -0.2695 -0.3901  0.4372
  100TCq2    C9 1531   3.229   2.117   0.893 -0.8138 -0.0800  0.3151
  100TCq2    O5 1532   3.223   2.191   0.791 -0.6458  0.2107 -0.5263
  100TCq2    O6 1533   3.130   2.056   0.933 -0.6995 -0.2486 -0.0204
  100TCq2    H2 1534   3.462   2.196   0.787  1.1565 -0.8223 -1.6839
  100TCq2    H3 1535   3.284   1.951   1.094 -0.9500  0.8819 -0.7818
  100TCq2    H4 1536   3.708   1.976   1.072 -0.6706  0.0457  0.5517
  101MPD2     C 1537   3.938   3.198  13.241  0.1822  0.4866  0.0704
  101MPD2    C1 1538   4.025   3.109  13.181  0.2818 -0.1877 -0.5164
  101MPD2    C2 1539   4.051   2.992  13.243 -0.5239 -0.2672 -0.2727
  101MPD2    C3 1540   4.003   2.967  13.368  0.7652 -0.1360 -0.0839
  101MPD2    C4 1541   3.934   3.062  13.435 -0.3026 -0.1731  0.3559
  101MPD2    C5 1542   3.897   3.177  13.370 -0.2589 -0.1177 -0.4377
  101MPD2     H 1543   4.114   2.920  13.192  0.6354  0.9199 -0.5031
  101MPD2    H1 1544   3.897   3.031  13.532 -0.1952 -2.0140 -0.1932
  101MPD2    H2 1545   3.903   3.293  13.201  0.3863  0.2088 -0.7679
  101MPD2    H3 1546   3.822   3.243  13.412 -2.3119 -0.6016 -3.2764
  101MPD2     N 1547   4.026   2.834  13.430  0.6859 -0.2843  0.2357
  101MPD2    H5 1548   3.984   2.828  13.523 -1.0352 -1.7383 -0.6225
  101MPD2    N1 1549   4.080   3.150  13.057 -0.0376 -0.3411 -0.0019
  101MPD2    H7 1550   4.049   3.236  13.013  0.2754  0.5827  1.5950
  102TCq2    C1 1551   4.425   3.343  12.658  0.2332  0.1597 -0.4145
  102TCq2    O2 1552   4.536   3.295  12.673  0.6319  0.3303 -0.4066
  102TCq2    C2 1553   4.302   3.271  12.706 -0.4024 -0.0855  0.0691
  102TCq2    C3 1554   4.195   3.273  12.628  0.3732 -0.1049  0.6251
  102TCq2    C4 1555   4.078   3.217  12.666  0.4635 -0.0197  0.0317
  102TCq2    C5 1556   4.077   3.158  12.787  0.0815 -0.1499 -0.2770
  102TCq2    C6 1557   4.197   3.148  12.859 -0.7230 -0.3175  0.3641
  102TCq2    C7 1558   4.314   3.204  12.817  0.3338  0.3116  0.0464
  102TCq2    C8 1559   4.187   3.092  12.998  0.6810  0.0080 -1.0701
  102TCq2    O4 1560   4.260   3.000  13.028  0.4825 -0.3143  0.6048
  102TCq2    C9 1561   3.960   3.226  12.584 -0.7484 -0.0948 -0.8283
  102TCq2    O5 1562   3.847   3.201  12.629  0.0223 -0.5569  0.2498
  102TCq2    O6 1563   3.985   3.264  12.469  0.0752  0.0595  0.0644
  102TCq2    H2 1564   4.204   3.321  12.531  1.6573 -1.9999 -0.2106
  102TCq2    H3 1565   3.982   3.119  12.821  0.2602 -0.4839 -0.1641
  102TCq2    H4 1566   4.402   3.209  12.880  0.1448 -0.7173  0.3902
  103TMC2    C1 1567   2.573   3.339  12.804  0.7010 -0.5201 -0.1832
  103TMC2    C2 1568   2.652   3.230  12.793 -0.7315 -0.1191 -0.5960
  103TMC2    C3 1569   2.644   3.142  12.894 -0.3205 -1.0042 -0.0576
  103TMC2    C4 1570   2.498   3.360  12.916 -0.0457 -0.2232  0.6373
  103TMC2    C5 1571   2.510   3.271  13.020 -0.8359 -0.5647  0.3609
  103TMC2    C6 1572   2.585   3.160  13.009 -0.0758  0.2650  1.0292
  103TMC2     C 1573   2.531   3.403  12.685 -0.5046 -0.1958 -0.1411
  103TMC2     O 1574   2.414   3.440  12.683  0.2072 -0.2600 -0.4215
  103TMC2     H 1575   2.700   3.204  12.699  1.4534 -2.5507  1.1728
  103TMC2    H1 1576   2.440   3.452  12.922 -2.1764 -1.6740  1.8978
  103TMC2    H2 1577   2.590   3.084  13.086 -0.4588  0.4722  1.2557
  103TMC2    C7 1578   2.422   3.269  13.132 -0.0508 -0.2691  0.0384
  103TMC2    C8 1579   2.703   3.009  12.873  0.0423 -0.0725  0.0875
  103TMC2    O1 1580   2.431   3.179  13.212 -0.2734 -0.3975 -0.0231
  103TMC2    O2 1581   2.797   2.986  12.803 -0.4913 -0.2287  0.3795
  103TMC2    O5 1582   2.604   2.917  12.909  0.5146 -0.4742  0.6818
  103TMC2    H5 1583   2.523   2.947  12.956  0.3363 -1.4186  0.9584
  104MPD2     C 1584   2.697   3.425  12.353 -0.6255  0.0093 -0.4547
  104MPD2    C1 1585   2.616   3.460  12.461 -0.8813 -0.0770 -0.9362
  104MPD2    C2 1586   2.514   3.553  12.436 -0.0564  0.4929 -0.0040
  104MPD2    C3 1587   2.507   3.622  12.313  0.3689 -0.8524  0.4550
  104MPD2    C4 1588   2.596   3.587  12.211  0.7437  0.4157  0.1938
  104MPD2    C5 1589   2.686   3.490  12.236  0.1908 -0.9250  0.0817
  104MPD2     H 1590   2.451   3.589  12.516 -3.2932  0.2137 -2.4483
  104MPD2    H1 1591   2.582   3.636  12.115  0.4367 -0.3927 -0.1681
  104MPD2    H2 1592   2.770   3.345  12.361  0.0333  0.4294 -2.3361
  104MPD2    H3 1593   2.746   3.456  12.152 -0.5146  0.5887 -1.0279
  104MPD2     N 1594   2.389   3.694  12.283 -0.2866 -0.3917 -0.5368
  104MPD2    H5 1595   2.312   3.687  12.350  0.6158  1.9772  0.7354
  104MPD2    N1 1596   2.630   3.395  12.586  0.3384 -0.4416 -0.4946
  104MPD2    H7 1597   2.719   3.352  12.612 -1.0559 -2.1181  1.5401
  105MPD2     C 1598   4.337   2.701  17.355 -0.3921  0.0468 -0.6377
  105MPD2    C1 1599   4.206   2.745  17.351 -0.1828  0.9338 -0.2123
  105MPD2    C2 1600   4.162   2.834  17.443 -0.4043  0.3463 -0.5420
  105MPD2    C3 1601   4.242   2.883  17.541  0.0118 -0.1019 -0.2559
  105MPD2    C4 1602   4.376   2.845  17.545  0.4314 -0.2867 -0.5492
  105MPD2    C5 1603   4.421   2.746  17.457  0.0402  0.7857  0.3078
  105MPD2     H 1604   4.057   2.863  17.436 -0.8859 -1.2523  0.2545
  105MPD2    H1 1605   4.438   2.894  17.619 -1.7751 -0.6586  1.5448
  105MPD2    H2 1606   4.383   2.657  17.268  1.1162  3.4927 -1.6076
  105MPD2    H3 1607   4.529   2.734  17.452  0.6421  5.6437  1.9392
  105MPD2     N 1608   4.175   2.976  17.630 -0.2526 -0.0094  0.0676
  105MPD2    H5 1609   4.079   2.999  17.607 -0.4815  0.9994  2.0453
  105MPD2    N1 1610   4.115   2.712  17.244  0.2563  0.3166 -0.5023
  105MPD2    H7 1611   4.028   2.762  17.236 -0.4369 -0.8019 -0.0146
  106TCq2    C1 1612   4.230   3.038   0.041  0.6932  0.7051  0.1004
  106TCq2    O2 1613   4.342   3.028   0.082  0.1459  0.2629 -0.4986
  106TCq2    C2 1614   4.127   3.106   0.121  0.5595 -0.0239  0.5541
  106TCq2    C3 1615   4.180   3.199   0.204  1.0042  0.0450  0.2387
  106TCq2    C4 1616   4.113   3.236   0.316  0.6542 -0.4341  0.1629
  106TCq2    C5 1617   3.989   3.192   0.339  0.1993 -0.3264 -0.2965
  106TCq2    C6 1618   3.929   3.098   0.246 -0.2558 -0.2308 -1.0049
  106TCq2    C7 1619   4.004   3.040   0.151  0.1768 -0.1775 -0.4948
  106TCq2    C8 1620   3.786   3.065   0.259 -0.4039  0.4972 -0.0224
  106TCq2    O4 1621   3.721   3.056   0.156  0.1910 -0.4937 -0.3426
  106TCq2    C9 1622   4.167   3.327   0.408  0.3553 -0.1112 -0.5446
  106TCq2    O5 1623   4.261   3.400   0.369 -0.3436  0.2451 -0.2070
  106TCq2    O6 1624   4.116   3.332   0.524 -0.0256  0.1029 -0.3111
  106TCq2    H2 1625   4.284   3.228   0.199  0.7407  0.7137 -1.4193
  106TCq2    H3 1626   3.938   3.225   0.429  1.1932  0.2723  0.0476
  106TCq2    H4 1627   3.951   2.967   0.091 -0.1398  0.8335 -1.4561
  107TMC2    C1 1628   4.437   1.844  11.424  0.4639  0.5459  0.1230
  107TMC2    C2 1629   4.451   1.959  11.356 -0.3419 -0.2138  0.7349
  107TMC2    C3 1630   4.559   1.972  11.279  0.4178  0.4300  0.8970
  107TMC2    C4 1631   4.500   1.728  11.393  0.0038 -0.1205  0.0391
  107TMC2    C5 1632   4.602   1.744  11.301  0.3565 -0.0978  0.2960
  107TMC2    C6 1633   4.632   1.864  11.241  0.3401  0.7855  0.1124
  107TMC2     C 1634   4.312   1.838  11.500 -0.1640 -0.1098  0.1589
  107TMC2     O 1635   4.297   1.747  11.582  0.2307 -0.6492 -0.3695
  107TMC2     H 1636   4.400   2.049  11.387  0.3379  1.7424 -3.8794
  107TMC2    H1 1637   4.478   1.631  11.435 -1.4592  0.3248  0.2767
  107TMC2    H2 1638   4.703   1.890  11.164 -1.1840  1.3287 -1.1232
  107TMC2    C7 1639   4.682   1.622  11.277 -0.0573 -0.3431  0.3404
  107TMC2    C8 1640   4.552   2.075  11.187 -0.4908  0.3811  0.0506
  107TMC2    O1 1641   4.696   1.549  11.374  0.1526 -0.6272  0.1782
  107TMC2    O2 1642   4.538   2.191  11.225 -0.4868  0.0115 -0.1710
  107TMC2    O5 1643   4.489   2.019  11.082 -0.5141 -0.0730 -0.2945
  107TMC2    H5 1644   4.481   1.921  11.080 -0.8702 -0.0680  1.1135
  108MPD2     C 1645   3.989   2.003  11.459  0.4684 -0.1098  0.3999
  108MPD2    C1 1646   4.088   1.936  11.525  0.4830  0.1833 -0.4146
  108MPD2    C2 1647   4.066   1.902  11.660  0.0289  0.2990  0.0955
  108MPD2    C3 1648   3.955   1.943  11.722 -0.2953 -0.3264  0.3285
  108MPD2    C4 1649   3.852   2.008  11.655 -0.6311  0.0524  0.3611
  108MPD2    C5 1650   3.871   2.034  11.524  0.4151  0.5523 -0.0768
  108MPD2     H 1651   4.141   1.850  11.718 -1.7465 -0.7811  1.4322
  108MPD2    H1 1652   3.765   2.043  11.710 -1.0173 -1.1025  0.4769
  108MPD2    H2 1653   4.011   2.042  11.360  0.5590  1.0759  0.8831
  108MPD2    H3 1654   3.798   2.082  11.460  1.2984  1.1225 -0.6590
  108MPD2     N 1655   3.938   1.922  11.861 -0.3848 -0.2458  0.3199
  108MPD2    H5 1656   3.852   1.958  11.901 -0.6182  1.7702 -2.0156
  108MPD2    N1 1657   4.211   1.924  11.455 -0.4539 -0.0084  0.4854
  108MPD2    H7 1658   4.222   1.993  11.381 -0.8046 -0.8403 -0.3388
  109MPD2     C 1659   4.463   2.943   2.090  0.0659 -0.3418 -0.0119
  109MPD2    C1 1660   4.509   3.000   1.973 -0.2698 -0.7086 -0.0779
  109MPD2    C2 1661   4.457   3.115   1.936  0.4140  0.3139  0.2392
  109MPD2    C3 1662   4.355   3.173   2.009 -0.2621 -0.4757 -0.0034
  109MPD2    C4 1663   4.302   3.117   2.120 -0.2436  0.1838  0.1735
  109MPD2    C5 1664   4.366   2.996   2.166  0.4647  0.0599 -0.0148
  109MPD2     H 1665   4.485   3.157   1.840 -0.2021  1.0580  0.3854
  109MPD2    H1 1666   4.208   3.150   2.165  1.7392  2.0994  2.9822
  109MPD2    H2 1667   4.511   2.854   2.129  0.6402 -0.8164 -1.7963
  109MPD2    H3 1668   4.330   2.957   2.261 -1.8603 -1.0227 -1.3377
  109MPD2     N 1669   4.309   3.296   1.961  0.2343 -0.0136 -0.0165
  109MPD2    H5 1670   4.340   3.318   1.867  1.5828  1.3448  0.7539
  109MPD2    N1 1671   4.610   2.928   1.901 -0.6609  0.5726 -0.7463
  109MPD2    H7 1672   4.630   2.844   1.953  0.1047  0.6022 -1.0006
  110TCq2    C1 1673   4.242   3.387   2.036  0.3407  0.1344 -0.0681
  110TCq2    O2 1674   4.201   3.381   2.151  0.2925  0.3301 -0.2536
  110TCq2    C2 1675   4.180   3.490   1.947  0.2537 -0.0141 -0.1259
  110TCq2    C3 1676   4.057   3.536   1.988 -0.2241 -0.2913 -0.2111
  110TCq2    C4 1677   3.988   3.614   1.896 -0.6831 -0.0963 -0.4779
  110TCq2    C5 1678   4.026   3.624   1.764  0.3481  0.2782 -0.3928
  110TCq2    C6 1679   4.152   3.569   1.728  0.8648 -0.5902  0.1762
  110TCq2    C7 1680   4.226   3.499   1.816  0.4687 -0.6182 -0.3044
  110TCq2    C8 1681   4.217   3.622   1.611  0.4043 -0.3783  0.3720
  110TCq2    O4 1682   4.336   3.636   1.612 -0.0445  0.5355 -0.3028
  110TCq2    C9 1683   3.860   3.665   1.928  0.2949  0.0627  0.1926
  110TCq2    O5 1684   3.827   3.664   2.053  0.2949 -0.6824 -0.0348
  110TCq2    O6 1685   3.796   3.728   1.835 -0.4277 -0.0274  0.8607
  110TCq2    H2 1686   4.023   3.522   2.091 -1.0921  0.4803 -0.3920
  110TCq2    H3 1687   3.972   3.685   1.693  1.7066  1.9518  0.0139
  110TCq2    H4 1688   4.325   3.476   1.780  0.0925  0.8216 -2.2553
  111TMC2    C1 1689   4.588   3.480  11.252 -0.0871 -1.0223  0.7699
  111TMC2    C2 1690   4.588   3.399  11.140  0.1987 -0.5723  0.6289
  111TMC2    C3 1691   4.698   3.323  11.116 -0.3349 -0.8978  0.0041
  111TMC2    C4 1692   4.687   3.475  11.347  0.5834  0.3960 -0.7398
  111TMC2    C5 1693   0.074   3.399  11.316 -1.0039  0.6468 -0.0011
  111TMC2    C6 1694   0.079   3.316  11.205 -0.4757 -0.3003  0.5000
  111TMC2     C 1695   4.459   3.537  11.286  0.3797  0.4019  0.3010
  111TMC2     O 1696   4.391   3.573  11.193  0.5895 -0.0647 -0.8469
  111TMC2     H 1697   4.519   3.424  11.060 -1.0283  0.0919  1.8965
  111TMC2    H1 1698   4.687   3.537  11.436  0.6469  1.9585 -1.8219
  111TMC2    H2 1699   0.165   3.252  11.193 -0.4273 -0.0595 -0.3858
  111TMC2    C7 1700   0.174   3.385  11.423 -0.1869 -0.1383 -0.5835
  111TMC2    C8 1701   4.719   3.240  10.997 -0.1009  0.4552  0.1630
  111TMC2    O1 1702   0.144   3.455  11.515 -0.0258 -0.9207  0.1778
  111TMC2    O2 1703   0.106   3.209  10.953  0.5059  0.0680 -0.2921
  111TMC2    O5 1704   4.603   3.216  10.941 -0.2193 -0.6952 -0.4333
  111TMC2    H5 1705   4.531   3.207  11.007  0.3984 -1.9372  0.0742
  112MPD2     C 1706   4.116   3.718  11.637  0.6267  0.0755 -0.4323
  112MPD2    C1 1707   4.128   3.732  11.501 -1.4890  0.4403  0.1431
  112MPD2    C2 1708   4.222   3.662  11.429  0.0252  0.4403  0.2886
  112MPD2    C3 1709   4.325   3.592  11.498 -0.0503 -0.3395  0.5949
  112MPD2    C4 1710   4.319   3.586  11.633  0.4210  0.4631 -0.4450
  112MPD2    C5 1711   4.211   3.647  11.697  0.2816 -0.0204 -0.3933
  112MPD2     H 1712   4.228   3.681  11.322  1.8574 -1.5750  0.0318
  112MPD2    H1 1713   4.399   3.529  11.680 -0.6290 -0.1113  0.6623
  112MPD2    H2 1714   4.040   3.765  11.698  1.0467 -0.8952  0.8202
  112MPD2    H3 1715   4.206   3.634  11.805  1.6509  1.2680 -0.1641
  112MPD2     N 1716   4.442   3.547  11.422  0.6077 -0.3837  0.2124
  112MPD2    H5 1717   4.515   3.514  11.485 -0.4714  1.0236  2.2430
  112MPD2    N1 1718   4.047   3.822  11.424  0.5062 -0.1543  0.2104
  112MPD2    H7 1719   4.051   3.817  11.323 -1.4802 -0.1917  0.1334
  113MPD2     C 1720   2.635   1.565   1.017 -0.3846 -0.2838  0.1007
  113MPD2    C1 1721   2.593   1.593   1.144 -0.1073 -0.5969 -0.0814
  113MPD2    C2 1722   2.534   1.491   1.217  0.2607  0.7636  0.3535
  113MPD2    C3 1723   2.521   1.368   1.161 -0.0031 -0.1027  0.7620
  113MPD2    C4 1724   2.596   1.336   1.047  0.3820 -1.0091  0.4963
  113MPD2    C5 1725   2.643   1.444   0.971 -0.1510  0.3220 -0.1112
  113MPD2     H 1726   2.504   1.515   1.318  3.6844  2.7357  0.8946
  113MPD2    H1 1727   2.600   1.231   1.023 -1.6315 -0.2572 -3.0066
  113MPD2    H2 1728   2.686   1.643   0.962  0.4906  0.4931  1.9836
  113MPD2    H3 1729   2.680   1.430   0.870 -2.4553 -0.7659 -0.8138
  113MPD2     N 1730   2.468   1.257   1.228  1.0990  0.1104  0.3165
  113MPD2    H5 1731   2.500   1.166   1.197  1.7237  1.1300 -2.0513
  113MPD2    N1 1732   2.602   1.720   1.205 -0.6072 -0.6774  0.0781
  113MPD2    H7 1733   2.588   1.718   1.306 -0.1563  1.3632  0.1773
  114TCq2    C1 1734   2.379   1.263   1.329 -0.0729 -0.0602  0.7550
  114TCq2    O2 1735   2.325   1.365   1.369 -0.3398  0.8019 -0.6433
  114TCq2    C2 1736   2.365   1.135   1.400  0.3215  0.7415 -0.2736
  114TCq2    C3 1737   2.284   1.138   1.507  0.3240  0.3808 -0.0414
  114TCq2    C4 1738   2.285   1.022   1.589 -0.3697  0.3977 -0.4579
  114TCq2    C5 1739   2.358   0.910   1.564  0.9702  0.5960 -0.3950
  114TCq2    C6 1740   2.434   0.914   1.450 -0.4506  0.8639  0.2520
  114TCq2    C7 1741   2.437   1.020   1.368  0.2936 -0.0844  0.5965
  114TCq2    C8 1742   2.538   0.813   1.424 -0.1952  0.0298 -0.1743
  114TCq2    O4 1743   2.636   0.842   1.359 -0.1578  0.3899  0.2523
  114TCq2    C9 1744   2.195   1.017   1.708  0.0019  0.2017  0.5770
  114TCq2    O5 1745   2.121   1.114   1.730 -0.1349  0.6371  0.2038
  114TCq2    O6 1746   2.210   0.920   1.788 -0.2183 -0.5228  0.5105
  114TCq2    H2 1747   2.232   1.226   1.544  1.4557  1.4626 -1.0632
  114TCq2    H3 1748   2.367   0.833   1.639 -1.6583  1.4645  0.8076
  114TCq2    H4 1749   2.517   1.020   1.295  0.7209 -1.3356  1.0645
  115TMC2    C1 1750   3.538   4.472  17.344 -0.2538 -0.5167 -0.2992
  115TMC2    C2 1751   3.638   4.470  17.435  1.1808 -0.3750 -0.4324
  115TMC2    C3 1752   3.708   4.586  17.452  0.2597 -0.1862 -0.4347
  115TMC2    C4 1753   3.501   4.589  17.285  0.4021  0.5246  0.1566
  115TMC2    C5 1754   3.573   4.702  17.303  0.1019 -0.3370  0.0118
  115TMC2    C6 1755   3.682   4.698  17.383  0.3230 -0.4433 -1.4741
  115TMC2     C 1756   3.473   4.350  17.281 -0.1543 -0.3557  0.0259
  115TMC2     O 1757   3.407   4.352  17.177 -0.1487  0.1034  0.0213
  115TMC2     H 1758   3.685   4.382  17.478 -0.3383 -1.0093 -0.0944
  115TMC2    H1 1759   3.413   4.602  17.224 -0.2757  0.5993  1.1391
  115TMC2    H2 1760   3.745   0.062  17.390  1.0988 -1.3076  2.6935
  115TMC2    C7 1761   3.505   0.105  17.280  0.0391  0.9275 -0.8008
  115TMC2    C8 1762   3.803   4.586  17.559 -0.0555  0.7905 -0.4019
  115TMC2    O1 1763   3.383   0.108  17.258 -0.1403  0.0878  0.1595
  115TMC2    O2 1764   3.841   4.492  17.627 -0.6382 -0.8245  0.1627
  115TMC2    O5 1765   3.793   4.706  17.609  0.0051  0.2098 -0.3741
  115TMC2    H5 1766   3.732   0.046  17.565 -0.2834  0.0469 -0.2049
  116MPD2     C 1767   3.395   3.843  17.273  1.3727  0.3780 -0.5500
  116MPD2    C1 1768   3.331   3.939  17.198 -0.0988 -0.3813  0.2464
  116MPD2    C2 1769   3.371   4.069  17.224  0.4548 -0.7510 -0.0884
  116MPD2    C3 1770   3.465   4.103  17.324 -0.4425 -0.1208 -0.3106
  116MPD2    C4 1771   3.511   4.002  17.409  0.0090  0.4261 -0.3347
  116MPD2    C5 1772   3.475   3.869  17.381  0.1774  0.1903 -0.4109
  116MPD2     H 1773   3.324   4.148  17.165 -1.2796 -0.5869  1.4873
  116MPD2    H1 1774   3.582   4.025  17.487 -0.7213 -0.3844  0.5588
  116MPD2    H2 1775   3.374   3.738  17.261 -0.3613  0.7992 -1.1564
  116MPD2    H3 1776   3.513   3.787  17.441 -0.6543 -0.6014 -0.9658
  116MPD2     N 1777   3.508   4.236  17.352  0.2738 -0.1918 -0.0470
  116MPD2    H5 1778   3.564   4.248  17.436 -0.5148 -0.5133  0.5248
  116MPD2    N1 1779   3.239   3.903  17.092 -0.0435  0.3823  0.3150
  116MPD2    H7 1780   3.226   3.805  17.069 -0.1322  1.0121 -2.2759
  117TMC2    C1 1781   1.860   0.849  14.036 -0.4727 -0.1167  0.0265
  117TMC2    C2 1782   1.921   0.750  14.106 -0.4590  0.7368 -0.6620
  117TMC2    C3 1783   2.057   0.735  14.109 -0.5713  0.6200 -0.2200
  117TMC2    C4 1784   1.938   0.923  13.949  0.1604 -0.4774  0.3870
  117TMC2    C5 1785   2.073   0.909  13.952 -0.3479 -0.2506  0.7938
  117TMC2    C6 1786   2.137   0.822  14.036  0.7892  0.2684  0.5266
  117TMC2     C 1787   1.721   0.843  14.010 -0.1479  0.1774  0.0638
  117TMC2     O 1788   1.675   0.729  14.015 -0.2599 -0.4334  0.0178
  117TMC2     H 1789   1.865   0.663  14.139 -0.6049  1.1227  0.0892
  117TMC2    H1 1790   1.892   1.007  13.898 -0.0462 -0.9982 -0.2910
  117TMC2    H2 1791   2.244   0.819  14.052  1.0358 -0.6109 -1.2690
  117TMC2    C7 1792   2.157   0.989  13.873  0.1226  1.0481  0.2019
  117TMC2    C8 1793   2.112   0.613  14.151  0.2097  0.2681  0.2683
  117TMC2    O1 1794   2.107   1.093  13.829 -0.3724  0.3145 -0.5916
  117TMC2    O2 1795   2.217   0.568  14.100 -0.3736 -0.0888 -0.1174
  117TMC2    O5 1796   2.074   0.602  14.278  0.1062  0.4222  0.3311
  117TMC2    H5 1797   1.994   0.655  14.299  0.2355  0.6258  0.3133
  118MPD2     C 1798   2.414   0.870  13.645  0.2537 -0.4078  0.3737
  118MPD2    C1 1799   2.347   0.960  13.714  0.5530 -0.2918 -0.5032
  118MPD2    C2 1800   2.379   1.094  13.686  0.3973  0.0152 -0.4300
  118MPD2    C3 1801   2.468   1.125  13.584 -0.1010  0.0091 -0.9800
  118MPD2    C4 1802   2.536   1.028  13.515  0.4039 -0.2369 -0.9197
  118MPD2    C5 1803   2.503   0.899  13.540  0.0043  0.8113  0.0927
  118MPD2     H 1804   2.334   1.174  13.744 -0.4739  0.1501 -1.3067
  118MPD2    H1 1805   2.610   1.048  13.439 -1.4077  2.8370 -1.9063
  118MPD2    H2 1806   2.394   0.764  13.658  1.8966 -0.5928  1.3895
  118MPD2    H3 1807   2.549   0.813  13.493 -0.2156  1.7573 -1.8430
  118MPD2     N 1808   2.501   1.264  13.564 -0.1304  0.7451 -0.2945
  118MPD2    H5 1809   2.445   1.331  13.617  0.3528 -1.2826  2.7691
  118MPD2    N1 1810   2.265   0.916  13.818  1.2611  0.6292 -0.0033
  118MPD2    H7 1811   2.267   0.815  13.829 -1.0481  0.3892 -1.6829
  119MPD2     C 1812   1.213   2.080  13.909  0.0216  0.5864  0.5081
  119MPD2    C1 1813   1.084   2.130  13.932  0.3344 -0.1065 -0.5309
  119MPD2    C2 1814   1.035   2.236  13.851 -0.3062 -0.2093  0.8810
  119MPD2    C3 1815   1.096   2.269  13.730 -0.3035  0.3408  0.6458
  119MPD2    C4 1816   1.216   2.210  13.698  0.4442  0.1273  0.4073
  119MPD2    C5 1817   1.275   2.131  13.795  0.4206 -0.2666 -0.3320
  119MPD2     H 1818   0.948   2.292  13.884  0.4903  1.1181  0.7051
  119MPD2    H1 1819   1.275   2.228  13.609  0.8417 -1.0000  0.4394
  119MPD2    H2 1820   1.258   2.001  13.967 -1.0741 -1.4016 -1.3022
  119MPD2    H3 1821   1.378   2.105  13.776 -0.0495 -2.5211  0.2946
  119MPD2     N 1822   1.039   2.359  13.635 -0.4236 -0.2282  0.4278
  119MPD2    H5 1823   1.091   2.365  13.548  2.1492 -2.0705  1.8377
  119MPD2    N1 1824   1.015   2.070  14.038 -0.0284  0.5237 -0.2824
  119MPD2    H7 1825   1.065   2.010  14.103 -3.3677 -0.2784  1.5366
  120TCq2    C1 1826   0.918   2.424  13.643  0.1733 -0.5973  0.0559
  120TCq2    O2 1827   0.846   2.435  13.741 -0.3373 -0.2765 -0.5190
  120TCq2    C2 1828   0.869   2.468  13.520  0.6017 -0.4658  0.0244
  120TCq2    C3 1829   0.926   2.425  13.403  0.4878 -0.3951  0.2962
  120TCq2    C4 1830   0.869   2.456  13.280  0.3229 -0.1225  0.3303
  120TCq2    C5 1831   0.744   2.497  13.274  0.2614 -0.6206 -0.6448
  120TCq2    C6 1832   0.677   2.511  13.391 -0.0676  0.5072 -0.1881
  120TCq2    C7 1833   0.735   2.495  13.510  0.0881 -0.1862  0.0871
  120TCq2    C8 1834   0.537   2.532  13.387  0.8107  0.5515 -0.7864
  120TCq2    O4 1835   0.499   2.600  13.292  0.0883  0.8704  0.1413
  120TCq2    C9 1836   0.934   2.411  13.155  0.5104 -0.0020 -0.5331
  120TCq2    O5 1837   0.880   2.444  13.046  0.0465 -0.1894  0.0830
  120TCq2    O6 1838   1.045   2.359  13.163  0.5814  0.2527  0.3197
  120TCq2    H2 1839   1.022   2.375  13.402  0.5251 -0.3059 -0.7200
  120TCq2    H3 1840   0.698   2.496  13.175  0.3392  1.3215 -0.6873
  120TCq2    H4 1841   0.675   2.515  13.598 -0.1157 -0.7327  0.0773
  121TMC2    C1 1842   1.550   3.706  14.004  0.0143  0.3040  0.0361
  121TMC2    C2 1843   1.496   3.627  14.105 -0.8124 -0.0297  0.1475
  121TMC2    C3 1844   1.353   3.610  14.109 -0.8577  0.7496  0.4465
  121TMC2    C4 1845   1.456   3.776  13.930 -0.2929 -0.2998  0.0330
  121TMC2    C5 1846   1.322   3.765  13.940 -0.2833  0.9409 -0.3787
  121TMC2    C6 1847   1.266   3.677  14.024  0.7671  0.0089  0.4297
  121TMC2     C 1848   1.693   3.730  13.993  0.3774  0.0908 -0.0572
  121TMC2     O 1849   1.756   3.721  14.101 -0.0800  0.7360  0.0567
  121TMC2     H 1850   1.568   3.589  14.176  0.4072 -0.9856 -1.6243
  121TMC2    H1 1851   1.499   3.834  13.849  1.8956 -3.1955 -0.8443
  121TMC2    H2 1852   1.159   3.662  14.037  0.6203  0.1859 -0.6043
  121TMC2    C7 1853   1.245   3.833  13.839  0.2892 -0.3989  0.0704
  121TMC2    C8 1854   1.294   3.530  14.212 -0.1083 -0.0715 -0.5523
  121TMC2    O1 1855   1.299   3.896  13.752 -0.3625 -0.0532  0.4290
  121TMC2    O2 1856   1.181   3.546  14.253 -0.2594 -0.1507  0.2999
  121TMC2    O5 1857   1.385   3.513  14.301  0.0637  0.4455  0.5380
  121TMC2    H5 1858   1.454   3.456  14.261  0.5237 -0.0187  2.0041
  122MPD2     C 1859   1.962   3.849  13.924 -0.4324  0.3713 -0.0535
  122MPD2    C1 1860   1.855   3.831  13.838 -0.4092 -0.8729 -0.2297
  122MPD2    C2 1861   1.864   3.890  13.711  0.4956 -0.4554  0.0140
  122MPD2    C3 1862   1.976   3.955  13.667  0.3259  0.3190 -0.1857
  122MPD2    C4 1863   2.089   3.958  13.753  0.3326 -0.8051  0.2652
  122MPD2    C5 1864   2.071   3.921  13.884 -0.6574  0.1828 -0.0610
  122MPD2     H 1865   1.778   3.873  13.648  2.5029  1.2470 -3.2478
  122MPD2    H1 1866   2.179   4.014  13.733 -0.2240  0.1530  0.4188
  122MPD2    H2 1867   1.950   3.831  14.030 -1.9633  1.7526  0.0076
  122MPD2    H3 1868   2.156   3.935  13.951 -1.7174 -0.8519  1.5027
  122MPD2     N 1869   1.987   4.002  13.533  0.1625 -0.0631  0.2261
  122MPD2    H5 1870   2.084   4.009  13.504 -0.0453  0.0242 -0.4458
  122MPD2    N1 1871   1.732   3.777  13.876  0.7896  0.7241 -0.6806
  122MPD2    H7 1872   1.665   3.767  13.800  2.2798 -1.5825 -1.6947
  123MPD2     C 1873   3.832   1.301   9.209 -0.6045 -0.3678  0.1993
  123MPD2    C1 1874   3.814   1.432   9.246  0.1933 -0.0721  0.1405
  123MPD2    C2 1875   3.895   1.528   9.196  0.2059 -0.9183 -0.2005
  123MPD2    C3 1876   3.995   1.497   9.104  0.3738 -0.0163  0.2747
  123MPD2    C4 1877   4.017   1.361   9.068  0.4373  0.6729  0.1114
  123MPD2    C5 1878   3.939   1.268   9.132 -0.6289  0.0122 -0.4407
  123MPD2     H 1879   3.886   1.631   9.229 -1.0423 -0.4372 -2.0860
  123MPD2    H1 1880   4.098   1.315   9.013  0.2899  2.4374 -1.5651
  123MPD2    H2 1881   3.774   1.225   9.259 -1.6162  0.4209  0.2268
  123MPD2    H3 1882   3.961   1.162   9.125  0.5455  0.3151 -1.2816
  123MPD2     N 1883   4.081   1.601   9.063 -0.3071  0.3898  0.0522
  123MPD2    H5 1884   4.071   1.675   9.132  0.6061  1.6071 -1.1145
  123MPD2    N1 1885   3.711   1.464   9.336  0.0186  0.5134  0.0221
  123MPD2    H7 1886   3.655   1.391   9.377  0.7984 -1.3678 -2.2801
  124TCq2    C1 1887   4.168   1.605   8.956 -0.3220  0.3377  0.4306
  124TCq2    O2 1888   4.176   1.523   8.868  0.2242  0.0688 -0.2574
  124TCq2    C2 1889   4.251   1.723   8.961  0.6043  0.0628  0.4518
  124TCq2    C3 1890   4.314   1.766   8.845  0.5958  0.7261  0.4895
  124TCq2    C4 1891   4.417   1.864   8.846  0.2668  0.1063 -0.3605
  124TCq2    C5 1892   4.458   1.916   8.965 -0.1914  0.1508 -0.0251
  124TCq2    C6 1893   4.386   1.877   9.082  0.9649 -0.1314 -0.0787
  124TCq2    C7 1894   4.290   1.779   9.075 -0.7423 -0.4703  0.1360
  124TCq2    C8 1895   4.396   1.955   9.209  0.2592 -0.4162  0.2771
  124TCq2    O4 1896   4.318   1.928   9.299 -0.4440 -0.0229  0.2781
  124TCq2    C9 1897   4.482   1.903   8.722 -0.6095  0.1610 -0.5019
  124TCq2    O5 1898   4.543   2.009   8.720  0.2464 -0.1871  0.4768
  124TCq2    O6 1899   4.442   1.843   8.618 -0.4964  0.7709  0.4875
  124TCq2    H2 1900   4.295   1.711   8.754 -1.4870 -0.2555  1.5153
  124TCq2    H3 1901   4.535   1.992   8.955  1.1506 -1.1181  0.8723
  124TCq2    H4 1902   4.253   1.748   9.173 -0.2714  1.0009  0.7839
  125TMC2    C1 1903   1.373   3.842   9.173 -0.1070 -0.1977  0.1075
  125TMC2    C2 1904   1.263   3.757   9.168 -0.3695 -0.6816 -0.2916
  125TMC2    C3 1905   1.277   3.633   9.111 -0.1348 -0.0534  0.6676
  125TMC2    C4 1906   1.499   3.790   9.149 -0.0658  0.3294  0.3598
  125TMC2    C5 1907   1.507   3.664   9.100  0.0018  0.2723 -0.3840
  125TMC2    C6 1908   1.400   3.585   9.074  0.0965 -0.5862 -0.1580
  125TMC2     C 1909   1.348   3.982   9.153  0.2114  0.4433 -0.0298
  125TMC2     O 1910   1.235   4.011   9.181 -0.7922 -0.3643 -0.1265
  125TMC2     H 1911   1.167   3.804   9.185 -0.2147 -0.5653  0.2496
  125TMC2    H1 1912   1.581   3.848   9.191 -0.3856  1.4670 -0.6212
  125TMC2    H2 1913   1.413   3.484   9.038  0.1028 -0.1664 -1.3260
  125TMC2    C7 1914   1.633   3.590   9.094  0.0649 -0.3445 -0.0052
  125TMC2    C8 1915   1.161   3.554   9.087 -0.3538 -0.8693  0.2124
  125TMC2    O1 1916   1.642   3.491   9.021  0.4108 -0.0660  0.3300
  125TMC2    O2 1917   1.063   3.556   9.162  0.2743  0.9668 -0.3050
  125TMC2    O5 1918   1.156   3.514   8.958 -0.7332 -0.3082  0.1573
  125TMC2    H5 1919   1.236   3.531   8.904  0.5058 -1.9341  1.4633
  126MPD1     C 1920   1.454   4.443   8.960 -0.1403 -0.3964  0.3072
  126MPD1    C1 1921   1.550   4.356   8.912  0.0268  0.0976 -0.1392
  126MPD1    C2 1922   1.540   4.225   8.952  0.4509  0.3685  0.4355
  126MPD1    C3 1923   1.442   4.183   9.043  0.6273  0.5872 -0.5202
  126MPD1    C4 1924   1.351   4.278   9.093  0.1290 -0.0827  0.0347
  126MPD1    C5 1925   1.363   4.408   9.054 -0.1361 -0.5990 -0.0924
  126MPD1     H 1926   1.616   4.158   8.916 -0.6733  0.4864 -2.1494
  126MPD1    H1 1927   1.281   4.255   9.173  2.8270  0.6854  2.6466
  126MPD1    H2 1928   1.444   4.547   8.930  3.6613 -0.9657 -2.9131
  126MPD1    H3 1929   1.295   4.481   9.096  1.7502  0.1205  1.7405
  126MPD1     N 1930   1.442   4.048   9.083 -0.4241 -0.2227  1.0279
  126MPD1    H5 1931   1.522   3.996   9.048 -0.5524  0.7638 -0.7471
  126MPD1    N1 1932   1.646   4.394   8.810  0.3712  0.8821  0.7536
  126MPD1    H6 1933   1.665   4.494   8.823 -1.0955  1.1669  0.6851
  126MPD1    H7 1934   1.735   4.348   8.829  1.1869  3.0159  2.1595
  127MPD2     C 1935   2.545   2.608   9.757  0.5093 -0.5303 -0.1016
  127MPD2    C1 1936   2.484   2.603   9.875 -0.1862 -0.4526  0.7595
  127MPD2    C2 1937   2.502   2.701   9.970  0.1813 -0.4441  0.1496
  127MPD2    C3 1938   2.579   2.810   9.926  0.7034 -1.4128  0.7179
  127MPD2    C4 1939   2.638   2.818   9.803 -0.3139  0.0967  0.5089
  127MPD2    C5 1940   2.624   2.713   9.717 -0.7119  0.3427  0.8868
  127MPD2     H 1941   2.451   2.706  10.065 -0.7270 -3.0120 -0.2184
  127MPD2    H1 1942   2.701   2.904   9.782 -0.8972  0.2194 -0.7025
  127MPD2    H2 1943   2.540   2.528   9.684  1.5247  1.7043 -2.6373
  127MPD2    H3 1944   2.686   2.711   9.628 -1.7673 -1.1979  0.1819
  127MPD2     N 1945   2.583   2.914  10.020 -0.3492 -0.3535 -0.5575
  127MPD2    H5 1946   2.551   2.901  10.116 -0.7498  0.1353 -0.6278
  127MPD2    N1 1947   2.398   2.498   9.896 -0.0616 -1.0032  0.1228
  127MPD2    H7 1948   2.391   2.428   9.823  0.9961 -2.1378  1.0964
  128TCq2    C1 1949   2.315   2.469  10.005 -0.1718  0.6626 -0.2322
  128TCq2    O2 1950   2.310   2.525  10.114  0.0175  0.6663 -0.3586
  128TCq2    C2 1951   2.220   2.362   9.980 -0.0555  0.0827  0.4450
  128TCq2    C3 1952   2.131   2.327  10.075 -0.0627  0.6043 -0.7903
  128TCq2    C4 1953   2.039   2.229  10.053  0.1828  0.3235 -0.4123
  128TCq2    C5 1954   2.036   2.163   9.936 -0.3685 -0.1913  0.9321
  128TCq2    C6 1955   2.130   2.191   9.839 -0.2635  0.9265  0.5257
  128TCq2    C7 1956   2.221   2.295   9.857 -0.5506 -0.3150  0.4764
  128TCq2    C8 1957   2.153   2.105   9.722  1.2950  0.1932 -0.1378
  128TCq2    O4 1958   2.240   2.140   9.640  0.5108  0.0404  0.5142
  128TCq2    C9 1959   1.948   2.179  10.159 -0.4306  0.5193 -0.1766
  128TCq2    O5 1960   1.889   2.072  10.130  0.1758  0.0466 -0.0432
  128TCq2    O6 1961   1.944   2.243  10.265 -0.4845  0.0974 -0.6475
  128TCq2    H2 1962   2.124   2.386  10.166 -0.5480 -0.0789 -0.3784
  128TCq2    H3 1963   1.957   2.090   9.923 -0.4503  0.0210  0.1975
  128TCq2    H4 1964   2.302   2.308   9.786 -1.0132 -2.8473 -0.5000
  129MPD2     C 1965   1.240   3.126   1.427  0.2640 -0.2431 -0.1115
  129MPD2    C1 1966   1.127   3.178   1.487 -0.1819 -0.3213 -0.2237
  129MPD2    C2 1967   1.096   3.308   1.467 -0.3066 -0.0592  0.3586
  129MPD2    C3 1968   1.170   3.393   1.392 -0.2723 -0.3439  0.5172
  129MPD2    C4 1969   1.275   3.339   1.326  0.0927 -1.1604  0.3048
  129MPD2    C5 1970   1.311   3.210   1.346 -0.2226 -0.2649 -0.4545
  129MPD2     H 1971   1.011   3.355   1.515 -0.2894  1.0174 -0.6564
  129MPD2    H1 1972   1.329   3.387   1.246 -2.8513 -2.0990 -2.2482
  129MPD2    H2 1973   1.276   3.025   1.443  0.4833 -0.0781  0.4405
  129MPD2    H3 1974   1.396   3.169   1.293  0.2144 -2.7445  2.1659
  129MPD2     N 1975   1.132   3.526   1.383  0.0447  0.1443  0.6360
  129MPD2    H5 1976   1.045   3.539   1.433 -0.6689  0.2566 -0.6281
  129MPD2    N1 1977   1.038   3.105   1.567  0.1091  0.3213 -0.5278
  129MPD2    H7 1978   0.960   3.159   1.603 -1.8219 -3.0235  0.3226
  130TCq2    C1 1979   1.029   2.968   1.581  0.0301  0.1918  0.0112
  130TCq2    O2 1980   1.077   2.880   1.509 -0.2532  0.3820 -0.1169
  130TCq2    C2 1981   0.899   2.930   1.648  0.2300 -0.3388  1.3164
  130TCq2    C3 1982   0.842   3.012   1.741 -0.1720  0.2203  0.4292
  130TCq2    C4 1983   0.706   3.004   1.757  0.3379  0.2420 -1.0696
  130TCq2    C5 1984   0.629   2.911   1.698  0.1330  0.2938  0.1148
  130TCq2    C6 1985   0.688   2.823   1.615  0.0880 -0.6821  0.0173
  130TCq2    C7 1986   0.827   2.836   1.586 -0.5314  0.1934  0.1987
  130TCq2    C8 1987   0.606   2.735   1.543  0.1918 -0.3084  1.0910
  130TCq2    O4 1988   0.486   2.746   1.558  0.3871  0.1771 -0.3747
  130TCq2    C9 1989   0.640   3.093   1.852  0.3322  0.2763 -0.6793
  130TCq2    O5 1990   0.709   3.187   1.892 -0.2951 -0.0143 -0.5394
  130TCq2    O6 1991   0.518   3.107   1.843 -0.0438  0.5261 -0.1307
  130TCq2    H2 1992   0.895   3.093   1.791 -1.3572  1.3175 -0.0859
  130TCq2    H3 1993   0.521   2.919   1.707  0.2353  1.0860  0.6362
  130TCq2    H4 1994   0.882   2.772   1.518 -1.8824  0.4659 -1.1413
  131MPD2     C 1995   3.409   2.335   9.537 -0.8290  0.2199  0.5585
  131MPD2    C1 1996   3.534   2.290   9.512 -0.3884  0.0989  1.1955
  131MPD2    C2 1997   3.556   2.151   9.523 -0.1487 -0.0316  0.6343
  131MPD2    C3 1998   3.455   2.078   9.582 -0.6080 -0.3425 -0.0672
  131MPD2    C4 1999   3.335   2.134   9.613 -0.6453  0.5862  0.0988
  131MPD2    C5 2000   3.306   2.255   9.571 -0.2964  0.3508 -0.5107
  131MPD2     H 2001   3.642   2.098   9.485  0.0660  2.3699 -2.2494
  131MPD2    H1 2002   3.248   2.073   9.633  0.2501 -1.4808 -2.2207
  131MPD2    H2 2003   3.396   2.443   9.534  0.0112  0.4039  4.2007
  131MPD2    H3 2004   3.206   2.293   9.591  0.2292 -0.2106  3.1601
  131MPD2     N 2005   3.489   1.944   9.606 -0.5397 -0.4950 -0.7595
  131MPD2    H5 2006   3.568   1.915   9.549  0.1532 -0.1306  0.0097
  131MPD2    N1 2007   3.631   2.391   9.475 -0.1969  0.4704  0.3321
  131MPD2    H7 2008   3.600   2.487   9.486 -1.4002  0.0876  0.3113
  132TCq2    C1 2009   4.131   2.503   9.200 -0.4210  0.0935 -0.2861
  132TCq2    O2 2010   4.120   2.421   9.108  0.2815  0.4893  0.1981
  132TCq2    C2 2011   4.022   2.538   9.298  0.8772  0.7420  0.8330
  132TCq2    C3 2012   4.027   2.641   9.383 -1.0639 -0.4460 -0.8809
  132TCq2    C4 2013   3.934   2.659   9.482  0.2729  0.0580 -0.3123
  132TCq2    C5 2014   3.831   2.570   9.491  0.0781  0.2176 -0.0365
  132TCq2    C6 2015   3.827   2.475   9.391 -0.3345 -0.0146 -0.0244
  132TCq2    C7 2016   3.914   2.460   9.288 -0.3496 -0.6996  0.1140
  132TCq2    C8 2017   3.751   2.363   9.421 -0.1570 -0.2994 -0.2126
  132TCq2    O4 2018   3.785   2.254   9.374  0.1745 -0.2228  0.3773
  132TCq2    C9 2019   3.946   2.761   9.582 -0.0060  0.0786  0.9615
  132TCq2    O5 2020   3.867   2.746   9.680 -0.3368 -0.2055 -0.7503
  132TCq2    O6 2021   4.050   2.831   9.584 -0.4152 -0.1878 -0.2937
  132TCq2    H2 2022   4.111   2.710   9.389 -1.4137  0.2189 -3.8076
  132TCq2    H3 2023   3.759   2.577   9.572  2.6639  0.1717  2.2540
  132TCq2    H4 2024   3.912   2.375   9.220  1.2902 -0.9676  0.3978
  133MPD2     C 2025   2.952   3.285   8.836  0.7913 -0.6704  0.0625
  133MPD2    C1 2026   3.090   3.318   8.831 -0.3496 -0.2954 -0.3140
  133MPD2    C2 2027   3.179   3.228   8.883 -0.8996  0.0965  0.2527
  133MPD2    C3 2028   3.137   3.111   8.939  0.1090  0.0931  0.4438
  133MPD2    C4 2029   3.007   3.078   8.933  0.0372  0.6500 -0.0428
  133MPD2    C5 2030   2.916   3.165   8.890 -0.1106  0.1973 -0.0577
  133MPD2     H 2031   3.282   3.259   8.869 -0.7401 -0.8506 -0.7126
  133MPD2    H1 2032   2.963   2.986   8.969 -0.4950  0.5709 -0.8784
  133MPD2    H2 2033   2.875   3.344   8.788  0.9920  0.4300  1.0994
  133MPD2    H3 2034   2.812   3.138   8.898  0.3395 -0.7350  2.8969
  133MPD2     N 2035   3.224   3.009   8.984  0.0924 -0.1206  0.3933
  133MPD2    H5 2036   3.170   2.925   9.000 -1.4142  0.6988 -0.3500
  133MPD2    N1 2037   3.133   3.435   8.768  0.1739 -0.4080  0.1132
  133MPD2    H7 2038   3.063   3.496   8.725  1.1003  1.4979  1.3179
  134TCq2    C1 2039   3.249   3.506   8.783 -0.3482  0.0681  0.3450
  134TCq2    O2 2040   3.353   3.486   8.848 -0.3139 -0.2830 -0.1824
  134TCq2    C2 2041   3.247   3.637   8.715  0.1221 -1.1443 -0.5806
  134TCq2    C3 2042   3.362   3.693   8.672  0.3876  0.4799  0.5911
  134TCq2    C4 2043   3.346   3.802   8.590 -0.2665 -0.4537 -0.4490
  134TCq2    C5 2044   3.230   3.863   8.567  0.0830 -0.1248  0.1861
  134TCq2    C6 2045   3.118   3.806   8.620  0.1830  0.3228 -0.8565
  134TCq2    C7 2046   3.124   3.703   8.710  0.0404 -0.4874 -0.2224
  134TCq2    C8 2047   2.995   3.890   8.621 -0.7245  0.1056 -0.1096
  134TCq2    O4 2048   2.996   4.013   8.597  0.1011 -0.1442 -0.1782
  134TCq2    C9 2049   3.461   3.867   8.550 -0.1620 -0.1102  0.3115
  134TCq2    O5 2050   3.444   3.960   8.466  0.6502  0.5599  0.3821
  134TCq2    O6 2051   3.573   3.803   8.560  0.2006 -0.4196 -0.0393
  134TCq2    H2 2052   3.459   3.646   8.681 -1.4559 -3.3613  0.3129
  134TCq2    H3 2053   3.229   3.949   8.501 -0.9869 -0.2339  0.0630
  134TCq2    H4 2054   3.045   3.665   8.774 -1.3232 -0.5547 -1.9647
  135MPD2     C 2055   1.148   4.547   9.569  0.3248 -0.2405  0.0457
  135MPD2    C1 2056   1.194   4.424   9.587  0.2398 -0.1691  0.2866
  135MPD2    C2 2057   1.308   4.382   9.528 -0.3180 -0.4137  0.0011
  135MPD2    C3 2058   1.387   4.470   9.454 -0.0985 -0.0267 -0.4533
  135MPD2    C4 2059   1.338   4.599   9.434  0.3282  0.0991  0.8081
  135MPD2    C5 2060   1.219   4.638   9.494  0.3272 -1.1333  0.5084
  135MPD2     H 2061   1.344   4.281   9.544  0.7909 -0.1981 -1.0905
  135MPD2    H1 2062   1.402   4.666   9.378  1.6472 -1.8564 -0.0517
  135MPD2    H2 2063   1.069   4.600   9.622 -0.4576 -2.1440  0.8185
  135MPD2    H3 2064   1.174   0.013   9.481  0.3237 -1.2245 -0.1372
  135MPD2     N 2065   1.522   4.438   9.395 -0.3396 -0.0040  0.0507
  135MPD2    H5 2066   1.577   4.515   9.357 -0.3129  0.5342  1.1459
  135MPD2    N1 2067   1.124   4.328   9.658 -0.2206  0.6207 -0.0252
  135MPD2    H7 2068   1.146   4.232   9.632  0.4738  1.4478 -2.4543
  136TCq2    C1 2069   1.006   4.354   9.729 -0.5808  0.6817 -0.1023
  136TCq2    O2 2070   0.957   4.454   9.780  0.4465 -0.6007  0.4457
  136TCq2    C2 2071   0.932   4.233   9.764 -0.6117  1.4125 -1.2271
  136TCq2    C3 2072   0.937   4.136   9.664 -0.1976  0.2399  0.6587
  136TCq2    C4 2073   0.891   4.015   9.689  0.3699  0.1116 -0.3695
  136TCq2    C5 2074   0.838   3.994   9.811  0.8717 -0.1628 -0.8066
  136TCq2    C6 2075   0.839   4.092   9.906 -1.1504 -1.0217  0.1467
  136TCq2    C7 2076   0.892   4.214   9.890 -0.0564 -0.5274 -0.1585
  136TCq2    C8 2077   0.796   4.063  10.042  0.0364  0.4194  1.2230
  136TCq2    O4 2078   0.801   4.153  10.123  0.0078  0.3347 -0.0424
  136TCq2    C9 2079   0.860   3.923   9.587  0.0093 -0.0348 -0.4930
  136TCq2    O5 2080   0.841   3.804   9.618  0.4093  0.1041  0.3536
  136TCq2    O6 2081   0.887   3.966   9.475 -0.9234 -0.0036  0.2534
  136TCq2    H2 2082   0.961   4.163   9.562 -1.9065  1.4200  0.5614
  136TCq2    H3 2083   0.789   3.898   9.818 -0.7622  0.8699  1.9209
  136TCq2    H4 2084   0.885   4.299   9.957 -0.0797 -1.0200  0.4657
  137MPD2     C 2085   1.633   2.702   9.280 -0.9463 -0.2854  0.2215
  137MPD2    C1 2086   1.511   2.742   9.301  0.4043  0.2706 -0.1893
  137MPD2    C2 2087   1.471   2.748   9.433  0.5808  0.2022  0.7554
  137MPD2    C3 2088   1.556   2.716   9.540 -0.2850  0.3687  0.1482
  137MPD2    C4 2089   1.685   2.670   9.508  0.2097 -0.2395  0.3697
  137MPD2    C5 2090   1.722   2.672   9.379 -0.4891  0.6033  0.1642
  137MPD2     H 2091   1.369   2.773   9.463  0.7740  0.6058  1.0804
  137MPD2    H1 2092   1.750   2.634   9.587  2.1149  2.1227 -0.1022
  137MPD2    H2 2093   1.673   2.693   9.179  0.9704  0.8924  0.8692
  137MPD2    H3 2094   1.816   2.627   9.350 -1.3305 -0.5857 -0.7342
  137MPD2     N 2095   1.510   2.744   9.672 -0.4457 -0.4564 -0.7050
  137MPD2    H5 2096   1.417   2.785   9.675 -0.9262 -1.5157 -1.0449
  137MPD2    N1 2097   1.438   2.788   9.189 -0.4342  0.5330 -0.7759
  137MPD2    H7 2098   1.485   2.803   9.101  3.0782  3.0691  1.5391
  138TCq2    C1 2099   1.303   2.804   9.186  0.1792  0.6580  0.0708
  138TCq2    O2 2100   1.213   2.764   9.256  0.3568  0.9443 -0.2320
  138TCq2    C2 2101   1.257   2.854   9.062  0.7591 -0.4242  0.0851
  138TCq2    C3 2102   1.336   2.934   8.973  0.2262 -0.4466 -0.5137
  138TCq2    C4 2103   1.283   2.960   8.852 -0.2293 -0.7850 -0.6770
  138TCq2    C5 2104   1.160   2.920   8.814  0.4060  0.4184  0.3247
  138TCq2    C6 2105   1.088   2.854   8.907  0.0399  0.5386 -0.0625
  138TCq2    C7 2106   1.130   2.815   9.031 -0.3637  0.1032 -0.1242
  138TCq2    C8 2107   0.959   2.818   8.859 -0.1677 -0.1088  0.1633
  138TCq2    O4 2108   0.951   2.800   8.740  0.1993 -0.0023  0.1201
  138TCq2    C9 2109   1.361   3.058   8.776  0.5194  0.7053  0.1898
  138TCq2    O5 2110   1.481   3.076   8.812 -0.1633 -0.2585  0.3368
  138TCq2    O6 2111   1.315   3.100   8.665  0.2573 -0.1764 -0.9915
  138TCq2    H2 2112   1.434   2.973   8.999 -0.4372  0.3656  0.7860
  138TCq2    H3 2113   1.125   2.956   8.717  1.4013 -0.4104 -0.3441
  138TCq2    H4 2114   1.068   2.753   9.095  1.9237 -2.4744 -0.4275
  139TMC2    C1 2115   1.465   2.443  13.603  0.2657 -0.6848 -0.8839
  139TMC2    C2 2116   1.457   2.560  13.534  0.2480 -0.1386 -0.1580
  139TMC2    C3 2117   1.418   2.671  13.611 -0.3377 -0.4033 -0.2178
  139TMC2    C4 2118   1.449   2.443  13.741 -0.0284  0.1278  0.2877
  139TMC2    C5 2119   1.400   2.552  13.812  0.6351  0.0975 -0.5445
  139TMC2    C6 2120   1.384   2.673  13.744 -0.3722  0.2350 -0.2007
  139TMC2     C 2121   1.507   2.325  13.535  0.2162 -1.1603 -0.1847
  139TMC2     O 2122   1.574   2.244  13.601 -0.1088  0.5698 -0.6074
  139TMC2     H 2123   1.463   2.566  13.426 -1.2443 -1.8185 -0.3461
  139TMC2    H1 2124   1.458   2.345  13.788 -1.2847 -0.8754 -1.5802
  139TMC2    H2 2125   1.325   2.754  13.783 -1.7062 -0.4469 -0.7928
  139TMC2    C7 2126   1.326   2.525  13.935  0.0789 -0.0356 -0.7205
  139TMC2    C8 2127   1.379   2.783  13.523 -0.2237  0.7279 -0.0012
  139TMC2    O1 2128   1.247   2.614  13.973 -0.4101  0.0095 -0.1792
  139TMC2    O2 2129   1.327   2.765  13.409 -0.2157  0.5057 -0.5644
  139TMC2    O5 2130   1.376   2.889  13.602  0.1125 -0.0935  0.3216
  139TMC2    H5 2131   1.436   2.882  13.679  0.7095 -0.0662 -0.1408
  140MPD2     C 2132   1.592   2.257  13.179 -0.1211  0.1678 -0.3471
  140MPD2    C1 2133   1.562   2.220  13.309 -0.3740  0.7488 -0.6478
  140MPD2    C2 2134   1.591   2.089  13.351 -0.6569  0.3653  0.0035
  140MPD2    C3 2135   1.626   1.993  13.254 -0.1455  0.6841  0.0813
  140MPD2    C4 2136   1.651   2.029  13.126 -0.1414  0.4249 -0.0762
  140MPD2    C5 2137   1.639   2.163  13.094 -0.7627  0.2397 -0.2412
  140MPD2     H 2138   1.556   2.058  13.449  1.6275  1.4742  1.1502
  140MPD2    H1 2139   1.672   1.956  13.049  0.8354  0.0219  0.5754
  140MPD2    H2 2140   1.567   2.357  13.144  1.3440  1.3288  1.9531
  140MPD2    H3 2141   1.623   2.193  12.991 -1.2754  0.4703 -0.0967
  140MPD2     N 2142   1.637   1.850  13.280 -0.6299  0.0213 -0.5387
  140MPD2    H5 2143   1.675   1.797  13.202 -1.7629  1.4648 -2.1041
  140MPD2    N1 2144   1.508   2.317  13.394  0.1084 -0.0561 -0.1047
  140MPD2    H7 2145   1.457   2.392  13.350  0.9661  1.0572  0.8043
  141TCq2    C1 2146   2.095   3.464  14.507  0.0193  0.5648  0.4378
  141TCq2    O2 2147   2.066   3.527  14.402 -0.4435 -0.3933  0.2388
  141TCq2    C2 2148   2.072   3.533  14.632  0.4097  0.1933 -0.7401
  141TCq2    C3 2149   2.073   3.474  14.757  0.1922 -0.0677  0.2673
  141TCq2    C4 2150   2.063   3.539  14.874 -0.4092  0.3131 -0.2259
  141TCq2    C5 2151   2.047   3.676  14.867 -0.1666  0.1189  0.3193
  141TCq2    C6 2152   2.045   3.739  14.745  0.3292 -0.0835 -0.8022
  141TCq2    C7 2153   2.063   3.669  14.628 -0.7699 -0.2329 -0.2558
  141TCq2    C8 2154   2.077   3.887  14.747  0.6163  0.0993  0.7594
  141TCq2    O4 2155   2.047   3.946  14.851 -0.1023  0.1045  0.7242
  141TCq2    C9 2156   2.032   3.464  14.989  0.8731  0.7001  0.0013
  141TCq2    O5 2157   2.017   3.343  14.968 -0.0240 -0.1170 -0.2940
  141TCq2    O6 2158   2.015   3.525  15.099 -0.4489  0.6885  0.2098
  141TCq2    H2 2159   2.094   3.367  14.764 -1.9934 -0.3437  2.7648
  141TCq2    H3 2160   2.011   3.727  14.956 -1.0863  0.5383 -0.2915
  141TCq2    H4 2161   2.069   3.715  14.530 -1.2730 -0.9050 -0.6062
  142MPD2     C 2162   4.373   1.749  10.609 -0.4592 -0.2115  0.1769
  142MPD2    C1 2163   4.404   1.699  10.489  0.2070 -0.0165 -0.7780
  142MPD2    C2 2164   4.434   1.783  10.379 -0.4101 -0.4264 -0.5247
  142MPD2    C3 2165   4.439   1.920  10.399  0.4383  0.3956  0.2658
  142MPD2    C4 2166   4.409   1.967  10.521 -0.6436  0.5548 -0.0741
  142MPD2    C5 2167   4.379   1.881  10.623 -0.2800  0.0703  0.0503
  142MPD2     H 2168   4.470   1.746  10.284  1.4798  0.2628 -0.0695
  142MPD2    H1 2169   4.403   2.072  10.546 -0.3390  0.6551 -0.4418
  142MPD2    H2 2170   4.343   1.685  10.691 -0.3545 -0.9628 -0.3708
  142MPD2    H3 2171   4.364   1.918  10.724  1.4546  2.5308 -0.5915
  142MPD2     N 2172   4.462   2.008  10.298  0.3748  0.8095 -0.0115
  142MPD2    H5 2173   4.451   2.105  10.327 -1.8198  0.3524  0.7458
  142MPD2    N1 2174   4.414   1.558  10.482 -0.2483 -0.0253 -0.3127
  142MPD2    H7 2175   4.410   1.514  10.573 -0.5863 -1.0274 -0.8091
  143TCq2    C1 2176   4.460   1.985  10.162 -0.5569 -0.8949 -0.2373
  143TCq2    O2 2177   4.453   1.875  10.106 -0.2205  0.5864  0.7829
  143TCq2    C2 2178   4.466   2.105  10.069 -0.4546 -0.1717  0.0155
  143TCq2    C3 2179   4.514   2.228  10.110  0.2227 -0.0532 -0.8233
  143TCq2    C4 2180   4.513   2.329  10.029 -0.8357 -0.0924  0.0801
  143TCq2    C5 2181   4.461   2.321   9.900 -0.7393 -0.2010  0.3069
  143TCq2    C6 2182   4.436   2.193   9.852 -0.3305  0.2956 -0.1603
  143TCq2    C7 2183   4.435   2.088   9.937  0.3060  0.2272 -0.4355
  143TCq2    C8 2184   4.429   2.166   9.708 -0.1828  0.7350  0.5605
  143TCq2    O4 2185   4.407   2.047   9.672 -0.1918  0.3483  0.4638
  143TCq2    C9 2186   4.566   2.457  10.068  1.0098 -0.5074  0.1639
  143TCq2    O5 2187   4.591   2.550   9.982 -0.4788  0.4050  0.5416
  143TCq2    O6 2188   4.579   2.465  10.190  0.4936  0.0781  0.2800
  143TCq2    H2 2189   4.557   2.238  10.209 -0.4580  2.3464 -0.7685
  143TCq2    H3 2190   4.464   2.408   9.835  0.7357  0.2678  1.0164
  143TCq2    H4 2191   4.424   1.987   9.899  0.5827  0.1511 -0.3054
  144MPD2     C 2192   2.056   0.766   0.323 -0.2107  0.0267 -0.8071
  144MPD2    C1 2193   2.197   0.777   0.310 -0.0752  0.4818 -0.7829
  144MPD2    C2 2194   2.270   0.739   0.423 -1.5422 -0.2678 -0.6780
  144MPD2    C3 2195   2.209   0.690   0.537 -0.5206  0.2459 -0.7076
  144MPD2    C4 2196   2.071   0.684   0.540 -0.2307 -0.1031 -0.0574
  144MPD2    C5 2197   1.998   0.719   0.433 -0.5783 -0.3640 -0.6522
  144MPD2     H 2198   2.378   0.751   0.422 -1.6609  0.6918 -1.3652
  144MPD2    H1 2199   2.030   0.637   0.628  2.3670  0.4080  1.4068
  144MPD2    H2 2200   1.988   0.795   0.244 -0.5555  1.1452 -0.1029
  144MPD2    H3 2201   1.890   0.720   0.437 -0.5673  0.3514 -0.4937
  144MPD2     N 2202   2.281   0.658   0.658  0.2474 -0.0951 -0.5749
  144MPD2    H5 2203   2.224   0.651   0.742  0.6810 -0.8630 -0.3433
  144MPD2    N1 2204   2.264   0.824   0.194  0.2252 -0.3230 -0.1976
  144MPD2    H7 2205   2.365   0.816   0.200  0.0616 -0.1589  3.1088
  145TCq2    C1 2206   2.423   0.635   0.667 -0.5916  0.3721  1.0018
  145TCq2    O2 2207   2.500   0.640   0.573  0.2880  0.4304  0.3449
  145TCq2    C2 2208   2.468   0.615   0.801  0.2440 -0.2158 -0.0640
  145TCq2    C3 2209   2.393   0.577   0.908 -0.5002  0.1159  0.8008
  145TCq2    C4 2210   2.435   0.620   1.039  0.5647  0.0553 -1.2834
  145TCq2    C5 2211   2.543   0.699   1.057  0.0911  0.5772  0.4667
  145TCq2    C6 2212   2.614   0.729   0.946 -0.3752 -0.2312 -0.0093
  145TCq2    C7 2213   2.578   0.688   0.818  0.1828  0.2965 -0.2070
  145TCq2    C8 2214   2.715   0.830   0.946 -0.4372  0.0474  0.3374
  145TCq2    O4 2215   2.756   0.871   0.836 -0.1113 -0.6166 -0.3264
  145TCq2    C9 2216   2.355   0.584   1.149  0.1923  0.0361  0.2727
  145TCq2    O5 2217   2.319   0.679   1.222  0.1050  0.0282 -0.0446
  145TCq2    O6 2218   2.292   0.476   1.144  0.0523  0.6881  0.2648
  145TCq2    H2 2219   2.299   0.524   0.898 -0.5187  0.2462  0.2801
  145TCq2    H3 2220   2.567   0.724   1.160  0.7563  1.4878  0.0955
  145TCq2    H4 2221   2.629   0.726   0.730  0.2839 -0.4221 -0.4572
  146TMC2    C1 2222   3.738   4.451  12.613 -0.4797 -0.0276  0.5060
  146TMC2    C2 2223   3.632   4.487  12.531 -0.6522 -0.2684  0.3444
  146TMC2    C3 2224   3.642   4.463  12.396  0.2144 -0.1936  0.1229
  146TMC2    C4 2225   3.854   4.408  12.557 -0.0969  0.3120 -0.3314
  146TMC2    C5 2226   3.863   4.408  12.419  0.4355  0.4653 -0.4610
  146TMC2    C6 2227   3.759   4.420  12.334  0.3648  0.0424 -0.1460
  146TMC2     C 2228   3.729   4.500  12.751  0.0741  0.0205 -0.0726
  146TMC2     O 2229   3.640   4.571  12.786  0.2088 -0.2179  0.0368
  146TMC2     H 2230   3.539   4.515  12.579  0.2199  1.1470  1.2011
  146TMC2    H1 2231   3.951   4.421  12.605 -0.2173 -1.5304  0.3897
  146TMC2    H2 2232   3.750   4.389  12.230  0.6226  0.6640 -0.3509
  146TMC2    C7 2233   3.984   4.348  12.351 -0.0156 -0.2061 -0.8568
  146TMC2    C8 2234   3.522   4.484  12.312  0.0540 -0.4797  0.1012
  146TMC2    O1 2235   3.988   4.381  12.232 -0.3661 -0.3878 -0.2108
  146TMC2    O2 2236   3.425   4.551  12.341  0.3761 -0.2512  0.0506
  146TMC2    O5 2237   3.533   4.400  12.217  0.0716  0.4369  0.7126
  146TMC2    H5 2238   3.593   4.325  12.236 -0.0680  0.6145  1.8696
  147MPD2     C 2239   4.432   4.116  12.267  0.0973  0.5141 -0.2246
  147MPD2    C1 2240   4.401   4.097  12.401  1.0667 -0.5296  0.1993
  147MPD2    C2 2241   4.279   4.147  12.447  0.1162  0.0199 -0.3537
  147MPD2    C3 2242   4.187   4.213  12.365 -0.3375  0.0130 -0.6980
  147MPD2    C4 2243   4.215   4.219  12.228  0.1129  0.1321  0.2445
  147MPD2    C5 2244   4.336   4.167  12.185  0.2671 -0.3098  0.2337
  147MPD2     H 2245   4.258   4.143  12.554  2.5114  4.2733  0.2875
  147MPD2    H1 2246   4.160   4.267  12.148  1.5037  2.6186  0.7609
  147MPD2    H2 2247   4.527   4.087  12.224  0.7199 -0.4279  1.7890
  147MPD2    H3 2248   4.360   4.173  12.079  0.3579 -0.0169  0.2697
  147MPD2     N 2249   4.073   4.269  12.424 -0.2057  0.8364 -0.4151
  147MPD2    H5 2250   4.056   4.253  12.523  1.5156 -2.1023 -0.5811
  147MPD2    N1 2251   4.487   4.012  12.473 -0.3652  0.0618 -0.4655
  147MPD2    H7 2252   4.576   3.987  12.431 -0.8986  0.0933 -1.5991
  148MPD2     C 2253   3.561   3.127  10.309 -0.1323 -0.2669  0.2902
  148MPD2    C1 2254   3.671   3.070  10.253 -0.5343  0.3804 -0.1696
  148MPD2    C2 2255   3.658   2.942  10.202 -0.6593  0.6017 -0.4429
  148MPD2    C3 2256   3.536   2.878  10.200 -0.1582 -0.0743 -0.5414
  148MPD2    C4 2257   3.427   2.950  10.241  0.4079  0.7176 -0.3243
  148MPD2    C5 2258   3.440   3.068  10.304  0.2341  0.0775 -0.3177
  148MPD2     H 2259   3.741   2.884  10.165 -2.4451 -1.8902 -0.5106
  148MPD2    H1 2260   3.324   2.914  10.234  1.0649 -1.3361  0.6995
  148MPD2    H2 2261   3.568   3.225  10.354  2.1319  0.4066 -1.5396
  148MPD2    H3 2262   3.352   3.112  10.349  0.2211  1.6747 -1.9301
  148MPD2     N 2263   3.514   2.744  10.170 -0.4762 -0.3504 -0.0531
  148MPD2    H5 2264   3.417   2.716  10.157 -0.5602  0.0266 -0.2222
  148MPD2    N1 2265   3.804   3.127  10.246  0.2135  0.8280  0.3954
  148MPD2    H7 2266   3.873   3.059  10.215 -1.7294 -1.4591  1.1366
  149TCq2    C1 2267   3.837   3.257  10.261 -0.1728 -0.4231 -0.0526
  149TCq2    O2 2268   3.773   3.359  10.286 -0.4859 -0.6930  0.2346
  149TCq2    C2 2269   3.968   3.281  10.224 -0.0272  0.3306 -0.1644
  149TCq2    C3 2270   3.965   3.300  10.090  1.0203 -0.0039  0.3201
  149TCq2    C4 2271   4.035   3.222  10.006 -0.6870  0.0280  0.2046
  149TCq2    C5 2272   4.143   3.149  10.051  0.6865 -0.5774  0.6861
  149TCq2    C6 2273   4.155   3.135  10.190 -0.3115 -0.9480 -0.2926
  149TCq2    C7 2274   4.058   3.192  10.273  0.5103  0.0189  0.1385
  149TCq2    C8 2275   4.214   3.010  10.225  1.3121 -0.5459  0.3513
  149TCq2    O4 2276   4.251   2.936  10.134 -0.0521  0.0036  1.3885
  149TCq2    C9 2277   4.037   3.254   9.864  0.8908  0.3551  0.8788
  149TCq2    O5 2278   3.973   3.352   9.819  0.1536  0.1090 -0.2285
  149TCq2    O6 2279   4.083   3.158   9.795  0.4021 -0.5393 -0.1963
  149TCq2    H2 2280   3.886   3.357  10.043  3.0278  2.6468  0.1738
  149TCq2    H3 2281   4.214   3.104   9.983  1.9457  0.8326  1.0620
  149TCq2    H4 2282   4.045   3.163  10.377  0.2876  0.6960  0.2975
  150MPD2     C 2283   0.915   2.329  12.132  0.1224 -0.2370  0.0708
  150MPD2    C1 2284   0.991   2.279  12.027  0.0221 -0.3826 -0.5586
  150MPD2    C2 2285   1.125   2.301  12.029 -0.3725 -0.2713  0.0734
  150MPD2    C3 2286   1.189   2.358  12.137 -0.0226 -0.3099  0.3809
  150MPD2    C4 2287   1.111   2.388  12.243  0.7960  0.3697 -0.4418
  150MPD2    C5 2288   0.978   2.375  12.244  0.1002  0.2893  0.1733
  150MPD2     H 2289   1.179   2.259  11.946  0.8383  1.1715  0.1182
  150MPD2    H1 2290   1.149   2.422  12.339 -1.2502  1.6271 -0.0792
  150MPD2    H2 2291   0.808   2.317  12.132 -0.0067  0.9115 -0.7794
  150MPD2    H3 2292   0.924   2.410  12.331  0.9291 -1.4179  1.3764
  150MPD2     N 2293   1.332   2.359  12.130  0.4750  0.0553  0.2571
  150MPD2    H5 2294   1.380   2.338  12.044  1.6471  0.3770  0.8330
  150MPD2    N1 2295   0.917   2.226  11.918  0.2594  1.0621  0.9002
  150MPD2    H7 2296   0.816   2.224  11.928  0.3720  0.8844  1.9854
  151TCq2    C1 2297   1.408   2.412  12.233 -0.0805 -0.6722 -0.5606
  151TCq2    O2 2298   1.375   2.467  12.340  0.0188  0.6415  0.0975
  151TCq2    C2 2299   1.547   2.393  12.204 -0.2009  0.9950 -0.2037
  151TCq2    C3 2300   1.595   2.306  12.108 -0.1161 -0.2348 -0.5707
  151TCq2    C4 2301   1.731   2.303  12.090 -0.7284  0.4827 -0.6824
  151TCq2    C5 2302   1.816   2.366  12.170  0.1268  0.2743  0.2777
  151TCq2    C6 2303   1.765   2.451  12.261  0.2597 -0.3784 -0.9261
  151TCq2    C7 2304   1.634   2.472  12.273 -0.3306  0.1363 -0.0470
  151TCq2    C8 2305   1.845   2.481  12.378 -0.0875 -0.4627 -0.0662
  151TCq2    O4 2306   1.848   2.598  12.415 -0.9346  0.0870 -0.1358
  151TCq2    C9 2307   1.787   2.212  11.989 -0.5533 -0.2739  0.3937
  151TCq2    O5 2308   1.711   2.113  11.954  0.3027 -0.0828  0.3363
  151TCq2    O6 2309   1.910   2.212  11.976 -0.4443  0.0387 -0.6676
  151TCq2    H2 2310   1.538   2.237  12.048 -2.2870  0.1722  1.0511
  151TCq2    H3 2311   1.924   2.360  12.155 -0.2058 -2.5006 -0.9326
  151TCq2    H4 2312   1.599   2.554  12.334 -1.2253 -0.6965  0.5641
  152MPD2     C 2313   1.041   1.992  12.726 -0.5106  0.2330  0.6079
  152MPD2    C1 2314   1.068   2.037  12.600  0.4670 -0.5883 -0.2513
  152MPD2    C2 2315   0.969   2.024  12.500  0.0504 -0.1126  0.3133
  152MPD2    C3 2316   0.848   1.963  12.530 -0.1948  0.9254  0.4141
  152MPD2    C4 2317   0.820   1.926  12.660  0.2645 -0.5483  0.2375
  152MPD2    C5 2318   0.917   1.943  12.758  0.2821  0.3085 -1.1501
  152MPD2     H 2319   1.001   2.054  12.401  0.4947  1.0056  0.7921
  152MPD2    H1 2320   0.724   1.892  12.697 -0.0304 -3.2791 -2.9823
  152MPD2    H2 2321   1.119   1.983  12.801  0.3863 -0.1976 -0.3817
  152MPD2    H3 2322   0.907   1.920  12.863  1.0839 -0.7533 -1.3020
  152MPD2     N 2323   0.746   1.960  12.431  0.5686 -0.5282  0.0200
  152MPD2    H5 2324   0.776   1.990  12.339 -0.2275  0.8758  0.2164
  152MPD2    N1 2325   1.200   2.083  12.580  0.1348 -0.5699  0.5309
  152MPD2    H7 2326   1.262   2.098  12.659  2.1156 -0.2765 -1.0869
  153TCq2    C1 2327   1.259   2.109  12.459 -0.2816 -0.3591  0.0774
  153TCq2    O2 2328   1.219   2.082  12.345  0.4284  0.2332 -0.2824
  153TCq2    C2 2329   1.397   2.136  12.483 -0.1665  0.2017 -0.1227
  153TCq2    C3 2330   1.501   2.084  12.405  0.3544  0.9869 -0.1712
  153TCq2    C4 2331   1.627   2.103  12.449 -0.2590  0.7812 -0.3699
  153TCq2    C5 2332   1.653   2.188  12.547  0.5059 -0.7473  0.4397
  153TCq2    C6 2333   1.546   2.245  12.620  0.1436  0.8690  0.4991
  153TCq2    C7 2334   1.423   2.224  12.586  0.3321 -0.2732  0.1439
  153TCq2    C8 2335   1.571   2.350  12.714 -0.0069 -0.4773 -0.3579
  153TCq2    O4 2336   1.490   2.438  12.733 -0.3671  0.1651  0.4109
  153TCq2    C9 2337   1.726   2.063  12.360 -0.5036 -0.2584 -0.1936
  153TCq2    O5 2338   1.699   1.977  12.276  0.4267 -0.1488  0.0906
  153TCq2    O6 2339   1.839   2.118  12.370  0.6498  0.3023 -0.0610
  153TCq2    H2 2340   1.471   2.034  12.313 -0.7522  1.4251 -0.0510
  153TCq2    H3 2341   1.758   2.199  12.572  0.6060 -0.3752 -0.1511
  153TCq2    H4 2342   1.348   2.272  12.648 -0.0514 -1.0226  0.2626
  154MPD2     C 2343   3.119   2.929   0.107 -0.5041  0.4993 -0.4868
  154MPD2    C1 2344   2.996   2.965   0.057  0.1008 -0.5010  0.0880
  154MPD2    C2 2345   2.886   2.892   0.093 -0.3510 -0.0076  0.2359
  154MPD2    C3 2346   2.893   2.784   0.178  0.8003  0.7649 -0.4240
  154MPD2    C4 2347   3.019   2.735   0.206  0.3220 -0.1393  0.7656
  154MPD2    C5 2348   3.128   2.814   0.182  0.0267 -0.1338 -0.3383
  154MPD2     H 2349   2.793   2.929   0.050  1.0723  0.3167 -2.5643
  154MPD2    H1 2350   3.036   2.648   0.269 -0.3810 -0.7545  0.1014
  154MPD2    H2 2351   3.213   2.983   0.095 -0.2167  0.6002  2.2932
  154MPD2    H3 2352   3.224   2.771   0.209  0.2990  0.9140  0.3874
  154MPD2     N 2353   2.769   2.728   0.219 -0.0744 -0.2096  0.5655
  154MPD2    H5 2354   2.687   2.786   0.208  0.4794  0.2702 -0.9874
  154MPD2    N1 2355   2.987   3.084  17.670  0.0200  0.1113  0.1572
  154MPD2    H7 2356   3.070   3.133  17.638 -0.6508  1.2591  0.1611
  155TCq2    C1 2357   2.866   3.157  17.655 -1.5958 -0.2083 -0.6911
  155TCq2    O2 2358   2.771   3.154   0.040  0.7115  1.0060 -0.1688
  155TCq2    C2 2359   2.869   3.256  17.547 -0.3004 -0.1902  0.5126
  155TCq2    C3 2360   2.983   3.274  17.469  0.0116 -0.1337  0.4286
  155TCq2    C4 2361   3.002   3.398  17.416  0.2625 -0.3181 -0.7143
  155TCq2    C5 2362   2.918   3.502  17.441  0.4369 -0.1776 -0.4154
  155TCq2    C6 2363   2.795   3.473  17.501 -0.2829  0.2316 -0.4346
  155TCq2    C7 2364   2.771   3.353  17.546 -0.0562 -0.5206 -0.3534
  155TCq2    C8 2365   2.680   3.564  17.508 -0.4952  0.6396 -1.0953
  155TCq2    O4 2366   2.569   3.517  17.528  0.0965 -0.2325  0.6059
  155TCq2    C9 2367   3.127   3.427  17.352  0.2736  0.0828 -0.8381
  155TCq2    O5 2368   3.139   3.533  17.285  0.2337  0.1615 -0.3219
  155TCq2    O6 2369   3.219   3.338  17.360 -0.2415 -0.0047  0.0706
  155TCq2    H2 2370   3.063   3.201  17.461  0.8105  0.9823 -1.8167
  155TCq2    H3 2371   2.948   3.601  17.407  1.2827 -0.1217  0.5021
  155TCq2    H4 2372   2.681   3.326  17.600  0.4110  1.2966  1.3585
  156MPD2     C 2373   1.398   3.710  11.988 -0.5083 -0.0752  0.1400
  156MPD2    C1 2374   1.268   3.742  11.954  0.0029 -0.4257  0.2391
  156MPD2    C2 2375   1.186   3.800  12.048 -0.2760  0.7119  0.3461
  156MPD2    C3 2376   1.231   3.852  12.166 -0.2453  0.0338 -0.3172
  156MPD2    C4 2377   1.359   3.826  12.196 -0.2401  0.6573  0.4290
  156MPD2    C5 2378   1.440   3.754  12.111 -0.4723  0.3173 -0.4816
  156MPD2     H 2379   1.081   3.822  12.033 -0.4250  0.5049  1.0837
  156MPD2    H1 2380   1.400   3.872  12.285  1.3499  3.0062 -1.5061
  156MPD2    H2 2381   1.465   3.654  11.923  1.3984  0.6290  1.4978
  156MPD2    H3 2382   1.539   3.725  12.145 -0.5622  0.2950 -0.2431
  156MPD2     N 2383   1.150   3.947  12.237  0.1517 -0.1844 -0.7748
  156MPD2    H5 2384   1.057   3.970  12.205 -0.1876  1.3299  1.3065
  156MPD2    N1 2385   1.212   3.687  11.835  0.8168  0.1288  0.5784
  156MPD2    H7 2386   1.277   3.637  11.775 -1.3896 -0.6801 -1.1345
  157TCq2    C1 2387   1.088   3.707  11.782  0.2395  0.4488 -0.3231
  157TCq2    O2 2388   0.999   3.765  11.838  0.0839 -0.3175  0.4635
  157TCq2    C2 2389   1.085   3.703  11.635  0.6025  0.1012 -0.0299
  157TCq2    C3 2390   1.195   3.663  11.561  0.3122  0.3168 -0.5792
  157TCq2    C4 2391   1.221   3.729  11.447 -0.1370 -0.4209  0.1460
  157TCq2    C5 2392   1.138   3.835  11.407 -0.0233  0.2124  0.7505
  157TCq2    C6 2393   1.031   3.872  11.478 -0.2800  0.2453  0.5874
  157TCq2    C7 2394   1.002   3.805  11.590  0.2988  0.4413 -0.4630
  157TCq2    C8 2395   0.986   4.007  11.444 -0.3232 -0.1824 -0.6344
  157TCq2    O4 2396   1.062   4.076  11.381 -0.0504  0.1609 -0.0984
  157TCq2    C9 2397   1.342   3.714  11.379  0.5173  0.2029  0.3114
  157TCq2    O5 2398   1.377   3.801  11.298  0.5146  0.0005  0.1938
  157TCq2    O6 2399   1.423   3.626  11.420  0.0937  0.1016 -0.0631
  157TCq2    H2 2400   1.262   3.581  11.585 -1.9968 -0.9552  1.5017
  157TCq2    H3 2401   1.161   3.883  11.313 -0.8089 -3.6842 -1.4223
  157TCq2    H4 2402   0.922   3.841  11.654  1.1290  0.6392  0.4507
  158TMC2    C1 2403   0.874   3.220  13.534  0.0520  0.4726 -0.5003
  158TMC2    C2 2404   0.834   3.236  13.404 -0.0859 -0.1029 -0.6412
  158TMC2    C3 2405   0.697   3.256  13.387 -0.5388  0.0484  0.7108
  158TMC2    C4 2406   0.784   3.218  13.638  0.1572  0.2260  0.2438
  158TMC2    C5 2407   0.650   3.231  13.609 -0.1811  0.4447  0.5167
  158TMC2    C6 2408   0.609   3.255  13.485 -0.0463 -0.0016  0.2386
  158TMC2     C 2409   1.018   3.218  13.557  0.3353 -0.0645  0.1110
  158TMC2     O 2410   1.087   3.250  13.461 -0.0918  0.0668  0.4491
  158TMC2     H 2411   0.906   3.249  13.323  2.4839 -1.3628  1.4523
  158TMC2    H1 2412   0.818   3.212  13.741 -2.9881  0.4432  1.3093
  158TMC2    H2 2413   0.503   3.262  13.466 -0.1431  0.4703  0.9638
  158TMC2    C7 2414   0.551   3.197  13.702  0.2904  0.2386  0.1196
  158TMC2    C8 2415   0.655   3.286  13.250 -0.2305  0.5925  0.2604
  158TMC2    O1 2416   0.435   3.228  13.678  0.2755  0.2503 -0.0720
  158TMC2    O2 2417   0.706   3.229  13.157  0.6300  0.2745 -0.0415
  158TMC2    O5 2418   0.564   3.382  13.250 -0.1297  0.3294 -0.5482
  158TMC2    H5 2419   0.562   3.429  13.336 -0.6666  0.7561 -0.7951
  159MPD2     C 2420   1.423   3.256  13.865 -0.2128  0.3988 -0.4401
  159MPD2    C1 2421   1.322   3.217  13.945 -0.2572  0.2911  0.3010
  159MPD2    C2 2422   1.203   3.187  13.879  0.0867  0.2501 -0.4363
  159MPD2    C3 2423   1.191   3.199  13.744 -0.7032 -0.0621 -0.7867
  159MPD2    C4 2424   1.302   3.237  13.663 -0.1344 -0.4195  0.0948
  159MPD2    C5 2425   1.419   3.263  13.730  0.3712  0.7519  0.4071
  159MPD2     H 2426   1.113   3.166  13.937  0.0057 -0.3353 -0.7720
  159MPD2    H1 2427   1.297   3.248  13.555  0.9448 -0.7518  0.0085
  159MPD2    H2 2428   1.519   3.277  13.910 -0.8730  2.0200  0.2291
  159MPD2    H3 2429   1.509   3.299  13.681  0.0968  0.7490 -0.0935
  159MPD2     N 2430   1.059   3.193  13.689 -0.0891  0.3148  0.5949
  159MPD2    H5 2431   0.982   3.173  13.752  0.5581 -0.1345  1.2371
  159MPD2    N1 2432   1.340   3.210  14.092 -0.4401  0.4094  0.0732
  159MPD2    H7 2433   1.423   3.237  14.144 -0.1813 -1.2811  0.5212
  160TMC2    C1 2434   2.033   1.240   1.150  0.1942 -0.0347 -0.1405
  160TMC2    C2 2435   2.095   1.113   1.145 -0.0375 -0.4006  0.2722
  160TMC2    C3 2436   2.194   1.100   1.052 -0.0009 -0.1882  0.1638
  160TMC2    C4 2437   2.079   1.345   1.074 -0.4198 -0.2463 -0.0205
  160TMC2    C5 2438   2.185   1.326   0.985  0.6639 -0.6770 -0.3693
  160TMC2    C6 2439   2.242   1.203   0.979 -0.2479 -0.3010  0.1500
  160TMC2     C 2440   1.927   1.276   1.241 -0.0972 -0.2692  0.3155
  160TMC2     O 2441   1.914   1.204   1.340 -0.4371 -0.0627  0.0630
  160TMC2     H 2442   2.057   1.035   1.210 -0.1938 -0.0113  0.6577
  160TMC2    H1 2443   2.044   1.446   1.088  1.5221  0.2668  1.1314
  160TMC2    H2 2444   2.318   1.181   0.905 -0.4003  0.3602 -0.1985
  160TMC2    C7 2445   2.245   1.432   0.898 -0.0284 -0.8671 -0.1878
  160TMC2    C8 2446   2.285   0.986   1.061  0.0340  0.0806 -0.8633
  160TMC2    O1 2447   2.290   1.395   0.790 -0.5630  0.7466 -0.0063
  160TMC2    O2 2448   2.405   0.994   1.029  0.0465 -0.3164  0.6080
  160TMC2    O5 2449   2.230   0.896   1.146  0.0890  0.2204 -0.1592
  160TMC2    H5 2450   2.284   0.818   1.169 -0.5152 -0.5778 -1.4396
  161MPD2     C 2451   1.706   1.434   1.397 -0.1916  0.1276 -0.2673
  161MPD2    C1 2452   1.735   1.441   1.262 -0.5916 -0.3040 -0.0949
  161MPD2    C2 2453   1.662   1.525   1.186 -0.2543 -0.7105 -0.1412
  161MPD2    C3 2454   1.557   1.593   1.225  0.1519  0.4671 -0.0603
  161MPD2    C4 2455   1.527   1.589   1.356 -0.6446  0.2540  0.2846
  161MPD2    C5 2456   1.607   1.513   1.443  0.0881  0.2288  0.0674
  161MPD2     H 2457   1.697   1.527   1.084  1.0928 -2.6262  0.2893
  161MPD2    H1 2458   1.444   1.638   1.405 -0.9060 -0.6724  0.7777
  161MPD2    H2 2459   1.753   1.362   1.463 -0.0683  1.2138  0.8224
  161MPD2    H3 2460   1.578   1.511   1.548 -0.8327 -1.0181 -0.2106
  161MPD2     N 2461   1.478   1.673   1.139 -0.3372 -0.0487 -0.0168
  161MPD2    H5 2462   1.409   1.732   1.184 -0.9334 -0.2150 -0.7178
  161MPD2    N1 2463   1.842   1.376   1.195  0.0834  0.3326  0.7754
  161MPD2    H7 2464   1.856   1.400   1.097 -1.7123  1.3452  0.7698
  162TMC2    C1 2465   4.493   3.429   1.230 -0.3877 -0.7021 -0.3109
  162TMC2    C2 2466   4.533   3.547   1.291 -0.0207  0.1450  0.0130
  162TMC2    C3 2467   4.555   3.541   1.423  1.0910  0.6165 -0.6776
  162TMC2    C4 2468   4.459   3.312   1.295 -0.0998  0.3082 -0.4724
  162TMC2    C5 2469   4.475   3.320   1.426 -0.9770  0.4186 -0.3025
  162TMC2    C6 2470   4.508   3.435   1.497  0.4286  0.1684 -0.8613
  162TMC2     C 2471   4.471   3.429   1.087 -0.0334 -0.4391  0.4195
  162TMC2     O 2472   4.449   3.320   1.032 -0.3352  0.1606 -0.2578
  162TMC2     H 2473   4.583   3.625   1.234  0.8018 -0.2583  0.1804
  162TMC2    H1 2474   4.448   3.222   1.235  0.6872 -0.6420  0.8011
  162TMC2    H2 2475   4.531   3.424   1.602 -0.0552  0.1465 -0.7599
  162TMC2    C7 2476   4.448   3.206   1.517  0.0685  0.0921  0.3045
  162TMC2    C8 2477   4.663   3.621   1.474 -0.5467 -0.1629  0.5117
  162TMC2    O1 2478   4.415   3.236   1.631 -0.1601  0.1514  0.5916
  162TMC2    O2 2479   0.035   3.655   1.410  0.3293 -0.7506 -0.4319
  162TMC2    O5 2480   4.636   3.644   1.607  0.0215 -0.0139  0.0056
  162TMC2    H5 2481   4.544   3.612   1.619  0.2961 -0.6587  0.3773
  163MPD2     C 2482   4.310   3.636   0.658 -1.1015  0.0702 -0.4647
  163MPD2    C1 2483   4.395   3.526   0.684 -0.1378 -0.1942  0.5529
  163MPD2    C2 2484   4.426   3.491   0.810  0.0397 -0.7836 -0.0621
  163MPD2    C3 2485   4.387   3.576   0.915 -0.6410 -0.5001 -0.4492
  163MPD2    C4 2486   4.306   3.683   0.891 -0.3289 -0.8975 -0.2001
  163MPD2    C5 2487   4.264   3.711   0.766  0.3663  0.4750  0.4982
  163MPD2     H 2488   4.475   3.396   0.830 -3.3671 -2.9692 -2.0426
  163MPD2    H1 2489   4.278   3.755   0.966  1.2554 -0.4238 -0.0789
  163MPD2    H2 2490   4.285   3.660   0.555  0.0911 -0.3483 -0.8511
  163MPD2    H3 2491   4.192   3.790   0.748 -0.0525 -0.4952 -1.9875
  163MPD2     N 2492   4.434   3.554   1.044 -0.1403 -0.3555 -0.4891
  163MPD2    H5 2493   4.418   3.623   1.116  2.3829 -0.2392 -0.0537
  163MPD2    N1 2494   4.438   3.447   0.579 -0.2574 -0.2172  0.3582
  163MPD2    H7 2495   4.377   3.453   0.498 -0.1384  2.7262  0.4820
  164TCq2    C1 2496   4.454   3.075  11.644 -0.8922  0.2046  0.3206
  164TCq2    O2 2497   4.455   3.112  11.761 -0.4914  0.1696  0.9082
  164TCq2    C2 2498   4.383   3.160  11.550  0.1301  0.0052 -0.4631
  164TCq2    C3 2499   4.409   3.145  11.416  0.0976 -0.2006  0.0499
  164TCq2    C4 2500   4.328   3.206  11.321 -0.5214  0.7993 -0.5961
  164TCq2    C5 2501   4.229   3.293  11.365 -0.0675 -0.5670 -0.2081
  164TCq2    C6 2502   4.204   3.306  11.505  0.3259  0.2841  0.9092
  164TCq2    C7 2503   4.290   3.249  11.597 -0.2761 -0.3923  0.0094
  164TCq2    C8 2504   4.082   3.356  11.558 -0.0111  0.4956 -0.0431
  164TCq2    O4 2505   4.060   3.332  11.675  0.2509 -0.5636 -0.3797
  164TCq2    C9 2506   4.338   3.185  11.179  0.3591 -0.2859  0.5747
  164TCq2    O5 2507   4.250   3.241  11.108  0.5073 -0.7429 -0.2289
  164TCq2    O6 2508   4.441   3.130  11.126  0.0510 -0.0485 -0.0735
  164TCq2    H2 2509   4.500   3.096  11.383  1.1324  0.2189  2.2762
  164TCq2    H3 2510   4.167   3.350  11.296  0.0614 -0.5638 -0.3203
  164TCq2    H4 2511   4.260   3.242  11.701  0.6514 -0.7190  0.2497
  165MPD2     C 2512   1.565   3.201   2.280  0.3116 -0.1636 -0.0260
  165MPD2    C1 2513   1.529   3.330   2.313 -0.5096 -0.0117 -0.2505
  165MPD2    C2 2514   1.628   3.427   2.321  0.5257 -0.9169 -0.3137
  165MPD2    C3 2515   1.758   3.398   2.282 -0.4503 -0.4354 -0.2453
  165MPD2    C4 2516   1.790   3.268   2.247 -0.7272  0.1623  0.3419
  165MPD2    C5 2517   1.695   3.174   2.249  0.4868 -0.4350  0.1311
  165MPD2     H 2518   1.602   3.531   2.341  1.1111 -1.1143  1.5316
  165MPD2    H1 2519   1.882   3.242   2.197  0.7399 -0.9242  3.6092
  165MPD2    H2 2520   1.493   3.121   2.268 -1.5094  0.9030  3.5687
  165MPD2    H3 2521   1.719   3.073   2.218  0.4438 -0.4241  0.0615
  165MPD2     N 2522   1.859   3.497   2.260  0.4047  0.0399  0.6154
  165MPD2    H5 2523   1.946   3.459   2.225  1.4972  3.4637 -0.4056
  165MPD2    N1 2524   1.399   3.356   2.345 -0.9278 -0.2577  0.1137
  165MPD2    H7 2525   1.339   3.275   2.330 -0.8992  0.2369 -2.6442
  166TCq2    C1 2526   1.847   3.628   2.291 -0.0107 -0.5928  0.0954
  166TCq2    O2 2527   1.751   3.706   2.307 -0.2996 -0.3628  0.6637
  166TCq2    C2 2528   1.978   3.693   2.264 -0.1687 -1.0109  0.0555
  166TCq2    C3 2529   2.094   3.640   2.310 -0.3401 -0.3132 -0.4604
  166TCq2    C4 2530   2.209   3.708   2.278  0.6997  0.0364  0.1291
  166TCq2    C5 2531   2.209   3.828   2.210  0.3835 -0.0958 -0.4069
  166TCq2    C6 2532   2.088   3.888   2.175 -0.1754 -0.8373 -0.2237
  166TCq2    C7 2533   1.976   3.815   2.201 -0.2886  0.0253  0.6988
  166TCq2    C8 2534   2.099   4.019   2.106 -0.3861  0.2578 -0.1453
  166TCq2    O4 2535   2.200   4.081   2.136  0.2764 -0.1640  0.3473
  166TCq2    C9 2536   2.337   3.653   2.315 -0.1673 -0.4174  0.1426
  166TCq2    O5 2537   2.441   3.694   2.258 -0.2565 -0.1074 -0.6464
  166TCq2    O6 2538   2.330   3.551   2.388 -0.1766  0.4080 -0.2569
  166TCq2    H2 2539   2.093   3.550   2.370  0.8319  0.7537  1.1428
  166TCq2    H3 2540   2.299   3.876   2.174  2.1148 -2.6771  0.4144
  166TCq2    H4 2541   1.881   3.858   2.170 -0.1725  0.1896  0.5678
  167TMC2    C1 2542   4.427   2.942  12.441  0.0295  0.6248 -0.4175
  167TMC2    C2 2543   4.520   2.995  12.527  0.6339 -0.6441  0.0887
  167TMC2    C3 2544   4.557   2.923  12.638 -0.8192 -1.3623 -0.0455
  167TMC2    C4 2545   4.369   2.815  12.473  0.1271  0.1043  0.0001
  167TMC2    C5 2546   4.409   2.744  12.583  0.0742  0.5794 -0.2952
  167TMC2    C6 2547   4.508   2.797  12.667  0.4063 -0.2772  0.4688
  167TMC2     C 2548   4.388   3.013  12.327  0.2868 -0.0967 -0.3233
  167TMC2     O 2549   4.408   3.134  12.324 -0.1036  0.1848  0.2026
  167TMC2     H 2550   4.567   3.089  12.501 -1.9778  0.8139  0.6382
  167TMC2    H1 2551   4.285   2.771  12.421  0.8312 -0.6881 -0.4663
  167TMC2    H2 2552   4.552   2.750  12.755 -2.1213 -1.4589  1.1011
  167TMC2    C7 2553   4.379   2.613  12.606 -0.5040 -0.6148  0.4237
  167TMC2    C8 2554   4.623   2.992  12.744  0.0210  0.3764 -0.3496
  167TMC2    O1 2555   4.374   2.584  12.725  0.1590  0.4706  0.1430
  167TMC2    O2 2556   4.598   2.963  12.857 -0.0168 -0.3899 -0.2719
  167TMC2    O5 2557   0.026   3.024  12.707 -0.2457 -0.3750  0.9324
  167TMC2    H5 2558   0.016   3.031  12.610 -0.4203 -3.5118  0.7363
  168MPD2     C 2559   4.261   3.073  12.058 -0.3753 -1.0319  0.3883
  168MPD2    C1 2560   4.313   2.953  12.098  0.5342  0.0302  0.4374
  168MPD2    C2 2561   4.284   2.840  12.025  0.1505  0.0891  0.1605
  168MPD2    C3 2562   4.212   2.838  11.910  0.0445 -0.0813 -0.0985
  168MPD2    C4 2563   4.178   2.960  11.856  0.1704  1.2594 -0.2437
  168MPD2    C5 2564   4.194   3.076  11.938 -1.0610 -0.3398  0.0608
  168MPD2     H 2565   4.324   2.749  12.069  1.1957  1.2852  1.6875
  168MPD2    H1 2566   4.124   2.973  11.763 -2.1751 -0.2971  0.9172
  168MPD2    H2 2567   4.269   3.164  12.116  1.6185 -1.0956  0.2088
  168MPD2    H3 2568   4.167   3.174  11.901 -0.8645 -1.2393 -2.4626
  168MPD2     N 2569   4.181   2.713  11.845  0.4521 -0.1069  0.1276
  168MPD2    H5 2570   4.129   2.723  11.758  0.7664 -1.8770 -0.2712
  168MPD2    N1 2571   4.361   2.928  12.229 -0.3630  0.6530  0.0707
  168MPD2    H7 2572   4.379   2.829  12.246 -1.1156  0.5915  0.5123
  169MPD1     C 2573   2.282   0.721   9.251 -0.1822  0.5120  0.3157
  169MPD1    C1 2574   2.151   0.738   9.296 -0.3232  0.3144  0.0812
  169MPD1    C2 2575   2.129   0.852   9.373 -0.2260  0.4248 -0.5097
  169MPD1    C3 2576   2.232   0.949   9.396  0.2186 -0.2434 -0.6872
  169MPD1    C4 2577   2.362   0.926   9.351  0.3456  0.7986 -0.0477
  169MPD1    C5 2578   2.382   0.810   9.277  0.0249 -0.4903 -0.1064
  169MPD1     H 2579   2.029   0.878   9.406 -0.1674  0.6112 -0.4783
  169MPD1    H1 2580   2.452   0.979   9.381 -0.2109  1.3617  0.6194
  169MPD1    H2 2581   2.314   0.631   9.199  0.2014 -0.9374  3.0876
  169MPD1    H3 2582   2.483   0.798   9.240 -0.5739  1.0441 -2.2286
  169MPD1     N 2583   2.200   1.062   9.475 -0.4605  0.1241  0.1436
  169MPD1    H5 2584   2.108   1.064   9.517 -0.5282  0.3479 -0.0150
  169MPD1    N1 2585   2.060   0.631   9.290  0.2102  0.1213 -0.8103
  169MPD1    H6 2586   1.963   0.660   9.281  0.8083  2.4365  0.3787
  169MPD1    H7 2587   2.080   0.576   9.206  0.2657 -0.6693 -0.2868
  170MPD1     C 2588   0.267   0.241  12.545 -0.5372 -0.0272 -0.0541
  170MPD1    C1 2589   0.201   0.359  12.568  0.0986  0.6787 -0.3867
  170MPD1    C2 2590   0.209   0.424  12.688 -0.1102 -0.3313  0.0009
  170MPD1    C3 2591   0.282   0.370  12.785 -0.0200 -0.1347 -0.1381
  170MPD1    C4 2592   0.337   0.242  12.763 -0.1889  0.9081 -0.2692
  170MPD1    C5 2593   0.337   0.184  12.645  0.0522 -0.1466  0.5131
  170MPD1     H 2594   0.161   0.520  12.705  0.3449  0.2395 -1.9309
  170MPD1    H1 2595   0.383   0.191  12.847 -0.6258  0.2919 -0.4015
  170MPD1    H2 2596   0.271   0.201  12.444  1.6698  0.7332 -0.2622
  170MPD1    H3 2597   0.394   0.094  12.629 -0.1285 -0.4630  1.6608
  170MPD1     N 2598   0.287   0.441  12.907 -0.2151 -0.1506  0.0032
  170MPD1    H5 2599   0.222   0.518  12.924 -0.1549 -0.2194  0.5482
  170MPD1    N1 2600   0.141   0.424  12.459  0.5970  0.5322 -0.3487
  170MPD1    H6 2601   0.112   0.359  12.386  1.6676 -0.0939 -0.2172
  170MPD1    H7 2602   0.057   0.474  12.490  1.2648  1.3424  0.1346
  171MPD1     C 2603   4.100   1.912  15.545  0.8881 -0.0350  0.3020
  171MPD1    C1 2604   4.007   1.862  15.459 -0.1282 -0.2603  0.7721
  171MPD1    C2 2605   3.971   1.725  15.472 -0.0321 -0.2517 -0.2851
  171MPD1    C3 2606   4.013   1.647  15.574  0.0615 -0.2746 -0.4944
  171MPD1    C4 2607   4.099   1.710  15.662  0.1093  0.7579 -1.1130
  171MPD1    C5 2608   4.141   1.840  15.652  0.4415  0.4531  0.0499
  171MPD1     H 2609   3.907   1.688  15.392  0.4960  0.8145 -1.1876
  171MPD1    H1 2610   4.129   1.655  15.751 -0.1416  0.1054 -1.4361
  171MPD1    H2 2611   4.132   2.015  15.543  1.4978 -0.2376 -0.6385
  171MPD1    H3 2612   4.213   1.870  15.726 -0.6449 -1.6790  1.9518
  171MPD1     N 2613   3.978   1.513  15.593  0.3537 -0.1490 -0.2585
  171MPD1    H5 2614   4.022   1.464  15.670 -1.9907 -0.2712  1.0237
  171MPD1    N1 2615   3.975   1.934  15.344 -0.2820  0.2825 -0.0958
  171MPD1    H6 2616   3.898   1.893  15.291 -0.6767  1.6684 -0.5963
  171MPD1    H7 2617   3.936   2.024  15.371 -1.7608  0.1028 -1.6354
  172MPD1     C 2618   2.893   0.634   0.112  0.0742 -0.1916  0.2367
  172MPD1    C1 2619   2.755   0.621   0.115 -0.1173  0.1289  0.1501
  172MPD1    C2 2620   2.686   0.698   0.205 -0.1147 -0.4410 -0.5329
  172MPD1    C3 2621   2.757   0.776   0.291  0.0305  0.1124 -0.1096
  172MPD1    C4 2622   2.897   0.774   0.294 -0.0483 -0.1137  0.0596
  172MPD1    C5 2623   2.968   0.702   0.199 -0.1773 -0.2304  0.2515
  172MPD1     H 2624   2.578   0.689   0.208  0.1052 -3.3252 -1.3647
  172MPD1    H1 2625   2.951   0.837   0.363  4.0267 -0.5187 -2.7689
  172MPD1    H2 2626   2.954   0.576   0.044  1.5358  1.1245  0.4270
  172MPD1    H3 2627   3.075   0.708   0.186 -0.3747  1.8244 -0.4455
  172MPD1     N 2628   2.701   0.868   0.382  0.0740 -0.1664  0.0588
  172MPD1    H5 2629   2.759   0.905   0.456 -0.0141 -2.3524  1.2053
  172MPD1    N1 2630   2.691   0.547   0.012 -0.5117 -0.4184 -0.7246
  172MPD1    H6 2631   2.755   0.474  17.674 -0.6971 -0.0347 -1.9212
  172MPD1    H7 2632   2.599   0.512   0.037 -0.4237 -2.4576 -3.1740
  173MPD1     C 2633   4.436   0.790  13.496 -0.3802 -0.1277  0.2911
  173MPD1    C1 2634   4.322   0.800  13.574  0.4972 -0.3007  0.4656
  173MPD1    C2 2635   4.316   0.712  13.689  0.1555 -0.0229  0.5539
  173MPD1    C3 2636   4.422   0.640  13.733 -0.1999  0.7511 -0.3308
  173MPD1    C4 2637   4.536   0.635  13.648 -0.0882 -0.2677  0.6119
  173MPD1    C5 2638   4.532   0.696  13.524  0.4542 -0.3881  0.8766
  173MPD1     H 2639   4.222   0.711  13.742 -0.6553 -0.0304 -0.8736
  173MPD1    H1 2640   4.632   0.592  13.674  0.0541 -0.3924 -0.1133
  173MPD1    H2 2641   4.442   0.837  13.398  0.7544  1.4913  1.1532
  173MPD1    H3 2642   4.623   0.701  13.466 -1.2693  0.5605 -1.7754
  173MPD1     N 2643   4.425   0.578  13.857  0.1389 -0.1602  0.3647
  173MPD1    H5 2644   4.343   0.593  13.915 -0.9961 -0.2390 -1.2354
  173MPD1    N1 2645   4.205   0.861  13.527 -0.5453 -0.7954 -1.3568
  173MPD1    H6 2646   4.151   0.900  13.605 -0.5388 -1.6630 -0.9143
  173MPD1    H7 2647   4.228   0.942  13.470  1.0879  0.1733  0.6628
  174MPD1     C 2648   0.203   0.201  14.740 -0.2956 -0.8199  0.5704
  174MPD1    C1 2649   0.233   0.181  14.607  0.0936 -0.5869  0.0216
  174MPD1    C2 2650   0.138   0.205  14.509  0.3427 -0.6092 -0.1461
  174MPD1    C3 2651   0.010   0.218  14.544  0.6126  0.0529  0.2157
  174MPD1    C4 2652   4.698   0.217  14.677 -0.2542  0.2508  0.2430
  174MPD1    C5 2653   0.074   0.210  14.771  0.5746  0.0701 -0.3948
  174MPD1     H 2654   0.170   0.203  14.405 -1.6183  0.9327 -0.7788
  174MPD1    H1 2655   4.594   0.230  14.702 -0.5915 -0.0139 -1.0459
  174MPD1    H2 2656   0.284   0.211  14.811 -1.6975 -0.9761  2.1719
  174MPD1    H3 2657   0.055   0.201  14.877  2.3714 -1.0970 -0.1748
  174MPD1     N 2658   4.631   0.254  14.448 -0.1646 -0.1866  0.2960
  174MPD1    H5 2659   4.537   0.277  14.478 -0.0108 -1.8565  2.0568
  174MPD1    N1 2660   0.368   0.179  14.567 -0.1163 -0.1206 -0.1064
  174MPD1    H6 2661   0.382   0.138  14.475  0.9780  0.1545 -0.0599
  174MPD1    H7 2662   0.423   0.123  14.632 -0.5997 -0.7633 -0.2548
  175MPD1     C 2663   1.599   1.248  15.960 -0.2156  0.6745 -0.5443
  175MPD1    C1 2664   1.548   1.344  16.039 -1.2398  0.4548 -0.1328
  175MPD1    C2 2665   1.622   1.458  16.079 -0.4111  0.1750 -0.3442
  175MPD1    C3 2666   1.750   1.464  16.053  0.0784 -0.1566 -0.5086
  175MPD1    C4 2667   1.808   1.367  15.972  1.0310  0.7782  0.0961
  175MPD1    C5 2668   1.732   1.256  15.926 -0.4310 -0.2061 -0.2190
  175MPD1     H 2669   1.563   1.532  16.131  0.3263  0.1165  0.5860
  175MPD1    H1 2670   1.915   1.366  15.954  1.0042 -3.2263  0.1071
  175MPD1    H2 2671   1.540   1.163  15.925 -0.1972  0.5729 -0.3296
  175MPD1    H3 2672   1.772   1.178  15.862  2.1397  0.4500  0.5691
  175MPD1     N 2673   1.832   1.574  16.079  0.1407  0.4178  0.3730
  175MPD1    H5 2674   1.925   1.569  16.038  0.0809 -0.5457  0.3565
  175MPD1    N1 2675   1.411   1.346  16.053 -0.0813  0.2639 -0.5137
  175MPD1    H6 2676   1.374   1.383  16.140 -1.9672 -0.6677 -0.9166
  175MPD1    H7 2677   1.369   1.255  16.034 -0.5826  0.2033  0.8972
  176MPD1     C 2678   4.354   3.228  17.308  0.2994 -0.3414  0.4984
  176MPD1    C1 2679   4.338   3.338  17.226  0.1581  0.2690 -0.0721
  176MPD1    C2 2680   4.290   3.455  17.277 -0.1405 -0.2925  0.1747
  176MPD1    C3 2681   4.278   3.465  17.414 -0.1834 -0.7349  0.1806
  176MPD1    C4 2682   4.306   3.352  17.495  0.0151  0.9144 -0.6539
  176MPD1    C5 2683   4.347   3.233  17.439 -0.0648  0.2321 -0.1780
  176MPD1     H 2684   4.263   3.537  17.212  1.2754 -2.1487 -2.7443
  176MPD1    H1 2685   4.302   3.354  17.603 -0.6382 -1.0560 -0.6501
  176MPD1    H2 2686   4.399   3.133  17.283  0.3173 -0.2088  0.0052
  176MPD1    H3 2687   4.373   3.145  17.497 -3.1458  0.1171  1.0233
  176MPD1     N 2688   4.234   3.592  17.469 -0.5173 -0.1025 -0.3368
  176MPD1    H5 2689   4.199   3.662  17.404  1.4516 -1.6843 -3.1444
  176MPD1    N1 2690   4.328   3.322  17.090 -0.2214  0.0989  0.0059
  176MPD1    H6 2691   4.362   3.411  17.054  3.1450 -0.6699  1.2652
  176MPD1    H7 2692   4.389   3.249  17.056  1.6973  1.2275  1.0134
  177MPD1     C 2693   2.435   2.948  10.946 -1.1408 -0.3143  0.1775
  177MPD1    C1 2694   2.446   3.085  10.925 -0.8268 -0.3880 -0.1671
  177MPD1    C2 2695   2.505   3.126  10.813 -0.2062  0.5105 -0.0744
  177MPD1    C3 2696   2.540   3.041  10.711 -0.0462  0.5793  0.0892
  177MPD1    C4 2697   2.512   2.909  10.718 -0.0210 -0.0327  0.3743
  177MPD1    C5 2698   2.461   2.864  10.839 -0.2629 -0.0347 -1.0271
  177MPD1     H 2699   2.531   3.230  10.794 -1.2789  0.1486 -3.4671
  177MPD1    H1 2700   2.532   2.839  10.638 -0.4829 -1.1323  1.2248
  177MPD1    H2 2701   2.390   2.910  11.036  1.7899 -2.2917  0.8034
  177MPD1    H3 2702   2.454   2.756  10.842 -0.2421 -0.0733 -2.2245
  177MPD1     N 2703   2.596   3.098  10.593 -0.5268  0.3385 -0.4014
  177MPD1    H5 2704   2.619   3.197  10.588 -1.3931  0.4995 -1.1735
  177MPD1    N1 2705   2.422   3.177  11.029 -0.1192  0.1412  0.3704
  177MPD1    H6 2706   2.341   3.151  11.085  0.3251  0.2145  1.0410
  177MPD1    H7 2707   2.405   3.269  10.988 -0.6576 -0.0425  0.1785
  178MPD1     C 2708   0.076   4.311   0.092  0.7848  0.1501 -0.3076
  178MPD1    C1 2709   0.103   4.210  17.694 -0.6117  0.3705 -0.3895
  178MPD1    C2 2710   0.176   4.245  17.584  0.6789  0.7454 -0.7128
  178MPD1    C3 2711   0.207   4.377  17.549  0.4378 -0.3363 -0.0114
  178MPD1    C4 2712   0.163   4.477  17.636  0.6103  0.4467  0.2222
  178MPD1    C5 2713   0.099   4.444   0.058  0.2689  0.0632  0.3571
  178MPD1     H 2714   0.198   4.167  17.512 -0.7365  1.0466 -1.4746
  178MPD1    H1 2715   0.171   4.583  17.619 -0.0440  0.3474 -0.7269
  178MPD1    H2 2716   0.013   4.292   0.177  0.3918  0.5114 -0.5167
  178MPD1    H3 2717   0.062   4.521   0.124  0.2333 -2.2371  3.0186
  178MPD1     N 2718   0.273   4.408  17.426  0.2181 -0.1569  0.3758
  178MPD1    H5 2719   0.323   4.333  17.380 -0.5816 -0.6814  0.3700
  178MPD1    N1 2720   0.091   4.067   0.028 -0.1463  0.3798 -0.1559
  178MPD1    H6 2721   0.023   4.058   0.103  1.3221  0.8530  1.2271
  178MPD1    H7 2722   0.057   4.020  17.639  1.7383 -2.0641  0.4559
  179MPD1     C 2723   4.532   2.597  15.303 -0.5434 -0.2705 -0.0919
  179MPD1    C1 2724   4.515   2.454  15.302  1.0622 -0.2212  0.5587
  179MPD1    C2 2725   4.477   2.385  15.417  0.5874  0.5856  0.6445
  179MPD1    C3 2726   4.462   2.460  15.538 -0.2626 -0.6170  0.4775
  179MPD1    C4 2727   4.475   2.596  15.533 -0.1468 -0.1626 -0.2537
  179MPD1    C5 2728   4.516   2.661  15.418  0.0819 -0.6410 -0.2592
  179MPD1     H 2729   4.437   2.284  15.415  0.4261  0.5800  3.9319
  179MPD1    H1 2730   4.463   2.652  15.624 -2.1907 -0.4469 -0.3300
  179MPD1    H2 2731   4.554   2.662  15.219  0.4029  0.9979  1.1379
  179MPD1    H3 2732   4.528   2.769  15.426 -0.6118 -0.4196 -2.0424
  179MPD1     N 2733   4.418   2.406  15.660 -0.0501 -0.1100  0.8284
  179MPD1    H5 2734   4.392   2.464  15.738 -0.9374  0.9165 -0.2279
  179MPD1    N1 2735   4.512   2.394  15.175  0.2240 -0.4860 -0.5926
  179MPD1    H6 2736   4.559   2.304  15.176 -0.9071 -1.0511  0.9421
  179MPD1    H7 2737   4.558   2.457  15.110  1.7941 -1.5399 -0.4874
  180MPD1     C 2738   4.317   3.309  15.174 -0.3106  0.2029  0.6926
  180MPD1    C1 2739   4.279   3.286  15.047  0.8462 -0.2414  0.8857
  180MPD1    C2 2740   4.251   3.391  14.964 -0.1224  0.6156 -0.8534
  180MPD1    C3 2741   4.286   3.515  15.004 -0.6304  0.5180  0.3840
  180MPD1    C4 2742   4.322   3.540  15.135 -0.3586  0.7570  0.3476
  180MPD1    C5 2743   4.337   3.436  15.217  0.4392  0.0834 -0.6721
  180MPD1     H 2744   4.216   3.374  14.862  0.0732  0.4371 -0.8918
  180MPD1    H1 2745   4.353   3.638  15.168 -0.4929  1.5078 -1.7257
  180MPD1    H2 2746   4.327   3.227  15.244 -0.4506 -0.9149 -0.6065
  180MPD1    H3 2747   4.362   3.451  15.321 -1.9533 -4.2646  0.5298
  180MPD1     N 2748   4.281   3.614  14.904 -0.2830 -0.0861 -0.1534
  180MPD1    H5 2749   4.244   3.581  14.816 -0.0106 -1.9482  0.4281
  180MPD1    N1 2750   4.244   3.151  15.011 -0.2340  0.3909  0.8929
  180MPD1    H6 2751   4.296   3.084  15.068  0.8179  1.3683  1.0677
  180MPD1    H7 2752   4.260   3.130  14.913 -0.7058  3.5078  0.1485
  181MPD1     C 2753   1.140   4.231  10.190 -0.6693  0.8540 -0.0367
  181MPD1    C1 2754   1.118   4.367  10.190  0.7058 -0.1679 -0.0732
  181MPD1    C2 2755   1.190   4.456  10.111  0.1283 -0.4170  0.2864
  181MPD1    C3 2756   1.269   4.403  10.015 -0.3840  1.2325 -0.3594
  181MPD1    C4 2757   1.283   4.269  10.009  1.0015  0.9149 -1.0912
  181MPD1    C5 2758   1.227   4.186  10.100 -0.8453 -0.3802 -0.2991
  181MPD1     H 2759   1.182   4.563  10.126 -2.4304 -0.3589 -1.4351
  181MPD1    H1 2760   1.344   4.218   9.935  0.5561 -0.8270 -0.2395
  181MPD1    H2 2761   1.105   4.163  10.266  3.6185 -0.1968  0.9995
  181MPD1    H3 2762   1.247   4.080  10.093 -0.5399 -0.5080  2.5464
  181MPD1     N 2763   1.353   4.476   9.926 -0.2904 -0.5569 -0.5174
  181MPD1    H5 2764   1.411   4.422   9.862  3.3700  1.2819  1.2486
  181MPD1    N1 2765   1.034   4.421  10.289  0.1591  0.5022 -0.3364
  181MPD1    H6 2766   0.949   4.366  10.293  1.2833 -1.2627 -0.4464
  181MPD1    H7 2767   1.004   4.517  10.275  2.3871  1.2212 -0.1516
  182MPD1     C 2768   3.265   3.765   1.519  0.1756 -0.1038  0.0692
  182MPD1    C1 2769   3.325   3.860   1.434  0.5879 -0.3697 -0.9208
  182MPD1    C2 2770   3.245   3.966   1.397 -0.3298  1.0183  0.1927
  182MPD1    C3 2771   3.106   3.953   1.400 -0.1968  0.1375  0.4304
  182MPD1    C4 2772   3.056   3.849   1.472 -0.1352 -0.4281  0.7930
  182MPD1    C5 2773   3.134   3.758   1.532 -1.1025  0.4499 -0.4657
  182MPD1     H 2774   3.293   4.058   1.367 -0.1436  1.2509  1.1852
  182MPD1    H1 2775   2.950   3.837   1.492 -0.5151  1.4137 -0.0368
  182MPD1    H2 2776   3.325   3.691   1.570  2.2473  0.8227 -1.0105
  182MPD1    H3 2777   3.094   3.682   1.597  0.6975  1.6823  2.0589
  182MPD1     N 2778   3.016   4.052   1.362 -0.0311 -0.7887  0.0062
  182MPD1    H5 2779   2.918   4.043   1.385  0.0612 -1.3296  0.2082
  182MPD1    N1 2780   3.463   3.875   1.432 -0.1789  0.2867  0.2084
  182MPD1    H6 2781   3.518   3.790   1.434  0.1387  0.5159  1.0547
  182MPD1    H7 2782   3.494   3.936   1.355  1.9407 -1.8204 -0.6036
  183MPD1     C 2783   3.900   0.680   9.805 -0.4097 -0.2372  0.7462
  183MPD1    C1 2784   3.827   0.792   9.803 -0.4290 -0.4323 -0.2204
  183MPD1    C2 2785   3.685   0.770   9.792 -0.5477 -0.1895 -0.2015
  183MPD1    C3 2786   3.630   0.643   9.792  0.5301  0.3084  0.5640
  183MPD1    C4 2787   3.716   0.532   9.790 -0.5706 -0.2898 -0.0466
  183MPD1    C5 2788   3.848   0.557   9.805 -0.5252  0.1757  0.3259
  183MPD1     H 2789   3.624   0.855   9.761 -0.6901 -0.3364 -0.3243
  183MPD1    H1 2790   3.689   0.427   9.782  1.8065 -0.9503  0.4599
  183MPD1    H2 2791   4.008   0.675   9.797 -0.6507 -0.2916 -2.8359
  183MPD1    H3 2792   3.906   0.466   9.814  0.6316  0.9850  1.0596
  183MPD1     N 2793   3.494   0.630   9.759  0.9554  0.2726 -0.0201
  183MPD1    H5 2794   3.438   0.714   9.767 -0.3522 -0.5149 -0.9502
  183MPD1    N1 2795   3.891   0.910   9.758  0.4091 -0.0328  0.2428
  183MPD1    H6 2796   3.846   0.998   9.781  0.3843 -0.4009  1.6124
  183MPD1    H7 2797   3.987   0.920   9.791  0.7957 -0.7752 -0.6804
  184MPD1     C 2798   1.842   2.229   9.586 -0.8108  0.2217  0.0919
  184MPD1    C1 2799   1.838   2.319   9.696  0.3710  0.7910 -0.4023
  184MPD1    C2 2800   1.922   2.433   9.692  0.6528 -0.4846 -0.2533
  184MPD1    C3 2801   2.008   2.444   9.589 -0.4212  0.0519 -0.2332
  184MPD1    C4 2802   2.008   2.364   9.481 -0.3563  0.5617 -0.2726
  184MPD1    C5 2803   1.926   2.255   9.485 -0.4955  0.1782 -0.2117
  184MPD1     H 2804   1.918   2.503   9.774 -0.8652 -1.7927  0.8060
  184MPD1    H1 2805   2.071   2.373   9.394  1.7567  0.8019  1.2762
  184MPD1    H2 2806   1.783   2.139   9.586  2.8641 -2.1677 -0.0935
  184MPD1    H3 2807   1.919   2.190   9.398 -0.7828  2.0768 -1.6045
  184MPD1     N 2808   2.112   2.541   9.589  0.0533  0.5985 -0.7762
  184MPD1    H5 2809   2.176   2.532   9.511 -0.6016 -0.0541 -1.2366
  184MPD1    N1 2810   1.739   2.305   9.788  0.4083  0.1531  0.4612
  184MPD1    H6 2811   1.761   2.366   9.866  1.3868  0.0541  0.2619
  184MPD1    H7 2812   1.738   2.208   9.819 -2.0873  0.2723  0.7397
  185MPD1     C 2813   2.678   2.901   8.902  0.2309  0.5803 -0.0996
  185MPD1    C1 2814   2.691   2.791   8.977  0.3955 -0.1655 -0.3289
  185MPD1    C2 2815   2.630   2.782   9.104  0.3614  0.3705  0.5221
  185MPD1    C3 2816   2.542   2.882   9.144 -0.6162 -0.6600 -0.0772
  185MPD1    C4 2817   2.529   3.000   9.067 -0.2688 -0.1188 -0.5129
  185MPD1    C5 2818   2.589   2.998   8.942  0.0283  0.7055 -0.1894
  185MPD1     H 2819   2.649   2.688   9.154 -0.1120 -0.2933 -0.5688
  185MPD1    H1 2820   2.477   3.085   9.112 -0.2774  0.4828 -1.6668
  185MPD1    H2 2821   2.736   2.919   8.812  1.0137  1.6829  0.6196
  185MPD1    H3 2822   2.568   3.089   8.888  2.2116 -0.2546 -2.6498
  185MPD1     N 2823   2.467   2.873   9.257 -0.7614 -0.7966  0.2196
  185MPD1    H5 2824   2.398   2.946   9.270  0.3324  0.4477 -0.9506
  185MPD1    N1 2825   2.783   2.695   8.939 -0.3539 -0.0842  0.6077
  185MPD1    H6 2826   2.753   2.607   8.980 -2.6237  0.8119  0.8528
  185MPD1    H7 2827   2.770   2.668   8.842 -0.8125  0.7941  0.4232
  186MPD1     C 2828   0.185   2.164  15.953 -0.2856  0.1179 -0.3510
  186MPD1    C1 2829   0.321   2.209  15.938 -0.3557  0.1243 -0.2578
  186MPD1    C2 2830   0.359   2.346  15.963 -0.0747  0.7572 -1.0946
  186MPD1    C3 2831   0.257   2.437  15.995 -0.3909 -0.1057 -0.3996
  186MPD1    C4 2832   0.127   2.389  16.012 -0.1831 -0.1311  0.4002
  186MPD1    C5 2833   0.094   2.255  15.990  0.5751 -0.6208 -0.0277
  186MPD1     H 2834   0.460   2.382  15.949 -0.5089  2.6579  0.6568
  186MPD1    H1 2835   0.050   2.461  16.037 -1.3116 -0.9431 -0.7017
  186MPD1    H2 2836   0.148   2.063  15.965  0.8007 -0.2889 -0.3567
  186MPD1    H3 2837   4.712   2.225  15.990  0.4038 -0.0276 -0.7426
  186MPD1     N 2838   0.271   2.576  16.016  0.3134 -0.2519 -0.2826
  186MPD1    H5 2839   0.186   2.610  16.059  0.3071 -1.5174  0.7008
  186MPD1    N1 2840   0.424   2.119  15.912 -0.2252 -0.1971 -0.4156
  186MPD1    H6 2841   0.380   2.040  15.866  1.9624 -0.3607 -2.1870
  186MPD1    H7 2842   0.487   2.168  15.849 -0.7323  0.5735 -0.3335
  187MPD1     C 2843   0.195   0.186  17.357  0.2848 -0.5373  0.2037
  187MPD1    C1 2844   0.137   0.161  17.476  0.0788 -0.1713 -0.7308
  187MPD1    C2 2845   4.722   0.170  17.483 -0.5613 -0.4179 -0.3904
  187MPD1    C3 2846   4.641   0.159  17.373 -0.3008  0.3708 -0.3253
  187MPD1    C4 2847   4.702   0.162  17.247  1.3752 -0.0625  0.0105
  187MPD1    C5 2848   0.114   0.180  17.247 -0.2359  0.5567  1.0734
  187MPD1     H 2849   4.677   0.171  17.582  1.2436 -4.9991  0.4733
  187MPD1    H1 2850   4.656   0.174  17.150 -3.3066 -3.3226  1.8284
  187MPD1    H2 2851   0.302   0.193  17.340  0.3524 -1.2542  0.3263
  187MPD1    H3 2852   0.162   0.183  17.150 -0.0521  2.8181  1.2331
  187MPD1     N 2853   4.503   0.166  17.381  0.4079 -0.5294 -0.3566
  187MPD1    H5 2854   4.456   0.177  17.470  0.3292  0.3824 -0.5081
  187MPD1    N1 2855   0.218   0.154  17.589 -0.1059  0.6707  0.3904
  187MPD1    H6 2856   0.297   0.090  17.577  0.0387  1.4586 -2.7566
  187MPD1    H7 2857   0.166   0.118  17.669 -4.1059 -0.3217 -2.7009
  188MPD1     C 2858   4.155   4.416   9.111  0.2354  0.2111  0.5193
  188MPD1    C1 2859   4.031   4.461   9.157 -0.5426 -0.0481  0.4627
  188MPD1    C2 2860   3.935   4.370   9.199  0.2346  0.0395  0.1060
  188MPD1    C3 2861   3.955   4.236   9.173 -0.2408  0.1280  0.4461
  188MPD1    C4 2862   4.059   4.193   9.106  0.1155 -0.7146  0.5059
  188MPD1    C5 2863   4.156   4.283   9.071  0.2290  0.6915  0.7893
  188MPD1     H 2864   3.845   4.410   9.246 -1.5312 -4.5312  0.6349
  188MPD1    H1 2865   4.058   4.097   9.056 -1.0860  0.5953 -2.0133
  188MPD1    H2 2866   4.236   4.477   9.074 -1.4834  1.8970 -0.4259
  188MPD1    H3 2867   4.239   4.250   9.010 -2.6921 -1.7998 -1.8555
  188MPD1     N 2868   3.863   4.133   9.200  0.0882  0.0943  1.1057
  188MPD1    H5 2869   3.893   4.041   9.170 -2.6072 -0.2602 -0.4820
  188MPD1    N1 2870   4.015   4.598   9.187 -0.4484 -0.6038 -0.4844
  188MPD1    H6 2871   3.920   4.636   9.192  0.9515  2.8235  0.3989
  188MPD1    H7 2872   4.065   4.652   9.117 -1.2519 -0.7254 -1.1540
  189MPD1     C 2873   1.957   0.034   0.482  0.4312  0.2318 -0.3513
  189MPD1    C1 2874   1.886   4.720   0.588  0.3596 -0.3354 -0.4123
  189MPD1    C2 2875   1.754   0.037   0.591  0.1728  0.6035  0.1059
  189MPD1    C3 2876   1.699   0.122   0.500  0.2987 -0.6485  0.3964
  189MPD1    C4 2877   1.781   0.154   0.395  0.3439 -0.2181 -0.6794
  189MPD1    C5 2878   1.905   0.111   0.385 -0.3745 -0.1895 -0.0879
  189MPD1     H 2879   1.686   0.007   0.669 -2.3823  1.4112 -1.8063
  189MPD1    H1 2880   1.750   0.221   0.317  0.7236 -0.2246 -0.8371
  189MPD1    H2 2881   2.057   0.001   0.455 -0.1629 -0.9351 -1.1650
  189MPD1    H3 2882   1.973   0.151   0.310 -0.3031 -0.9891 -0.4544
  189MPD1     N 2883   1.567   0.176   0.516  0.2059  0.1157  0.3766
  189MPD1    H5 2884   1.511   0.143   0.594  0.3971  1.6960  1.1790
  189MPD1    N1 2885   1.945   4.648   0.699  0.9506 -1.0476  0.0606
  189MPD1    H6 2886   1.942   4.708   0.781 -2.1649 -4.6016  2.5359
  189MPD1    H7 2887   2.040   4.618   0.684  1.0813 -0.8199  0.4251
  190MPD1     C 2888   4.397   4.190  15.505  0.0169 -0.6210 -0.3994
  190MPD1    C1 2889   4.403   4.095  15.608 -0.0640  0.1358 -0.5049
  190MPD1    C2 2890   4.522   4.080  15.667 -0.2776 -0.1064 -0.0360
  190MPD1    C3 2891   4.631   4.156  15.626  0.7611 -0.9344  0.4596
  190MPD1    C4 2892   4.623   4.252  15.524  0.6068 -0.5102 -0.5524
  190MPD1    C5 2893   4.503   4.268  15.469 -0.0742 -0.6620  0.9550
  190MPD1     H 2894   4.535   3.999  15.738  0.2690  0.6199  0.6916
  190MPD1    H1 2895   4.706   4.316  15.495 -0.3983  0.8055 -0.5418
  190MPD1    H2 2896   4.311   4.206  15.441  1.1251  0.0946 -1.7104
  190MPD1    H3 2897   4.486   4.347  15.397 -0.2218  0.2380  1.9730
  190MPD1     N 2898   0.032   4.130  15.690  0.4197 -0.0062 -0.0411
  190MPD1    H5 2899   0.026   4.074  15.775 -2.0509 -0.0184 -0.2234
  190MPD1    N1 2900   4.291   4.003  15.636  0.3239  0.4745 -0.1810
  190MPD1    H6 2901   4.286   3.961  15.728 -1.2729 -0.8599 -0.8848
  190MPD1    H7 2902   4.204   4.049  15.610 -0.5396 -1.1321 -0.1212
  191MPD1     C 2903   3.903   0.810  13.185  0.2125 -0.2446 -0.4586
  191MPD1    C1 2904   3.836   0.927  13.227 -0.4830  0.2952 -0.4032
  191MPD1    C2 2905   3.785   1.015  13.133 -0.3887 -0.4816 -0.3331
  191MPD1    C3 2906   3.819   0.998  12.999  0.3485 -0.3658  0.2792
  191MPD1    C4 2907   3.892   0.884  12.955  0.0390  0.5590 -0.1352
  191MPD1    C5 2908   3.935   0.797  13.052  0.3120 -0.2167 -0.6597
  191MPD1     H 2909   3.738   1.108  13.164  0.6615  0.1610 -0.6855
  191MPD1    H1 2910   3.911   0.871  12.850 -1.1230 -1.3022 -0.1267
  191MPD1    H2 2911   3.939   0.736  13.255 -2.2934 -1.5468 -0.5382
  191MPD1    H3 2912   3.989   0.710  13.016  0.4344 -1.0658  1.5650
  191MPD1     N 2913   3.765   1.100  12.907  0.1494  0.1813 -0.5589
  191MPD1    H5 2914   3.704   1.174  12.941  0.2509  0.3810 -0.8155
  191MPD1    N1 2915   3.798   0.931  13.366  0.6786 -0.3066 -0.2599
  191MPD1    H6 2916   3.761   1.017  13.406  2.4338  0.9604 -1.3187
  191MPD1    H7 2917   3.859   0.882  13.431  0.4650  0.3531  0.4253
  192MPD1     C 2918   3.055   1.757  12.620  0.0256 -0.2548  0.0900
  192MPD1    C1 2919   3.062   1.630  12.674 -0.2022  0.6368  0.7240
  192MPD1    C2 2920   3.181   1.563  12.689  0.1818  0.2429 -0.4329
  192MPD1    C3 2921   3.301   1.626  12.643  0.2467  0.0361 -0.3515
  192MPD1    C4 2922   3.294   1.747  12.588 -0.1075 -0.0365  0.5885
  192MPD1    C5 2923   3.172   1.809  12.570  0.3776 -0.1488  0.0393
  192MPD1     H 2924   3.172   1.463  12.730 -1.5573 -0.6251 -2.8935
  192MPD1    H1 2925   3.375   1.789  12.528 -0.2632  1.5110  1.4445
  192MPD1    H2 2926   2.960   1.806  12.600 -0.6170 -0.5283  2.4910
  192MPD1    H3 2927   3.168   1.902  12.514  2.3854  0.2550  0.5423
  192MPD1     N 2928   3.432   1.563  12.640 -0.7200  0.1001 -0.1933
  192MPD1    H5 2929   3.506   1.620  12.601 -1.7993  0.9229 -1.0761
  192MPD1    N1 2930   2.949   1.570  12.739 -0.4216  0.1835 -0.1360
  192MPD1    H6 2931   2.864   1.615  12.705  0.9480  2.9674  0.1373
  192MPD1    H7 2932   2.937   1.473  12.711 -2.7753  0.3685  0.2279
  193MPD1     C 2933   3.289   1.889  16.805  0.6313 -0.3957  0.3497
  193MPD1    C1 2934   3.398   1.805  16.777  0.9338 -0.1337 -0.2340
  193MPD1    C2 2935   3.513   1.826  16.852 -0.5968  0.0302 -0.3323
  193MPD1    C3 2936   3.527   1.936  16.939  0.2144 -0.9709 -0.5928
  193MPD1    C4 2937   3.419   2.017  16.962  0.3202  0.0926 -0.2919
  193MPD1    C5 2938   3.300   1.992  16.896  0.0490  0.3638 -0.8604
  193MPD1     H 2939   3.599   1.762  16.839 -1.1721 -1.2395  2.1262
  193MPD1    H1 2940   3.403   2.096  17.035 -1.5213 -0.2671 -0.2948
  193MPD1    H2 2941   3.200   1.875  16.745  0.2462 -0.5566  0.9550
  193MPD1    H3 2942   3.208   2.038  16.930  1.3131  2.1864  0.0832
  193MPD1     N 2943   3.646   1.954  17.018 -0.3584  0.2435  0.5656
  193MPD1    H5 2944   3.644   2.034  17.081 -4.0669 -0.1021  0.9015
  193MPD1    N1 2945   3.375   1.688  16.697 -0.0921 -0.5523  0.0625
  193MPD1    H6 2946   3.460   1.649  16.657  0.3459 -0.5166  0.9513
  193MPD1    H7 2947   3.309   1.708  16.623 -0.8076 -1.8654  0.3368
  194MPD1     C 2948   2.518   4.371  17.147  0.1778  0.2429  0.0396
  194MPD1    C1 2949   2.514   4.267  17.059 -0.9909 -0.0494  0.6279
  194MPD1    C2 2950   2.445   4.156  17.101  0.6989 -0.0274 -0.0312
  194MPD1    C3 2951   2.360   4.158  17.205  0.3590  0.1229  0.1551
  194MPD1    C4 2952   2.358   4.276  17.285  0.3591 -0.3778 -0.1492
  194MPD1    C5 2953   2.437   4.375  17.255  0.3989 -0.2683 -0.1463
  194MPD1     H 2954   2.459   4.064  17.044  1.3534  0.5519 -0.8014
  194MPD1    H1 2955   2.293   4.289  17.371 -0.5602 -2.4069 -0.5538
  194MPD1    H2 2956   2.580   4.456  17.119 -0.7782  1.1425  0.6298
  194MPD1    H3 2957   2.424   4.467  17.311  1.7849  0.2724 -0.7296
  194MPD1     N 2958   2.277   4.049  17.241 -0.1628 -0.1378  0.2462
  194MPD1    H5 2959   2.214   4.069  17.318 -1.2710 -0.2867 -0.6185
  194MPD1    N1 2960   2.611   4.261  16.959  0.3304 -0.0390 -0.2287
  194MPD1    H6 2961   2.641   4.347  16.914  2.1819  0.4933  2.0306
  194MPD1    H7 2962   2.582   4.194  16.888  0.7572  1.4362 -1.7754
  195MPD1     C 2963   3.772   0.722   0.856  0.1395 -0.0530 -0.7959
  195MPD1    C1 2964   3.663   0.684   0.792 -0.0646  0.2952 -0.3786
  195MPD1    C2 2965   3.679   0.576   0.704  0.0622  0.4215  0.1038
  195MPD1    C3 2966   3.787   0.485   0.708  0.5972 -0.2566 -0.2815
  195MPD1    C4 2967   3.892   0.524   0.789  0.0539  0.4877  0.0067
  195MPD1    C5 2968   3.888   0.648   0.846  0.2323  0.6976  0.7895
  195MPD1     H 2969   3.600   0.543   0.638 -1.6402  0.9220  1.9045
  195MPD1    H1 2970   3.987   0.473   0.787 -0.5513 -0.6167 -0.3252
  195MPD1    H2 2971   3.775   0.818   0.907  0.9327 -0.2689 -0.4377
  195MPD1    H3 2972   3.978   0.683   0.895  0.0399  0.7088  1.1342
  195MPD1     N 2973   3.801   0.376   0.625  0.0402 -0.1154  0.0359
  195MPD1    H5 2974   3.894   0.344   0.601  0.9101  2.2263  0.2959
  195MPD1    N1 2975   3.551   0.777   0.783 -0.0256 -0.3124 -0.3586
  195MPD1    H6 2976   3.467   0.730   0.749 -1.6704  2.0443  0.5201
  195MPD1    H7 2977   3.542   0.816   0.876  0.7923 -1.3243  0.1541
  196MPD1     C 2978   2.825   4.085   0.175 -0.5208  0.1156  0.2847
  196MPD1    C1 2979   2.897   4.192   0.114 -0.4751  0.4804 -0.4642
  196MPD1    C2 2980   3.013   4.238   0.165  0.1245 -0.2778 -0.0635
  196MPD1    C3 2981   3.067   4.177   0.276 -0.2761  0.8655 -0.1693
  196MPD1    C4 2982   3.004   4.073   0.339  0.3876 -0.3645 -0.2363
  196MPD1    C5 2983   2.869   4.043   0.300 -0.6029 -0.1498  0.0268
  196MPD1     H 2984   3.068   4.316   0.113 -0.5475 -0.4530 -1.0324
  196MPD1    H1 2985   3.046   4.021   0.424 -1.6843 -1.7381 -0.0402
  196MPD1    H2 2986   2.724   4.058   0.147 -0.3244  1.3976 -1.6965
  196MPD1    H3 2987   2.815   3.969   0.357  1.4527 -0.0425  2.0908
  196MPD1     N 2988   3.191   4.206   0.331  0.5937  0.0610 -0.4273
  196MPD1    H5 2989   3.216   4.175   0.424  1.8795  0.7659 -0.5336
  196MPD1    N1 2990   2.840   4.263   0.015 -0.1875 -0.1580 -0.1538
  196MPD1    H6 2991   2.916   4.320  17.672  0.3493  0.4413  1.8141
  196MPD1    H7 2992   2.773   4.210  17.654 -0.3746 -0.5062  0.3968
  197MPD1     C 2993   2.387   1.295   0.060 -0.2421 -0.1651 -0.1857
  197MPD1    C1 2994   2.306   1.401   0.088 -0.3980  0.3074 -0.3066
  197MPD1    C2 2995   2.317   1.513  17.695 -0.5668  0.8066  0.2819
  197MPD1    C3 2996   2.408   1.513  17.593  1.4224 -0.1132  0.7680
  197MPD1    C4 2997   2.478   1.399  17.558 -0.2424 -0.2796  0.0344
  197MPD1    C5 2998   2.468   1.289  17.642  0.4548 -0.5781 -0.0966
  197MPD1     H 2999   2.257   1.602   0.013  0.1831  1.3459  0.0426
  197MPD1    H1 3000   2.527   1.397  17.461  0.0191  0.3355  0.1484
  197MPD1    H2 3001   2.383   1.205   0.121 -1.6324 -0.5949 -0.9025
  197MPD1    H3 3002   2.533   1.204  17.627 -0.4697 -1.0643 -1.4232
  197MPD1     N 3003   2.428   1.627  17.505  0.2287  0.1069 -0.3195
  197MPD1    H5 3004   2.494   1.616  17.430  0.4497 -3.1697  0.3878
  197MPD1    N1 3005   2.209   1.397   0.188 -0.3690 -0.6226 -0.9427
  197MPD1    H6 3006   2.235   1.338   0.266  1.6627 -0.3821 -1.4342
  197MPD1    H7 3007   2.192   1.492   0.220  1.6497 -0.8898  0.8908
  198MPD1     C 3008   3.944   0.655  16.170  0.3436 -0.1336 -1.0422
  198MPD1    C1 3009   3.997   0.536  16.205 -0.0110 -0.4812  0.0884
  198MPD1    C2 3010   4.083   0.475  16.114 -0.1542  0.0728 -0.0263
  198MPD1    C3 3011   4.097   0.514  15.985  0.5369 -0.0421  0.2304
  198MPD1    C4 3012   4.022   0.621  15.936 -0.0977  0.1249  0.0843
  198MPD1    C5 3013   3.961   0.696  16.036 -0.7462 -0.4596 -0.7480
  198MPD1     H 3014   4.130   0.379  16.135  0.1727  0.5313  1.3613
  198MPD1    H1 3015   4.038   0.659  15.836  1.3106  1.0070  0.6401
  198MPD1    H2 3016   3.880   0.715  16.234  0.7180  0.2139 -0.9929
  198MPD1    H3 3017   3.910   0.783  15.996  0.7105 -0.2890 -2.2173
  198MPD1     N 3018   4.171   0.432  15.903 -0.0840  0.6775  0.3673
  198MPD1    H5 3019   4.214   0.356  15.953  0.4845  1.0275  0.4070
  198MPD1    N1 3020   4.012   0.505  16.344  0.9591  0.4913  0.5868
  198MPD1    H6 3021   3.926   0.515  16.397 -0.1171 -1.7824 -0.7708
  198MPD1    H7 3022   4.048   0.414  16.371 -2.4075 -0.8299  0.5542
  199MPD1     C 3023   0.972   0.783  10.546  0.0592  0.1785  0.6066
  199MPD1    C1 3024   0.894   0.755  10.440  0.4245  0.8105  0.1226
  199MPD1    C2 3025   0.956   0.718  10.322  0.1186 -0.3095 -0.5720
  199MPD1    C3 3026   1.096   0.728  10.304  0.2934  0.2345  0.2617
  199MPD1    C4 3027   1.172   0.747  10.416 -0.1638 -0.1668  0.5320
  199MPD1    C5 3028   1.110   0.768  10.541  0.7428  0.4446 -0.2485
  199MPD1     H 3029   0.889   0.705  10.238  1.2166 -1.6498 -1.2363
  199MPD1    H1 3030   1.281   0.748  10.413 -0.2335  1.1521 -1.7372
  199MPD1    H2 3031   0.934   0.814  10.642  0.5341  0.1116  0.8119
  199MPD1    H3 3032   1.171   0.782  10.629 -0.3118  0.4433  0.4848
  199MPD1     N 3033   1.167   0.718  10.181  0.7796 -0.4384 -0.6564
  199MPD1    H5 3034   1.268   0.720  10.185  0.7371  0.4201 -0.0733
  199MPD1    N1 3035   0.759   0.772  10.452 -0.9312  0.1243  0.1549
  199MPD1    H6 3036   0.703   0.718  10.386 -0.3252  0.5685 -0.7228
  199MPD1    H7 3037   0.731   0.784  10.549  0.1808 -0.7167  0.5742
  200MPD1     C 3038   0.726   0.869  15.986 -0.3849  0.8785  0.4053
  200MPD1    C1 3039   0.652   0.836  15.877 -0.0743  0.0279 -1.0238
  200MPD1    C2 3040   0.668   0.898  15.763 -0.0117 -0.7483  0.3837
  200MPD1    C3 3041   0.766   0.997  15.742  1.0989 -0.3177  0.4548
  200MPD1    C4 3042   0.856   1.022  15.844  0.2832 -0.0172  0.4144
  200MPD1    C5 3043   0.828   0.963  15.972 -0.2990  0.5148  0.3999
  200MPD1     H 3044   0.594   0.883  15.685  0.6215  1.5037 -0.6534
  200MPD1    H1 3045   0.932   1.098  15.835  0.1025  0.4116  2.4382
  200MPD1    H2 3046   0.703   0.825  16.082  0.3298 -0.2188  0.0740
  200MPD1    H3 3047   0.892   0.991  16.055 -1.4209 -3.3051  2.5918
  200MPD1     N 3048   0.750   1.088  15.628 -0.8377  0.3860 -0.7015
  200MPD1    H5 3049   0.680   1.064  15.559 -1.0272  1.3122 -0.8371
  200MPD1    N1 3050   0.540   0.755  15.897 -0.4860  0.1135  0.3679
  200MPD1    H6 3051   0.556   0.681  15.966  2.5834  1.9669  1.6312
  200MPD1    H7 3052   0.503   0.708  15.815  1.0708  0.0159 -0.2608
  201MPD1     C 3053   3.346   0.658  12.586 -0.1060  0.1535 -0.5146
  201MPD1    C1 3054   3.426   0.554  12.540 -0.2711  0.5533  0.0151
  201MPD1    C2 3055   3.438   0.439  12.607 -0.5110  0.9010  0.7272
  201MPD1    C3 3056   3.377   0.420  12.730  0.9408  0.0549 -0.5236
  201MPD1    C4 3057   3.304   0.524  12.780  0.6410  0.3858  0.3509
  201MPD1    C5 3058   3.269   0.633  12.702 -0.2026 -0.0580  0.0906
  201MPD1     H 3059   3.493   0.357  12.562  0.2276  0.8267  1.7609
  201MPD1    H1 3060   3.260   0.514  12.878  1.5928 -0.4667  0.6935
  201MPD1    H2 3061   3.324   0.746  12.527 -0.0776  0.9186  0.6311
  201MPD1    H3 3062   3.187   0.697  12.732  0.7589  0.6287  1.2623
  201MPD1     N 3063   3.402   0.288  12.793 -0.3722  0.3215  0.4313
  201MPD1    H5 3064   3.445   0.215  12.738 -1.4560 -0.5403  0.7288
  201MPD1    N1 3065   3.519   0.586  12.441 -0.3483 -0.2470  0.6136
  201MPD1    H6 3066   3.550   0.503  12.392 -0.9158  1.3345 -2.4065
  201MPD1    H7 3067   3.485   0.665  12.387 -1.2780 -1.8059 -1.0715
  202MPD1     C 3068   3.583   4.092   8.861 -0.1516 -1.3489  0.2747
  202MPD1    C1 3069   3.587   4.203   8.948 -0.0581  0.4169  0.4017
  202MPD1    C2 3070   3.471   4.214   9.027 -0.1265  0.3988  0.3357
  202MPD1    C3 3071   3.381   4.110   9.054  0.3066  0.2721 -0.9476
  202MPD1    C4 3072   3.397   3.992   8.984 -0.2319 -0.2493 -0.2157
  202MPD1    C5 3073   3.494   3.988   8.889  0.0487  0.1166  0.0455
  202MPD1     H 3074   3.464   4.300   9.091  0.5722  0.0805  0.8466
  202MPD1    H1 3075   3.342   3.899   9.001  0.6649 -0.7397  0.0114
  202MPD1    H2 3076   3.658   4.070   8.786  1.6438  0.2462  1.6292
  202MPD1    H3 3077   3.506   3.895   8.835 -0.5424 -0.6743  1.2619
  202MPD1     N 3078   3.288   4.113   9.163 -0.2356  0.2475  0.0613
  202MPD1    H5 3079   3.243   4.023   9.176  1.4115 -0.5509  0.2414
  202MPD1    N1 3080   3.660   4.321   8.913 -0.0316  0.1142 -0.0458
  202MPD1    H6 3081   3.753   4.300   8.879 -0.0441  0.0056 -0.0112
  202MPD1    H7 3082   3.669   4.393   8.984  0.6243  0.5770 -0.5928
  203MPD1     C 3083   1.637   0.602  12.471 -0.0664  0.4939 -0.1310
  203MPD1    C1 3084   1.649   0.473  12.412 -1.2238  0.6979  0.0613
  203MPD1    C2 3085   1.763   0.396  12.432  0.5242 -0.3924 -0.8151
  203MPD1    C3 3086   1.870   0.444  12.505  0.1770  0.4598  0.3887
  203MPD1    C4 3087   1.865   0.579  12.552  0.1110 -0.3074  0.1399
  203MPD1    C5 3088   1.739   0.641  12.554  0.4667 -0.1287  0.6325
  203MPD1     H 3089   1.775   0.297  12.389  2.7843  0.0985 -1.3078
  203MPD1    H1 3090   1.945   0.620  12.613 -1.2870 -0.5058  2.1234
  203MPD1    H2 3091   1.547   0.660  12.490 -0.7481  0.1953 -2.3288
  203MPD1    H3 3092   1.736   0.734  12.610  0.0315 -0.2001  0.7279
  203MPD1     N 3093   1.985   0.368  12.514 -0.0012 -0.8118 -0.0624
  203MPD1    H5 3094   1.994   0.286  12.454  1.5755 -0.5470 -0.1794
  203MPD1    N1 3095   1.544   0.413  12.341  0.2109  0.6662 -0.2672
  203MPD1    H6 3096   1.585   0.357  12.267  1.2262  1.4392 -0.2908
  203MPD1    H7 3097   1.495   0.480  12.282 -0.2133  1.1022  0.5607
  204MPD1     C 3098   1.653   1.917   0.207  0.1280  0.8242  0.1059
  204MPD1    C1 3099   1.685   1.781   0.233  0.0129 -0.5454 -0.3494
  204MPD1    C2 3100   1.657   1.683   0.130 -0.2030  0.3102 -0.3386
  204MPD1    C3 3101   1.607   1.726   0.010  0.2731 -0.4876 -0.2453
  204MPD1    C4 3102   1.582   1.859  17.686  0.0067  0.3327  0.5652
  204MPD1    C5 3103   1.611   1.949   0.086 -0.1283  0.1648  0.3264
  204MPD1     H 3104   1.672   1.580   0.157  0.7827  0.9755  1.6376
  204MPD1    H1 3105   1.544   1.902  17.594  3.2189  1.2435 -0.3505
  204MPD1    H2 3106   1.662   2.000   0.277  0.1627  1.5900 -0.8032
  204MPD1    H3 3107   1.581   2.051   0.071 -0.8321 -0.0615  0.2169
  204MPD1     N 3108   1.578   1.630  17.602 -0.1819 -0.1061 -0.5374
  204MPD1    H5 3109   1.569   1.531  17.619  0.5923 -0.3447 -1.5666
  204MPD1    N1 3110   1.710   1.745   0.363 -0.2008 -0.2465 -0.4354
  204MPD1    H6 3111   1.759   1.657   0.378  0.4685  0.1682 -0.1880
  204MPD1    H7 3112   1.749   1.820   0.420 -1.2731  0.4961 -0.6714
  205MPD1     C 3113   2.009   0.672  16.557 -0.1678  0.1204  0.0933
  205MPD1    C1 3114   2.121   0.616  16.628 -0.0353  0.3336 -0.4420
  205MPD1    C2 3115   2.100   0.603  16.766 -0.0415 -0.1220 -0.5287
  205MPD1    C3 3116   1.975   0.613  16.826 -0.4650 -0.0260 -0.2463
  205MPD1    C4 3117   1.874   0.649  16.747  0.8055  0.7025  0.2023
  205MPD1    C5 3118   1.891   0.680  16.617 -0.9204 -0.0879  0.4713
  205MPD1     H 3119   2.189   0.585  16.825 -0.4429 -0.5791 -0.0661
  205MPD1    H1 3120   1.775   0.659  16.790 -0.0468 -1.7536 -1.2186
  205MPD1    H2 3121   2.009   0.706  16.454  0.5657 -0.0598  0.0318
  205MPD1    H3 3122   1.811   0.727  16.560 -0.4535  0.7742  0.5314
  205MPD1     N 3123   1.933   0.580  16.958 -0.5998 -0.0499  0.2419
  205MPD1    H5 3124   1.838   0.607  16.982  0.4293  2.7062  1.2543
  205MPD1    N1 3125   2.254   0.623  16.574  0.2352  0.6919 -0.1782
  205MPD1    H6 3126   2.332   0.565  16.602  1.6266  1.1499 -3.0700
  205MPD1    H7 3127   2.242   0.596  16.476  0.3790  1.8525 -0.5170
  206MPD1     C 3128   2.177   3.693  16.569 -0.1845  0.1275  0.8456
  206MPD1    C1 3129   2.250   3.610  16.485  0.3356 -0.6734  0.0872
  206MPD1    C2 3130   2.190   3.543  16.383  0.5624 -0.0871 -0.2459
  206MPD1    C3 3131   2.048   3.553  16.377  0.1145  0.6640 -0.1000
  206MPD1    C4 3132   1.981   3.647  16.449  0.2923 -0.4051  0.3591
  206MPD1    C5 3133   2.043   3.710  16.552 -0.4281 -0.6103  0.2118
  206MPD1     H 3134   2.249   3.489  16.311  0.9481 -0.9294  0.7041
  206MPD1    H1 3135   1.875   3.658  16.430  0.2697  0.2752  0.8572
  206MPD1    H2 3136   2.212   3.764  16.642  0.4543  0.6418  0.0416
  206MPD1    H3 3137   1.987   3.770  16.623  0.8514  0.4914  0.2826
  206MPD1     N 3138   1.977   3.496  16.266 -0.5591  0.4037  0.4863
  206MPD1    H5 3139   1.879   3.521  16.264 -0.9018 -1.1114 -2.2880
  206MPD1    N1 3140   2.387   3.622  16.491 -0.2939 -0.1300 -0.4268
  206MPD1    H6 3141   2.432   3.538  16.456  2.6362  0.2997  2.3044
  206MPD1    H7 3142   2.420   3.632  16.587  2.5485  0.5446 -1.4778
  207MPD1     C 3143   4.674   0.558  10.049  0.0411 -0.0729  0.5738
  207MPD1    C1 3144   4.668   0.681   9.979  0.1430 -0.3362  0.2835
  207MPD1    C2 3145   4.633   0.792  10.054  0.1803 -0.0371  0.3985
  207MPD1    C3 3146   4.613   0.795  10.193 -0.3572  0.0058  0.4526
  207MPD1    C4 3147   4.630   0.672  10.255 -0.5277  0.2185 -0.3102
  207MPD1    C5 3148   4.658   0.556  10.184 -0.0391 -0.1345  0.4031
  207MPD1     H 3149   4.621   0.881   9.993  0.0278  0.6554  1.4446
  207MPD1    H1 3150   4.601   0.659  10.359 -0.2822 -0.4305 -0.3247
  207MPD1    H2 3151   4.685   0.465   9.994  1.1859  0.7808 -0.6375
  207MPD1    H3 3152   4.665   0.464  10.241  1.1332 -0.5972 -0.4933
  207MPD1     N 3153   4.598   0.905  10.274  0.6109  0.7191 -0.2096
  207MPD1    H5 3154   4.583   0.891  10.373  0.3834  1.5412 -0.1315
  207MPD1    N1 3155   4.676   0.688   9.835  0.6190 -0.1124  0.1000
  207MPD1    H6 3156   0.004   0.603   9.809  0.6889  0.2868 -1.0657
  207MPD1    H7 3157   0.000   0.771   9.801 -1.4053  0.3786 -1.5358
  208MPD1     C 3158   3.239   0.420  17.655  0.0851  0.1733 -0.9677
  208MPD1    C1 3159   3.232   0.422   0.100  0.0717  0.0802 -0.6078
  208MPD1    C2 3160   3.133   0.346   0.154  0.5152 -0.0538  0.2133
  208MPD1    C3 3161   3.020   0.307   0.085  0.8771 -0.2830  0.5263
  208MPD1    C4 3162   3.014   0.316  17.645 -0.4066  0.6100  1.0199
  208MPD1    C5 3163   3.129   0.361  17.590 -0.1558 -0.1059 -0.5874
  208MPD1     H 3164   3.140   0.315   0.257  2.2938  0.9949  0.4030
  208MPD1    H1 3165   2.942   0.281  17.572  0.1996  0.6252  0.4107
  208MPD1    H2 3166   3.326   0.459  17.603 -0.0878 -0.7156 -1.9072
  208MPD1    H3 3167   3.140   0.362  17.483  2.5646  0.6221 -0.3145
  208MPD1     N 3168   2.921   0.247   0.166 -0.0553 -0.5147  0.4359
  208MPD1    H5 3169   2.935   0.252   0.266  0.8316 -1.3959  0.3432
  208MPD1    N1 3170   3.342   0.462   0.173 -0.4945  0.1631  0.5061
  208MPD1    H6 3171   3.373   0.556   0.147  0.6334 -0.6981 -1.2943
  208MPD1    H7 3172   3.323   0.466   0.272  0.5705  1.5457  0.6594
  209MPD1     C 3173   4.519   4.695  10.866  0.3878 -0.1859 -0.4188
  209MPD1    C1 3174   4.528   0.090  10.807  0.5631 -0.6657  0.3252
  209MPD1    C2 3175   4.461   0.193  10.873 -0.5170 -0.3273 -0.1419
  209MPD1    C3 3176   4.379   0.171  10.986  0.8277  0.6844  0.3101
  209MPD1    C4 3177   4.368   0.044  11.039 -0.5696  0.1814  0.1125
  209MPD1    C5 3178   4.442   4.671  10.980  0.7331 -0.4263  0.1905
  209MPD1     H 3179   4.464   0.294  10.835 -3.2631 -0.8897 -1.9056
  209MPD1    H1 3180   4.310   0.022  11.127 -1.9645  0.4122 -0.7412
  209MPD1    H2 3181   4.572   4.616  10.814  0.1345 -2.3435  2.6296
  209MPD1    H3 3182   4.460   4.576  11.028 -3.1247 -0.5553  1.4159
  209MPD1     N 3183   4.324   0.283  11.045 -0.7051  0.4315  0.7951
  209MPD1    H5 3184   4.297   0.352  10.976  3.5763 -0.2036 -1.4739
  209MPD1    N1 3185   4.618   0.117  10.699 -0.1699 -0.4556  0.2963
  209MPD1    H6 3186   4.640   0.033  10.648 -3.1982 -1.2723  0.3170
  209MPD1    H7 3187   4.589   0.192  10.636 -1.7176 -0.4955  0.9532
  210MPD1     C 3188   3.857   0.838  11.880 -0.4136 -0.1385  0.5225
  210MPD1    C1 3189   3.849   0.707  11.852  0.2833 -0.7806 -0.8476
  210MPD1    C2 3190   3.907   0.667  11.735  0.1385  0.4678 -0.2216
  210MPD1    C3 3191   3.989   0.744  11.650  0.3968  0.4495 -0.4260
  210MPD1    C4 3192   4.000   0.876  11.685  0.3272  0.1892  0.4025
  210MPD1    C5 3193   3.936   0.916  11.797 -0.4641 -0.0613 -0.7221
  210MPD1     H 3194   3.873   0.568  11.708  1.3240  0.8491 -3.0965
  210MPD1    H1 3195   4.049   0.953  11.627 -1.2038 -1.2229 -2.7242
  210MPD1    H2 3196   3.821   0.871  11.977 -0.9679  1.1970 -0.1408
  210MPD1    H3 3197   3.946   1.021  11.825  1.4421 -0.4348  0.0218
  210MPD1     N 3198   4.045   0.709  11.526 -0.5326  0.5538 -0.0237
  210MPD1    H5 3199   4.103   0.782  11.485 -1.7194  0.8813 -1.1331
  210MPD1    N1 3200   3.775   0.617  11.935  0.0958 -0.3928  0.1106
  210MPD1    H6 3201   3.779   0.653  12.030 -1.7190  1.9040 -0.6518
  210MPD1    H7 3202   3.818   0.525  11.938 -2.7508 -1.7304  0.4953
  211MPD1     C 3203   1.960   4.449  16.414  0.1887 -0.7764 -0.7630
  211MPD1    C1 3204   1.827   4.426  16.446 -0.0316 -0.7014  0.1170
  211MPD1    C2 3205   1.748   4.539  16.485  0.4347 -0.2650  0.0355
  211MPD1    C3 3206   1.803   4.658  16.522 -0.0671  0.3237  0.4702
  211MPD1    C4 3207   1.940   4.675  16.504  0.2570  0.3768 -0.4040
  211MPD1    C5 3208   2.013   4.575  16.448  0.7166 -1.2379  0.2073
  211MPD1     H 3209   1.640   4.526  16.489  0.5768 -1.3594  0.4283
  211MPD1    H1 3210   1.992   0.036  16.548 -0.1317 -0.6748  2.0841
  211MPD1    H2 3211   2.023   4.375  16.368 -0.7867 -1.6041 -0.7614
  211MPD1    H3 3212   2.120   4.583  16.433  0.8076 -1.7804  0.5992
  211MPD1     N 3213   1.725   0.036  16.573  0.4207 -0.4565  0.1447
  211MPD1    H5 3214   1.633   0.007  16.604  0.2111 -0.0114 -0.0671
  211MPD1    N1 3215   1.769   4.303  16.405 -0.5072 -0.1535 -0.1005
  211MPD1    H6 3216   1.833   4.224  16.420 -0.0283  0.3038  0.2648
  211MPD1    H7 3217   1.681   4.293  16.455 -1.8898  2.2455 -2.0743
  212MPD1     C 3218   1.325   3.756  16.642 -0.0300  0.6419 -0.1630
  212MPD1    C1 3219   1.354   3.622  16.633 -0.9099  0.6044  0.2704
  212MPD1    C2 3220   1.261   3.534  16.675 -0.2874  0.4138  0.4277
  212MPD1    C3 3221   1.132   3.577  16.722 -0.2951 -0.8313  0.2306
  212MPD1    C4 3222   1.111   3.704  16.729 -0.3042  0.1306  0.3299
  212MPD1    C5 3223   1.198   3.796  16.679 -0.7748 -0.1971  0.1240
  212MPD1     H 3224   1.286   3.430  16.686 -3.0933 -0.2142  0.8541
  212MPD1    H1 3225   1.016   3.746  16.761 -0.7665 -0.1937 -0.6294
  212MPD1    H2 3226   1.389   3.832  16.598 -0.8397  1.6924  0.4541
  212MPD1    H3 3227   1.171   3.901  16.688  0.7299  0.1083  1.0777
  212MPD1     N 3228   1.031   3.488  16.770 -0.0223  0.3126  0.0043
  212MPD1    H5 3229   0.944   3.530  16.802 -1.0054 -0.6656 -1.3750
  212MPD1    N1 3230   1.484   3.588  16.608  0.5335 -0.0290 -0.1490
  212MPD1    H6 3231   1.490   3.487  16.595 -1.3306 -0.0366 -0.9367
  212MPD1    H7 3232   1.513   3.635  16.523  2.6018  0.7367  0.9949
  213MPD1     C 3233   4.029   4.164  15.539  0.1105  0.2570  0.5797
  213MPD1    C1 3234   3.945   4.079  15.469  0.3727 -0.9767 -0.1550
  213MPD1    C2 3235   3.862   4.147  15.384 -0.3284  0.0777 -0.0873
  213MPD1    C3 3236   3.862   4.284  15.356  0.2520  0.4246  0.2175
  213MPD1    C4 3237   3.951   4.360  15.427 -1.0176  0.7641 -0.0970
  213MPD1    C5 3238   4.020   4.298  15.520 -0.2518  0.3550 -1.3147
  213MPD1     H 3239   3.785   4.085  15.340  0.1184  0.6262 -1.6619
  213MPD1    H1 3240   3.958   4.468  15.422 -2.3311  0.8714  0.3293
  213MPD1    H2 3241   4.077   4.135  15.632 -0.2595  0.0797  0.7184
  213MPD1    H3 3242   4.072   4.363  15.589  2.4756 -1.0503 -2.0581
  213MPD1     N 3243   3.784   4.333  15.247  0.2319  0.5882 -0.2653
  213MPD1    H5 3244   3.742   4.264  15.186  3.7438  1.2430 -3.4584
  213MPD1    N1 3245   3.900   3.957  15.523 -0.5026  0.1986  0.4117
  213MPD1    H6 3246   3.861   3.900  15.448 -1.5054  1.1942  0.1705
  213MPD1    H7 3247   3.973   3.902  15.567  0.4186  2.5672  1.8245
  214MPD1     C 3248   2.980   4.126  14.911  0.7191  0.0063  0.1580
  214MPD1    C1 3249   3.033   4.207  14.817  0.2892  0.1473 -0.1450
  214MPD1    C2 3250   3.168   4.256  14.830 -0.0455  0.3391 -0.2109
  214MPD1    C3 3251   3.244   4.219  14.949 -0.0222  0.0623  0.1241
  214MPD1    C4 3252   3.177   4.146  15.044  0.2427 -0.0599  0.3392
  214MPD1    C5 3253   3.050   4.097  15.022 -0.8317  0.1002 -0.3059
  214MPD1     H 3254   3.206   4.334  14.765 -0.2288  1.0036  0.4830
  214MPD1    H1 3255   3.238   4.119  15.129  0.8704 -0.7265 -0.3309
  214MPD1    H2 3256   2.884   4.077  14.910 -0.1375  1.6536  1.1395
  214MPD1    H3 3257   3.015   4.026  15.096 -2.5677  1.8868  0.5576
  214MPD1     N 3258   3.377   4.271  14.967  0.1373 -0.1597 -0.2766
  214MPD1    H5 3259   3.416   4.248  15.058  0.1879  2.1030  0.2659
  214MPD1    N1 3260   2.959   4.217  14.696 -0.4435  0.1541 -0.0163
  214MPD1    H6 3261   2.858   4.221  14.706 -0.6330 -1.4541 -1.3927
  214MPD1    H7 3262   2.995   4.302  14.653 -0.9501 -1.3995 -3.4841
  215MPD1     C 3263   4.222   4.009  10.247 -0.4516 -0.5870  0.3466
  215MPD1    C1 3264   4.197   4.120  10.170  0.0433  0.0646  1.0232
  215MPD1    C2 3265   4.192   4.243  10.231 -0.6568  0.0144 -0.0805
  215MPD1    C3 3266   4.225   4.257  10.372 -0.0815 -0.1312  0.2676
  215MPD1    C4 3267   4.271   4.142  10.439  0.1217 -0.2575 -0.5195
  215MPD1    C5 3268   4.258   4.026  10.376  0.2471  0.1438  0.9266
  215MPD1     H 3269   4.156   4.333  10.182 -1.2487  0.7696  1.7299
  215MPD1    H1 3270   4.302   4.143  10.543 -3.1690  1.7824  0.4677
  215MPD1    H2 3271   4.214   3.910  10.204  1.0153 -0.0920 -1.0351
  215MPD1    H3 3272   4.271   3.932  10.429  0.1561 -0.3042  0.1476
  215MPD1     N 3273   4.214   4.386  10.428 -0.0907 -0.2280 -0.2415
  215MPD1    H5 3274   4.195   4.453  10.354  1.3821 -1.3153 -1.5800
  215MPD1    N1 3275   4.157   4.100  10.041 -0.3047  1.0123  0.2617
  215MPD1    H6 3276   4.206   4.024   9.996  0.6785  1.3966  0.6781
  215MPD1    H7 3277   4.163   4.184   9.983 -2.1711  0.0860 -1.2890
  216MPD1     C 3278   1.861   3.977  17.122  0.2980 -0.2982  0.2171
  216MPD1    C1 3279   1.813   3.934  17.239  0.5903  0.2454 -0.5110
  216MPD1    C2 3280   1.776   3.802  17.261 -0.1491 -0.7188 -0.3489
  216MPD1    C3 3281   1.763   3.721  17.151  0.4558  0.3323  0.2766
  216MPD1    C4 3282   1.817   3.762  17.028  0.5737 -0.8025  0.1141
  216MPD1    C5 3283   1.879   3.884  17.021 -0.1254 -0.5645 -0.7812
  216MPD1     H 3284   1.737   3.771  17.357  0.8752  0.2957  0.3894
  216MPD1    H1 3285   1.828   3.700  16.939  1.2840 -2.2595  1.2113
  216MPD1    H2 3286   1.906   4.075  17.109 -0.3650  0.4256  3.3747
  216MPD1    H3 3287   1.931   3.912  16.930  0.3316 -0.2440 -0.4209
  216MPD1     N 3288   1.728   3.586  17.173  0.6631  0.0135 -0.6460
  216MPD1    H5 3289   1.718   3.560  17.270  0.4807 -1.1607 -0.9848
  216MPD1    N1 3290   1.835   4.021  17.353 -0.1136  0.2135 -0.3429
  216MPD1    H6 3291   1.815   4.118  17.329 -0.1670  0.4786  0.7714
  216MPD1    H7 3292   1.778   3.994  17.433 -0.7700 -1.6687 -1.4293
  217MPD1     C 3293   2.270   0.213   9.335  0.0151 -0.2858 -0.2059
  217MPD1    C1 3294   2.272   0.138   9.220 -0.2087 -0.7774 -0.2410
  217MPD1    C2 3295   2.178   0.037   9.206 -0.0089 -0.1946  0.0534
  217MPD1    C3 3296   2.087   4.723   9.302  0.6517 -0.1715  0.0799
  217MPD1    C4 3297   2.088   0.081   9.414 -0.1917 -0.3941 -0.5096
  217MPD1    C5 3298   2.180   0.186   9.432 -0.1086  0.2701 -0.0506
  217MPD1     H 3299   2.186   4.685   9.128  0.4683 -1.2191  1.0724
  217MPD1    H1 3300   2.023   0.058   9.497 -1.7664 -0.0467 -1.6427
  217MPD1    H2 3301   2.334   0.300   9.344  0.4965 -0.8233  1.5816
  217MPD1    H3 3302   2.180   0.251   9.519 -3.0249 -0.8289  0.7523
  217MPD1     N 3303   1.990   4.614   9.293 -0.0367 -0.2001  0.0471
  217MPD1    H5 3304   1.927   4.613   9.372  1.8778  0.0237  1.5641
  217MPD1    N1 3305   2.352   0.181   9.113  0.0953 -0.0488  0.2000
  217MPD1    H6 3306   2.360   0.111   9.040 -0.4655  0.2203 -0.1126
  217MPD1    H7 3307   2.446   0.211   9.139 -1.0217  3.6609 -0.1025
  218MPD1     C 3308   3.103   1.053  13.124  0.9430 -0.0401 -0.1135
  218MPD1    C1 3309   3.166   0.945  13.180  0.4155 -1.2220 -0.1856
  218MPD1    C2 3310   3.271   0.897  13.106 -0.1708 -0.3096  0.3574
  218MPD1    C3 3311   3.321   0.945  12.987  0.0238 -0.9381 -0.0815
  218MPD1    C4 3312   3.251   1.061  12.939  0.3774  0.0399  0.2536
  218MPD1    C5 3313   3.147   1.111  13.010 -0.0231 -0.6796 -0.0152
  218MPD1     H 3314   3.317   0.802  13.130 -0.3030 -0.3918  0.2885
  218MPD1    H1 3315   3.281   1.113  12.849  0.0045  0.0154  0.1141
  218MPD1    H2 3316   3.014   1.093  13.171 -1.5076 -2.9080 -2.2624
  218MPD1    H3 3317   3.084   1.194  12.980 -1.9969 -1.5078  1.7614
  218MPD1     N 3318   3.430   0.883  12.928 -0.1071 -0.1066 -0.6521
  218MPD1    H5 3319   3.470   0.813  12.989  1.2058 -0.1496 -1.5778
  218MPD1    N1 3320   3.093   0.868  13.275 -0.7786 -0.9551 -0.0602
  218MPD1    H6 3321   3.162   0.806  13.317 -0.5020 -0.0934  0.7548
  218MPD1    H7 3322   3.064   0.930  13.350 -0.6060  0.1603 -0.9141
  219MPD1     C 3323   3.966   1.112  12.104  0.2177  0.5477  0.5099
  219MPD1    C1 3324   3.830   1.097  12.109 -0.4275 -0.7643 -0.8928
  219MPD1    C2 3325   3.766   1.023  12.204 -0.8830  0.1136  0.4368
  219MPD1    C3 3326   3.844   0.959  12.300  0.1190  0.0618 -0.3837
  219MPD1    C4 3327   3.976   0.974  12.301 -0.0505 -0.2892 -0.7305
  219MPD1    C5 3328   4.032   1.053  12.209 -0.8416  0.2293 -0.1204
  219MPD1     H 3329   3.659   1.020  12.221 -0.7948 -1.3088  0.7486
  219MPD1    H1 3330   4.038   0.940  12.383  2.2287  2.9197 -1.1229
  219MPD1    H2 3331   4.021   1.180  12.040  2.0888  0.1674  1.7079
  219MPD1    H3 3332   4.139   1.066  12.220 -0.5235 -2.2400 -0.3291
  219MPD1     N 3333   3.769   0.893  12.402 -0.4897 -0.2199  0.7873
  219MPD1    H5 3334   3.669   0.908  12.414 -0.9814 -1.2161 -2.1594
  219MPD1    N1 3335   3.756   1.185  12.031  0.5370  0.1711 -0.4625
  219MPD1    H6 3336   3.670   1.150  11.990  1.1771 -1.8082 -0.1453
  219MPD1    H7 3337   3.810   1.234  11.960  0.3790 -2.5427 -2.4631
  220MPD1     C 3338   3.373   1.552  10.221 -0.0412 -0.2684  0.4007
  220MPD1    C1 3339   3.296   1.440  10.258  0.4330 -0.6016 -0.8304
  220MPD1    C2 3340   3.359   1.317  10.265 -0.0036 -0.7407 -0.2601
  220MPD1    C3 3341   3.486   1.300  10.220  0.5243  0.4103 -0.0935
  220MPD1    C4 3342   3.571   1.409  10.181 -0.1313  0.9942 -0.3667
  220MPD1    C5 3343   3.508   1.531  10.192  0.2279 -0.0659 -0.0041
  220MPD1     H 3344   3.303   1.232  10.304  1.9435 -0.8376  2.2953
  220MPD1    H1 3345   3.674   1.405  10.147  0.4519  1.3504  1.3765
  220MPD1    H2 3346   3.334   1.652  10.235 -2.2342 -1.4502  2.8145
  220MPD1    H3 3347   3.575   1.611  10.163  0.4781 -0.3164 -0.1120
  220MPD1     N 3348   3.539   1.172  10.224 -0.3685  0.1083  0.2203
  220MPD1    H5 3349   3.490   1.099  10.275  1.1133  0.4421  2.0981
  220MPD1    N1 3350   3.165   1.460  10.303 -0.2107  0.0064  0.0977
  220MPD1    H6 3351   3.120   1.527  10.241  0.6649  1.4289  1.0092
  220MPD1    H7 3352   3.114   1.372  10.307  3.4834 -2.1324  0.4343
  221MPD1     C 3353   1.197   0.490  16.264  0.8168 -0.7247 -0.1066
  221MPD1    C1 3354   1.211   0.375  16.333  0.2680 -0.1060  1.0647
  221MPD1    C2 3355   1.326   0.301  16.308 -0.4020  0.0733 -0.6190
  221MPD1    C3 3356   1.419   0.337  16.209  0.8281 -0.1908  0.2595
  221MPD1    C4 3357   1.398   0.454  16.142  0.6395 -0.0184  0.0228
  221MPD1    C5 3358   1.290   0.530  16.168  0.8415 -0.2272  0.1340
  221MPD1     H 3359   1.344   0.214  16.370 -0.2985  1.2119  0.9528
  221MPD1    H1 3360   1.471   0.466  16.064  0.6735 -0.6032 -0.0388
  221MPD1    H2 3361   1.115   0.560  16.277  0.7300 -0.3555 -2.5457
  221MPD1    H3 3362   1.269   0.621  16.114  1.6423 -1.5540 -2.4150
  221MPD1     N 3363   1.531   0.260  16.178 -0.5538 -0.3623  0.9398
  221MPD1    H5 3364   1.595   0.310  16.117  2.2879 -1.9908  2.5752
  221MPD1    N1 3365   1.116   0.323  16.419  0.7362 -0.8218 -0.0854
  221MPD1    H6 3366   1.124   0.222  16.425 -0.6977 -0.8980  0.5636
  221MPD1    H7 3367   1.019   0.347  16.397  1.6018  0.8831 -2.0801
  222MPD1     C 3368   0.598   3.071  17.661  0.4008 -0.1899 -0.2121
  222MPD1    C1 3369   0.627   3.197  17.625 -0.1497 -0.0373 -0.5061
  222MPD1    C2 3370   0.574   3.298   0.010  0.1778 -0.1895  0.0898
  222MPD1    C3 3371   0.537   3.270   0.140  0.3800  0.7759  0.4385
  222MPD1    C4 3372   0.513   3.135   0.178 -0.7525  0.4365  0.3035
  222MPD1    C5 3373   0.534   3.041   0.091  0.2183  0.2584  0.1495
  222MPD1     H 3374   0.597   3.398  17.668  1.2811  0.2961  2.1067
  222MPD1    H1 3375   0.472   3.113   0.276  2.5465 -2.0414  1.0982
  222MPD1    H2 3376   0.637   2.985  17.608  0.4694  0.0906 -0.6160
  222MPD1    H3 3377   0.524   2.938   0.125  0.0431  0.3798  0.4636
  222MPD1     N 3378   0.514   3.374   0.231  0.2091  0.9035  0.8177
  222MPD1    H5 3379   0.481   3.349   0.324 -2.1787 -0.3990 -0.3722
  222MPD1    N1 3380   0.678   3.213  17.498 -0.3912 -0.7517  0.0761
  222MPD1    H6 3381   0.740   3.291  17.479 -0.8283 -0.2362  0.7632
  222MPD1    H7 3382   0.723   3.134  17.453  2.5844  0.3929  1.0565
  223MPD1     C 3383   0.421   3.153   1.031  0.3961 -0.1763  0.2475
  223MPD1    C1 3384   0.329   3.153   0.923  0.4611 -0.3316 -0.3344
  223MPD1    C2 3385   0.338   3.246   0.820  0.2760  0.0548  0.5791
  223MPD1    C3 3386   0.433   3.341   0.829  0.6642  0.2454 -0.3086
  223MPD1    C4 3387   0.523   3.342   0.930 -0.3532 -0.1031  0.3085
  223MPD1    C5 3388   0.522   3.250   1.031  0.4342 -0.3589  0.1472
  223MPD1     H 3389   0.264   3.235   0.742  1.9534 -0.3920 -0.9601
  223MPD1    H1 3390   0.610   3.406   0.932 -0.5681  0.1679  1.0821
  223MPD1    H2 3391   0.409   3.079   1.109 -0.6665 -0.5437 -0.2665
  223MPD1    H3 3392   0.601   3.240   1.103  2.0034  2.2568 -1.1858
  223MPD1     N 3393   0.445   3.418   0.717  0.0713 -0.2277 -0.8499
  223MPD1    H5 3394   0.378   3.386   0.648  0.6639 -2.5367 -0.3482
  223MPD1    N1 3395   0.255   3.038   0.892 -0.2289  0.2945  0.1119
  223MPD1    H6 3396   0.181   3.053   0.824 -0.3455  0.0071  0.1740
  223MPD1    H7 3397   0.235   2.979   0.972  2.4976 -2.2228 -1.0562
  224MPD1     C 3398   2.720   0.544   9.486  0.2624 -0.8421 -0.3438
  224MPD1    C1 3399   2.808   0.457   9.422 -0.4324 -0.8417  0.0045
  224MPD1    C2 3400   2.754   0.330   9.394  0.1985  0.0058 -0.0542
  224MPD1    C3 3401   2.629   0.290   9.439 -0.0889 -0.3498 -0.4770
  224MPD1    C4 3402   2.555   0.369   9.527 -0.6557  0.7967 -0.6441
  224MPD1    C5 3403   2.597   0.499   9.536 -0.3777 -0.1372  0.3566
  224MPD1     H 3404   2.816   0.261   9.338  0.3680  0.6458 -0.6540
  224MPD1    H1 3405   2.464   0.341   9.578  1.2193 -1.5476  1.3843
  224MPD1    H2 3406   2.727   0.652   9.487 -0.2475 -0.8215  2.4337
  224MPD1    H3 3407   2.534   0.569   9.590  1.6249  1.5429  0.4856
  224MPD1     N 3408   2.579   0.160   9.431  0.3886  0.4760  0.1364
  224MPD1    H5 3409   2.489   0.145   9.476  0.9267  0.0055  1.0349
  224MPD1    N1 3410   2.924   0.508   9.358 -0.3489  0.0724 -0.3847
  224MPD1    H6 3411   2.994   0.439   9.329 -0.5311 -0.1993 -0.1685
  224MPD1    H7 3412   2.972   0.585   9.404 -1.3128 -1.5788  3.3669
  225MPD1     C 3413   2.727   1.047  13.057  0.0644  0.1770  0.2671
  225MPD1    C1 3414   2.712   1.163  12.980  0.4688  0.1705 -0.0048
  225MPD1    C2 3415   2.775   1.182  12.860 -0.7084 -0.0332  0.2835
  225MPD1    C3 3416   2.864   1.085  12.811  0.0036 -0.5565 -0.1690
  225MPD1    C4 3417   2.875   0.971  12.886 -0.1332 -0.0412 -0.0883
  225MPD1    C5 3418   2.805   0.949  13.005 -0.1439 -0.2259  0.1677
  225MPD1     H 3419   2.759   1.274  12.805  1.8173 -1.0010 -2.0837
  225MPD1    H1 3420   2.940   0.894  12.847  0.6452  1.4288 -1.6485
  225MPD1    H2 3421   2.670   1.037  13.149 -0.9130  2.5439 -0.0845
  225MPD1    H3 3422   2.826   0.861  13.064  0.1526 -0.4658 -0.2974
  225MPD1     N 3423   2.938   1.091  12.692 -0.4244 -0.1447  0.5797
  225MPD1    H5 3424   2.983   1.005  12.661 -1.7921 -0.4993 -0.3959
  225MPD1    N1 3425   2.633   1.270  13.032 -0.4659 -0.7648  0.6105
  225MPD1    H6 3426   2.571   1.238  13.107 -0.2302  3.3618  2.5439
  225MPD1    H7 3427   2.572   1.303  12.958  0.2937  2.5923  1.5019
  226MPD1     C 3428   2.816   1.970  10.450 -0.1420  0.3940 -0.0933
  226MPD1    C1 3429   2.700   1.896  10.450 -0.1512  0.0197  0.1222
  226MPD1    C2 3430   2.656   1.845  10.332 -0.0746 -0.4173  0.0927
  226MPD1    C3 3431   2.721   1.881  10.212 -0.1206 -0.7978 -0.3380
  226MPD1    C4 3432   2.831   1.962  10.210 -0.1225  0.6205 -0.2731
  226MPD1    C5 3433   2.877   2.005  10.334 -0.0165  0.3401 -0.3206
  226MPD1     H 3434   2.570   1.778  10.331 -0.6829  0.3511  0.6442
  226MPD1    H1 3435   2.887   1.976  10.118  4.3106 -0.5354  2.2386
  226MPD1    H2 3436   2.874   2.006  10.535  2.1213  2.0928 -2.3883
  226MPD1    H3 3437   2.966   2.065  10.351  1.4593 -1.8416 -0.3940
  226MPD1     N 3438   2.688   1.811  10.096  0.3962 -0.3839 -0.3550
  226MPD1    H5 3439   2.613   1.744  10.102  0.5310 -0.6999 -2.1587
  226MPD1    N1 3440   2.666   1.832  10.568  0.6564 -0.1455 -0.0073
  226MPD1    H6 3441   2.566   1.818  10.561  0.9499 -1.0648 -2.4592
  226MPD1    H7 3442   2.690   1.898  10.642 -0.0420 -0.0840  0.1625
  227MPD1     C 3443   2.258   0.943   9.929  0.4796 -0.2729  0.0987
  227MPD1    C1 3444   2.340   0.953   9.822  0.5029 -0.2734 -0.1568
  227MPD1    C2 3445   2.409   1.068   9.794  1.0516 -0.3305  0.3214
  227MPD1    C3 3446   2.394   1.180   9.883 -0.5041 -0.4458  0.6339
  227MPD1    C4 3447   2.301   1.169   9.978  0.3846  0.4021  0.0797
  227MPD1    C5 3448   2.236   1.054  10.000  0.1526 -0.1529 -0.4162
  227MPD1     H 3449   2.489   1.060   9.722  1.1882  0.6920  0.3634
  227MPD1    H1 3450   2.287   1.246  10.053 -2.3398  1.3581 -1.4262
  227MPD1    H2 3451   2.199   0.853   9.946  1.2395 -1.4332 -3.3569
  227MPD1    H3 3452   2.174   1.043  10.088  1.0478 -2.3781 -0.0786
  227MPD1     N 3453   2.481   1.285   9.859  0.4718 -0.2575  0.0299
  227MPD1    H5 3454   2.545   1.272   9.782 -0.7982 -1.5776 -0.8157
  227MPD1    N1 3455   2.346   0.839   9.738 -0.0194 -0.1483 -0.0613
  227MPD1    H6 3456   2.312   0.750   9.772 -0.1551  0.2716  0.8889
  227MPD1    H7 3457   2.427   0.836   9.675  1.2047  1.3981  1.4138
  228MPD1     C 3458   0.462   3.689  12.148  0.2087 -0.1678 -0.3640
  228MPD1    C1 3459   0.353   3.771  12.119 -0.2578  0.3274  0.3200
  228MPD1    C2 3460   0.260   3.799  12.214 -0.3376  0.6533  0.2128
  228MPD1    C3 3461   0.279   3.755  12.342 -0.4243  0.1143  0.0878
  228MPD1    C4 3462   0.394   3.684  12.374  0.1289  0.3850 -0.3732
  228MPD1    C5 3463   0.488   3.656  12.281 -0.1057  0.9157  1.0986
  228MPD1     H 3464   0.163   3.839  12.186  0.0328  0.5845 -1.2087
  228MPD1    H1 3465   0.414   3.646  12.473  1.6958 -1.2878 -1.3389
  228MPD1    H2 3466   0.538   3.665  12.075 -1.4081 -0.6067 -1.9049
  228MPD1    H3 3467   0.569   3.586  12.297 -1.3495 -0.6475  0.5711
  228MPD1     N 3468   0.179   3.779  12.442 -0.3715  0.4919 -0.4858
  228MPD1    H5 3469   0.099   3.833  12.408 -0.1197  0.3599 -1.2890
  228MPD1    N1 3470   0.317   3.805  11.982 -0.2805  0.5879  0.1740
  228MPD1    H6 3471   0.403   3.823  11.930  0.2751 -2.4540  0.0179
  228MPD1    H7 3472   0.253   3.883  11.970 -0.4928  0.2371 -1.0594
  229MPD1     C 3473   0.346   3.016  15.095 -0.1241  0.2524 -1.0680
  229MPD1    C1 3474   0.433   2.928  15.148  0.5888  0.3486 -0.3951
  229MPD1    C2 3475   0.385   2.832  15.235 -0.1677 -0.2963 -0.4470
  229MPD1    C3 3476   0.249   2.840  15.273 -0.3456 -0.7610  0.3142
  229MPD1    C4 3477   0.170   2.946  15.240 -0.0351 -0.0216  0.5320
  229MPD1    C5 3478   0.223   3.036  15.147 -0.5253  0.3227 -0.4050
  229MPD1     H 3479   0.448   2.759  15.285 -1.6108  0.1985  2.0399
  229MPD1    H1 3480   0.073   2.958  15.288  0.4559 -1.1809  1.8358
  229MPD1    H2 3481   0.373   3.088  15.019  0.3112 -0.6873 -1.7984
  229MPD1    H3 3482   0.170   3.123  15.110  0.4615  1.2546  0.3461
  229MPD1     N 3483   0.187   2.739  15.349 -0.0878 -0.2014 -0.3089
  229MPD1    H5 3484   0.100   2.756  15.399  1.2217 -0.4665  2.0192
  229MPD1    N1 3485   0.564   2.923  15.098  0.0458  0.4304  0.3075
  229MPD1    H6 3486   0.632   2.925  15.173 -0.1453 -0.3510  0.5092
  229MPD1    H7 3487   0.599   3.003  15.047  1.1494 -0.4800 -0.3560
  230MPD1     C 3488   4.680   3.119  16.026  0.1987 -0.2431  0.4048
  230MPD1    C1 3489   0.073   3.118  15.943  0.7102 -0.3152 -0.6838
  230MPD1    C2 3490   0.110   3.001  15.887  0.3200  0.0675 -0.5761
  230MPD1    C3 3491   0.032   2.885  15.897  0.0093  0.0414  0.0708
  230MPD1    C4 3492   4.630   2.895  15.960  1.5228  0.4676  0.2196
  230MPD1    C5 3493   4.606   3.008  16.031  0.4241 -0.4183 -0.4893
  230MPD1     H 3494   0.206   3.001  15.836  0.2660 -0.1148 -0.6801
  230MPD1    H1 3495   4.553   2.818  15.955  1.4836  0.4859  0.5577
  230MPD1    H2 3496   4.644   3.208  16.076 -4.2583 -0.7520 -1.9042
  230MPD1    H3 3497   4.511   3.023  16.082  1.0081  0.3198  0.3811
  230MPD1     N 3498   0.067   2.777  15.804  0.0243  0.1267 -0.2695
  230MPD1    H5 3499   0.152   2.791  15.751  0.3685 -2.3116 -0.3723
  230MPD1    N1 3500   0.161   3.227  15.942  0.0344  0.2535  0.0819
  230MPD1    H6 3501   0.111   3.312  15.966  0.3873  0.2115  0.9473
  230MPD1    H7 3502   0.201   3.239  15.849 -1.3916 -1.0121 -0.7053
  231MPD1     C 3503   3.037   4.494  15.201 -0.8271  0.3447  0.2009
  231MPD1    C1 3504   3.007   4.496  15.069 -0.0432  0.0012  0.2334
  231MPD1    C2 3505   3.105   4.554  14.993  0.9965 -0.1411  0.0311
  231MPD1    C3 3506   3.222   4.597  15.034  0.1322 -0.0379  0.2301
  231MPD1    C4 3507   3.251   4.580  15.168  0.1902  0.4714  0.3743
  231MPD1    C5 3508   3.156   4.526  15.249  0.1619 -0.0578 -0.2617
  231MPD1     H 3509   3.087   4.575  14.889  0.4732  0.2062  0.1890
  231MPD1    H1 3510   3.348   4.605  15.209  0.2764 -0.4182  0.7143
  231MPD1    H2 3511   2.967   4.461  15.276  0.8158  1.1230  2.0678
  231MPD1    H3 3512   3.168   4.512  15.355 -1.6654 -0.3323 -0.1043
  231MPD1     N 3513   3.306   4.659  14.946  0.0528 -0.1249  0.4956
  231MPD1    H5 3514   3.273   4.662  14.850  0.3288  2.1594  0.4658
  231MPD1    N1 3515   2.869   4.478  15.023 -0.4484 -0.7192 -0.2204
  231MPD1    H6 3516   2.830   4.397  15.071 -1.7828  0.8898  1.4260
  231MPD1    H7 3517   2.879   4.461  14.923 -0.5635 -1.3223 -0.1285
  232MPD1     C 3518   0.763   1.792  17.538  0.4081 -0.0339 -0.3888
  232MPD1    C1 3519   0.768   1.827  17.674 -0.2377  0.0888  0.2454
  232MPD1    C2 3520   0.648   1.869   0.036 -0.9882  0.3658  0.0604
  232MPD1    C3 3521   0.540   1.895  17.652  0.4225 -0.4938 -0.1812
  232MPD1    C4 3522   0.550   1.894  17.514  0.6122  0.4779  0.0797
  232MPD1    C5 3523   0.658   1.838  17.453 -0.2183 -0.1011  0.0319
  232MPD1     H 3524   0.651   1.899   0.140 -1.4797  0.0575  0.1641
  232MPD1    H1 3525   0.467   1.924  17.451  1.6779 -0.4915 -1.7905
  232MPD1    H2 3526   0.842   1.737  17.487  0.4330 -0.7153  0.3772
  232MPD1    H3 3527   0.640   1.812  17.349  2.2113 -0.6939 -0.2226
  232MPD1     N 3528   0.421   1.930   0.030  0.3836  0.6764  0.5881
  232MPD1    H5 3529   0.424   1.945   0.131 -1.5450  0.9793  0.5963
  232MPD1    N1 3530   0.870   1.776   0.058 -0.1847  0.1730 -0.0152
  232MPD1    H6 3531   0.875   1.829   0.145 -1.6032  0.1131  0.1003
  232MPD1    H7 3532   0.964   1.774   0.018 -0.1685  2.4445 -0.0881
  233MPD1     C 3533   1.421   3.469   1.980  0.5212  0.2368 -0.0618
  233MPD1    C1 3534   1.442   3.606   1.974  0.0895 -0.9037  0.3155
  233MPD1    C2 3535   1.573   3.647   1.945 -0.3230 -0.1225 -0.5068
  233MPD1    C3 3536   1.683   3.554   1.935 -0.2589  0.3070 -0.2851
  233MPD1    C4 3537   1.657   3.421   1.955 -0.4645  0.1957  0.3684
  233MPD1    C5 3538   1.528   3.384   1.968 -0.0000  0.0653 -0.9988
  233MPD1     H 3539   1.587   3.753   1.928  2.0857 -0.1756  0.9934
  233MPD1    H1 3540   1.741   3.354   1.948  1.7065  2.9630 -0.1206
  233MPD1    H2 3541   1.325   3.423   1.997  0.6717 -1.0673 -2.7066
  233MPD1    H3 3542   1.517   3.277   1.986  0.5388 -0.0682 -1.4364
  233MPD1     N 3543   1.819   3.584   1.904  0.1517 -0.1953  0.4904
  233MPD1    H5 3544   1.877   3.500   1.901  0.4695  0.0438 -0.0915
  233MPD1    N1 3545   1.334   3.693   1.978 -0.7725  0.4881 -0.5886
  233MPD1    H6 3546   1.362   3.786   2.009 -0.9721 -0.3977  2.2095
  233MPD1    H7 3547   1.260   3.649   2.032 -2.3039 -0.4781 -3.4558
  234MPD1     C 3548   2.815   3.005   9.450 -0.0871  0.8434 -0.0847
  234MPD1    C1 3549   2.899   3.023   9.340 -0.0313 -0.1370 -0.7677
  234MPD1    C2 3550   2.878   3.130   9.254  0.0344 -0.2975 -0.1328
  234MPD1    C3 3551   2.766   3.210   9.276 -0.2173  0.6050  0.2185
  234MPD1    C4 3552   2.681   3.192   9.392 -0.4348  0.6758  0.3415
  234MPD1    C5 3553   2.715   3.096   9.482 -0.0247  0.1565  0.1994
  234MPD1     H 3554   2.951   3.158   9.179 -1.5766  1.7287 -0.9364
  234MPD1    H1 3555   2.607   3.267   9.416 -1.6664 -0.3068 -0.3970
  234MPD1    H2 3556   2.842   2.928   9.521  1.5039 -0.3324 -1.9525
  234MPD1    H3 3557   2.648   3.088   9.567  2.0835 -0.0295  1.8518
  234MPD1     N 3558   2.736   3.313   9.186  0.2251 -0.5330  0.2467
  234MPD1    H5 3559   2.799   3.331   9.109  0.9747  0.6732  1.1368
  234MPD1    N1 3560   3.009   2.941   9.327  0.6749 -0.0874 -0.0540
  234MPD1    H6 3561   2.999   2.860   9.387 -0.9687  1.1233  1.3351
  234MPD1    H7 3562   3.020   2.918   9.229 -2.6479 -1.1953 -0.1804
  235MPD1     C 3563   3.128   1.110  10.038 -0.6571  0.3729 -0.4954
  235MPD1    C1 3564   3.069   1.241  10.024  0.7046  0.6863 -0.4570
  235MPD1    C2 3565   3.136   1.330   9.939 -0.0490 -0.2787  0.3586
  235MPD1    C3 3566   3.252   1.292   9.873 -0.1955  0.6434  0.0222
  235MPD1    C4 3567   3.304   1.168   9.900  0.0285 -0.6466 -0.3694
  235MPD1    C5 3568   3.252   1.077   9.987 -1.0943 -0.1989 -0.4937
  235MPD1     H 3569   3.090   1.424   9.909 -1.0323 -0.5466  1.0273
  235MPD1    H1 3570   3.391   1.134   9.845  0.5045  0.5285 -0.3299
  235MPD1    H2 3571   3.080   1.027  10.088 -1.7339  1.0967 -0.3323
  235MPD1    H3 3572   3.288   0.976   9.991 -0.4864  0.0610  0.4170
  235MPD1     N 3573   3.321   1.389   9.797 -0.1792  0.4985  0.1464
  235MPD1    H5 3574   3.270   1.477   9.795 -1.1249 -0.0330  0.9659
  235MPD1    N1 3575   2.936   1.272  10.064  0.3504  0.1094  0.5341
  235MPD1    H6 3576   2.925   1.371  10.085  1.0958 -0.2139  2.4597
  235MPD1    H7 3577   2.899   1.237  10.152  0.7676  0.1639  0.7351
  236MPD1     C 3578   2.789   2.382   9.916  0.0229  0.3069  0.3753
  236MPD1    C1 3579   2.865   2.268   9.920 -0.3803  0.7426 -0.1892
  236MPD1    C2 3580   2.997   2.275   9.965  0.0220  0.2666  0.0798
  236MPD1    C3 3581   3.049   2.390  10.009  0.2144 -0.2659  0.8230
  236MPD1    C4 3582   2.973   2.505   9.998 -0.1565 -0.3147  0.5184
  236MPD1    C5 3583   2.841   2.506   9.947 -1.0937 -0.3154  0.4448
  236MPD1     H 3584   3.057   2.185   9.956  0.0712  0.2797  0.2962
  236MPD1    H1 3585   3.019   2.599  10.028 -4.0907  1.6390  0.3786
  236MPD1    H2 3586   2.690   2.378   9.872  0.6949 -0.1962 -1.1090
  236MPD1    H3 3587   2.779   2.595   9.942  0.1219  0.3838 -2.1794
  236MPD1     N 3588   3.171   2.404  10.072 -0.2185  0.6431  0.2309
  236MPD1    H5 3589   3.197   2.502  10.080  0.4244  0.5731 -0.9890
  236MPD1    N1 3590   2.813   2.143   9.879  0.0695  0.3247  0.1149
  236MPD1    H6 3591   2.847   2.057   9.922  1.0384  0.7743  0.2405
  236MPD1    H7 3592   2.716   2.137   9.910 -0.0549 -0.4693 -0.4059
  237MPD1     C 3593   3.385   0.994  15.187  0.7535 -0.7575 -0.5714
  237MPD1    C1 3594   3.343   0.900  15.272  0.3642  0.1074  0.1888
  237MPD1    C2 3595   3.206   0.867  15.274  0.1838 -0.4928 -0.0015
  237MPD1    C3 3596   3.108   0.937  15.205 -0.1289 -0.2272 -0.2399
  237MPD1    C4 3597   3.158   1.030  15.123  0.0352 -0.6246 -0.1103
  237MPD1    C5 3598   3.290   1.058  15.116 -0.5399 -0.0194  0.3627
  237MPD1     H 3599   3.175   0.787  15.340 -0.9649  1.4564  1.8359
  237MPD1    H1 3600   3.082   1.078  15.063  0.4546 -1.6000 -1.4196
  237MPD1    H2 3601   3.492   1.012  15.181  0.8817 -2.1277 -2.3152
  237MPD1    H3 3602   3.325   1.124  15.037 -0.6323 -1.2732 -0.7331
  237MPD1     N 3603   2.972   0.916  15.195 -0.1109 -0.5638 -0.0329
  237MPD1    H5 3604   2.915   0.967  15.128 -1.0248  0.4605  1.5089
  237MPD1    N1 3605   3.438   0.820  15.344  0.0563  0.1322 -0.1108
  237MPD1    H6 3606   3.413   0.775  15.432  1.9808  2.2261  1.5101
  237MPD1    H7 3607   3.522   0.873  15.365  0.5588 -1.0128  0.7803
  238MPD1     C 3608   0.080   3.335  15.249  0.8008 -0.1324  0.3786
  238MPD1    C1 3609   0.191   3.395  15.191  0.2395 -0.5709 -0.2283
  238MPD1    C2 3610   0.162   3.521  15.132 -0.1630  0.1116 -0.6418
  238MPD1    C3 3611   0.037   3.574  15.148 -0.0959 -0.1604  0.4403
  238MPD1    C4 3612   4.649   3.511  15.209  0.3483 -0.0859  0.3684
  238MPD1    C5 3613   4.677   3.388  15.260  0.3535  0.1958 -0.0146
  238MPD1     H 3614   0.237   3.585  15.087 -0.6120 -0.2277 -1.8681
  238MPD1    H1 3615   4.559   3.562  15.240 -0.5256 -1.3361 -0.1373
  238MPD1    H2 3616   0.087   3.240  15.300 -1.6289 -0.5407 -0.0719
  238MPD1    H3 3617   4.600   3.336  15.316  0.9364  0.3614  0.9573
  238MPD1     N 3618   0.008   3.704  15.111  0.2777  0.1603  0.1104
  238MPD1    H5 3619   4.644   3.740  15.148  0.0767 -1.6518  1.3455
  238MPD1    N1 3620   0.320   3.358  15.211 -0.1649  0.2864 -0.3714
  238MPD1    H6 3621   0.324   3.256  15.213 -1.1130  0.3145  2.4825
  238MPD1    H7 3622   0.378   3.388  15.132  1.3930 -0.2759  0.5619
  239MPD1     C 3623   0.795   0.212  14.745  0.4560  0.4798 -0.3731
  239MPD1    C1 3624   0.865   0.191  14.632 -0.1112  0.0232 -1.0612
  239MPD1    C2 3625   0.825   0.257  14.516  0.4756  0.0653  0.0477
  239MPD1    C3 3626   0.702   0.325  14.506 -0.6437 -0.2617 -0.4480
  239MPD1    C4 3627   0.631   0.339  14.624 -0.0829 -0.2728 -0.1151
  239MPD1    C5 3628   0.680   0.289  14.743 -0.1283  0.0935  0.2961
  239MPD1     H 3629   0.893   0.259  14.432  1.8326 -0.0440  1.1531
  239MPD1    H1 3630   0.539   0.397  14.623 -0.1774 -0.4412 -1.0719
  239MPD1    H2 3631   0.822   0.159  14.836 -1.7072 -0.8326 -0.4950
  239MPD1    H3 3632   0.622   0.305  14.833  0.1025  0.6602  0.3424
  239MPD1     N 3633   0.646   0.377  14.382 -1.0643  0.0011 -0.4134
  239MPD1    H5 3634   0.553   0.416  14.396 -0.1316  1.3988  2.0092
  239MPD1    N1 3635   0.997   0.137  14.639  0.0686 -0.2570 -0.5218
  239MPD1    H6 3636   1.022   0.097  14.548  2.1101  0.7125 -0.3801
  239MPD1    H7 3637   1.014   0.059  14.701 -2.9742 -0.3729  0.1807
  240MPD1     C 3638   0.418   4.536  13.891 -0.5603  0.3999  0.3546
  240MPD1    C1 3639   0.309   4.610  13.893 -0.2824  0.4247  0.1942
  240MPD1    C2 3640   0.244   4.630  14.017 -1.1119 -0.1943 -0.5350
  240MPD1    C3 3641   0.292   4.585  14.137 -0.1993  0.1849  0.0659
  240MPD1    C4 3642   0.412   4.510  14.134  0.3590 -0.7876  0.2230
  240MPD1    C5 3643   0.473   4.490  14.010 -0.0905 -0.6430 -0.3414
  240MPD1     H 3644   0.149   4.682  14.022 -1.3526 -0.7493  0.7290
  240MPD1    H1 3645   0.464   4.460  14.215 -0.6794 -1.4200  0.4929
  240MPD1    H2 3646   0.466   4.509  13.797 -0.8950  1.5850 -0.1547
  240MPD1    H3 3647   0.545   4.409  14.005 -0.1944 -0.8636  1.9690
  240MPD1     N 3648   0.211   4.603  14.252  0.1587 -1.0196 -0.2062
  240MPD1    H5 3649   0.119   4.642  14.236  0.0208 -0.0800  2.7201
  240MPD1    N1 3650   0.242   4.642  13.769  0.3521  0.3818 -0.0711
  240MPD1    H6 3651   0.194   0.006  13.791  0.2049 -0.4587  2.9938
  240MPD1    H7 3652   0.311   4.667  13.698 -0.8034  2.1379 -0.5624
  241MPD1     C 3653   0.354   4.357  15.257  0.2678 -0.3003  0.2645
  241MPD1    C1 3654   0.222   4.406  15.241 -0.0734 -0.6448  1.0992
  241MPD1    C2 3655   0.180   4.427  15.107 -0.3970  0.2496 -0.2933
  241MPD1    C3 3656   0.272   4.404  15.002 -0.2919  0.0669 -0.1984
  241MPD1    C4 3657   0.396   4.345  15.027 -0.1444  0.7777 -0.9876
  241MPD1    C5 3658   0.432   4.316  15.150 -0.5447 -0.0367  0.3841
  241MPD1     H 3659   0.082   4.471  15.094 -1.3823 -1.7879  0.1002
  241MPD1    H1 3660   0.466   4.325  14.946  0.4444 -2.8895  0.4171
  241MPD1    H2 3661   0.389   4.341  15.358 -1.1350  0.4178  0.8732
  241MPD1    H3 3662   0.527   4.276  15.182 -1.9023 -1.5969  2.4530
  241MPD1     N 3663   0.240   4.455  14.870  0.1041 -0.4674 -0.0972
  241MPD1    H5 3664   0.287   4.420  14.787 -0.9325 -0.7575 -0.5651
  241MPD1    N1 3665   0.157   4.457  15.359  0.2495  0.3555 -0.2986
  241MPD1    H6 3666   0.056   4.461  15.344  0.0152 -0.9187  0.9602
  241MPD1    H7 3667   0.176   4.398  15.439 -1.1321 -0.0973 -0.3077
  242MPD1     C 3668   4.039   2.889  16.176 -0.2067 -0.2454  0.0312
  242MPD1    C1 3669   4.088   3.017  16.157 -0.0671 -0.6001  0.5567
  242MPD1    C2 3670   4.161   3.050  16.046  0.2379  0.1752  0.0175
  242MPD1    C3 3671   4.175   2.960  15.942  0.3306 -0.1655 -0.0882
  242MPD1    C4 3672   4.113   2.832  15.954  0.3012 -0.6362  0.0902
  242MPD1    C5 3673   4.054   2.795  16.070  0.5405  0.2763  0.1886
  242MPD1     H 3674   4.202   3.148  16.025 -3.0543  1.0782 -2.1037
  242MPD1    H1 3675   4.119   2.762  15.872 -2.5675  1.3787 -1.8352
  242MPD1    H2 3676   3.991   2.851  16.266  3.4092 -0.3118  1.9618
  242MPD1    H3 3677   4.006   2.699  16.081  0.6049  0.2341  0.1020
  242MPD1     N 3678   4.243   2.987  15.814 -0.1798 -0.2682 -0.6331
  242MPD1    H5 3679   4.228   2.919  15.741 -2.2301 -0.8412  0.3068
  242MPD1    N1 3680   4.071   3.106  16.262  0.4960  0.1064 -0.0881
  242MPD1    H6 3681   3.973   3.109  16.292  0.4340  0.1569 -0.2959
  242MPD1    H7 3682   4.107   3.198  16.239  2.0837 -0.1716  1.3274
  243MPD1     C 3683   1.653   2.425  17.317 -0.6629  0.3830 -0.5662
  243MPD1    C1 3684   1.602   2.367  17.440 -0.1829 -0.1919  0.2190
  243MPD1    C2 3685   1.518   2.261  17.433 -0.7401 -0.4843  0.6529
  243MPD1    C3 3686   1.504   2.184  17.319  0.1985  0.6484 -0.1006
  243MPD1    C4 3687   1.572   2.222  17.203 -0.4060 -0.1468  0.4975
  243MPD1    C5 3688   1.644   2.345  17.203  0.1404 -0.4087 -0.2092
  243MPD1     H 3689   1.470   2.228  17.524 -3.4027 -1.0075 -0.9279
  243MPD1    H1 3690   1.565   2.173  17.107 -0.0418 -0.5560  0.6820
  243MPD1    H2 3691   1.709   2.518  17.326 -1.6320  0.8026  0.9629
  243MPD1    H3 3692   1.680   2.389  17.111  3.8472 -0.7237  1.0884
  243MPD1     N 3693   1.423   2.070  17.320 -0.1953 -0.3330 -0.0730
  243MPD1    H5 3694   1.379   2.051  17.409  0.0263  0.6891  0.2594
  243MPD1    N1 3695   1.616   2.450  17.556 -0.3119 -0.1405 -0.1267
  243MPD1    H6 3696   1.606   2.405  17.647  0.7179  1.0326  0.5726
  243MPD1    H7 3697   1.709   2.492  17.556 -0.9725  1.3024 -1.4022
  244MPD1     C 3698   1.241   1.743   0.320 -0.6463 -0.4096  0.0619
  244MPD1    C1 3699   1.305   1.851   0.267  0.3292 -0.4602 -0.3847
  244MPD1    C2 3700   1.282   1.869   0.133  0.6805  0.4441 -0.3055
  244MPD1    C3 3701   1.216   1.767   0.052 -0.6192 -0.4319  0.2509
  244MPD1    C4 3702   1.166   1.659   0.111 -0.4955 -0.0610 -0.1679
  244MPD1    C5 3703   1.183   1.641   0.248 -0.3963  0.1080  0.2582
  244MPD1     H 3704   1.321   1.955   0.079 -2.3582  1.3234 -1.1172
  244MPD1    H1 3705   1.118   1.581   0.053 -0.1000 -1.4200  1.3099
  244MPD1    H2 3706   1.241   1.725   0.427 -1.8748  0.8837  0.2942
  244MPD1    H3 3707   1.146   1.550   0.295 -1.0475 -0.4520 -1.3485
  244MPD1     N 3708   1.197   1.789  17.608 -0.0685  0.0009  0.0571
  244MPD1    H5 3709   1.245   1.874  17.582  0.3472 -0.6183 -1.2028
  244MPD1    N1 3710   1.366   1.946   0.349  0.4537 -0.7833 -0.8973
  244MPD1    H6 3711   1.433   2.000   0.295 -1.0504  1.2210 -0.7532
  244MPD1    H7 3712   1.421   1.897   0.419  0.4294 -1.7677 -1.5686
  245MPD1     C 3713   2.424   2.274  13.568 -0.5249  0.9666 -0.3581
  245MPD1    C1 3714   2.524   2.180  13.593  0.0108  0.2736 -0.2611
  245MPD1    C2 3715   2.660   2.217  13.586 -0.3203 -0.4062  0.8490
  245MPD1    C3 3716   2.687   2.341  13.536 -0.3781  0.0707 -0.0964
  245MPD1    C4 3717   2.589   2.436  13.528 -0.7492  0.5499  0.0379
  245MPD1    C5 3718   2.456   2.405  13.557  0.1870 -0.3781 -0.3594
  245MPD1     H 3719   2.727   2.134  13.602 -2.7831 -2.8596 -1.5828
  245MPD1    H1 3720   2.614   2.533  13.487  0.5418 -0.2634 -1.0895
  245MPD1    H2 3721   2.319   2.256  13.589 -0.2005 -1.2986 -0.6660
  245MPD1    H3 3722   2.376   2.477  13.567  1.6264  1.3403 -1.2513
  245MPD1     N 3723   2.820   2.373  13.506 -0.3320  0.5418  0.2979
  245MPD1    H5 3724   2.899   2.312  13.524 -0.2489  1.6516  3.7091
  245MPD1    N1 3725   2.483   2.062  13.661  0.4123 -0.0687 -0.3008
  245MPD1    H6 3726   2.388   2.029  13.646  0.4033 -0.2407  0.1502
  245MPD1    H7 3727   2.560   1.995  13.655 -0.5381 -1.0703 -1.3937
  246MPD1     C 3728   2.488   3.942   8.687  0.1086 -0.2632 -0.3993
  246MPD1    C1 3729   2.513   3.810   8.655 -0.6778  0.1087 -0.9403
  246MPD1    C2 3730   2.648   3.779   8.645 -0.2931  0.2093  0.2897
  246MPD1    C3 3731   2.754   3.864   8.654 -0.8478  0.4538  0.4614
  246MPD1    C4 3732   2.726   3.988   8.704 -0.0453  0.0169 -0.0121
  246MPD1    C5 3733   2.595   4.024   8.723  0.6115  0.6605 -0.4175
  246MPD1     H 3734   2.670   3.676   8.621 -2.1367 -0.6441  2.2917
  246MPD1    H1 3735   2.809   4.057   8.716 -0.9665  1.2418 -0.6368
  246MPD1    H2 3736   2.385   3.976   8.689 -0.1426 -0.9554 -1.3307
  246MPD1    H3 3737   2.567   4.125   8.751 -3.4036 -0.3906 -0.5772
  246MPD1     N 3738   2.884   3.812   8.635 -0.4316 -0.2192 -0.0017
  246MPD1    H5 3739   2.894   3.714   8.610  2.4577 -0.5883  2.5817
  246MPD1    N1 3740   2.410   3.736   8.590 -0.0033 -0.6089 -0.0338
  246MPD1    H6 3741   2.325   3.744   8.645 -0.1565 -3.4622  0.1441
  246MPD1    H7 3742   2.429   3.636   8.591  0.6793 -0.4816 -1.1665
  247MPD1     C 3743   1.646   2.218  16.082  0.3955  0.4517 -0.2359
  247MPD1    C1 3744   1.671   2.084  16.069 -0.7261 -0.0575 -0.1563
  247MPD1    C2 3745   1.791   2.041  15.996  0.5561  0.3912  0.0068
  247MPD1    C3 3746   1.869   2.137  15.929 -0.3232 -0.2385 -0.3335
  247MPD1    C4 3747   1.832   2.266  15.942 -0.3211  0.3224 -0.1690
  247MPD1    C5 3748   1.727   2.304  16.017  0.4114  0.3463 -0.8443
  247MPD1     H 3749   1.831   1.940  16.001 -0.0143  0.1088 -1.2295
  247MPD1    H1 3750   1.894   2.347  15.906 -0.1933  1.3566  2.3444
  247MPD1    H2 3751   1.569   2.259  16.146 -1.1262 -2.1568 -0.4054
  247MPD1    H3 3752   1.713   2.411  16.025  1.7650  0.5231 -0.8750
  247MPD1     N 3753   1.986   2.111  15.864 -0.5397 -0.2408  0.9428
  247MPD1    H5 3754   2.032   2.199  15.842  1.2486 -0.5963  3.2832
  247MPD1    N1 3755   1.599   1.983  16.134 -0.4747  0.1483  0.2287
  247MPD1    H6 3756   1.595   1.890  16.091 -0.5806  0.5341 -0.5956
  247MPD1    H7 3757   1.510   2.020  16.167 -0.5182  0.2698 -0.0219
  248MPD1     C 3758   2.442   4.026  17.515 -0.1484  0.0559 -0.4159
  248MPD1    C1 3759   2.573   4.048  17.484  0.8163  0.5798  0.0386
  248MPD1    C2 3760   2.655   3.934  17.490 -0.3507  0.8785  0.8821
  248MPD1    C3 3761   2.611   3.804  17.490 -0.0556  0.4546  0.7132
  248MPD1    C4 3762   2.474   3.789  17.504 -0.0001  0.3285 -0.3501
  248MPD1    C5 3763   2.396   3.899  17.524 -0.3206  0.1546  0.1488
  248MPD1     H 3764   2.760   3.959  17.486 -0.3386  0.7044 -0.1219
  248MPD1    H1 3765   2.424   3.693  17.495  1.5509 -0.4902 -0.1910
  248MPD1    H2 3766   2.369   4.106  17.530 -1.5368 -1.1588 -0.7066
  248MPD1    H3 3767   2.289   3.893  17.542 -0.7139 -0.3126 -2.3570
  248MPD1     N 3768   2.707   3.698  17.483 -0.5232 -0.3009 -0.5540
  248MPD1    H5 3769   2.804   3.723  17.466 -0.9815  0.8588 -1.4918
  248MPD1    N1 3770   2.631   4.174  17.498 -0.0061  0.1313  0.1360
  248MPD1    H6 3771   2.702   4.159  17.426  0.4713  1.1424  0.4047
  248MPD1    H7 3772   2.565   4.243  17.463  1.2965 -0.0589 -2.7023
  249MPD1     C 3773   4.377   1.428   9.217  0.6970  0.0459  0.1233
  249MPD1    C1 3774   4.332   1.489   9.331 -1.1878 -0.0321  0.5530
  249MPD1    C2 3775   4.414   1.588   9.394  0.6282  0.3793  0.1924
  249MPD1    C3 3776   4.529   1.631   9.331  0.1377 -0.1276 -0.6342
  249MPD1    C4 3777   4.554   1.575   9.207  0.4321 -0.2553  0.3597
  249MPD1    C5 3778   4.479   1.476   9.152  0.3879  0.2268 -0.5287
  249MPD1     H 3779   4.383   1.634   9.487 -0.7818 -2.4015  1.0969
  249MPD1    H1 3780   4.637   1.617   9.151 -0.1422  1.1040  0.5383
  249MPD1    H2 3781   4.335   1.334   9.185  0.8628 -0.2104  0.6494
  249MPD1    H3 3782   4.510   1.437   9.056  1.5283 -0.6072  0.1726
  249MPD1     N 3783   4.616   1.729   9.393 -0.6526  0.7606  0.7920
  249MPD1    H5 3784   4.584   1.778   9.476 -3.3843  0.8187 -0.3008
  249MPD1    N1 3785   4.215   1.447   9.399 -0.0231 -0.0363 -0.0993
  249MPD1    H6 3786   4.162   1.518   9.449  0.5571  0.0529  0.3855
  249MPD1    H7 3787   4.154   1.412   9.325 -1.4512 -2.3874  2.2127
  250MPD2     C 3788   1.559   0.709  12.110  0.5449  0.6775 -0.1639
  250MPD2    C1 3789   1.512   0.771  12.221  0.2673  0.2818  0.9897
  250MPD2    C2 3790   1.381   0.749  12.260 -0.9901 -0.0667  0.9480
  250MPD2    C3 3791   1.303   0.668  12.183 -1.0369  0.6177 -0.5017
  250MPD2    C4 3792   1.347   0.605  12.074  0.1298 -0.3230  0.9353
  250MPD2    C5 3793   1.477   0.623  12.043 -0.0850  0.2579 -0.1779
  250MPD2     H 3794   1.339   0.799  12.346 -0.1448 -0.5917  1.6756
  250MPD2    H1 3795   1.278   0.541  12.020  0.1965 -1.5286  2.2720
  250MPD2    H2 3796   1.654   0.735  12.064  0.1314 -0.0462 -1.4229
  250MPD2    H3 3797   1.530   0.586  11.956  3.4480  2.8393  0.8699
  250MPD2     N 3798   1.171   0.647  12.209 -0.2459  0.1964  0.0416
  250MPD2    H5 3799   1.128   0.574  12.154  0.6720 -0.0737 -0.3169
  250MPD2    N1 3800   1.598   0.860  12.287  0.7396  0.5175  0.3354
  250MPD2    H7 3801   1.686   0.877  12.239 -0.2902 -0.1323 -1.7836
  251TMC3    C1 3802   1.667   1.053  12.399 -0.0513 -0.3980  0.2506
  251TMC3    C2 3803   1.632   1.185  12.410  0.0269  0.2911 -0.2641
  251TMC3    C3 3804   1.718   1.276  12.470 -0.2580  0.0761 -0.5270
  251TMC3    C4 3805   1.773   1.005  12.464  0.2097 -0.0152 -0.4920
  251TMC3    C5 3806   1.845   1.093  12.534  0.2768  0.0226  0.5265
  251TMC3    C6 3807   1.825   1.231  12.536  0.3871 -0.7117 -0.4591
  251TMC3     C 3808   1.561   0.952  12.377  0.5827  0.8656 -0.4460
  251TMC3     O 3809   1.469   0.961  12.453 -1.1454  0.0780 -0.0492
  251TMC3     H 3810   1.543   1.214  12.356 -1.4394 -0.8920  1.5292
  251TMC3    H1 3811   1.803   0.901  12.459 -3.0044 -0.8905 -1.6883
  251TMC3    H2 3812   1.896   1.289  12.595 -0.2471 -1.0136  0.5952
  251TMC3    C7 3813   1.903   1.030  12.652 -0.1579  0.1506 -0.1409
  251TMC3    C8 3814   1.653   1.373  12.551 -0.4071  0.2268 -0.0105
  251TMC3    O1 3815   1.946   0.917  12.648  0.8139  0.2628  0.0529
  251TMC3    O2 3816   1.694   1.387  12.665 -0.0007 -0.2873  0.2491
  252TMC3    C1 3817   2.229   1.270   9.576 -0.1594  0.2234 -0.0569
  252TMC3    C2 3818   2.273   1.397   9.569  0.5698 -0.2176 -0.0794
  252TMC3    C3 3819   2.248   1.479   9.669  0.6949 -0.0463 -0.8719
  252TMC3    C4 3820   2.134   1.234   9.666  0.2798 -0.0778  0.2686
  252TMC3    C5 3821   2.095   1.328   9.760  1.3692 -1.5403  0.5295
  252TMC3    C6 3822   2.154   1.454   9.764 -0.0496 -0.6057 -0.0045
  252TMC3     C 3823   2.281   1.169   9.484  0.7027 -0.4122  0.1916
  252TMC3     O 3824   2.388   1.196   9.430  0.2853  0.0792 -0.1238
  252TMC3     H 3825   2.359   1.411   9.505  0.6262  1.7324  0.4365
  252TMC3    H1 3826   2.109   1.131   9.686 -0.0786  0.3870  2.2895
  252TMC3    H2 3827   2.127   1.509   9.854  1.8108  0.1419  0.1117
  252TMC3    C7 3828   1.999   1.295   9.867  0.2715 -0.0633  0.2790
  252TMC3    C8 3829   2.337   1.596   9.681 -0.2942  0.5565  0.4530
  252TMC3    O1 3830   1.995   1.363   9.967  0.0387  0.2342 -0.1580
  252TMC3    O2 3831   2.413   1.611   9.587  0.1761 -0.1003  0.8279
  253MPD2     C 3832   2.919   1.240  15.289  0.0498  0.2515  0.0271
  253MPD2    C1 3833   2.822   1.214  15.383 -0.8714  0.7504  0.2198
  253MPD2    C2 3834   2.860   1.224  15.517  0.4094 -0.5086  0.3760
  253MPD2    C3 3835   2.977   1.288  15.559  0.0168  0.3534  0.0071
  253MPD2    C4 3836   3.055   1.332  15.454 -0.2814  0.0543  0.4305
  253MPD2    C5 3837   3.037   1.302  15.320  0.1617  0.2509 -0.2908
  253MPD2     H 3838   2.801   1.179  15.595  1.1232  0.0557  1.2345
  253MPD2    H1 3839   3.133   1.404  15.474 -0.5387 -0.5114  3.5112
  253MPD2    H2 3840   2.896   1.228  15.184  0.9458 -1.3905  0.0210
  253MPD2    H3 3841   3.111   1.330  15.246  0.3842 -1.5777 -0.7396
  253MPD2     N 3842   3.007   1.321  15.688  0.3789 -0.2603 -0.1471
  253MPD2    H5 3843   3.087   1.383  15.699 -0.2028  0.8647 -2.4517
  253MPD2    N1 3844   2.697   1.164  15.353 -0.0813 -0.0272 -0.4493
  253MPD2    H7 3845   2.640   1.162  15.437 -0.7157 -1.5749 -0.9106
  254TMC3    C1 3846   3.000   1.337  15.922  0.9248 -0.4465  0.1741
  254TMC3    C2 3847   2.957   1.465  15.938  0.2664 -0.2400 -0.2219
  254TMC3    C3 3848   2.925   1.498  16.068  0.2429  0.1633  0.1645
  254TMC3    C4 3849   3.027   1.262  16.029 -0.1677 -0.1927 -1.2033
  254TMC3    C5 3850   3.007   1.301  16.156  0.7703  0.2797 -0.1192
  254TMC3    C6 3851   2.958   1.421  16.184  0.4521  0.4117 -0.3286
  254TMC3     C 3852   2.957   1.264  15.803 -0.0920 -0.9549 -0.7238
  254TMC3     O 3853   2.882   1.169  15.820 -0.7485 -1.0013  0.2801
  254TMC3     H 3854   2.943   1.538  15.859  2.0458 -1.4872 -1.6931
  254TMC3    H1 3855   3.069   1.163  16.017  0.8060  0.1070 -0.2523
  254TMC3    H2 3856   2.950   1.453  16.287 -0.2809  0.5955 -0.4430
  254TMC3    C7 3857   3.087   1.236  16.260 -0.2579  0.5778 -0.0332
  254TMC3    C8 3858   2.787   1.532  16.090  0.2721 -0.4237  0.0808
  254TMC3    O1 3859   3.127   1.301  16.355 -0.2311  0.5912 -0.4749
  254TMC3    O2 3860   2.751   1.532  16.206  0.2250 -0.2134  0.2556
  255MPD2     C 3861   0.832   2.641  10.356  0.2923  0.5396 -0.0737
  255MPD2    C1 3862   0.883   2.769  10.365  0.5382 -0.1445 -0.2609
  255MPD2    C2 3863   1.017   2.792  10.338 -0.6084 -0.5386 -0.1327
  255MPD2    C3 3864   1.096   2.686  10.287  0.0871 -0.1660  1.0282
  255MPD2    C4 3865   1.046   2.559  10.292 -0.4917 -0.1597  0.7709
  255MPD2    C5 3866   0.916   2.535  10.330 -0.4131  0.7902  0.3328
  255MPD2     H 3867   1.060   2.891  10.331 -1.0602 -0.3710 -0.4630
  255MPD2    H1 3868   1.114   2.482  10.258 -0.2103  1.6127 -2.6258
  255MPD2    H2 3869   0.726   2.622  10.362  0.4738 -0.2411  0.7575
  255MPD2    H3 3870   0.884   2.431  10.334  0.6984  0.4373  0.0481
  255MPD2     N 3871   1.223   2.720  10.235  0.2833  0.0253 -0.3862
  255MPD2    H5 3872   1.252   2.816  10.252  0.5660 -0.0371 -0.5261
  255MPD2    N1 3873   0.794   2.872  10.399  0.3752  0.3963 -0.1290
  255MPD2    H7 3874   0.699   2.839  10.411  0.1515  0.9921 -0.2631
  256TMC3    C1 3875   0.709   3.090  10.413  0.0851  0.2489  0.3596
  256TMC3    C2 3876   0.732   3.219  10.447  0.8027  0.0265  0.1317
  256TMC3    C3 3877   0.655   3.317  10.392 -0.2574 -0.1134  1.0713
  256TMC3    C4 3878   0.623   3.057  10.318 -0.0651  0.4096  0.5578
  256TMC3    C5 3879   0.542   3.154  10.269  0.0556 -0.0073  0.1313
  256TMC3    C6 3880   0.558   3.290  10.310 -0.2243 -0.5386 -0.0017
  256TMC3     C 3881   0.825   2.998  10.435  0.0886  0.0637 -0.3118
  256TMC3     O 3882   0.940   3.045  10.453  0.5158 -0.5782 -0.1174
  256TMC3     H 3883   0.814   3.243  10.514 -0.2428  0.7783  1.1311
  256TMC3    H1 3884   0.608   2.953  10.291 -2.1478  0.5491  1.1760
  256TMC3    H2 3885   0.501   3.371  10.267  0.7257  1.8350  3.2138
  256TMC3    C7 3886   0.462   3.117  10.150 -0.0885 -0.4780 -0.3821
  256TMC3    C8 3887   0.693   3.453  10.423 -0.9272 -0.8881 -0.1226
  256TMC3    O1 3888   0.501   3.027  10.077  0.3238  0.4958  0.2224
  256TMC3    O2 3889   0.752   3.478  10.529 -0.4986  0.0096  0.2840
  257MPD2     C 3890   0.228   1.281  12.928  0.5744  0.3985 -0.0051
  257MPD2    C1 3891   0.175   1.182  12.840  0.7469 -0.2737  0.3602
  257MPD2    C2 3892   0.159   1.055  12.891  0.4713  0.4596 -0.4796
  257MPD2    C3 3893   0.199   1.025  13.019 -0.1622  0.2493  0.6109
  257MPD2    C4 3894   0.252   1.121  13.101 -0.3293  0.0091  0.5452
  257MPD2    C5 3895   0.269   1.248  13.057  0.0984 -0.1247 -0.2963
  257MPD2     H 3896   0.128   0.982  12.817  3.2464 -1.1994  0.0221
  257MPD2    H1 3897   0.289   1.100  13.201 -2.7315  3.3251  2.1434
  257MPD2    H2 3898   0.245   1.385  12.902 -0.7146  0.7709  0.6002
  257MPD2    H3 3899   0.310   1.320  13.127 -0.0217 -1.1764  0.8483
  257MPD2     N 3900   0.210   0.891  13.051  0.1223 -0.5183  0.6770
  257MPD2    H5 3901   0.180   0.826  12.979 -1.0774  1.3892 -0.5538
  257MPD2    N1 3902   0.138   1.223  12.711 -0.2917  0.9248  0.4057
  257MPD2    H7 3903   0.159   1.319  12.685  0.0296 -0.4445 -4.4450
  258TMC3    C1 3904   0.255   0.701  13.200 -0.3788 -0.0686  0.0583
  258TMC3    C2 3905   0.307   0.627  13.099 -0.0532  0.3294 -0.4159
  258TMC3    C3 3906   0.350   0.505  13.126  0.2836 -0.0870  0.2455
  258TMC3    C4 3907   0.243   0.659  13.330  0.9886 -0.2096 -0.3307
  258TMC3    C5 3908   0.299   0.531  13.361 -0.4602  0.7852 -0.4799
  258TMC3    C6 3909   0.342   0.455  13.258  0.1715 -0.0528  0.1044
  258TMC3     C 3910   0.234   0.845  13.180  0.8619 -0.2344 -0.8200
  258TMC3     O 3911   0.222   0.902  13.287  0.3939  0.4035 -0.3976
  258TMC3     H 3912   0.329   0.678  13.005  1.9610 -0.9975 -0.6703
  258TMC3    H1 3913   0.192   0.716  13.406 -0.5236 -0.7617 -0.9277
  258TMC3    H2 3914   0.351   0.350  13.282  0.4266 -0.1506 -0.4036
  258TMC3    C7 3915   0.248   0.468  13.478  0.6078  0.3777 -0.4805
  258TMC3    C8 3916   0.372   0.418  13.017 -0.2039  0.6307  0.3627
  258TMC3    O1 3917   0.149   0.523  13.522 -0.5945  0.1933 -0.1034
  258TMC3    O2 3918   0.463   0.336  13.020 -0.0023  0.5065  0.5062
  259MPD2     C 3919   3.383   2.585   0.647 -0.2045 -0.6676 -0.3942
  259MPD2    C1 3920   3.506   2.585   0.705  0.1357  0.0272  0.3394
  259MPD2    C2 3921   3.612   2.618   0.632  0.3789  0.0755 -0.1201
  259MPD2    C3 3922   3.605   2.662   0.499 -0.1263  0.1708 -0.1600
  259MPD2    C4 3923   3.481   2.674   0.445 -0.0857  0.3563 -0.3214
  259MPD2    C5 3924   3.374   2.624   0.514  0.4616  0.9120 -0.4785
  259MPD2     H 3925   3.709   2.592   0.671  0.4650  0.5577 -0.0115
  259MPD2    H1 3926   3.466   2.716   0.346  0.9574  1.4816 -0.0045
  259MPD2    H2 3927   3.289   2.557   0.692  0.2891 -2.4382 -0.4628
  259MPD2    H3 3928   3.284   2.617   0.455 -0.2065  2.3275  0.3814
  259MPD2     N 3929   3.728   2.684   0.429 -0.0549  0.5782 -0.0032
  259MPD2    H5 3930   3.812   2.668   0.484 -1.1498  1.6012  1.9743
  259MPD2    N1 3931   3.524   2.546   0.845  0.0042 -0.5498  0.2337
  259MPD2    H7 3932   3.438   2.515   0.888  0.0089 -1.1787 -0.2146
  260TMC3    C1 3933   3.884   2.726   0.272 -0.2839  0.0780 -0.5561
  260TMC3    C2 3934   3.925   2.670   0.161  0.5124  0.5237  0.1831
  260TMC3    C3 3935   4.056   2.662   0.144 -0.6224 -0.2390 -0.6841
  260TMC3    C4 3936   3.966   2.762   0.375 -0.1053 -0.5250 -0.0897
  260TMC3    C5 3937   4.099   2.755   0.357  0.4929 -0.1793  0.1067
  260TMC3    C6 3938   4.149   2.708   0.236 -0.7220 -0.2357 -0.3484
  260TMC3     C 3939   3.740   2.713   0.298 -0.2408  0.6270  0.2585
  260TMC3     O 3940   3.658   2.712   0.209 -0.1837 -0.3276  0.2827
  260TMC3     H 3941   3.851   2.643   0.088  2.3282 -1.6349 -0.8383
  260TMC3    H1 3942   3.931   2.807   0.467 -0.6016 -1.4244  0.1581
  260TMC3    H2 3943   4.257   2.707   0.226 -0.6862 -1.4812  0.1479
  260TMC3    C7 3944   4.196   2.796   0.457  0.3530  0.4309 -0.2373
  260TMC3    C8 3945   4.114   2.591   0.028  0.0070  0.1998  1.0356
  260TMC3    O1 3946   4.146   2.875   0.533 -0.4036  0.2058 -0.3698
  260TMC3    O2 3947   4.036   2.570  17.626 -0.3338 -0.0805 -0.1464
  261MPD2     C 3948   0.655   0.533  11.761 -0.5162 -0.2825  0.4550
  261MPD2    C1 3949   0.723   0.636  11.825  0.4507 -0.3777 -0.0662
  261MPD2    C2 3950   0.765   0.744  11.753 -0.7787  0.6196  0.0831
  261MPD2    C3 3951   0.754   0.748  11.613  1.2396 -0.0937 -0.1911
  261MPD2    C4 3952   0.696   0.640  11.546 -1.0183 -0.5024 -0.2947
  261MPD2    C5 3953   0.641   0.547  11.625  0.1652  0.3520 -0.4474
  261MPD2     H 3954   0.808   0.826  11.810 -0.2230  0.3764  0.0052
  261MPD2    H1 3955   0.696   0.628  11.438 -2.5281 -0.8703 -0.2615
  261MPD2    H2 3956   0.627   0.442  11.813  0.4156 -0.6195  0.3697
  261MPD2    H3 3957   0.591   0.463  11.577 -1.9025  0.9384  0.6906
  261MPD2     N 3958   0.821   0.859  11.554 -0.9145  0.4113  0.1955
  261MPD2    H5 3959   0.841   0.942  11.610 -2.2426  0.4465  0.6198
  261MPD2    N1 3960   0.761   0.627  11.964 -0.0366 -0.5349 -0.2654
  261MPD2    H7 3961   0.829   0.698  11.990  0.5313 -1.6231  1.2573
  262TMC3    C1 3962   0.940   0.990  11.397  0.1737 -0.7767 -0.1462
  262TMC3    C2 3963   0.869   1.101  11.437  0.4478 -1.0567 -0.2890
  262TMC3    C3 3964   0.920   1.221  11.395  0.4871 -0.1916 -0.2923
  262TMC3    C4 3965   1.045   0.993  11.308  0.5092  0.4802  0.4819
  262TMC3    C5 3966   1.094   1.115  11.272 -0.0459  0.7174 -0.0015
  262TMC3    C6 3967   1.021   1.229  11.301 -0.1167  0.2123  0.1667
  262TMC3     C 3968   0.882   0.862  11.430 -0.0300  0.2172  0.0031
  262TMC3     O 3969   0.894   0.775  11.345  0.0069 -0.3460  0.0748
  262TMC3     H 3970   0.786   1.101  11.507  0.2593  0.8705 -0.5286
  262TMC3    H1 3971   1.100   0.904  11.279 -0.4601  0.2972 -0.8053
  262TMC3    H2 3972   1.060   1.326  11.274 -2.4337  1.1332  0.1184
  262TMC3    C7 3973   1.218   1.107  11.195 -0.3571 -0.4673 -1.0432
  262TMC3    C8 3974   0.848   1.346  11.420  0.3717  0.1656  0.5903
  262TMC3    O1 3975   1.270   0.996  11.187 -0.2653  0.2850 -0.4132
  262TMC3    O2 3976   0.861   1.432  11.339  0.1574 -0.3150  0.7860
  263MPD2     C 3977   1.781   4.688  11.405 -0.9511  0.6094  0.5218
  263MPD2    C1 3978   1.887   0.033  11.345  0.1463  0.2947  1.2892
  263MPD2    C2 3979   1.868   0.083  11.221  0.2416  0.5112 -0.4952
  263MPD2    C3 3980   1.747   0.076  11.152  0.3878  0.0797  0.0720
  263MPD2    C4 3981   1.647   0.008  11.214  0.1758 -0.0684 -0.5062
  263MPD2    C5 3982   1.663   4.676  11.337  0.1041 -0.0591  0.1134
  263MPD2     H 3983   1.945   0.145  11.177  0.5196 -1.1112 -2.3120
  263MPD2    H1 3984   1.546   0.002  11.176  0.2310  2.5790 -1.0638
  263MPD2    H2 3985   1.793   4.658  11.508  1.3123 -0.0671  0.0794
  263MPD2    H3 3986   1.570   4.628  11.365  0.9143 -1.3043  0.6471
  263MPD2     N 3987   1.723   0.134  11.029 -0.4260 -0.3470 -0.8241
  263MPD2    H5 3988   1.625   0.134  11.001 -0.0547 -0.4681 -2.1119
  263MPD2    N1 3989   2.016   0.030  11.411 -0.0665  0.4159  0.3310
  263MPD2    H7 3990   2.020   4.718  11.506  0.0754 -3.2588 -1.0256
  264TMC3    C1 3991   1.769   0.249  10.828 -0.0377  0.4200  0.3710
  264TMC3    C2 3992   1.714   0.370  10.872  0.0017  0.5829 -0.0152
  264TMC3    C3 3993   1.723   0.475  10.785 -0.5476  0.4363  0.6073
  264TMC3    C4 3994   1.860   0.241  10.727 -0.1356  0.0442  0.4815
  264TMC3    C5 3995   1.876   0.347  10.644  0.1436  0.3976  0.7145
  264TMC3    C6 3996   1.816   0.466  10.681 -0.1302  0.2667  0.2552
  264TMC3     C 3997   1.818   0.173  10.941  0.2270 -0.3094  0.2469
  264TMC3     O 3998   1.939   0.144  10.944  0.2405  0.6397  0.3931
  264TMC3     H 3999   1.645   0.375  10.955  0.1870  1.5391  0.0835
  264TMC3    H1 4000   1.895   0.141  10.702 -0.2518 -0.0322  0.6230
  264TMC3    H2 4001   1.826   0.551  10.614 -1.2515 -0.6899 -1.1188
  264TMC3    C7 4002   2.012   0.372  10.593 -0.7281  0.0532 -0.1088
  264TMC3    C8 4003   1.756   0.594  10.860  0.1626 -0.0074  0.6670
  264TMC3    O1 4004   2.060   0.290  10.512  0.0354  0.5513 -0.5924
  264TMC3    O2 4005   1.853   0.650  10.818  0.6859  0.4395 -0.0648
  265MPD2     C 4006   3.716   0.855  15.127 -0.3912  0.1549  0.1747
  265MPD2    C1 4007   3.838   0.904  15.163 -0.3922 -0.2706  0.8628
  265MPD2    C2 4008   3.944   0.886  15.075  0.3790 -0.0152  0.2530
  265MPD2    C3 4009   3.926   0.810  14.956 -0.5877 -0.1895  0.4431
  265MPD2    C4 4010   3.801   0.769  14.926 -0.1907  0.7555  0.6867
  265MPD2    C5 4011   3.699   0.791  15.009 -0.0038  0.2249  0.6537
  265MPD2     H 4012   4.039   0.916  15.118 -1.2041  1.2019  2.9098
  265MPD2    H1 4013   3.783   0.716  14.833 -0.0251 -0.2741  1.2376
  265MPD2    H2 4014   3.633   0.871  15.195 -2.7649 -0.4916 -2.6054
  265MPD2    H3 4015   3.598   0.755  14.992  0.1029  0.4026 -0.3634
  265MPD2     N 4016   4.026   0.777  14.863 -0.5546 -1.0111 -0.1426
  265MPD2    H5 4017   3.996   0.720  14.784 -1.2442  0.2937 -0.8239
  265MPD2    N1 4018   3.855   0.981  15.279  1.0968  0.1693 -0.3095
  265MPD2    H7 4019   3.939   1.038  15.280  1.4436 -0.3758  3.1165
  266TMC3    C1 4020   3.803   1.087  15.489 -0.3151  0.3730 -0.1091
  266TMC3    C2 4021   3.787   1.054  15.620  0.8772 -0.5542  0.0181
  266TMC3    C3 4022   3.829   1.142  15.722 -0.3819 -0.0196 -0.3598
  266TMC3    C4 4023   3.838   1.217  15.447 -0.6011  0.1440  0.5185
  266TMC3    C5 4024   3.868   1.299  15.549 -0.4181  0.3224 -0.1152
  266TMC3    C6 4025   3.867   1.270  15.688 -0.1077  0.3288  0.2651
  266TMC3     C 4026   3.767   0.991  15.389 -0.4043  0.4023  0.6312
  266TMC3     O 4027   3.685   0.907  15.424 -0.1802 -1.1036  0.0870
  266TMC3     H 4028   3.766   0.952  15.651  2.5433 -1.5072 -1.9594
  266TMC3    H1 4029   3.851   1.238  15.342 -0.9925 -0.2092  0.3970
  266TMC3    H2 4030   3.900   1.340  15.764 -1.0895  0.5689  0.4701
  266TMC3    C7 4031   3.901   1.437  15.509 -0.5260  0.6180  0.4528
  266TMC3    C8 4032   3.844   1.094  15.852 -0.0263 -0.6123 -0.0705
  266TMC3    O1 4033   3.858   1.468  15.398 -0.2971 -0.0132 -0.1039
  266TMC3    O2 4034   3.815   0.974  15.876 -0.0803 -0.0674  0.4264
  267MPD2     C 4035   2.146   2.865  17.691 -0.0112 -0.2832 -0.1441
  267MPD2    C1 4036   2.022   2.912   0.010 -0.2033 -0.4631  0.1812
  267MPD2    C2 4037   1.958   2.981  17.604 -0.3324 -0.6873 -0.4468
  267MPD2    C3 4038   2.018   2.997  17.479 -0.1647 -0.3668 -0.0986
  267MPD2    C4 4039   2.140   2.943  17.460 -0.3024 -0.4277  0.2880
  267MPD2    C5 4040   2.202   2.875  17.559  0.0954  0.1524  0.0458
  267MPD2     H 4041   1.853   3.007  17.610  0.2570  1.6036 -0.0203
  267MPD2    H1 4042   2.184   2.945  17.361 -1.9210  0.0763 -0.4135
  267MPD2    H2 4043   2.191   2.799   0.069  0.9033  1.2049  0.6534
  267MPD2    H3 4044   2.290   2.817  17.531 -0.4747 -0.8264  0.2737
  267MPD2     N 4045   1.952   3.060  17.370  0.0976 -0.0949 -0.1053
  267MPD2    H5 4046   1.982   3.028  17.279  0.3737  1.6588 -0.6302
  267MPD2    N1 4047   1.955   2.889   0.133 -0.1105  0.0300 -0.6840
  267MPD2    H7 4048   2.013   2.851   0.207  0.5242  1.2310 -0.5722
  268TMC3    C1 4049   1.813   2.959   0.313  0.5193 -1.4021 -0.2399
  268TMC3    C2 4050   1.790   3.088   0.343  0.5015 -0.5467  0.7824
  268TMC3    C3 4051   1.858   3.156   0.433  0.3723 -0.1492 -0.1122
  268TMC3    C4 4052   1.896   2.884   0.390  0.3413  0.7175  0.2203
  268TMC3    C5 4053   1.956   2.952   0.497  0.1758  0.1442 -0.6194
  268TMC3    C6 4054   1.957   3.089   0.510  0.3695 -0.8142  0.1898
  268TMC3     C 4055   1.834   2.945   0.167  0.3594 -0.3013 -0.2005
  268TMC3     O 4056   1.753   3.012   0.106  0.3728  0.4327  0.0568
  268TMC3     H 4057   1.721   3.148   0.285  1.1785  0.0373  0.5920
  268TMC3    H1 4058   1.897   2.776   0.389 -1.9250  0.7022  0.1667
  268TMC3    H2 4059   2.008   3.158   0.575  0.3890  0.2786 -0.9878
  268TMC3    C7 4060   2.003   2.868   0.610  0.0986  0.0364 -1.0658
  268TMC3    C8 4061   1.864   3.299   0.418 -0.0047  0.0566  0.1291
  268TMC3    O1 4062   1.996   2.744   0.599 -0.1433  0.2018  0.1913
  268TMC3    O2 4063   1.885   3.372   0.513  0.4037  0.2582  0.7238
  269MPD2     C 4064   1.605   1.070  15.585  0.4282  0.3973  0.7181
  269MPD2    C1 4065   1.485   1.126  15.632  0.1721  0.9687 -0.3691
  269MPD2    C2 4066   1.484   1.258  15.653  0.3416  0.3295  0.1527
  269MPD2    C3 4067   1.592   1.340  15.632 -0.1036 -0.0514 -0.4112
  269MPD2    C4 4068   1.710   1.279  15.596  0.2275 -0.3572 -0.3382
  269MPD2    C5 4069   1.720   1.141  15.582 -0.3351  0.2162  0.4549
  269MPD2     H 4070   1.392   1.297  15.695  0.6252  0.6281  0.5003
  269MPD2    H1 4071   1.802   1.332  15.573  0.9346 -0.9491  1.1526
  269MPD2    H2 4072   1.622   0.964  15.570  0.6197  0.4130  0.8181
  269MPD2    H3 4073   1.805   1.086  15.543 -0.8036  1.0674 -1.7697
  269MPD2     N 4074   1.585   1.478  15.661 -0.1324 -0.5853  0.1454
  269MPD2    H5 4075   1.500   1.511  15.706  1.4933  0.2388  2.5978
  269MPD2    N1 4076   1.374   1.041  15.647  0.6491  0.9099  0.1707
  269MPD2    H7 4077   1.389   0.941  15.652 -0.3962  0.6438 -1.9456
  270TMC3    C1 4078   1.151   0.968  15.642 -0.1674 -0.0557  0.2350
  270TMC3    C2 4079   1.061   0.942  15.542  0.3563  0.3767 -0.1206
  270TMC3    C3 4080   0.999   0.819  15.552 -0.1886  0.0592 -0.0299
  270TMC3    C4 4081   1.173   0.887  15.748  0.0802 -0.4840 -0.0364
  270TMC3    C5 4082   1.102   0.765  15.759  0.5640  0.4500 -0.0494
  270TMC3    C6 4083   1.013   0.731  15.661  0.3306 -0.5429 -0.6160
  270TMC3     C 4084   1.242   1.076  15.619  0.4203 -0.1482  0.3811
  270TMC3     O 4085   1.209   1.167  15.545 -0.1216 -0.7367 -0.2244
  270TMC3     H 4086   1.057   1.002  15.451 -2.1213  0.7360  0.2234
  270TMC3    H1 4087   1.244   0.916  15.825  1.0900  0.1584 -1.2201
  270TMC3    H2 4088   0.964   0.634  15.659  0.4510 -0.6405  1.4818
  270TMC3    C7 4089   1.181   0.663  15.822  0.0664 -0.0983 -0.0676
  270TMC3    C8 4090   0.916   0.759  15.443 -0.7385  0.6767  0.1902
  270TMC3    O1 4091   1.299   0.687  15.855  0.0398 -0.2540  0.8321
  270TMC3    O2 4092   0.811   0.813  15.415 -0.2903 -0.6576  0.2015
  271MPD2     C 4093   0.932   0.741  13.635  0.1071  0.2536 -0.6518
  271MPD2    C1 4094   0.909   0.809  13.754  0.0807 -0.6552 -0.0873
  271MPD2    C2 4095   0.840   0.929  13.747  0.2548 -0.6917  0.1740
  271MPD2    C3 4096   0.794   0.980  13.628  0.8739 -0.2074  0.8390
  271MPD2    C4 4097   0.836   0.918  13.513 -0.1948  0.3598 -0.3940
  271MPD2    C5 4098   0.895   0.789  13.513 -0.4757  0.4982  0.1107
  271MPD2     H 4099   0.809   0.977  13.838  1.9225  0.2639  0.2307
  271MPD2    H1 4100   0.797   0.965  13.424 -1.3722  0.5894  0.2329
  271MPD2    H2 4101   0.989   0.649  13.643 -0.6284 -0.2805 -1.5861
  271MPD2    H3 4102   0.928   0.751  13.417 -0.8089  0.6468 -0.0651
  271MPD2     N 4103   0.713   1.099  13.614 -1.0432 -0.1700  0.7685
  271MPD2    H5 4104   0.705   1.132  13.519  1.0051 -1.6889  0.0721
  271MPD2    N1 4105   0.948   0.766  13.885  0.2323  0.0293 -0.3227
  271MPD2    H7 4106   0.912   0.816  13.965  1.2714  3.3261 -1.8938
  272TMC3    C1 4107   1.027   0.619  14.055 -0.2710 -0.6405  0.3185
  272TMC3    C2 4108   1.137   0.550  14.099 -0.8628 -0.0136  0.2565
  272TMC3    C3 4109   1.157   0.517  14.232 -0.1374  0.2248 -0.0582
  272TMC3    C4 4110   0.928   0.656  14.141 -0.3026 -0.2069  0.2775
  272TMC3    C5 4111   0.947   0.627  14.281  0.8126  0.3014  0.6234
  272TMC3    C6 4112   1.061   0.551  14.324  0.4639  0.0147  0.1127
  272TMC3     C 4113   1.018   0.647  13.914 -0.0515  0.1371 -0.2492
  272TMC3     O 4114   1.074   0.574  13.836  0.1381  0.2535 -0.0661
  272TMC3     H 4115   1.202   0.512  14.021 -4.6272  1.6733 -3.7087
  272TMC3    H1 4116   0.829   0.690  14.113  0.2304  1.3161  0.2664
  272TMC3    H2 4117   1.078   0.541  14.431  2.6050 -2.0531 -0.4203
  272TMC3    C7 4118   0.857   0.685  14.380  0.6396  0.3584  0.0608
  272TMC3    C8 4119   1.282   0.449  14.274 -1.0768 -0.4881  0.2970
  272TMC3    O1 4120   0.739   0.696  14.345  0.1165  0.6965 -0.5231
  272TMC3    O2 4121   1.374   0.467  14.196 -0.9015 -0.5418 -0.3564
  273MPD2     C 4122   2.376   3.720  11.748  0.7215 -0.4166 -0.6319
  273MPD2    C1 4123   2.423   3.844  11.716 -0.3846  0.5164 -0.2382
  273MPD2    C2 4124   2.452   3.883  11.586  0.3313 -0.2659 -1.1566
  273MPD2    C3 4125   2.431   3.792  11.481 -1.0319  0.0302 -0.1221
  273MPD2    C4 4126   2.377   3.671  11.511 -0.3147  0.2098  0.0368
  273MPD2    C5 4127   2.350   3.636  11.643 -0.4802 -0.2343  0.2936
  273MPD2     H 4128   2.484   3.984  11.561  0.3887 -0.3898 -1.5874
  273MPD2    H1 4129   2.351   3.600  11.434  0.5745 -0.7581  0.6239
  273MPD2    H2 4130   2.354   3.681  11.847 -0.4127 -0.3066 -0.8452
  273MPD2    H3 4131   2.311   3.536  11.658  1.5976 -1.2206 -0.8858
  273MPD2     N 4132   2.458   3.826  11.343  0.1080 -0.0543  0.1625
  273MPD2    H5 4133   2.443   3.752  11.274  0.3958 -1.0409  1.1478
  273MPD2    N1 4134   2.461   3.925  11.828  0.3020  0.1407 -0.1735
  273MPD2    H7 4135   2.450   3.877  11.917  0.9711 -2.9739 -1.7404
  274TMC3    C1 4136   2.522   3.951  11.147  0.1095 -0.4358  0.2796
  274TMC3    C2 4137   2.431   3.889  11.077 -0.0387 -1.2416 -0.2778
  274TMC3    C3 4138   2.421   3.917  10.942  0.5398 -1.1967  0.0369
  274TMC3    C4 4139   2.586   4.061  11.100  0.5348 -0.3346 -0.2180
  274TMC3    C5 4140   2.564   4.089  10.967 -0.1404  0.3456  0.1608
  274TMC3    C6 4141   2.490   4.013  10.880 -0.1133 -0.1307 -0.2533
  274TMC3     C 4142   2.510   3.945  11.295  0.1538  0.2481  0.4794
  274TMC3     O 4143   2.576   4.027  11.354  0.2787 -0.4301  0.4633
  274TMC3     H 4144   2.365   3.812  11.115  0.3697 -0.9020  1.1335
  274TMC3    H1 4145   2.651   4.122  11.162 -1.8831  0.9641  1.0318
  274TMC3    H2 4146   2.455   4.065  10.792 -0.2681  3.4372  1.8854
  274TMC3    C7 4147   2.590   4.231  10.925  0.1880 -0.2218 -0.0595
  274TMC3    C8 4148   2.329   3.845  10.859 -0.4835  0.6193 -0.7343
  274TMC3    O1 4149   2.594   4.244  10.805  0.0739 -0.4119 -0.5053
  274TMC3    O2 4150   2.255   3.764  10.913 -0.1319  0.4058 -0.4783
  275MPD2     C 4151   2.267   1.812  14.237 -0.0669  0.7707 -0.1266
  275MPD2    C1 4152   2.234   1.830  14.371  0.1421  0.1222  0.2067
  275MPD2    C2 4153   2.124   1.755  14.411  0.1085  0.1285 -0.1138
  275MPD2    C3 4154   2.054   1.673  14.324 -0.3761  0.0172 -0.3151
  275MPD2    C4 4155   2.091   1.655  14.193  0.2791 -1.2066  0.5196
  275MPD2    C5 4156   2.203   1.728  14.147 -0.1137  0.0562 -0.0037
  275MPD2     H 4157   2.088   1.770  14.512 -1.5481  1.4749 -0.8971
  275MPD2    H1 4158   2.050   1.586  14.121  1.2772  0.1588 -1.3307
  275MPD2    H2 4159   2.343   1.873  14.189  1.4056 -0.7385  0.2683
  275MPD2    H3 4160   2.237   1.708  14.046 -5.3738  0.0858 -1.8037
  275MPD2     N 4161   1.941   1.600  14.356 -0.4579 -0.4148 -0.1001
  275MPD2    H5 4162   1.895   1.546  14.284 -0.2743  0.8032 -1.1245
  275MPD2    N1 4163   2.310   1.914  14.464 -0.4593  0.3196 -0.2409
  275MPD2    H7 4164   2.278   1.899  14.559  0.9880  1.2421  0.3798
  276TMC3    C1 4165   2.399   2.111  14.541  0.0196  0.3174  0.7441
  276TMC3    C2 4166   2.381   2.059  14.667  0.2270 -0.1929  0.4768
  276TMC3    C3 4167   2.397   2.143  14.772 -0.8349  0.0992 -0.1126
  276TMC3    C4 4168   2.415   2.241  14.508 -0.1862  0.5057 -0.6788
  276TMC3    C5 4169   2.415   2.323  14.618 -0.0206 -0.6166  0.2093
  276TMC3    C6 4170   2.414   2.280  14.751  0.6022  0.7131  0.0791
  276TMC3     C 4171   2.385   2.025  14.431 -0.1979 -0.3584  0.2073
  276TMC3     O 4172   2.409   2.064  14.318  0.1271 -0.9395 -0.5603
  276TMC3     H 4173   2.398   1.954  14.685 -1.8779 -0.3996  1.2700
  276TMC3    H1 4174   2.425   2.276  14.406 -2.2689  0.4359 -0.9076
  276TMC3    H2 4175   2.415   2.351  14.833  1.2967  0.2166  0.5029
  276TMC3    C7 4176   2.422   2.461  14.598  0.3703 -0.0002  0.1333
  276TMC3    C8 4177   2.431   2.106  14.903 -0.0134 -0.3107 -0.1115
  276TMC3    O1 4178   2.392   2.500  14.483  0.3123 -0.0806 -0.4898
  276TMC3    O2 4179   2.483   2.188  14.978 -0.4048 -0.2254 -0.3540
  277MPD2     C 4180   4.286   0.704  12.993 -0.2095  0.0916 -0.1049
  277MPD2    C1 4181   4.271   0.794  13.097  0.0421  0.4718 -0.2264
  277MPD2    C2 4182   4.259   0.739  13.223 -0.6612  0.3189  0.4745
  277MPD2    C3 4183   4.248   0.606  13.244  0.4174  0.5672 -0.0802
  277MPD2    C4 4184   4.254   0.518  13.137 -0.0578  0.1411 -0.7357
  277MPD2    C5 4185   4.282   0.571  13.010 -0.5461 -0.1975  0.3078
  277MPD2     H 4186   4.227   0.797  13.308 -0.9047 -0.2216  0.7517
  277MPD2    H1 4187   4.247   0.410  13.142 -0.1838  0.3123  2.2725
  277MPD2    H2 4188   4.295   0.740  12.892  1.1072  0.7887  0.2556
  277MPD2    H3 4189   4.289   0.507  12.923 -0.1583  2.1374 -1.3733
  277MPD2     N 4190   4.213   0.565  13.372 -0.3011  0.1201 -0.7233
  277MPD2    H5 4191   4.217   0.642  13.438  0.0953 -0.6629  0.1571
  277MPD2    N1 4192   4.263   0.930  13.064 -0.0938 -0.1314  0.1162
  277MPD2    H7 4193   4.228   0.947  12.971 -0.3134 -1.5436 -0.0636
  278TMC3    C1 4194   4.110   0.431  13.531 -0.3581 -0.0677  0.2567
  278TMC3    C2 4195   4.083   0.304  13.582 -0.0340 -0.0860 -0.2758
  278TMC3    C3 4196   3.969   0.281  13.657 -0.7222 -0.2509 -0.2032
  278TMC3    C4 4197   4.029   0.540  13.557 -0.0480  1.1846  0.2603
  278TMC3    C5 4198   3.929   0.517  13.655  0.1741 -0.1944  0.6594
  278TMC3    C6 4199   3.894   0.395  13.703  0.1901 -0.6277 -0.2334
  278TMC3     C 4200   4.188   0.434  13.409 -0.0167  0.4515  0.1888
  278TMC3     O 4201   4.211   0.324  13.355  0.2521 -0.6056  0.2139
  278TMC3     H 4202   4.129   0.215  13.540  2.0648  1.2802 -0.8822
  278TMC3    H1 4203   4.050   0.637  13.513 -0.0362  0.7204 -0.7553
  278TMC3    H2 4204   3.806   0.389  13.765 -0.0761  1.1135 -0.4300
  278TMC3    C7 4205   3.861   0.646  13.688 -0.0776  0.1832 -0.1282
  278TMC3    C8 4206   3.916   0.149  13.671  0.2257  0.1127  0.2386
  278TMC3    O1 4207   3.922   0.751  13.673 -0.1637 -0.2591  0.0450
  278TMC3    O2 4208   4.002   0.063  13.663 -0.1934 -0.4588  0.1200
  279MPD2     C 4209   3.049   1.023   0.620  0.7579 -0.7301  0.3838
  279MPD2    C1 4210   2.946   1.116   0.608  0.0892  0.6990  0.6599
  279MPD2    C2 4211   2.944   1.215   0.510 -0.2737  0.4975  0.1241
  279MPD2    C3 4212   3.049   1.225   0.424 -0.1539  0.1148  0.3853
  279MPD2    C4 4213   3.146   1.126   0.429  0.2210  0.4195  0.5955
  279MPD2    C5 4214   3.150   1.030   0.530 -0.3890 -0.5150  0.1993
  279MPD2     H 4215   2.859   1.280   0.498 -1.0932 -0.5413  0.2914
  279MPD2    H1 4216   3.224   1.117   0.354  0.8047  0.5915  1.1823
  279MPD2    H2 4217   3.037   0.957   0.705  1.0136 -0.8046  0.3620
  279MPD2    H3 4218   3.227   0.955   0.547 -1.2228 -1.7289 -1.3426
  279MPD2     N 4219   3.056   1.314   0.320 -0.1240  0.0317 -0.4709
  279MPD2    H5 4220   3.131   1.295   0.254  1.9104 -0.4627  1.9821
  279MPD2    N1 4221   2.834   1.100   0.695 -0.1096 -0.1593  0.5411
  279MPD2    H7 4222   2.824   1.016   0.752  0.6167  1.0301  2.4383
  280TMC3    C1 4223   2.606   1.109   0.691 -0.2041  0.8484 -0.2297
  280TMC3    C2 4224   2.624   1.004   0.600  0.1489  0.3318  0.6095
  280TMC3    C3 4225   2.545   1.004   0.485  0.0710 -0.4540  0.5790
  280TMC3    C4 4226   2.514   1.206   0.667 -0.7136 -0.2483  0.4495
  280TMC3    C5 4227   2.434   1.195   0.557 -0.0423 -0.4602 -0.3401
  280TMC3    C6 4228   2.449   1.098   0.461 -0.6139 -0.0382 -0.3522
  280TMC3     C 4229   2.728   1.184   0.704 -0.8990  0.0489 -0.9061
  280TMC3     O 4230   2.722   1.300   0.660 -0.2421  0.0733 -0.3426
  280TMC3     H 4231   2.689   0.919   0.621  0.7530  0.4836 -0.6590
  280TMC3    H1 4232   2.486   1.281   0.740 -0.4904 -0.6666  0.9615
  280TMC3    H2 4233   2.406   1.118   0.363  0.1629  2.5144 -0.1771
  280TMC3    C7 4234   2.388   1.326   0.513 -0.6244 -0.6478  0.2621
  280TMC3    C8 4235   2.578   0.924   0.366  0.0377  0.2547  0.8084
  280TMC3    O1 4236   2.281   1.330   0.448 -0.2770  0.5541 -0.1815
  280TMC3    O2 4237   2.497   0.927   0.273  0.3153  0.3553  0.2754
  281TMC3    C1 4238   1.641   1.642  13.394 -0.2323 -0.1960 -0.1606
  281TMC3    C2 4239   1.728   1.600  13.302 -0.7356  0.4042 -0.1696
  281TMC3    C3 4240   1.764   1.467  13.309 -0.3190 -0.6913  0.2512
  281TMC3    C4 4241   1.571   1.566  13.480  0.1319  0.6236  0.3469
  281TMC3    C5 4242   1.589   1.425  13.472 -0.2616  0.6277  0.3093
  281TMC3    C6 4243   1.696   1.379  13.393  1.3301  0.4035  0.1200
  281TMC3     C 4244   1.602   1.783  13.390 -0.2720  0.3497  0.1004
  281TMC3     O 4245   1.527   1.822  13.476 -0.0319 -0.3209  0.2111
  281TMC3     H 4246   1.780   1.662  13.231 -1.4165  1.9843  0.7033
  281TMC3    H1 4247   1.501   1.614  13.547 -0.1851  1.5750 -0.6511
  281TMC3    H2 4248   1.676   1.274  13.372  2.5982  0.2208 -0.1506
  281TMC3    C7 4249   1.485   1.341  13.521 -0.2520  0.0827  0.2214
  281TMC3    C8 4250   1.806   1.401  13.187 -0.0043 -0.1510  0.1469
  281TMC3    O1 4251   1.369   1.375  13.509 -0.0543  0.0926  0.2446
  281TMC3    O2 4252   1.795   1.451  13.078  0.1726 -0.3460 -0.2472
  282MPD2     C 4253   3.769   2.445  15.247 -0.1982  0.1778  0.5289
  282MPD2    C1 4254   3.639   2.465  15.285 -0.0596  1.0091 -0.2023
  282MPD2    C2 4255   3.546   2.394  15.208 -0.8815  0.2170 -0.3853
  282MPD2    C3 4256   3.578   2.302  15.113 -0.1110 -0.0188 -0.1166
  282MPD2    C4 4257   3.714   2.283  15.086  0.1349  0.3367  0.7505
  282MPD2    C5 4258   3.810   2.354  15.158 -0.0068  0.4692 -0.4484
  282MPD2     H 4259   3.445   2.427  15.228 -1.2152 -1.1892  0.2561
  282MPD2    H1 4260   3.753   2.211  15.016  0.6854  1.2862  0.0927
  282MPD2    H2 4261   3.848   2.494  15.303  0.4533 -1.9091  1.4229
  282MPD2    H3 4262   3.915   2.339  15.135  0.5005  1.8692  0.9143
  282MPD2     N 4263   3.472   2.243  15.041  0.5966  0.1173 -0.0841
  282MPD2    H5 4264   3.378   2.267  15.070 -0.0274 -4.5203  1.7082
  282MPD2    N1 4265   3.596   2.536  15.395  0.0427 -0.2243  0.5344
  282MPD2    H7 4266   3.498   2.532  15.421 -0.7266 -1.9671 -2.6023
  283TMC3    C1 4267   3.585   2.698  15.550  0.5200  0.2175 -0.4185
  283TMC3    C2 4268   3.576   2.834  15.536 -0.0680 -0.4794 -0.0892
  283TMC3    C3 4269   3.478   2.902  15.608 -0.1392  0.1344 -0.4386
  283TMC3    C4 4270   3.499   2.629  15.629  0.4187  0.2939 -0.1542
  283TMC3    C5 4271   3.403   2.698  15.700  0.3114  0.6443  0.1910
  283TMC3    C6 4272   3.402   2.834  15.693 -0.4204 -0.4071 -0.2836
  283TMC3     C 4273   3.670   2.631  15.459 -0.0781  0.3080  0.7258
  283TMC3     O 4274   3.775   2.684  15.432 -0.1653  0.0980 -0.0696
  283TMC3     H 4275   3.655   2.881  15.479  2.5240 -0.9699  3.0778
  283TMC3    H1 4276   3.515   2.522  15.639 -0.7219  0.0820 -0.6863
  283TMC3    H2 4277   3.316   2.881  15.739 -0.5160 -1.1625  0.3085
  283TMC3    C7 4278   3.309   2.636  15.785  0.2590  0.2457 -0.2048
  283TMC3    C8 4279   3.504   3.041  15.647  0.0071 -0.2209  0.0979
  283TMC3    O1 4280   3.243   2.704  15.858  0.5486 -0.1879  0.4068
  283TMC3    O2 4281   3.483   3.076  15.759  0.0157 -0.7423 -0.5138
  284MPD2     C 4282   1.641   1.870  11.471 -0.2611  0.6859  0.4483
  284MPD2    C1 4283   1.777   1.828  11.480 -0.0181  0.7405  0.3503
  284MPD2    C2 4284   1.808   1.710  11.547  0.4908 -0.1512 -0.1936
  284MPD2    C3 4285   1.710   1.634  11.612 -0.5500 -0.3853 -0.1711
  284MPD2    C4 4286   1.584   1.679  11.611 -0.1380  0.1210 -0.3737
  284MPD2    C5 4287   1.551   1.794  11.543  0.1586  0.2884 -0.0091
  284MPD2     H 4288   1.907   1.668  11.551  0.8641  0.6466 -1.1521
  284MPD2    H1 4289   1.508   1.639  11.677 -1.3979  1.2826 -1.1290
  284MPD2    H2 4290   1.619   1.965  11.423  1.1771  0.1515 -1.2623
  284MPD2    H3 4291   1.455   1.845  11.539  0.7321  1.4475  1.0215
  284MPD2     N 4292   1.761   1.522  11.687  0.3964 -0.0343  0.6972
  284MPD2    H5 4293   1.861   1.502  11.688  0.5705  0.7019 -1.0544
  284MPD2    N1 4294   1.890   1.891  11.434  0.4882  0.0938  0.0775
  284MPD2    H7 4295   1.975   1.837  11.434 -1.0786 -2.3623  2.2790
  285TMC3    C1 4296   2.023   2.048  11.345  0.7855  0.1021  0.8040
  285TMC3    C2 4297   2.097   1.933  11.328  0.3764 -0.0834  0.4012
  285TMC3    C3 4298   2.222   1.926  11.380 -0.3877 -0.1378  0.1607
  285TMC3    C4 4299   2.070   2.152  11.421  0.0789  0.4146 -0.1189
  285TMC3    C5 4300   2.201   2.146  11.462  0.1623  0.1268  0.6147
  285TMC3    C6 4301   2.285   2.030  11.449  0.2598 -0.2905 -0.1490
  285TMC3     C 4302   1.889   2.018  11.380 -0.4907  0.3507 -0.3942
  285TMC3     O 4303   1.798   2.105  11.372  0.6677  0.0567 -0.3171
  285TMC3     H 4304   2.051   1.850  11.276 -1.7176  0.7813  0.8679
  285TMC3    H1 4305   2.010   2.242  11.433  0.8198  0.9080 -0.0641
  285TMC3    H2 4306   2.386   2.026  11.487  0.4580  1.6154 -0.4679
  285TMC3    C7 4307   2.267   2.266  11.523 -0.5184 -0.4384 -0.2761
  285TMC3    C8 4308   2.257   1.787  11.410  0.7481 -0.2904  0.0170
  285TMC3    O1 4309   2.246   2.371  11.469 -0.1945 -0.2935 -0.5728
  285TMC3    O2 4310   2.171   1.702  11.393 -0.2525  0.6464  0.0768
  286MPD2     C 4311   2.932   4.391   1.727 -0.3407 -0.2948  0.6880
  286MPD2    C1 4312   2.888   4.472   1.623  0.5572  0.2744  0.4248
  286MPD2    C2 4313   2.983   4.516   1.530 -0.8962  0.5740  0.5483
  286MPD2    C3 4314   3.118   4.467   1.535 -0.1425 -0.6184  0.4655
  286MPD2    C4 4315   3.149   4.379   1.634 -0.7623  0.3439 -0.1876
  286MPD2    C5 4316   3.063   4.350   1.737 -0.2271  0.4400  0.5201
  286MPD2     H 4317   2.946   4.576   1.448  0.3504  1.5601  0.7182
  286MPD2    H1 4318   3.251   4.343   1.634 -1.3056 -1.1957 -0.0610
  286MPD2    H2 4319   2.874   4.369   1.816  0.9188  0.4452  1.7083
  286MPD2    H3 4320   3.094   4.293   1.823 -0.9427  0.2154  0.6269
  286MPD2     N 4321   3.207   4.486   1.430 -0.5197  0.0984  0.1433
  286MPD2    H5 4322   3.302   4.453   1.444  0.0715  1.3602 -0.8122
  286MPD2    N1 4323   2.761   4.523   1.621  0.1579 -0.2684 -0.1082
  286MPD2    H7 4324   2.747   4.595   1.551  0.6875 -1.3345 -1.3048
  287TMC3    C1 4325   3.302   4.551   1.235 -0.4980  0.0678 -0.5058
  287TMC3    C2 4326   3.285   4.524   1.102  0.9378  0.2679  0.3459
  287TMC3    C3 4327   3.390   4.553   1.006  0.3908 -0.7269  0.1756
  287TMC3    C4 4328   3.418   4.606   1.280  0.1908  0.4769 -0.4077
  287TMC3    C5 4329   3.514   4.639   1.180  0.3160 -0.2513 -0.0594
  287TMC3    C6 4330   3.503   4.620   1.044  0.1519 -0.1754  0.2081
  287TMC3     C 4331   3.181   4.548   1.305  0.2637  0.3016  0.1077
  287TMC3     O 4332   3.078   4.580   1.247  0.2172  0.6147 -0.2434
  287TMC3     H 4333   3.205   4.457   1.072  0.0829  1.7652 -0.6887
  287TMC3    H1 4334   3.426   4.637   1.383 -0.0626 -1.3395  0.1603
  287TMC3    H2 4335   3.586   4.649   0.980  1.5336  0.0659  2.0941
  287TMC3    C7 4336   3.599   0.026   1.223  0.7801  0.2395  0.1142
  287TMC3    C8 4337   3.354   4.522   0.866  0.6678 -0.3697 -0.3002
  287TMC3    O1 4338   3.720   0.025   1.201  0.3447 -0.1137 -0.0056
  287TMC3    O2 4339   3.297   4.415   0.849  0.3885  0.1361  0.4379
  288TMC3    C1 4340   4.538   0.323  14.232 -0.0593 -0.1985  0.3823
  288TMC3    C2 4341   4.428   0.378  14.293 -0.6530  0.5659  0.2117
  288TMC3    C3 4342   4.350   0.465  14.225  0.0751 -0.4942  0.5584
  288TMC3    C4 4343   4.570   0.363  14.100 -0.0733 -0.3280  0.1343
  288TMC3    C5 4344   4.499   0.472  14.050  0.1525  0.0040  0.0007
  288TMC3    C6 4345   4.388   0.521  14.115  0.0934  0.0867  0.1596
  288TMC3     C 4346   4.653   0.268  14.309  0.3966 -0.7426 -0.3610
  288TMC3     O 4347   0.027   0.238  14.243 -0.0840  0.2169  0.1873
  288TMC3     H 4348   4.396   0.354  14.393  0.7425 -0.0509  0.5137
  288TMC3    H1 4349   4.652   0.324  14.040  1.3119 -1.4492  2.7783
  288TMC3    H2 4350   4.333   0.599  14.065  0.2770  0.5935  0.7489
  288TMC3    C7 4351   4.537   0.516  13.919 -0.1842 -0.0212 -0.3988
  288TMC3    C8 4352   4.241   0.528  14.302  0.8629  0.2131 -0.5508
  288TMC3    O1 4353   4.643   0.481  13.873  0.2272 -0.2765  0.5835
  288TMC3    O2 4354   4.236   0.654  14.304  0.3299 -0.1804 -0.1656
  289MPD2     C 4355   4.304   4.228  14.664 -0.0976 -0.3431  0.5866
  289MPD2    C1 4356   4.341   4.328  14.582 -0.0264  0.4947 -0.0793
  289MPD2    C2 4357   4.245   4.367  14.488 -0.0664 -0.6870  0.6429
  289MPD2    C3 4358   4.116   4.315  14.490  0.6449 -0.4401  0.1782
  289MPD2    C4 4359   4.081   4.216  14.573 -0.6936 -0.2147  0.3620
  289MPD2    C5 4360   4.178   4.173  14.668  0.1882  0.4310  0.2025
  289MPD2     H 4361   4.270   4.449  14.422 -1.2572  0.4524  1.5783
  289MPD2    H1 4362   3.978   4.182  14.577 -0.2810 -1.1368  3.7463
  289MPD2    H2 4363   4.375   4.184  14.733  0.2802 -1.0144 -0.2263
  289MPD2    H3 4364   4.160   4.100  14.746 -1.8435  1.7606  0.9978
  289MPD2     N 4365   4.019   4.354  14.388 -0.4670 -0.1691 -0.4652
  289MPD2    H5 4366   3.929   4.311  14.405  0.9888 -2.8558  0.4973
  289MPD2    N1 4367   4.470   4.384  14.586  0.2833  0.0374  0.3736
  289MPD2    H7 4368   4.533   4.339  14.652  0.8016 -0.1809 -0.2705
  290TMC3    C1 4369   3.930   4.432  14.191 -0.3280 -0.6222  0.3609
  290TMC3    C2 4370   3.895   4.543  14.116 -0.7503 -0.2958  0.0872
  290TMC3    C3 4371   3.824   4.529  14.005  0.2627 -0.4640 -0.2443
  290TMC3    C4 4372   3.895   4.303  14.149  0.4846 -0.1496  0.4781
  290TMC3    C5 4373   3.818   4.298  14.033  0.2010  0.1179  0.4458
  290TMC3    C6 4374   3.776   4.405  13.965  0.3372  0.5396 -0.1816
  290TMC3     C 4375   4.033   4.441  14.281  0.2241 -0.8176 -0.2642
  290TMC3     O 4376   4.113   4.531  14.262 -0.2964 -0.4194 -0.2981
  290TMC3     H 4377   3.921   4.641  14.155  0.1232 -0.3219 -0.4254
  290TMC3    H1 4378   3.912   4.216  14.212  1.2430 -0.1435  0.2783
  290TMC3    H2 4379   3.710   4.392  13.881 -0.4361  0.8005  0.3882
  290TMC3    C7 4380   3.743   4.185  14.004  0.1303 -0.7851  0.0955
  290TMC3    C8 4381   3.734   4.632  13.964  0.4845  0.1272  0.5948
  290TMC3    O1 4382   3.631   4.207  13.957  0.3216 -0.1620 -0.2377
  290TMC3    O2 4383   3.621   4.596  13.933 -0.7055 -0.1625 -0.4444
  291MPD2     C 4384   3.289   4.647  17.514 -0.5671 -0.2401 -0.2047
  291MPD2    C1 4385   3.333   4.556  17.606 -0.1327  0.2552  0.4519
  291MPD2    C2 4386   3.404   4.597   0.026  0.0551  0.1134  0.2036
  291MPD2    C3 4387   3.428   0.008   0.053 -0.1434  0.1694 -0.5411
  291MPD2    C4 4388   3.372   0.100  17.661  0.0563 -0.6892 -0.2761
  291MPD2    C5 4389   3.309   0.056  17.545  0.5463  0.0409 -0.5852
  291MPD2     H 4390   3.438   4.517   0.091  0.7660 -0.3654 -0.7537
  291MPD2    H1 4391   3.384   0.204  17.687  2.6229 -0.9072 -0.6432
  291MPD2    H2 4392   3.231   4.620  17.426 -1.7774 -0.7252  0.7478
  291MPD2    H3 4393   3.274   0.129  17.473 -2.0705  0.3480  0.9709
  291MPD2     N 4394   3.513   0.047   0.160 -0.1104  0.1861  0.1920
  291MPD2    H5 4395   3.535   0.145   0.176  1.4538 -0.6325  3.1242
  291MPD2    N1 4396   3.298   4.419  17.594 -0.0854  0.3024 -0.6413
  291MPD2    H7 4397   3.337   4.358  17.665 -0.3805  0.2534 -0.5214
  292TMC3    C1 4398   3.183   4.223  17.507  0.0794  0.2337  0.3612
  292TMC3    C2 4399   3.254   4.157  17.603  0.3634  0.9683 -0.3984
  292TMC3    C3 4400   3.220   4.027  17.639 -0.3056  0.5394  0.2620
  292TMC3    C4 4401   3.071   4.164  17.453  0.0382  0.0737 -0.5414
  292TMC3    C5 4402   3.038   4.041  17.496  0.2797  0.4556 -0.6153
  292TMC3    C6 4403   3.105   3.967  17.593 -0.5762  0.4156  0.0849
  292TMC3     C 4404   3.202   4.366  17.502  0.5876  0.2701 -0.0419
  292TMC3     O 4405   3.117   4.420  17.434  0.7561  0.1265 -0.2498
  292TMC3     H 4406   3.345   4.193  17.651  0.0875 -0.2897  1.0897
  292TMC3    H1 4407   3.003   4.212  17.384  1.0002  0.7186 -1.0372
  292TMC3    H2 4408   3.075   3.869  17.629  1.5931 -0.1421  0.4172
  292TMC3    C7 4409   2.988   3.941  17.402  0.2959 -0.2791  0.7703
  292TMC3    C8 4410   3.308   3.961   0.036 -0.2547 -0.6196 -0.8631
  292TMC3    O1 4411   2.992   3.825  17.440 -0.0467  0.7322 -0.1579
  292TMC3    O2 4412   3.428   3.981   0.038  0.5796 -0.1143 -0.1781
  293MPD2     C 4413   0.409   1.101  12.290  0.2833  0.3610 -0.6341
  293MPD2    C1 4414   0.333   1.019  12.366 -0.7629 -0.5641 -0.7131
  293MPD2    C2 4415   0.363   1.000  12.498 -0.1562  0.8903 -0.2893
  293MPD2    C3 4416   0.461   1.066  12.564  0.7076  0.7377  0.3601
  293MPD2    C4 4417   0.534   1.161  12.484 -0.1922 -1.4539  0.2315
  293MPD2    C5 4418   0.514   1.172  12.352 -0.6356  0.2584  0.2055
  293MPD2     H 4419   0.309   0.918  12.545  1.5331  1.2382  2.2408
  293MPD2    H1 4420   0.610   1.230  12.516 -0.1864 -1.6483  0.6260
  293MPD2    H2 4421   0.402   1.114  12.182  0.8469  1.7398 -0.5155
  293MPD2    H3 4422   0.567   1.245  12.292  0.4518  0.5741  1.5566
  293MPD2     N 4423   0.479   1.043  12.707  0.6267  0.2327  0.7089
  293MPD2    H5 4424   0.421   0.971  12.748 -1.0444  0.7362 -0.8139
  293MPD2    N1 4425   0.229   0.956  12.300  0.3289  0.3986  0.5337
  293MPD2    H7 4426   0.204   0.984  12.205  2.4259  1.4436  0.2885
  294TMC3    C1 4427   0.004   0.886  12.277 -0.6868  0.4859 -0.5142
  294TMC3    C2 4428   4.613   0.888  12.349  0.5591 -0.3492 -0.5634
  294TMC3    C3 4429   4.496   0.884  12.285  0.6165 -0.3664  0.2954
  294TMC3    C4 4430   0.012   0.862  12.143  0.4809 -0.5047  0.0536
  294TMC3    C5 4431   4.610   0.846  12.081 -0.0225 -0.0451 -0.4067
  294TMC3    C6 4432   4.494   0.870  12.150 -0.5771 -0.1836 -0.6300
  294TMC3     C 4433   0.128   0.889  12.360 -0.7730  0.1139 -0.2588
  294TMC3     O 4434   0.115   0.844  12.475 -0.0119  0.0023 -0.4210
  294TMC3     H 4435   4.619   0.883  12.457  0.3462 -4.1345 -0.7391
  294TMC3    H1 4436   0.104   0.851  12.086  0.3933  2.0254 -0.5697
  294TMC3    H2 4437   4.402   0.848  12.097 -1.7081  2.0626  0.3750
  294TMC3    C7 4438   4.596   0.770  11.960 -0.1335  0.1032 -0.6539
  294TMC3    C8 4439   4.383   0.814  12.353 -0.2383 -0.0241  0.6923
  294TMC3    O1 4440   4.490   0.715  11.936  0.2199 -0.0745  0.0008
  294TMC3    O2 4441   4.376   0.825  12.471  0.3261  0.3430  0.5633
  295MPD2     C 4442   1.325   4.499   0.946 -0.5767  0.1993 -0.6131
  295MPD2    C1 4443   1.243   4.401   0.891 -0.3590  0.2568  0.1083
  295MPD2    C2 4444   1.189   4.305   0.969 -0.2707  0.2092  0.0334
  295MPD2    C3 4445   1.231   4.287   1.106 -0.7198  0.1504 -0.1441
  295MPD2    C4 4446   1.320   4.384   1.159 -0.3701  0.2416  0.2152
  295MPD2    C5 4447   1.357   4.487   1.075 -0.2774  0.3305  0.6995
  295MPD2     H 4448   1.122   4.234   0.923 -0.9791 -0.7628  2.5859
  295MPD2    H1 4449   1.358   4.378   1.261 -1.3274  0.4284  0.5799
  295MPD2    H2 4450   1.364   4.588   0.898  0.0366 -0.5608 -1.5484
  295MPD2    H3 4451   1.414   4.570   1.116 -2.1524  1.7951  0.3790
  295MPD2     N 4452   1.190   4.179   1.192  0.0751  0.2072 -0.0294
  295MPD2    H5 4453   1.210   4.180   1.292  1.7967 -0.1661 -0.3561
  295MPD2    N1 4454   1.203   4.411   0.753  0.0365  0.4355 -0.1362
  295MPD2    H7 4455   1.129   4.347   0.725  1.1668 -1.1070  0.4081
  296TMC3    C1 4456   1.102   3.969   1.247  0.3223 -0.3491 -0.1218
  296TMC3    C2 4457   1.082   4.006   1.373 -0.0081  0.3485  0.4713
  296TMC3    C3 4458   1.071   3.911   1.471 -0.2320  0.5369 -0.7175
  296TMC3    C4 4459   1.130   3.834   1.221 -0.0054  0.2501 -0.1616
  296TMC3    C5 4460   1.113   3.749   1.322  0.0141 -0.5045  1.0391
  296TMC3    C6 4461   1.080   3.780   1.449  0.2443  0.1685  0.0179
  296TMC3     C 4462   1.140   4.060   1.145 -0.3680 -0.1316 -0.3588
  296TMC3     O 4463   1.122   4.019   1.031 -0.4128  0.0281 -0.3877
  296TMC3     H 4464   1.061   4.109   1.401 -1.8804  0.1616 -0.2182
  296TMC3    H1 4465   1.172   3.802   1.126 -1.1147 -0.8270 -0.2854
  296TMC3    H2 4466   1.065   3.700   1.521 -2.8213 -1.3161 -2.3169
  296TMC3    C7 4467   1.182   3.623   1.299  0.1234  0.0464  0.1515
  296TMC3    C8 4468   0.987   3.940   1.587 -0.2806  0.0180 -0.1512
  296TMC3    O1 4469   1.266   3.613   1.210 -0.0119  0.7432  0.0868
  296TMC3    O2 4470   0.938   4.050   1.588 -0.1612 -0.0298  0.2159
  297MPD2     C 4471   2.490   1.852  15.988 -0.7792 -0.8293  0.4904
  297MPD2    C1 4472   2.482   1.850  16.125  0.1743  0.0077 -0.4272
  297MPD2    C2 4473   2.599   1.863  16.199  0.0481 -0.7773 -0.0051
  297MPD2    C3 4474   2.724   1.865  16.140 -0.0912 -0.3430 -0.2610
  297MPD2    C4 4475   2.736   1.865  16.003  0.2779  0.1560 -0.2667
  297MPD2    C5 4476   2.615   1.850  15.932 -0.2574 -0.3249  1.0417
  297MPD2     H 4477   2.593   1.865  16.307 -0.8636  1.2345 -0.1023
  297MPD2    H1 4478   2.829   1.884  15.950  0.7213  1.4190  0.9984
  297MPD2    H2 4479   2.407   1.842  15.919  0.3694  1.7991 -1.2776
  297MPD2    H3 4480   2.621   1.841  15.824 -3.1882  0.1773  0.8314
  297MPD2     N 4481   2.838   1.877  16.217 -0.4416  0.4921  0.2684
  297MPD2    H5 4482   2.829   1.907  16.314  1.1214 -0.3548  0.6849
  297MPD2    N1 4483   2.364   1.831  16.198  0.0222 -0.1799  0.0203
  297MPD2    H7 4484   2.358   1.838  16.299 -1.5320  0.5932 -0.1188
  298TMC3    C1 4485   2.137   1.794  16.229 -0.0714 -0.2050 -0.6583
  298TMC3    C2 4486   2.035   1.724  16.181 -0.3213  0.1268  0.1246
  298TMC3    C3 4487   1.905   1.764  16.198 -0.7390 -0.2614  0.7182
  298TMC3    C4 4488   2.120   1.907  16.304 -0.4743 -0.6141  0.1269
  298TMC3    C5 4489   1.988   1.934  16.342  0.1064 -0.1422 -0.4565
  298TMC3    C6 4490   1.878   1.870  16.282  0.1163  0.1835 -0.0738
  298TMC3     C 4491   2.247   1.801  16.137  0.2908 -0.5665  0.5201
  298TMC3     O 4492   2.221   1.784  16.018 -0.0936 -0.2344 -0.1915
  298TMC3     H 4493   2.054   1.634  16.123  1.1237  1.0155 -0.7809
  298TMC3    H1 4494   2.212   1.951  16.342  0.3546  0.0062 -2.5963
  298TMC3    H2 4495   1.777   1.893  16.311 -0.2941 -1.4543 -0.2025
  298TMC3    C7 4496   1.961   2.048  16.421 -0.0126 -0.1213 -0.1897
  298TMC3    C8 4497   1.793   1.679  16.159 -0.5766  0.6679 -0.2160
  298TMC3    O1 4498   2.057   2.096  16.485 -0.1398 -0.6493  0.2145
  298TMC3    O2 4499   1.678   1.706  16.200  0.2230 -0.3493 -0.1324
  299MPD2     C 4500   3.870   0.747  10.546  0.0481  0.3080 -0.2258
  299MPD2    C1 4501   3.819   0.872  10.541 -0.1613  0.2401 -0.0748
  299MPD2    C2 4502   3.680   0.890  10.524 -0.0172 -0.9222  0.2896
  299MPD2    C3 4503   3.598   0.780  10.502 -0.6338  0.2122 -0.5497
  299MPD2    C4 4504   3.658   0.650  10.507 -0.7341 -0.1139  0.2871
  299MPD2    C5 4505   3.792   0.636  10.546  0.6839 -0.7199 -0.6277
  299MPD2     H 4506   3.640   0.989  10.542  0.7612 -0.3744 -0.9690
  299MPD2    H1 4507   3.601   0.558  10.498 -0.9780  0.0785 -0.1427
  299MPD2    H2 4508   3.976   0.737  10.565  0.1842  0.5547 -0.8653
  299MPD2    H3 4509   3.843   0.541  10.551  0.1073 -0.9231  1.2123
  299MPD2     N 4510   3.461   0.781  10.490 -0.1534  0.0754 -0.2284
  299MPD2    H5 4511   3.418   0.690  10.500  1.4557 -0.6501  0.1882
  299MPD2    N1 4512   3.915   0.976  10.558 -0.1231  0.8190 -0.2300
  299MPD2    H7 4513   4.014   0.956  10.556 -0.0230  1.5306 -2.2887
  300TMC3    C1 4514   3.241   0.873  10.449 -0.0501  0.4670 -0.1011
  300TMC3    C2 4515   3.174   0.970  10.384  0.3203  0.0460  0.2638
  300TMC3    C3 4516   3.035   0.977  10.396  0.2451  0.6614  0.4461
  300TMC3    C4 4517   3.185   0.794  10.546  0.0877  0.3184  0.0325
  300TMC3    C5 4518   3.048   0.819  10.568  0.1853 -0.4457 -1.0278
  300TMC3    C6 4519   2.968   0.905  10.490 -0.7076  0.4922 -0.4361
  300TMC3     C 4520   3.389   0.890  10.454  0.4598 -0.4552 -0.1168
  300TMC3     O 4521   3.427   0.998  10.418 -0.1608  0.3575  0.1708
  300TMC3     H 4522   3.225   1.030  10.310 -0.2166 -1.5288 -1.3842
  300TMC3    H1 4523   3.251   0.728  10.601  0.6469 -1.3509 -2.6437
  300TMC3    H2 4524   2.862   0.925  10.502 -0.3702  1.3989  1.0357
  300TMC3    C7 4525   2.987   0.749  10.671  0.5865  0.0877  0.0215
  300TMC3    C8 4526   2.995   1.116  10.373  0.5685 -0.6304  0.3082
  300TMC3    O1 4527   3.050   0.658  10.724 -0.3628 -0.1111  0.0365
  300TMC3    O2 4528   3.078   1.194  10.409  0.1312 -0.0929 -0.3800
  301MPD2     C 4529   1.392   2.562   1.236 -0.4281 -0.3249  0.0322
  301MPD2    C1 4530   1.275   2.531   1.176  0.0366  0.0722 -1.0077
  301MPD2    C2 4531   1.260   2.397   1.133  0.2140 -0.7060 -0.6602
  301MPD2    C3 4532   1.366   2.304   1.141  0.0799  0.6074  0.6872
  301MPD2    C4 4533   1.475   2.345   1.213  0.1931 -1.1345  0.8095
  301MPD2    C5 4534   1.487   2.473   1.260 -0.1711  0.3040 -0.5690
  301MPD2     H 4535   1.172   2.370   1.076 -0.4933  0.9260 -0.3585
  301MPD2    H1 4536   1.549   2.268   1.229  1.7300  0.4403  1.3646
  301MPD2    H2 4537   1.407   2.664   1.272  0.9170  0.3612 -2.4818
  301MPD2    H3 4538   1.582   2.496   1.306 -0.7283 -0.6490  1.0568
  301MPD2     N 4539   1.352   2.165   1.104  0.4666  0.2789  0.7071
  301MPD2    H5 4540   1.437   2.109   1.104 -0.5616 -1.3022 -1.6464
  301MPD2    N1 4541   1.172   2.623   1.148 -0.2578  0.5510  0.2406
  301MPD2    H7 4542   1.094   2.581   1.097  1.3778 -0.7627 -1.2245
  302TMC3    C1 4543   1.267   1.972   0.996 -1.2249  0.0871 -0.5867
  302TMC3    C2 4544   1.380   1.894   1.021  0.2431 -0.0836  0.5547
  302TMC3    C3 4545   1.410   1.782   0.946 -0.2828  0.2310  0.0314
  302TMC3    C4 4546   1.176   1.914   0.911  0.6723  0.3553 -0.4030
  302TMC3    C5 4547   1.203   1.804   0.836  0.5648  0.3030  0.2746
  302TMC3    C6 4548   1.325   1.743   0.848 -0.6902 -0.1512 -0.6128
  302TMC3     C 4549   1.252   2.116   1.027  0.9445  0.6139 -0.0752
  302TMC3     O 4550   1.151   2.171   0.980 -0.3989 -0.3999 -0.3825
  302TMC3     H 4551   1.442   1.934   1.101 -0.5205 -1.4050  1.8180
  302TMC3    H1 4552   1.076   1.953   0.898  0.3382 -0.1696  0.6187
  302TMC3    H2 4553   1.361   1.669   0.778 -2.1283  1.6496 -3.2821
  302TMC3    C7 4554   1.124   1.762   0.718  0.4554  0.1849 -0.5482
  302TMC3    C8 4555   1.488   1.680   1.005 -0.7152 -0.4606  0.0587
  302TMC3    O1 4556   1.163   1.678   0.641 -0.0578  0.1997 -0.1012
  302TMC3    O2 4557   1.550   1.612   0.922 -0.1139 -0.7824 -0.6943
  303MPD2     C 4558   0.525   0.218  10.456 -0.2725  0.3993  0.3904
  303MPD2    C1 4559   0.526   0.081  10.462  0.3717  0.0795  0.4492
  303MPD2    C2 4560   0.581   0.011  10.353 -0.3591 -0.0570 -0.7951
  303MPD2    C3 4561   0.632   0.077  10.242  0.1987  0.1517 -0.6342
  303MPD2    C4 4562   0.633   0.213  10.240 -0.1789 -0.0042  0.1647
  303MPD2    C5 4563   0.579   0.283  10.346  0.4052 -0.0929  0.1734
  303MPD2     H 4564   0.590   4.626  10.358  1.0610  0.1757  1.6403
  303MPD2    H1 4565   0.653   0.267  10.148 -1.2808  1.3200  0.7059
  303MPD2    H2 4566   0.488   0.280  10.536  1.8483  2.3994 -0.1575
  303MPD2    H3 4567   0.577   0.391  10.350 -0.6305 -0.0665 -1.2266
  303MPD2     N 4568   0.655   0.009  10.114  0.1435  0.1845 -0.1379
  303MPD2    H5 4569   0.647   0.068  10.032  1.3145  0.3575 -0.1275
  303MPD2    N1 4570   0.457   0.025  10.568  0.4973  0.5205  0.0921
  303MPD2    H7 4571   0.401   0.082  10.631  2.0116  0.6549  1.3169
  304TMC3    C1 4572   0.355   4.571  10.684 -0.1377  0.0884 -0.1369
  304TMC3    C2 4573   0.231   4.616  10.645 -0.3931 -0.0549  0.0944
  304TMC3    C3 4574   0.119   4.552  10.700  0.1589  0.7923  0.4531
  304TMC3    C4 4575   0.367   4.458  10.760 -0.4476 -0.3140 -0.5221
  304TMC3    C5 4576   0.253   4.402  10.814 -0.4537  0.1247 -0.2071
  304TMC3    C6 4577   0.129   4.447  10.780 -0.0992 -0.3876 -0.6066
  304TMC3     C 4578   0.469   4.614  10.602 -0.8069 -0.1127  0.6098
  304TMC3     O 4579   0.546   4.533  10.555  0.2850  0.0279  0.3014
  304TMC3     H 4580   0.218   4.692  10.568  0.9100  3.0880  2.9909
  304TMC3    H1 4581   0.466   4.416  10.768 -0.1683 -0.1041 -2.8572
  304TMC3    H2 4582   0.044   4.390  10.815  0.6659 -0.7959  0.5815
  304TMC3    C7 4583   0.248   4.260  10.799 -0.2575  0.2084 -0.3410
  304TMC3    C8 4584   0.018   4.538  10.602 -0.7184  0.3379 -0.7483
  304TMC3    O1 4585   0.161   4.214  10.730 -0.5049  0.0134  0.2404
  304TMC3    O2 4586   4.685   4.636  10.551  0.3361  0.5951 -0.0376
  305MPD2     C 4587   4.043   2.878  14.222  0.5021 -0.6787 -0.2864
  305MPD2    C1 4588   4.081   2.743  14.215 -0.2612 -0.1210  0.0194
  305MPD2    C2 4589   4.073   2.684  14.091  0.0859 -0.3836 -0.2972
  305MPD2    C3 4590   4.027   2.752  13.975 -0.2931  0.3489  0.0927
  305MPD2    C4 4591   3.992   2.889  13.982 -0.0175 -0.8286 -0.7536
  305MPD2    C5 4592   4.001   2.948  14.106  0.9737 -0.4206  0.0928
  305MPD2     H 4593   4.103   2.581  14.080  0.1359 -0.1839 -2.1232
  305MPD2    H1 4594   3.972   2.946  13.892  1.6193  0.4090 -0.3102
  305MPD2    H2 4595   4.064   2.936  14.311 -0.5908 -0.4395 -0.1853
  305MPD2    H3 4596   3.987   3.056  14.113  1.5406 -0.2557 -1.2162
  305MPD2     N 4597   4.010   2.689  13.844 -0.3832 -0.7560  0.3760
  305MPD2    H5 4598   3.987   2.752  13.768  1.7513  0.0990  0.4431
  305MPD2    N1 4599   4.120   2.680  14.336 -0.1826 -0.4331  0.0959
  305MPD2    H7 4600   4.116   2.735  14.422  2.3487  0.6488 -0.4937
  306TMC3    C1 4601   4.194   2.521  14.489 -0.1768 -0.6884  0.3874
  306TMC3    C2 4602   4.302   2.452  14.517 -0.3133  0.6786 -0.8373
  306TMC3    C3 4603   4.343   2.448  14.647 -0.2023  0.3242 -0.3352
  306TMC3    C4 4604   4.120   2.587  14.582 -0.4611  0.0030  0.5093
  306TMC3    C5 4605   4.156   2.574  14.711  0.4135 -0.2918 -0.5266
  306TMC3    C6 4606   4.264   2.499  14.750 -0.3055 -0.0164  0.2378
  306TMC3     C 4607   4.156   2.545  14.347  0.2289 -0.0537  0.3866
  306TMC3     O 4608   4.173   2.460  14.261 -0.2515 -0.0819  0.2191
  306TMC3     H 4609   4.361   2.402  14.441 -0.5552  3.0748 -2.6032
  306TMC3    H1 4610   4.040   2.652  14.546  0.4684  0.9327  0.1145
  306TMC3    H2 4611   4.289   2.496  14.856 -0.9684  1.4083  0.4333
  306TMC3    C7 4612   4.059   2.647  14.796  0.1711 -0.3111  0.4693
  306TMC3    C8 4613   4.463   2.375  14.675 -0.1370 -0.0811 -0.7170
  306TMC3    O1 4614   3.943   2.650  14.761 -0.1039 -0.2775 -0.3162
  306TMC3    O2 4615   4.541   2.371  14.580  0.3614 -0.1118 -0.0021
  307MPD2     C 4616   2.359   0.361   0.353  0.2263  0.0498 -0.6640
  307MPD2    C1 4617   2.228   0.383   0.311 -0.0685  0.1488  0.2634
  307MPD2    C2 4618   2.121   0.374   0.399  0.1124 -0.8929 -1.0584
  307MPD2    C3 4619   2.142   0.334   0.525  0.0357  0.1285  0.0758
  307MPD2    C4 4620   2.270   0.308   0.572  0.1062 -0.0663  0.2938
  307MPD2    C5 4621   2.375   0.319   0.481  0.1419 -0.3417  0.3912
  307MPD2     H 4622   2.020   0.401   0.370  0.4700  1.2024 -0.3766
  307MPD2    H1 4623   2.298   0.267   0.668  0.9511  1.5747  0.7325
  307MPD2    H2 4624   2.447   0.377   0.292  0.9779  0.0522  0.4161
  307MPD2    H3 4625   2.475   0.299   0.517  0.6693 -0.0453 -0.9072
  307MPD2     N 4626   2.034   0.337   0.620  0.6987  0.1057 -0.8109
  307MPD2    H5 4627   1.955   0.386   0.578  0.1002 -0.4511 -0.3224
  307MPD2    N1 4628   2.195   0.430   0.182 -0.3127 -0.1002 -0.0218
  307MPD2    H7 4629   2.096   0.442   0.162 -0.0263 -1.4576 -2.2584
  308TMC3    C1 4630   1.737   0.489   0.802 -0.0734  0.0010 -0.1434
  308TMC3    C2 4631   1.790   0.606   0.856  0.1015 -0.1276  0.5188
  308TMC3    C3 4632   1.924   0.600   0.895 -0.5326  0.5287 -0.5635
  308TMC3    C4 4633   1.810   0.377   0.774  0.0001  0.2836 -0.0257
  308TMC3    C5 4634   1.937   0.381   0.821  0.9249  0.4271 -0.1680
  308TMC3    C6 4635   1.992   0.481   0.884 -0.3385 -0.5157  0.3636
  308TMC3     C 4636   1.591   0.464   0.800  0.1831  0.0017 -0.6619
  308TMC3     O 4637   1.553   0.346   0.803  0.6956  0.0030  0.2034
  308TMC3     H 4638   1.718   0.683   0.882 -0.5832 -0.6451  0.1694
  308TMC3    H1 4639   1.765   0.295   0.720 -0.0790  0.9789 -1.0127
  308TMC3    H2 4640   2.089   0.457   0.926 -0.7522 -0.0270  1.5941
  308TMC3    C7 4641   2.035   0.304   0.755 -0.2409 -0.1761 -0.5023
  308TMC3    C8 4642   2.005   0.720   0.884 -0.2215 -0.9341  0.5928
  308TMC3    O1 4643   2.124   0.258   0.819 -0.0207  0.0957 -0.3692
  308TMC3    O2 4644   2.126   0.712   0.903 -0.0962  0.0065 -0.3270
  309MPD2     C 4645   1.095   1.258  17.284 -0.6408 -0.4757 -0.5639
  309MPD2    C1 4646   1.009   1.328  17.196 -0.2827  0.0034  0.3558
  309MPD2    C2 4647   0.893   1.376  17.253  0.7041  0.4716  0.3622
  309MPD2    C3 4648   0.863   1.371  17.387 -0.1916  0.0360  0.2434
  309MPD2    C4 4649   0.953   1.307  17.472  0.0324 -0.9634 -0.1067
  309MPD2    C5 4650   1.061   1.246  17.417  0.5483  0.3272 -0.2138
  309MPD2     H 4651   0.827   1.437  17.193 -0.4457  1.5168  2.6795
  309MPD2    H1 4652   0.937   1.288  17.578  1.5215 -0.8321  0.1339
  309MPD2    H2 4653   1.177   1.195  17.253 -0.3645 -0.8233  0.8504
  309MPD2    H3 4654   1.112   1.173  17.478 -1.1958 -1.1597 -0.5568
  309MPD2     N 4655   0.741   1.423  17.435  0.0811  0.3540 -0.0325
  309MPD2    H5 4656   0.729   1.439  17.534  0.4152  1.5465 -0.1818
  309MPD2    N1 4657   1.035   1.355  17.056  0.2555  0.0381 -0.5580
  309MPD2    H7 4658   0.956   1.387  17.001  1.2167 -0.4095 -2.2197
  310TMC3    C1 4659   1.140   1.348  16.850  0.1639  0.5870 -0.0515
  310TMC3    C2 4660   1.029   1.381  16.781  0.4282  0.6296  1.0598
  310TMC3    C3 4661   1.012   1.336  16.654  0.8292 -0.1938 -0.2703
  310TMC3    C4 4662   1.233   1.267  16.789 -0.2799  0.0809  0.4468
  310TMC3    C5 4663   1.214   1.224  16.662 -0.5018  0.3224  0.1247
  310TMC3    C6 4664   1.100   1.253  16.592 -0.4271  0.0211  0.1641
  310TMC3     C 4665   1.154   1.333  16.996  0.5933  0.7650 -0.8279
  310TMC3     O 4666   1.254   1.278  17.036  0.8157  0.0444 -0.6247
  310TMC3     H 4667   0.947   1.432  16.830  0.2774  0.1305  1.3321
  310TMC3    H1 4668   1.322   1.226  16.836  0.2580  0.3488 -0.3477
  310TMC3    H2 4669   1.086   1.217  16.491 -1.7838  1.2785 -0.1036
  310TMC3    C7 4670   1.303   1.117  16.612 -0.2283  0.7002 -0.3846
  310TMC3    C8 4671   0.914   1.402  16.583  0.4021 -0.9794  0.2238
  310TMC3    O1 4672   1.362   1.053  16.699 -0.1414 -0.2890  0.3804
  310TMC3    O2 4673   0.801   1.386  16.626  0.3977  0.1447 -0.2522
  311MPD2     C 4674   3.092   2.262  13.117  0.1750  0.1049  0.1937
  311MPD2    C1 4675   3.067   2.378  13.055 -0.0898 -0.0704  0.8704
  311MPD2    C2 4676   2.937   2.425  13.054  0.1500 -0.2156 -0.0074
  311MPD2    C3 4677   2.832   2.363  13.121  0.7985 -0.1926  0.2557
  311MPD2    C4 4678   2.863   2.238  13.184 -0.0538  0.3167 -0.4928
  311MPD2    C5 4679   2.991   2.196  13.184  0.2580  0.4649 -0.1996
  311MPD2     H 4680   2.919   2.522  13.008 -0.6722  0.5641  1.9295
  311MPD2    H1 4681   2.785   2.181  13.233  0.9156 -1.6965 -1.2773
  311MPD2    H2 4682   3.186   2.208  13.125  0.7425  0.8954 -1.2250
  311MPD2    H3 4683   3.014   2.114  13.251  1.5939  1.3668  0.4526
  311MPD2     N 4684   2.706   2.418  13.121  0.7436 -0.3364  0.0601
  311MPD2    H5 4685   2.693   2.513  13.086  1.9143  0.8367  2.7923
  311MPD2    N1 4686   3.164   2.464  12.994 -0.3535 -0.3432  0.5452
  311MPD2    H7 4687   3.130   2.549  12.951  0.0411 -0.8467 -0.7810
  312TMC3    C1 4688   2.476   2.458  13.167  0.3549  0.2328  0.7913
  312TMC3    C2 4689   2.350   2.408  13.142  0.0883  0.4491  0.2388
  312TMC3    C3 4690   2.248   2.491  13.156 -0.7377  0.5144  0.4945
  312TMC3    C4 4691   2.503   2.583  13.195  0.5379  0.3621  0.4068
  312TMC3    C5 4692   2.395   2.660  13.220  1.0176 -0.1625 -0.7997
  312TMC3    C6 4693   2.267   2.620  13.194 -0.4535  0.2299 -0.3206
  312TMC3     C 4694   2.588   2.361  13.170  0.5967 -0.3519 -0.0278
  312TMC3     O 4695   2.567   2.247  13.205 -0.1175  0.1079  0.1010
  312TMC3     H 4696   2.344   2.302  13.124 -0.2255  0.0904  2.4076
  312TMC3    H1 4697   2.605   2.608  13.221  0.1329 -0.8282  3.2241
  312TMC3    H2 4698   2.182   2.684  13.214 -1.9542 -1.0139 -2.6118
  312TMC3    C7 4699   2.409   2.768  13.312 -0.1286  1.0450 -0.5212
  312TMC3    C8 4700   2.130   2.450  13.079 -0.2700 -0.7586 -0.8225
  312TMC3    O1 4701   2.306   2.833  13.332  0.0924 -0.3065 -0.4821
  312TMC3    O2 4702   2.110   2.330  13.072  0.7096 -0.3867  0.3410
  313MPD2     C 4703   2.525   1.114  10.641  0.0191 -0.6706  0.2037
  313MPD2    C1 4704   2.398   1.101  10.699  0.3070  0.1764  0.4442
  313MPD2    C2 4705   2.300   1.026  10.639 -0.5367  0.0425  0.1024
  313MPD2    C3 4706   2.329   0.961  10.522  0.0171  0.3276 -0.7355
  313MPD2    C4 4707   2.451   0.971  10.459  1.2114  0.1474 -0.7021
  313MPD2    C5 4708   2.550   1.044  10.526  0.2011  0.6711  0.2177
  313MPD2     H 4709   2.197   1.023  10.672 -0.0306  1.9104  1.8825
  313MPD2    H1 4710   2.478   0.922  10.366 -2.4254 -0.6582 -1.3381
  313MPD2    H2 4711   2.600   1.174  10.692  0.1376 -1.1270  0.5680
  313MPD2    H3 4712   2.648   1.056  10.482 -0.1202  1.5788 -0.2700
  313MPD2     N 4713   2.223   0.893  10.464  0.3171 -0.1937 -0.1648
  313MPD2    H5 4714   2.144   0.895  10.527  0.6707 -1.1178  0.3130
  313MPD2    N1 4715   2.362   1.174  10.810 -0.0207 -0.5155 -0.1998
  313MPD2    H7 4716   2.262   1.180  10.825 -0.1207 -2.4929 -0.1724
  314TMC3    C1 4717   2.363   1.315  10.999  0.0028 -0.2959 -0.0762
  314TMC3    C2 4718   2.433   1.426  11.038 -0.3767  0.3835  0.0714
  314TMC3    C3 4719   2.359   1.538  11.078  0.1662 -0.2587  0.0492
  314TMC3    C4 4720   2.226   1.309  11.007 -0.2352  0.1399 -0.5740
  314TMC3    C5 4721   2.154   1.419  11.048 -0.4744  0.8022 -0.4485
  314TMC3    C6 4722   2.228   1.530  11.091 -0.2726  0.2559  0.2398
  314TMC3     C 4723   2.441   1.240  10.899 -0.5303  0.7300 -0.8168
  314TMC3     O 4724   2.561   1.247  10.896 -0.0699  0.6682 -0.3631
  314TMC3     H 4725   2.541   1.430  11.041 -0.4750  0.8233  2.6435
  314TMC3    H1 4726   2.169   1.221  10.976  2.3172 -1.9149  0.5568
  314TMC3    H2 4727   2.172   1.616  11.125 -0.4558 -0.1922  1.0539
  314TMC3    C7 4728   2.037   1.456  10.973  0.2151  0.0493  0.0188
  314TMC3    C8 4729   2.418   1.670  11.086  0.0984 -0.5412  0.3823
  314TMC3    O1 4730   1.963   1.366  10.937  0.0158  0.2394  0.3251
  314TMC3    O2 4731   2.352   1.760  11.044  0.3878  0.4102 -0.3325
  315MPD2     C 4732   2.193   1.419  17.273  0.7433 -0.4100 -0.4092
  315MPD2    C1 4733   2.145   1.360  17.388  0.5423 -0.6085  0.0271
  315MPD2    C2 4734   2.073   1.433  17.482 -0.0564  0.3738  0.4636
  315MPD2    C3 4735   2.044   1.569  17.451  0.5864  0.1344  0.7540
  315MPD2    C4 4736   2.083   1.618  17.328 -0.1480  0.2914  0.1805
  315MPD2    C5 4737   2.157   1.545  17.246 -0.9585 -0.6332  0.2247
  315MPD2     H 4738   2.051   1.385  17.577  0.0127  0.3149  0.4502
  315MPD2    H1 4739   2.065   1.721  17.298  0.2916 -0.4399 -2.5464
  315MPD2    H2 4740   2.269   1.365  17.218  4.1359  3.4146  0.4672
  315MPD2    H3 4741   2.205   1.606  17.170  0.0393 -0.5049  0.9582
  315MPD2     N 4742   1.983   1.638  17.557  0.1787  0.0061  0.6494
  315MPD2    H5 4743   1.957   1.586  17.639 -1.0441 -0.5059 -0.0656
  315MPD2    N1 4744   2.178   1.232  17.441 -0.2463  0.3976 -0.6999
  315MPD2    H7 4745   2.157   1.214  17.539 -0.0062 -3.3644 -1.3399
  316TMC3    C1 4746   1.953   1.841   0.001 -1.1432  0.1772 -0.1969
  316TMC3    C2 4747   1.998   1.768   0.105  0.2042 -0.3053  0.0697
  316TMC3    C3 4748   2.054   1.829   0.207  0.1464  0.0437  0.2930
  316TMC3    C4 4749   1.963   1.980  17.691 -0.3444  0.0005  0.2335
  316TMC3    C5 4750   2.039   2.038   0.098 -0.5155 -0.4496  0.1473
  316TMC3    C6 4751   2.072   1.968   0.208 -0.4549  0.0376 -0.6019
  316TMC3     C 4752   1.995   1.781  17.569 -0.5335 -0.2009 -0.6758
  316TMC3     O 4753   2.022   1.859  17.480 -0.1258 -0.1671 -0.4077
  316TMC3     H 4754   1.984   1.661   0.106 -0.1938 -0.2353  1.6442
  316TMC3    H1 4755   1.907   2.034  17.615  1.1097  0.8756 -0.2048
  316TMC3    H2 4756   2.128   2.020   0.285 -0.2266 -0.1556 -0.6335
  316TMC3    C7 4757   2.030   2.181   0.110 -0.6357  0.0779 -0.3926
  316TMC3    C8 4758   2.131   1.745   0.293  0.2474  0.4422  0.1196
  316TMC3    O1 4759   2.026   2.232   0.222  0.2400  0.0510  0.4399
  316TMC3    O2 4760   2.090   1.635   0.318  0.0426 -0.0353  0.1148
  317MPD2     C 4761   3.789   4.596  13.027 -0.7949 -0.3927 -0.2957
  317MPD2    C1 4762   3.854   4.492  12.963  0.7288 -0.7104 -0.4463
  317MPD2    C2 4763   3.936   4.418  13.043  0.3819 -0.1083  1.0290
  317MPD2    C3 4764   3.954   4.442  13.179 -0.5365  0.4191  0.0803
  317MPD2    C4 4765   3.875   4.548  13.236 -0.2995 -0.1583  0.2128
  317MPD2    C5 4766   3.799   4.626  13.158 -0.5025  0.0841  0.2240
  317MPD2     H 4767   3.999   4.343  12.996 -1.5889  0.0505 -1.8370
  317MPD2    H1 4768   3.887   4.584  13.337 -0.5464  2.0454 -0.5429
  317MPD2    H2 4769   3.730   4.670  12.974  0.4283 -1.2063 -2.8200
  317MPD2    H3 4770   3.758   4.718  13.198  2.2157  1.2140  0.4090
  317MPD2     N 4771   4.046   4.360  13.240 -0.2935 -0.0444  0.2975
  317MPD2    H5 4772   4.085   4.286  13.182 -0.0953 -0.1718  0.5917
  317MPD2    N1 4773   3.833   4.453  12.827  0.0459 -0.4636 -0.4073
  317MPD2    H7 4774   3.886   4.375  12.790 -1.6111 -2.6145  1.7280
  318TMC3    C1 4775   4.151   4.241  13.418 -0.2557  0.6093  0.7078
  318TMC3    C2 4776   4.153   4.132  13.345 -0.2901  0.0913 -0.5271
  318TMC3    C3 4777   4.233   4.033  13.392  0.0434  0.5797  1.2056
  318TMC3    C4 4778   4.229   4.262  13.529  0.2160 -0.1013 -0.0419
  318TMC3    C5 4779   4.322   4.170  13.559  0.5318  0.4718  0.2187
  318TMC3    C6 4780   4.328   4.051  13.491 -0.2629  0.1006  0.3859
  318TMC3     C 4781   4.074   4.359  13.375 -0.4312 -0.4344 -0.0001
  318TMC3     O 4782   4.047   4.443  13.459 -0.4461  0.3482 -0.0040
  318TMC3     H 4783   4.097   4.112  13.255  1.1519 -0.0089 -1.3897
  318TMC3    H1 4784   4.210   4.344  13.596  2.4418  1.3744 -1.2320
  318TMC3    H2 4785   4.404   3.975  13.505  1.0034  1.2344 -0.2690
  318TMC3    C7 4786   4.401   4.173  13.685  0.0761  0.0736  0.2845
  318TMC3    C8 4787   4.227   3.900  13.337  0.4165 -0.1521 -0.2258
  318TMC3    O1 4788   4.399   4.289  13.733  0.0505  0.0059 -0.3117
  318TMC3    O2 4789   4.293   3.812  13.394  0.5794 -0.9891 -0.4263
  319MPD2     C 4790   0.183   0.459  16.955 -0.2412 -0.1438  0.5498
  319MPD2    C1 4791   0.180   0.585  16.897 -0.4667  0.3470 -0.1767
  319MPD2    C2 4792   0.110   0.606  16.780  0.4991  0.6199  0.8180
  319MPD2    C3 4793   0.029   0.511  16.733  0.3053  0.6789  0.0591
  319MPD2    C4 4794   0.024   0.389  16.799 -1.0044  0.3057 -0.0580
  319MPD2    C5 4795   0.102   0.363  16.907 -0.1670 -0.2643  0.1448
  319MPD2     H 4796   0.122   0.704  16.734 -1.7630  0.2505 -0.5121
  319MPD2    H1 4797   4.685   0.307  16.764 -0.7624  0.4929 -0.9115
  319MPD2    H2 4798   0.252   0.432  17.035 -0.7481 -1.4022  0.5653
  319MPD2    H3 4799   0.108   0.263  16.947 -0.9910  0.1828  1.3742
  319MPD2     N 4800   4.675   0.527  16.619  0.5820  0.0167  0.0317
  319MPD2    H5 4801   4.601   0.458  16.610  0.2933  0.3502 -0.1922
  319MPD2    N1 4802   0.255   0.695  16.948  0.2041  0.2018  0.4894
  319MPD2    H7 4803   0.257   0.779  16.892 -0.1696  0.7523  1.3002
  320TMC3    C1 4804   4.592   0.610  16.418 -0.2549 -0.4917 -0.5078
  320TMC3    C2 4805   4.558   0.719  16.352 -0.5234 -0.3298 -0.1084
  320TMC3    C3 4806   4.462   0.711  16.250  0.7283  0.3976 -0.6401
  320TMC3    C4 4807   4.542   0.489  16.375  0.3701  0.5596 -0.2704
  320TMC3    C5 4808   4.451   0.481  16.274 -0.0409 -0.1077 -0.3331
  320TMC3    C6 4809   4.414   0.595  16.208 -0.1203  0.2373 -1.2343
  320TMC3     C 4810   4.678   0.638  16.528 -0.4639  0.8882 -0.2555
  320TMC3     O 4811   0.028   0.735  16.527  0.1837 -0.5297  0.3446
  320TMC3     H 4812   4.604   0.813  16.381  0.1544 -1.4476  2.4754
  320TMC3    H1 4813   4.594   0.403  16.414  0.8220  1.1469  0.4320
  320TMC3    H2 4814   4.342   0.569  16.132 -2.1716  1.8316  0.1837
  320TMC3    C7 4815   4.408   0.349  16.237  0.0720  0.1876  0.6398
  320TMC3    C8 4816   4.442   0.829  16.175 -0.3122 -0.4958 -0.3007
  320TMC3    O1 4817   4.402   0.327  16.116 -0.2589 -0.3082  0.2838
  320TMC3    O2 4818   4.491   0.935  16.210  0.2058 -0.6115 -0.0933
  321TMC3    C1 4819   0.354   0.821  17.122 -0.3133  0.1441 -0.1142
  321TMC3    C2 4820   0.373   0.833  17.261 -0.2454  0.4839  0.8334
  321TMC3    C3 4821   0.448   0.931  17.311  0.1957 -0.1842 -0.3517
  321TMC3    C4 4822   0.422   0.890  17.032  0.0851 -0.1930 -0.3225
  321TMC3    C5 4823   0.496   0.995  17.088 -0.5593  0.1077  0.5866
  321TMC3    C6 4824   0.504   1.015  17.221 -0.0569  0.5236  0.4503
  321TMC3     C 4825   0.293   0.700  17.081  0.1751 -0.0728  0.9637
  321TMC3     O 4826   0.282   0.613  17.162 -0.2960  0.3866  0.2389
  321TMC3     H 4827   0.331   0.759  17.329  1.0760 -0.7594  0.2720
  321TMC3    H1 4828   0.431   0.874  16.925  0.1868 -1.0199 -0.1911
  321TMC3    H2 4829   0.540   1.109  17.261 -0.1500 -0.5683  3.0909
  321TMC3    C7 4830   0.618   1.029  17.015 -0.3687  0.3768 -0.9292
  321TMC3    C8 4831   0.552   0.892  17.396  0.1179 -0.1282 -0.2235
  321TMC3    O1 4832   0.612   1.048  16.892  0.0342 -0.3383 -0.0535
  321TMC3    O2 4833   0.659   0.942  17.363 -0.1869  0.5775  0.3893
  322MPD2     C 4834   4.235   2.249  13.674 -0.1661 -0.0673 -0.3769
  322MPD2    C1 4835   4.223   2.162  13.782  0.5675  0.4579 -0.7721
  322MPD2    C2 4836   4.157   2.035  13.761  0.3684  0.4763  0.7415
  322MPD2    C3 4837   4.112   2.003  13.630  0.6155 -0.0722  0.2811
  322MPD2    C4 4838   4.139   2.085  13.527 -0.5654  0.4845 -0.3944
  322MPD2    C5 4839   4.190   2.210  13.549  1.0947 -0.7147 -0.0528
  322MPD2     H 4840   4.149   1.958  13.836 -1.9585 -1.9365 -1.9721
  322MPD2    H1 4841   4.122   2.060  13.423 -0.3398 -0.7517 -0.1425
  322MPD2    H2 4842   4.276   2.348  13.688 -0.8030 -0.0277  1.1691
  322MPD2    H3 4843   4.198   2.282  13.469  0.3796 -0.7074 -0.1179
  322MPD2     N 4844   4.059   1.875  13.609 -0.5678 -0.3914  0.1892
  322MPD2    H5 4845   4.065   1.807  13.684  0.3463  1.3920  1.7216
  322MPD2    N1 4846   4.266   2.203  13.907 -0.2545  0.1302 -0.5889
  322MPD2    H7 4847   4.310   2.294  13.904  0.1655  0.0016  1.5867
  323TMC3    C1 4848   4.303   2.185  14.147 -0.1157  0.6324 -0.0895
  323TMC3    C2 4849   4.428   2.240  14.124  0.2069 -0.3626  0.6622
  323TMC3    C3 4850   4.514   2.251  14.230 -0.7396 -0.2140  0.0271
  323TMC3    C4 4851   4.278   2.123  14.267  0.3685  0.2464 -0.3710
  323TMC3    C5 4852   4.369   2.127  14.372 -0.6992 -0.4913 -0.1315
  323TMC3    C6 4853   4.487   2.193  14.353  0.1661  0.1834  0.6518
  323TMC3     C 4854   4.235   2.143  14.032 -0.1617  0.3052  0.1575
  323TMC3     O 4855   4.159   2.049  14.039 -0.5436 -0.0898  0.2741
  323TMC3     H 4856   4.447   2.299  14.035 -0.3637 -1.0070  0.1147
  323TMC3    H1 4857   4.179   2.081  14.282 -0.5433  1.8728 -1.7898
  323TMC3    H2 4858   4.572   2.179  14.419  0.9136  1.3790 -0.0519
  323TMC3    C7 4859   4.388   1.994  14.422  0.5077 -0.2996  0.2581
  323TMC3    C8 4860   4.653   2.287  14.216  0.0408  0.0664  0.1586
  323TMC3    O1 4861   4.490   1.942  14.381  0.5553 -0.3502  0.0576
  323TMC3    O2 4862   0.022   2.210  14.250 -0.0108 -0.3269 -0.1495
  324MPD2     C 4863   1.239   3.185  14.889 -0.1372  0.4323  0.8806
  324MPD2    C1 4864   1.240   3.283  14.791 -0.0997  0.4542 -0.2335
  324MPD2    C2 4865   1.115   3.340  14.765 -0.6448  0.2179 -0.7232
  324MPD2    C3 4866   0.995   3.297  14.830 -0.0740  0.1289 -0.1062
  324MPD2    C4 4867   0.999   3.199  14.919  0.0330 -1.0853 -0.0680
  324MPD2    C5 4868   1.119   3.145  14.952 -0.1269 -1.0868 -0.6119
  324MPD2     H 4869   1.110   3.423  14.696 -1.7410  0.8094  0.0906
  324MPD2    H1 4870   0.905   3.158  14.956 -0.0209  0.3779  1.3727
  324MPD2    H2 4871   1.323   3.128  14.926 -0.0159  1.1832  1.7714
  324MPD2    H3 4872   1.126   3.065  15.025 -1.0526 -0.7201 -0.1226
  324MPD2     N 4873   0.864   3.337  14.797  0.4073  0.0966  0.1283
  324MPD2    H5 4874   0.787   3.283  14.836 -0.3975 -0.3216 -2.0607
  324MPD2    N1 4875   1.348   3.305  14.707 -0.3255 -0.2986  0.6097
  324MPD2    H7 4876   1.339   3.381  14.640  0.5093 -0.5605  0.1932
  325TMC3    C1 4877   0.694   3.450  14.677 -0.2322 -0.3454  1.0793
  325TMC3    C2 4878   0.603   3.377  14.750  0.8251  0.8776 -0.3707
  325TMC3    C3 4879   0.471   3.387  14.716 -0.4211  0.6079 -0.2340
  325TMC3    C4 4880   0.653   3.541  14.582 -0.0115 -0.2524 -0.3857
  325TMC3    C5 4881   0.517   3.547  14.555  0.5863 -0.0916 -0.0094
  325TMC3    C6 4882   0.429   3.461  14.610  0.5071  0.2401 -0.4014
  325TMC3     C 4883   0.836   3.428  14.697  0.6506  0.2983  0.2115
  325TMC3     O 4884   0.911   3.501  14.632  0.3180  0.0774  0.1161
  325TMC3     H 4885   0.620   3.332  14.847 -2.9281 -0.2281 -0.2129
  325TMC3    H1 4886   0.725   3.590  14.518  0.3100 -1.0877 -0.6677
  325TMC3    H2 4887   0.331   3.443  14.566  0.5153 -2.1031  0.5390
  325TMC3    C7 4888   0.466   3.640  14.447  0.4807  0.3510  0.4114
  325TMC3    C8 4889   0.393   3.281  14.771 -0.3466 -0.3176  0.2935
  325TMC3    O1 4890   0.527   3.663  14.347 -0.0347 -0.2641 -0.1205
  325TMC3    O2 4891   0.446   3.173  14.776  0.7628 -0.2669  0.1055
  326MPD2     C 4892   1.799   3.905  11.107  0.0684  0.6645 -0.7129
  326MPD2    C1 4893   1.817   3.904  10.973  0.3294  0.4952 -0.0557
  326MPD2    C2 4894   1.910   3.987  10.914 -0.2714 -0.3321 -0.1380
  326MPD2    C3 4895   1.985   4.078  10.988 -0.8164  0.3428  0.1446
  326MPD2    C4 4896   1.970   4.075  11.125  0.9014  0.0999  0.0415
  326MPD2    C5 4897   1.881   3.989  11.181  0.8210 -1.1341 -0.0956
  326MPD2     H 4898   1.924   3.986  10.806 -0.5014 -2.6498 -0.1445
  326MPD2    H1 4899   2.039   4.136  11.183 -0.2186  0.6084  0.8387
  326MPD2    H2 4900   1.725   3.847  11.162  0.8058  0.6855  0.2982
  326MPD2    H3 4901   1.871   3.983  11.288 -0.0649 -0.9166 -0.1702
  326MPD2     N 4902   2.081   4.170  10.938 -0.2403  0.4994  0.2011
  326MPD2    H5 4903   2.135   4.222  11.007 -0.9071  1.5489 -0.0792
  326MPD2    N1 4904   1.756   3.810  10.896  0.1653 -0.1128 -0.0812
  326MPD2    H7 4905   1.779   3.820  10.797 -1.1123  0.0962 -0.3589
  327TMC3    C1 4906   1.607   3.644  10.824  0.3131  0.0688  0.2868
  327TMC3    C2 4907   1.494   3.679  10.760  0.2530 -0.6965  0.2398
  327TMC3    C3 4908   1.480   3.667  10.622 -0.0025  0.4314  0.3455
  327TMC3    C4 4909   1.707   3.598  10.748  0.0171 -0.8223 -0.4006
  327TMC3    C5 4910   1.695   3.578  10.614  0.0898 -0.4960  0.5832
  327TMC3    C6 4911   1.580   3.607  10.547 -0.1837 -0.1537 -0.6877
  327TMC3     C 4912   1.642   3.741  10.932 -0.1236 -0.2239 -0.1076
  327TMC3     O 4913   1.552   3.765  11.018  0.0854  0.3384 -0.0880
  327TMC3     H 4914   1.424   3.733  10.822 -1.4453 -0.6096 -1.7611
  327TMC3    H1 4915   1.806   3.577  10.788  0.7418 -0.8551 -2.2356
  327TMC3    H2 4916   1.571   3.598  10.439 -1.0067  1.9745 -0.7800
  327TMC3    C7 4917   1.810   3.610  10.526  0.3939 -0.6191 -0.0810
  327TMC3    C8 4918   1.409   3.774  10.556 -0.6524  0.1153  0.6575
  327TMC3    O1 4919   1.780   3.637  10.408 -0.7070 -0.2369 -0.1830
  327TMC3    O2 4920   1.439   3.806  10.445 -0.6644 -0.1854  0.4124
  328MPD2     C 4921   4.516   4.343  17.508  0.2922  0.3042 -0.0054
  328MPD2    C1 4922   4.412   4.276  17.447  0.5186 -0.1971  0.1053
  328MPD2    C2 4923   4.365   4.326  17.326 -0.0535 -0.3000 -0.8070
  328MPD2    C3 4924   4.423   4.438  17.271  0.0736 -0.9311 -0.8030
  328MPD2    C4 4925   4.530   4.499  17.330 -0.3864 -0.1384  0.1102
  328MPD2    C5 4926   4.582   4.449  17.451 -0.2739  0.5555 -0.3324
  328MPD2     H 4927   4.272   4.286  17.287 -0.4724 -0.4876  0.3722
  328MPD2    H1 4928   4.571   4.595  17.304 -0.8125 -0.3871 -1.4787
  328MPD2    H2 4929   4.548   4.297  17.600 -0.6292 -0.3838 -0.0316
  328MPD2    H3 4930   4.669   4.498  17.492  1.9357 -2.7597 -1.0882
  328MPD2     N 4931   4.377   4.506  17.152  0.4687  0.1492 -0.7759
  328MPD2    H5 4932   4.421   4.596  17.135 -1.9252  1.3804 -0.3357
  328MPD2    N1 4933   4.344   4.178  17.521  0.4524  0.1951  0.2850
  328MPD2    H7 4934   4.358   4.183  17.621 -2.0986 -0.6232  0.6892
  329TMC3    C1 4935   4.210   3.992  17.556 -1.1268 -0.2156  0.8015
  329TMC3    C2 4936   4.174   4.039  17.680  0.1334  0.4326 -0.4490
  329TMC3    C3 4937   4.167   3.945   0.086  0.5322 -0.7211  0.1092
  329TMC3    C4 4938   4.228   3.862  17.528 -0.2265 -0.0250  0.5081
  329TMC3    C5 4939   4.213   3.771  17.629 -0.8697  0.1107  0.1211
  329TMC3    C6 4940   4.181   3.813   0.062  0.1916  0.3171 -0.5442
  329TMC3     C 4941   4.269   4.079  17.462 -0.2001  0.5504  0.8872
  329TMC3     O 4942   4.242   4.058  17.344 -0.6068  0.4367  0.1121
  329TMC3     H 4943   4.137   4.140  17.688  0.3987  0.5521 -0.7215
  329TMC3    H1 4944   4.260   3.846  17.426 -0.6903  2.5141 -0.0369
  329TMC3    H2 4945   4.150   3.746   0.141  2.3220  0.0268  0.0466
  329TMC3    C7 4946   4.236   3.630  17.602 -0.4225  0.2372 -0.7744
  329TMC3    C8 4947   4.175   3.996   0.228  0.0003 -0.2382  0.2387
  329TMC3    O1 4948   4.241   3.564   0.010  0.1997  0.1365 -0.3487
  329TMC3    O2 4949   4.217   3.931   0.317  0.1197  0.3580 -0.5938
  330TMC3    C1 4950   2.628   3.308  10.255  0.6287 -0.8808 -0.2709
  330TMC3    C2 4951   2.618   3.245  10.134 -0.2390  0.1585 -0.1389
  330TMC3    C3 4952   2.645   3.114  10.132  0.7000 -0.1473 -0.6039
  330TMC3    C4 4953   2.649   3.247  10.369  0.0956  0.0342  0.1169
  330TMC3    C5 4954   2.658   3.110  10.365 -0.6829  0.0618 -0.1489
  330TMC3    C6 4955   2.661   3.043  10.247  0.1988 -0.4800 -0.0815
  330TMC3     C 4956   2.626   3.454  10.263  0.5322 -0.0249 -0.1423
  330TMC3     O 4957   2.640   3.511  10.372  0.8268  0.0636 -0.0652
  330TMC3     H 4958   2.605   3.291  10.037 -1.4632 -0.4044 -0.2432
  330TMC3    H1 4959   2.652   3.302  10.463  2.4316  0.3006 -0.0992
  330TMC3    H2 4960   2.676   2.936  10.249  1.7534 -0.2804 -1.1920
  330TMC3    C7 4961   2.642   3.030  10.487  0.3195  0.3364 -0.2320
  330TMC3    C8 4962   2.632   3.045  10.001 -0.1064 -0.2581 -0.5497
  330TMC3    O1 4963   2.681   2.912  10.486 -0.8659  0.1531  0.0408
  330TMC3    O2 4964   2.668   3.101   9.898  0.0024  0.0425 -0.4277
  331MPD2     C 4965   0.025   2.450  12.613 -0.2268 -0.7149  0.2488
  331MPD2    C1 4966   0.149   2.476  12.566 -0.1854  0.1193 -0.3597
  331MPD2    C2 4967   0.216   2.385  12.494 -0.6837  0.3685 -0.5823
  331MPD2    C3 4968   0.158   2.264  12.469  0.2849 -0.2249 -0.0143
  331MPD2    C4 4969   0.031   2.236  12.518 -0.1350 -0.3707 -0.1460
  331MPD2    C5 4970   4.686   2.327  12.598 -0.2198  1.0070  0.3803
  331MPD2     H 4971   0.313   2.399  12.448 -0.0819 -1.5771  0.1413
  331MPD2    H1 4972   4.705   2.142  12.495 -1.9223  0.4580  0.2859
  331MPD2    H2 4973   4.707   2.532  12.671 -3.2387 -1.8725 -0.2573
  331MPD2    H3 4974   4.583   2.305  12.625  0.0336  0.1738  0.6600
  331MPD2     N 4975   0.228   2.176  12.388  0.6682 -0.0886 -0.4331
  331MPD2    H5 4976   0.324   2.198  12.364  0.1839  1.4016 -0.9780
  331MPD2    N1 4977   0.208   2.599  12.605 -0.3961 -0.0053 -0.1291
  331MPD2    H7 4978   0.150   2.656  12.666 -2.2122 -0.0738 -1.7948
  332TMC3    C1 4979   0.302   1.993  12.288  0.1139  0.0432  0.5336
  332TMC3    C2 4980   0.340   2.082  12.190  0.4822 -0.7041  0.3245
  332TMC3    C3 4981   0.473   2.085  12.164 -0.1965  0.5121  0.0641
  332TMC3    C4 4982   0.396   1.930  12.356  0.9141  0.2170  0.8601
  332TMC3    C5 4983   0.531   1.939  12.343  0.4952  0.1219  0.0985
  332TMC3    C6 4984   0.569   2.020  12.239 -0.4127  0.1068  0.3282
  332TMC3     C 4985   0.197   2.043  12.372  0.3568  0.2583 -0.3531
  332TMC3     O 4986   0.130   1.972  12.445 -0.6948 -0.2730  0.4239
  332TMC3     H 4987   0.254   2.133  12.148 -0.3838  0.1215  3.0816
  332TMC3    H1 4988   0.366   1.883  12.449  0.5717 -0.2410  0.5145
  332TMC3    H2 4989   0.674   2.028  12.211 -1.0727 -0.5920 -2.3427
  332TMC3    C7 4990   0.620   1.905  12.449 -0.5065  0.5211 -0.1026
  332TMC3    C8 4991   0.526   2.168  12.054 -0.5843  0.0646 -0.9669
  332TMC3    O1 4992   0.573   1.836  12.538 -0.3886 -0.0565 -0.1003
  332TMC3    O2 4993   0.647   2.183  12.061 -0.2460 -0.0049 -0.6409
  333MPD2     C 4994   0.616   2.314  11.129  0.7237  0.1998 -0.8990
  333MPD2    C1 4995   0.678   2.225  11.048  0.3362  0.0886 -0.6176
  333MPD2    C2 4996   0.662   2.092  11.069  0.1139 -0.5397  0.3840
  333MPD2    C3 4997   0.574   2.049  11.166 -0.3367  0.2667  0.1386
  333MPD2    C4 4998   0.512   2.135  11.249 -0.2395  0.2783  0.7731
  333MPD2    C5 4999   0.540   2.272  11.235 -0.1154 -0.6774  0.0198
  333MPD2     H 5000   0.703   2.017  11.002  1.2862  0.7247 -0.3028
  333MPD2    H1 5001   0.434   2.106  11.318  0.8205 -2.2977  0.8951
  333MPD2    H2 5002   0.621   2.422  11.118  0.9016  0.4154  1.4410
  333MPD2    H3 5003   0.493   2.353  11.290  2.0190 -0.0516  0.9126
  333MPD2     N 5004   0.553   1.912  11.169 -0.3983 -0.2399  0.1047
  333MPD2    H5 5005   0.597   1.846  11.106  1.4343  2.0920 -1.0788
  333MPD2    N1 5006   0.753   2.284  10.948  0.0939 -1.0796  1.0321
  333MPD2    H7 5007   0.748   2.385  10.949  0.2306 -1.0603 -0.6845
  334TMC3    C1 5008   0.909   2.305  10.768  0.0514 -0.5813  0.0427
  334TMC3    C2 5009   0.990   2.257  10.664  0.0773 -0.3368  1.0852
  334TMC3    C3 5010   1.077   2.345  10.602  0.6195  0.5226  0.2837
  334TMC3    C4 5011   0.911   2.442  10.791  1.3079  0.3267 -0.0649
  334TMC3    C5 5012   0.994   2.523  10.726 -0.1012  0.2233  0.0054
  334TMC3    C6 5013   1.083   2.480  10.632 -0.2529  0.1048  0.3820
  334TMC3     C 5014   0.832   2.219  10.857  0.8556 -0.2791 -0.0398
  334TMC3     O 5015   0.837   2.099  10.843 -0.3823 -0.1729 -0.3174
  334TMC3     H 5016   0.969   2.155  10.634  1.7184  0.5042 -2.9426
  334TMC3    H1 5017   0.858   2.490  10.873 -0.9624 -0.4013 -1.0799
  334TMC3    H2 5018   1.154   2.553  10.593 -0.0285 -0.3518 -0.0742
  334TMC3    C7 5019   0.979   2.662  10.753 -0.1120 -0.1976 -0.5150
  334TMC3    C8 5020   1.179   2.279  10.516 -0.7274  0.3996 -0.4132
  334TMC3    O1 5021   1.076   2.729  10.785  0.0669 -0.1215  0.3293
  334TMC3    O2 5022   1.136   2.178  10.466  0.5267  0.4596 -0.3927
  335TMC3    C1 5023   0.396   4.529  17.264  0.2707 -0.2764 -0.2827
  335TMC3    C2 5024   0.347   4.447  17.171  0.0291  0.5336 -0.9857
  335TMC3    C3 5025   0.414   4.455  17.048  0.0342  0.0470 -0.2149
  335TMC3    C4 5026   0.493   4.621  17.245  0.7078 -0.5246  1.1668
  335TMC3    C5 5027   0.559   4.617  17.120  0.2874  0.0581 -0.8611
  335TMC3    C6 5028   0.523   4.531  17.025 -0.5246 -0.1843 -0.3838
  335TMC3     C 5029   0.320   4.532  17.390  0.4626 -0.6932  0.1278
  335TMC3     O 5030   0.343   4.628  17.464  0.4847 -0.6378  0.1247
  335TMC3     H 5031   0.253   4.395  17.183 -0.4689  2.0536  1.6292
  335TMC3    H1 5032   0.533   4.685  17.322 -3.5428  1.4771  1.6938
  335TMC3    H2 5033   0.565   4.548  16.926 -1.2106 -1.8861 -0.9586
  335TMC3    C7 5034   0.699   4.656  17.111  0.3530 -0.2802  0.6343
  335TMC3    C8 5035   0.401   4.352  16.946  0.2466  0.3882  0.6253
  335TMC3    O1 5036   0.756   4.633  17.007 -0.7884 -0.0691  0.7197
  335TMC3    O2 5037   0.459   4.366  16.836  0.2801  0.6276  0.2898
  336MPD2     C 5038   4.635   2.116  16.359  0.1806 -0.2735  0.3449
  336MPD2    C1 5039   4.556   2.022  16.294 -0.7444 -0.6916  0.5736
  336MPD2    C2 5040   4.563   1.891  16.334 -0.2561  0.5053 -0.0509
  336MPD2    C3 5041   4.637   1.853  16.444 -0.1758  0.4484 -0.4051
  336MPD2    C4 5042   4.710   1.942  16.510  0.1688  0.1485  0.2206
  336MPD2    C5 5043   4.704   2.075  16.471 -0.0869  0.1756 -0.3894
  336MPD2     H 5044   4.502   1.830  16.270  1.0317  0.3577 -1.1358
  336MPD2    H1 5045   0.041   1.922  16.602  0.0297 -0.4281  0.1732
  336MPD2    H2 5046   4.620   2.222  16.351  2.3344  0.0410  0.3350
  336MPD2    H3 5047   4.720   2.152  16.547  0.1835 -0.9886  0.7297
  336MPD2     N 5048   4.631   1.723  16.497 -0.1263  0.8502 -0.5372
  336MPD2    H5 5049   4.680   1.720  16.585 -2.6656  0.1337  0.8461
  336MPD2    N1 5050   4.468   2.057  16.187 -0.5125 -0.7740  0.5499
  336MPD2    H7 5051   4.409   1.987  16.144 -0.9395 -0.4016  0.5247
  337TMC3    C1 5052   4.358   2.181  16.017 -0.6552  0.9986  0.2802
  337TMC3    C2 5053   4.237   2.112  16.029 -0.1688 -0.4109 -0.7463
  337TMC3    C3 5054   4.155   2.114  15.920 -0.4890 -0.0668  0.6328
  337TMC3    C4 5055   4.394   2.253  15.900  0.6152  0.4652  0.1440
  337TMC3    C5 5056   4.301   2.265  15.801 -0.2970  0.1352 -0.6695
  337TMC3    C6 5057   4.182   2.191  15.811 -0.2830  0.3042  0.3637
  337TMC3     C 5058   4.455   2.179  16.124 -0.3211  0.7293  0.0686
  337TMC3     O 5059   4.525   2.277  16.127 -0.1662 -0.5474  0.1078
  337TMC3     H 5060   4.217   2.053  16.117 -0.3914  2.3646  1.0598
  337TMC3    H1 5061   4.495   2.288  15.883  0.5364  0.8286  0.4187
  337TMC3    H2 5062   4.127   2.191  15.717  1.4313 -1.1191 -0.6435
  337TMC3    C7 5063   4.351   2.288  15.671  0.1720  0.3321  0.2884
  337TMC3    C8 5064   4.055   2.011  15.926 -0.7188 -0.0874 -0.2489
  337TMC3    O1 5065   4.303   2.222  15.580 -0.3849 -0.1531  0.3679
  337TMC3    O2 5066   4.092   1.905  15.973  0.6538  0.2012 -0.2825
  338MPD2     C 5067   1.177   1.523   1.101 -0.1487 -0.8262  0.1178
  338MPD2    C1 5068   1.073   1.532   1.008 -0.3670 -0.6588 -0.3782
  338MPD2    C2 5069   0.983   1.635   1.031 -0.2776  0.6087  0.5402
  338MPD2    C3 5070   0.994   1.720   1.143  0.0287  0.9546  0.2392
  338MPD2    C4 5071   1.077   1.690   1.243  0.0351  0.3427  0.1752
  338MPD2    C5 5072   1.175   1.603   1.216 -0.4581  0.9087 -0.2664
  338MPD2     H 5073   0.901   1.650   0.961  0.2313 -0.3843 -0.2728
  338MPD2    H1 5074   1.074   1.756   1.329 -0.0916  1.1145 -0.4155
  338MPD2    H2 5075   1.264   1.458   1.097 -0.2069 -0.8552 -0.6079
  338MPD2    H3 5076   1.255   1.591   1.289 -1.0231 -0.3837  0.1452
  338MPD2     N 5077   0.903   1.825   1.162 -0.0699 -0.1718  0.2842
  338MPD2    H5 5078   0.904   1.867   1.255 -1.4205 -0.2208  0.3121
  338MPD2    N1 5079   1.056   1.460   0.893  0.6235 -0.1036 -0.4447
  338MPD2    H7 5080   0.974   1.489   0.842  0.2749  0.1743  0.2804
  339TMC3    C1 5081   0.704   1.939   1.123  0.6714  0.0987 -0.3512
  339TMC3    C2 5082   0.628   1.863   1.210  0.5228  0.0481 -0.7529
  339TMC3    C3 5083   0.494   1.860   1.206 -0.6634 -0.1754  0.9825
  339TMC3    C4 5084   0.637   2.011   1.027 -0.3130 -0.1095 -0.0573
  339TMC3    C5 5085   0.501   2.010   1.023  0.2065 -0.1481  0.5950
  339TMC3    C6 5086   0.425   1.929   1.112  0.4394  0.3137  0.1426
  339TMC3     C 5087   0.820   1.881   1.068 -0.0351 -0.1762  0.1378
  339TMC3     O 5088   0.838   1.889   0.946 -0.0103 -0.2992 -0.3863
  339TMC3     H 5089   0.678   1.794   1.278  3.2942  0.2175 -2.6105
  339TMC3    H1 5090   0.688   2.068   0.950  2.2533  0.2735  1.9167
  339TMC3    H2 5091   0.318   1.917   1.119  0.4699 -1.2243 -1.8639
  339TMC3    C7 5092   0.435   2.024   0.892 -0.9533 -0.3633 -0.2687
  339TMC3    C8 5093   0.420   1.777   1.306 -0.4020  0.4376 -0.2918
  339TMC3    O1 5094   0.503   1.983   0.802  0.0155 -0.5940  0.2529
  339TMC3    O2 5095   0.310   1.814   1.335 -0.4163 -0.1785 -0.1615
  340MPD2     C 5096   0.060   3.265   9.858  0.7856  0.0896 -0.9590
  340MPD2    C1 5097   0.154   3.167   9.832 -0.2398 -0.0074 -0.2744
  340MPD2    C2 5098   0.251   3.141   9.927  0.0507  0.9098  0.4452
  340MPD2    C3 5099   0.255   3.208  10.045  0.1961 -0.2635 -0.1481
  340MPD2    C4 5100   0.163   3.310  10.067 -0.1915 -0.0053  0.5979
  340MPD2    C5 5101   0.064   3.338   9.974  0.5959 -0.2756 -0.5805
  340MPD2     H 5102   0.327   3.065   9.914 -1.4131 -0.0999 -2.0507
  340MPD2    H1 5103   0.155   3.355  10.166  1.3961  0.0950  0.6827
  340MPD2    H2 5104   4.710   3.300   9.786  1.8289  1.1635 -1.5026
  340MPD2    H3 5105   4.709   3.410   9.994 -0.0617 -0.5579 -2.1224
  340MPD2     N 5106   0.352   3.198  10.141 -0.4419 -0.3072 -0.2769
  340MPD2    H5 5107   0.332   3.261  10.218 -0.8236 -0.3495 -0.3378
  340MPD2    N1 5108   0.152   3.106   9.706  0.3980 -0.5940  0.4638
  340MPD2    H7 5109   0.067   3.121   9.654  0.6175  1.5793  0.7523
  341TMC3    C1 5110   0.221   2.982   9.520  0.5849 -0.3786  0.5874
  341TMC3    C2 5111   0.096   2.951   9.478  0.1932  0.3126 -0.0240
  341TMC3    C3 5112   0.088   2.872   9.371  0.4917  0.0177  0.8581
  341TMC3    C4 5113   0.340   2.962   9.450 -0.3527 -0.0256  0.2538
  341TMC3    C5 5114   0.327   2.886   9.336  0.0508 -0.4402 -1.0398
  341TMC3    C6 5115   0.201   2.842   9.288 -0.1139  0.6397 -0.0937
  341TMC3     C 5116   0.239   3.015   9.661  0.4329 -0.2160 -0.1666
  341TMC3     O 5117   0.336   2.955   9.712 -0.6083 -0.4495  0.0727
  341TMC3     H 5118   0.008   2.956   9.542 -1.1757 -0.0392 -1.8866
  341TMC3    H1 5119   0.436   3.001   9.481 -1.1483  3.3578 -1.5664
  341TMC3    H2 5120   0.184   2.783   9.199 -1.0276  1.7618 -0.6637
  341TMC3    C7 5121   0.451   2.855   9.266  0.1421 -0.1994  0.1661
  341TMC3    C8 5122   4.684   2.801   9.349  0.3929 -0.0648  0.0557
  341TMC3    O1 5123   0.554   2.895   9.315 -0.0709 -0.8725  0.1896
  341TMC3    O2 5124   4.612   2.778   9.440  0.0697  0.3824 -0.2126
  342MPD2     C 5125   2.677   2.706  17.582 -0.3631 -0.2932  0.6951
  342MPD2    C1 5126   2.795   2.673  17.518  0.5071  0.5995 -0.5300
  342MPD2    C2 5127   2.842   2.753  17.417 -0.4927  1.0955 -0.0544
  342MPD2    C3 5128   2.776   2.869  17.388  0.6257 -0.1729 -0.0434
  342MPD2    C4 5129   2.657   2.900  17.448  0.3711 -0.3924 -0.5087
  342MPD2    C5 5130   2.609   2.817  17.548 -0.1296 -0.0585 -0.7377
  342MPD2     H 5131   2.930   2.718  17.364  0.4273  0.5863  1.8068
  342MPD2    H1 5132   2.592   2.980  17.416 -0.4667 -0.6629  0.5073
  342MPD2    H2 5133   2.633   2.637  17.654  0.7476 -1.3606  0.3586
  342MPD2    H3 5134   2.520   2.845  17.604 -0.2975 -0.7775 -0.6531
  342MPD2     N 5135   2.821   2.958  17.290  0.4274 -0.1450 -0.0347
  342MPD2    H5 5136   2.765   3.043  17.284 -1.2767 -1.2379  0.4834
  342MPD2    N1 5137   2.867   2.558  17.556  0.2251  0.4354  0.0207
  342MPD2    H7 5138   2.950   2.537  17.501  1.1171  1.3944  0.9810
  343TMC3    C1 5139   2.947   2.376  17.663 -0.2248  0.0453 -0.0370
  343TMC3    C2 5140   3.083   2.416  17.668  0.1027  0.0454  0.6210
  343TMC3    C3 5141   3.174   2.315  17.678  0.2081  0.1453  0.3598
  343TMC3    C4 5142   2.904   2.248  17.654  0.2718 -0.4724 -0.6356
  343TMC3    C5 5143   3.000   2.150  17.647  0.1874  0.3222 -0.4347
  343TMC3    C6 5144   3.130   2.180  17.656  0.2096  0.2656 -0.0783
  343TMC3     C 5145   2.839   2.474  17.666  0.0497  0.1641  0.1413
  343TMC3     O 5146   2.739   2.445   0.037 -0.6510  0.0064 -0.1554
  343TMC3     H 5147   3.106   2.520  17.683 -3.9394  1.4085 -2.5121
  343TMC3    H1 5148   2.801   2.235  17.623  0.8967 -0.1026 -2.8801
  343TMC3    H2 5149   3.199   2.097  17.642  0.8639  0.3920  2.3994
  343TMC3    C7 5150   2.974   2.023  17.591 -0.1705 -0.6843  0.3599
  343TMC3    C8 5151   3.310   2.352   0.024  0.1814  0.0759 -0.1881
  343TMC3    O1 5152   3.065   1.954  17.545  0.1705 -0.1521  0.4137
  343TMC3    O2 5153   3.322   2.458   0.084 -0.0683  0.3512 -0.0726
  344MPD2     C 5154   3.923   1.834  10.703  0.1663  0.4437  0.1957
  344MPD2    C1 5155   3.968   1.768  10.596 -0.0162 -0.6164  0.2223
  344MPD2    C2 5156   3.989   1.846  10.484 -0.4054  0.1461  0.1221
  344MPD2    C3 5157   3.960   1.978  10.478 -0.0121  0.5218 -0.0841
  344MPD2    C4 5158   3.919   2.042  10.588  0.3173  0.1072  0.0733
  344MPD2    C5 5159   3.893   1.965  10.701  0.0090 -0.5748  0.3404
  344MPD2     H 5160   4.022   1.787  10.400  0.7723  0.8720  0.0871
  344MPD2    H1 5161   3.889   2.146  10.591 -1.3183 -0.4426  3.1007
  344MPD2    H2 5162   3.921   1.782  10.799  1.0015  0.1937  0.0723
  344MPD2    H3 5163   3.855   2.012  10.791  0.2387 -2.4410  1.4141
  344MPD2     N 5164   3.998   2.065  10.372 -0.0415 -0.3704  0.2009
  344MPD2    H5 5165   3.983   2.166  10.378  0.0974 -0.3840  0.7546
  344MPD2    N1 5166   3.991   1.627  10.590 -0.5025  0.0560  0.0343
  344MPD2    H7 5167   4.032   1.595  10.503 -3.3520  1.3833 -1.7641
  345TMC3    C1 5168   4.090   2.127  10.159 -0.1936  0.8842  0.5955
  345TMC3    C2 5169   4.157   2.232  10.213 -0.4503  0.0809  0.6610
  345TMC3    C3 5170   4.164   2.346  10.136 -0.7105 -0.1552  0.8244
  345TMC3    C4 5171   4.046   2.121  10.026 -0.0363 -0.6225 -0.8122
  345TMC3    C5 5172   4.075   2.228   9.948 -0.0656 -0.4086 -0.3454
  345TMC3    C6 5173   4.131   2.331  10.002  0.1493  0.3493 -0.7439
  345TMC3     C 5174   4.043   2.021  10.246  0.3155  0.3995 -0.1462
  345TMC3     O 5175   4.036   1.906  10.197 -0.1263 -0.3946 -0.1235
  345TMC3     H 5176   4.179   2.242  10.319  0.7925 -0.7129  0.4786
  345TMC3    H1 5177   3.985   2.037   9.995 -0.2706 -0.5303 -0.6061
  345TMC3    H2 5178   4.148   2.415   9.936  0.5089  1.9104  1.3086
  345TMC3    C7 5179   3.972   2.264   9.857 -0.5390 -0.0615  0.9374
  345TMC3    C8 5180   4.196   2.478  10.185 -0.0639 -0.1276  0.3913
  345TMC3    O1 5181   4.006   2.359   9.785  0.2215 -0.2363  0.5295
  345TMC3    O2 5182   4.214   2.566  10.101  0.1322  0.2867 -0.2257
  346MPD2     C 5183   4.170   3.276  14.147  0.1487  0.5721  0.2425
  346MPD2    C1 5184   4.179   3.398  14.090  0.4514  0.0853 -0.1192
  346MPD2    C2 5185   4.194   3.508  14.165 -0.1464 -0.3498 -0.2961
  346MPD2    C3 5186   4.192   3.497  14.307 -0.1330  0.8952  1.3754
  346MPD2    C4 5187   4.186   3.375  14.368 -0.7223  0.4521  0.2312
  346MPD2    C5 5188   4.175   3.264  14.285 -0.1974  0.0051 -0.9690
  346MPD2     H 5189   4.214   3.603  14.116 -0.6425  0.4505  1.0732
  346MPD2    H1 5190   4.187   3.354  14.474 -1.9979 -0.3743  0.0812
  346MPD2    H2 5191   4.176   3.185  14.089 -0.2286 -1.0731  2.8123
  346MPD2    H3 5192   4.178   3.164  14.327 -2.0830  0.1637 -0.4815
  346MPD2     N 5193   4.197   3.617  14.387  0.6413 -0.1257  0.5479
  346MPD2    H5 5194   4.192   3.700  14.329 -0.3322  0.1367  1.0025
  346MPD2    N1 5195   4.183   3.421  13.950 -0.5436  0.0529 -0.3922
  346MPD2    H7 5196   4.193   3.518  13.923 -1.3430  0.6950  1.5866
  347TMC3    C1 5197   4.238   3.750  14.574  0.2258 -0.0672 -0.5384
  347TMC3    C2 5198   4.347   3.809  14.520 -0.5272 -0.0049 -0.2767
  347TMC3    C3 5199   4.444   3.862  14.605 -0.2853 -0.3031 -0.1684
  347TMC3    C4 5200   4.221   3.758  14.711  0.3595  0.4751 -0.4079
  347TMC3    C5 5201   4.316   3.803  14.793 -0.2601  0.5956  0.0337
  347TMC3    C6 5202   4.425   3.857  14.744  0.0851 -0.4013 -0.7812
  347TMC3     C 5203   4.209   3.622  14.522  0.0889 -0.3045  0.2078
  347TMC3     O 5204   4.220   3.539  14.610  0.4630 -0.9857 -0.2496
  347TMC3     H 5205   4.377   3.784  14.418  1.5728  0.1427  0.2931
  347TMC3    H1 5206   4.128   3.725  14.758  0.0557  0.3729 -1.0800
  347TMC3    H2 5207   4.512   3.873  14.807 -0.9728 -0.1480  0.6134
  347TMC3    C7 5208   4.343   3.736  14.915  0.7786  0.3161 -0.4935
  347TMC3    C8 5209   4.581   3.831  14.573  0.2616  0.2342 -0.3966
  347TMC3    O1 5210   4.427   3.773  14.998 -0.6267 -0.4230  0.2889
  347TMC3    O2 5211   4.650   3.771  14.651  0.3950  0.5210  0.2332
  348MPD2     C 5212   2.300   2.404  12.314 -0.2333  0.4413 -0.0100
  348MPD2    C1 5213   2.358   2.533  12.301  0.4777 -0.2940 -0.0864
  348MPD2    C2 5214   2.330   2.612  12.195  0.3318 -0.7281 -0.4500
  348MPD2    C3 5215   2.251   2.558  12.092  0.7959 -0.2716  0.4740
  348MPD2    C4 5216   2.207   2.430  12.098  0.7519 -0.3206  0.1270
  348MPD2    C5 5217   2.233   2.355  12.212  0.1405  0.0747 -0.8070
  348MPD2     H 5218   2.379   2.708  12.197 -2.3949  0.6525  0.2590
  348MPD2    H1 5219   2.154   2.385  12.015 -0.7453 -1.5409  1.7468
  348MPD2    H2 5220   2.307   2.337  12.399  1.0733 -2.3902 -2.3474
  348MPD2    H3 5221   2.194   2.255  12.226 -1.1100  0.6923  0.0817
  348MPD2     N 5222   2.233   2.638  11.969 -0.1989  0.4345  0.1928
  348MPD2    H5 5223   2.271   2.732  11.957 -1.2932  0.6770 -1.4750
  348MPD2    N1 5224   2.439   2.583  12.405  0.2956 -0.0402  0.3700
  348MPD2    H7 5225   2.485   2.673  12.394  1.6981 -0.7559  0.4897
  349TMC3    C1 5226   2.569   2.577  12.599 -0.1739 -0.4519 -0.2194
  349TMC3    C2 5227   2.679   2.498  12.615 -0.8049  0.1871  0.1651
  349TMC3    C3 5228   2.801   2.558  12.607 -0.1590 -0.4709  0.1816
  349TMC3    C4 5229   2.579   2.715  12.595 -0.2827  0.0792 -0.4135
  349TMC3    C5 5230   2.705   2.766  12.568 -0.3849  0.2866  0.4315
  349TMC3    C6 5231   2.823   2.694  12.588 -0.1087 -0.4156  0.2753
  349TMC3     C 5232   2.465   2.512  12.525  0.5282  0.3621  0.0641
  349TMC3     O 5233   2.429   2.402  12.572  0.2385  0.3456  0.1141
  349TMC3     H 5234   2.671   2.393  12.592 -0.5049  0.0360  0.7479
  349TMC3    H1 5235   2.484   2.761  12.570 -1.4833 -1.9957  0.2683
  349TMC3    H2 5236   2.915   2.748  12.571 -0.8643  0.1656 -1.8990
  349TMC3    C7 5237   2.693   2.848  12.453 -0.2192  0.8812 -0.0440
  349TMC3    C8 5238   2.913   2.470  12.639  0.0744  0.3108  0.1050
  349TMC3    O1 5239   2.594   2.826  12.380  0.5733 -0.4196 -0.2152
  349TMC3    O2 5240   2.876   2.364  12.680 -0.0337  0.1656 -0.1803
  350MPD2     C 5241   1.631   0.491   9.614  0.0276  0.2102  0.1889
  350MPD2    C1 5242   1.597   0.421   9.728  0.1737 -0.1696  0.4943
  350MPD2    C2 5243   1.648   0.461   9.850  0.1041 -0.2645  0.4816
  350MPD2    C3 5244   1.742   0.565   9.858 -0.5205 -0.2197 -0.4081
  350MPD2    C4 5245   1.775   0.637   9.746  0.8862 -0.3128  0.3983
  350MPD2    C5 5246   1.719   0.600   9.629  0.5149  0.2302 -0.0143
  350MPD2     H 5247   1.618   0.406   9.938 -1.0865 -1.1204 -0.4517
  350MPD2    H1 5248   1.848   0.717   9.751  1.5709 -0.8595 -0.8976
  350MPD2    H2 5249   1.587   0.476   9.516  0.4058  0.4841 -0.0240
  350MPD2    H3 5250   1.738   0.665   9.544 -1.5960  2.0598  0.9209
  350MPD2     N 5251   1.796   0.595   9.985  0.3420 -0.3454  0.0238
  350MPD2    H5 5252   1.761   0.537  10.061 -1.3227  1.0243  0.3056
  350MPD2    N1 5253   1.517   0.302   9.730 -0.1874  0.3826 -0.2179
  350MPD2    H7 5254   1.505   0.255   9.819  1.4056  3.3728  1.5619
  351TMC3    C1 5255   1.463   0.101   9.638  0.4473  0.4785 -0.7127
  351TMC3    C2 5256   1.579   0.036   9.604  0.7138 -0.9452  0.4860
  351TMC3    C3 5257   1.627   4.653   9.681  0.6665 -0.3482  0.1318
  351TMC3    C4 5258   1.392   0.049   9.745 -0.3879  0.1609  0.5238
  351TMC3    C5 5259   1.438   4.660   9.809 -0.0632 -0.0540  0.2190
  351TMC3    C6 5260   1.555   4.594   9.775  0.0481 -0.0079  0.1390
  351TMC3     C 5261   1.479   0.237   9.612  0.2947 -0.2131  0.7192
  351TMC3     O 5262   1.517   0.249   9.495 -0.2407  0.0832  0.9059
  351TMC3     H 5263   1.641   0.072   9.522 -0.3281 -1.7529 -0.6688
  351TMC3    H1 5264   1.300   0.091   9.782 -2.0352 -2.0596 -1.0680
  351TMC3    H2 5265   1.602   4.524   9.843  0.6851 -1.7369 -2.0760
  351TMC3    C7 5266   1.357   4.612   9.916 -0.1951 -0.4531  0.1997
  351TMC3    C8 5267   1.748   4.585   9.633 -0.3773  0.4211  0.5409
  351TMC3    O1 5268   1.284   4.695   9.961 -0.0927  0.1002 -0.2719
  351TMC3    O2 5269   1.824   4.645   9.558  0.4785  0.1077  0.2368
  352MPD2     C 5270   0.920   3.600   1.024 -0.0322  0.2279  0.1104
  352MPD2    C1 5271   0.821   3.544   1.098 -0.7174 -0.4666  1.0147
  352MPD2    C2 5272   0.837   3.422   1.151 -0.8939 -0.6179  0.1122
  352MPD2    C3 5273   0.950   3.351   1.136  0.4014 -0.2032 -0.1526
  352MPD2    C4 5274   1.048   3.405   1.068 -0.0539 -0.7397 -0.9408
  352MPD2    C5 5275   1.035   3.527   1.007 -0.3778 -0.7653 -0.5212
  352MPD2     H 5276   0.751   3.372   1.195 -2.0370 -0.3201 -1.8035
  352MPD2    H1 5277   1.144   3.355   1.064  1.4458  2.1473 -0.1997
  352MPD2    H2 5278   0.901   3.697   0.978  1.1269  0.0426 -0.7661
  352MPD2    H3 5279   1.116   3.575   0.952 -1.0804  0.7071 -0.2610
  352MPD2     N 5280   0.962   3.212   1.177  0.3341 -0.8079  0.6125
  352MPD2    H5 5281   1.051   3.170   1.151  0.0467  0.4183 -2.3913
  352MPD2    N1 5282   0.699   3.623   1.118  0.0372  0.8910 -0.2523
  352MPD2    H7 5283   0.693   3.706   1.060 -0.2261 -1.1874 -3.2075
  353TMC3    C1 5284   0.876   2.995   1.215  0.2455 -0.3312 -0.1284
  353TMC3    C2 5285   1.003   2.945   1.222 -0.4459 -0.3268 -0.1329
  353TMC3    C3 5286   1.027   2.823   1.164 -0.1830  0.7056  0.2568
  353TMC3    C4 5287   0.770   2.923   1.169  1.0344 -0.0937  0.3851
  353TMC3    C5 5288   0.793   2.791   1.142 -0.1842 -0.3214  0.0974
  353TMC3    C6 5289   0.924   2.736   1.141 -0.0960 -0.2589  0.2053
  353TMC3     C 5290   0.858   3.135   1.228 -0.6287  0.1033  0.5199
  353TMC3     O 5291   0.750   3.169   1.270  0.0843 -0.0752 -0.1418
  353TMC3     H 5292   1.077   3.006   1.272 -0.7109  1.2765 -1.6895
  353TMC3    H1 5293   0.675   2.974   1.156  1.7995  0.4795 -2.8660
  353TMC3    H2 5294   0.928   2.628   1.134  1.5310 -0.0923 -1.4906
  353TMC3    C7 5295   0.688   2.713   1.067  0.7728  0.5613  0.5347
  353TMC3    C8 5296   1.162   2.763   1.180  0.3056  0.2496 -0.4951
  353TMC3    O1 5297   0.726   2.621   0.995  0.5153  0.4673  0.3914
  353TMC3    O2 5298   1.236   2.824   1.259  0.3981  0.3536 -0.0462
  354TMC3    C1 5299   1.937   4.085  13.329 -0.6487  0.2454  0.4016
  354TMC3    C2 5300   1.878   4.202  13.288  0.4882  0.0391 -0.0515
  354TMC3    C3 5301   1.918   4.248  13.162  0.6556 -0.1026 -0.3615
  354TMC3    C4 5302   2.021   3.997  13.251  0.0857  0.4636 -0.0084
  354TMC3    C5 5303   2.045   4.042  13.124  0.4608 -0.8395  0.4618
  354TMC3    C6 5304   1.999   4.170  13.079  0.1104 -0.3385  1.3147
  354TMC3     C 5305   1.885   4.045  13.458  0.4422  0.4780  0.2788
  354TMC3     O 5306   1.767   4.057  13.478  0.3183  0.1931  0.1006
  354TMC3     H 5307   1.834   4.269  13.361 -1.9371 -1.6700  0.0466
  354TMC3    H1 5308   2.021   3.890  13.264 -0.4408  0.6200  1.3391
  354TMC3    H2 5309   2.011   4.201  12.976 -0.5949  0.1786  1.3898
  354TMC3    C7 5310   2.112   3.949  13.031  0.0468  0.5338 -0.2987
  354TMC3    C8 5311   1.940   4.387  13.159 -0.3258 -0.1793 -0.2698
  354TMC3    O1 5312   2.127   3.835  13.069 -0.2446 -0.3914  0.1282
  354TMC3    O2 5313   1.869   4.454  13.233  0.3975  0.2597 -0.2771
  355MPD2     C 5314   1.760   0.245  11.666 -0.1324 -0.1648  0.3069
  355MPD2    C1 5315   1.810   0.317  11.561 -0.2519  0.9181  0.5275
  355MPD2    C2 5316   1.943   0.337  11.558  0.5932 -0.4783  0.0850
  355MPD2    C3 5317   2.027   0.303  11.664  0.0320 -0.7638 -0.4661
  355MPD2    C4 5318   1.974   0.226  11.765  0.2255  0.8611 -0.3410
  355MPD2    C5 5319   1.842   0.200  11.766 -0.2581 -0.0752 -0.3652
  355MPD2     H 5320   1.987   0.380  11.469 -0.9802  1.8946  0.4597
  355MPD2    H1 5321   2.039   0.195  11.847  0.2659  0.1946 -0.6309
  355MPD2    H2 5322   1.661   0.202  11.675 -0.1487 -0.2732 -0.4451
  355MPD2    H3 5323   1.800   0.139  11.845  0.1881  1.7760  1.2923
  355MPD2     N 5324   2.159   0.338  11.675 -0.6889 -0.3160  0.0631
  355MPD2    H5 5325   2.207   0.300  11.756 -0.7665  0.5101  0.4864
  355MPD2    N1 5326   1.720   0.336  11.451 -0.0100  0.1843 -0.5152
  355MPD2    H7 5327   1.630   0.292  11.464  0.5174 -1.1909 -1.5480
  356TMC3    C1 5328   2.376   0.415  11.617 -0.2219  0.2620  0.4483
  356TMC3    C2 5329   2.454   0.467  11.513  0.0592  0.1751  0.2317
  356TMC3    C3 5330   2.524   0.585  11.535  0.6305 -0.2558 -0.5770
  356TMC3    C4 5331   2.378   0.472  11.741 -0.5125 -0.0288 -0.1766
  356TMC3    C5 5332   2.455   0.581  11.759 -0.3866  0.1595 -0.5119
  356TMC3    C6 5333   2.531   0.642  11.662  0.7321 -0.7364 -0.0787
  356TMC3     C 5334   2.244   0.390  11.577 -0.8926  0.5088 -0.7460
  356TMC3     O 5335   2.218   0.432  11.470 -0.2393 -0.2252 -0.0018
  356TMC3     H 5336   2.450   0.433  11.410 -1.0674 -1.6112  0.8622
  356TMC3    H1 5337   2.326   0.439  11.830 -0.5050 -0.1937 -0.2326
  356TMC3    H2 5338   2.584   0.733  11.686 -1.1369  0.2398  0.3894
  356TMC3    C7 5339   2.436   0.645  11.892  0.2298 -0.3262  0.3485
  356TMC3    C8 5340   2.603   0.640  11.421 -0.4480  0.7190 -0.1345
  356TMC3    O1 5341   2.327   0.631  11.947 -0.3968  0.2002  0.1191
  356TMC3    O2 5342   2.575   0.590  11.311  0.0946  0.2965  0.4668
  357MPD2     C 5343   2.250   4.401   1.404  0.7914  0.1043  0.3039
  357MPD2    C1 5344   2.353   4.314   1.424 -0.0638 -0.2652  0.4734
  357MPD2    C2 5345   2.317   4.197   1.487  0.0223  0.0689 -0.2762
  357MPD2    C3 5346   2.192   4.179   1.541 -0.5633 -0.2435 -0.5349
  357MPD2    C4 5347   2.093   4.267   1.505  0.2657  0.4340 -0.2623
  357MPD2    C5 5348   2.122   4.377   1.440 -0.0203  0.2035 -0.0729
  357MPD2     H 5349   2.395   4.123   1.501 -1.0953 -0.7993  1.3366
  357MPD2    H1 5350   1.997   4.263   1.555 -0.1119 -1.6111 -1.1281
  357MPD2    H2 5351   2.260   4.496   1.352  1.1910 -0.3497 -0.4559
  357MPD2    H3 5352   2.043   4.450   1.429  0.4429  0.5355 -1.1502
  357MPD2     N 5353   2.150   4.064   1.612  0.1800 -0.1718 -0.1125
  357MPD2    H5 5354   2.051   4.045   1.609  0.3531 -1.4213  1.7915
  357MPD2    N1 5355   2.476   4.342   1.373  0.5041 -0.1039  0.0429
  357MPD2    H7 5356   2.488   4.431   1.327 -0.7489  0.3870  0.6621
  358TMC3    C1 5357   2.716   4.327   1.348 -0.1501  0.1892 -0.0474
  358TMC3    C2 5358   2.701   4.393   1.227 -0.3602  0.2585  0.4624
  358TMC3    C3 5359   2.811   4.390   1.148 -0.2965 -0.4752  0.2562
  358TMC3    C4 5360   2.831   4.258   1.379  0.1858 -0.0131 -0.7418
  358TMC3    C5 5361   2.934   4.269   1.298  0.6849 -0.7090 -1.3434
  358TMC3    C6 5362   2.926   4.341   1.186  0.1763 -0.3270 -0.1775
  358TMC3     C 5363   2.592   4.274   1.410 -0.0162 -0.2416  0.7743
  358TMC3     O 5364   2.613   4.177   1.478  0.2135  0.4856 -0.5471
  358TMC3     H 5365   2.610   4.437   1.189  0.6674 -1.1862 -3.7672
  358TMC3    H1 5366   2.837   4.188   1.462 -2.0102  0.1809 -0.4304
  358TMC3    H2 5367   3.003   4.342   1.109 -0.6191 -0.9462 -0.9781
  358TMC3    C7 5368   3.052   4.177   1.308 -0.3366 -0.3145  0.3189
  358TMC3    C8 5369   2.809   4.476   1.033 -0.0862  0.0292  0.1922
  358TMC3    O1 5370   3.153   4.220   1.256 -0.3385  0.3566  0.2081
  358TMC3    O2 5371   2.699   4.515   1.000 -0.0525  0.5076 -0.2996
  359MPD2     C 5372   2.111   4.238  12.349 -0.9939 -0.2023  0.1928
  359MPD2    C1 5373   2.204   4.135  12.354  0.5142 -0.1753  0.3251
  359MPD2    C2 5374   2.169   4.015  12.421 -0.2237 -0.2538  0.5803
  359MPD2    C3 5375   2.045   3.997  12.482 -0.2437  0.0024 -0.2141
  359MPD2    C4 5376   1.965   4.107  12.481 -0.1240 -0.0258  0.0905
  359MPD2    C5 5377   2.000   4.219  12.411 -0.5373 -0.1232 -0.5539
  359MPD2     H 5378   2.245   3.939  12.415 -1.2663 -1.2106 -0.5098
  359MPD2    H1 5379   1.869   4.112  12.532  0.9115 -0.5511  2.0994
  359MPD2    H2 5380   2.139   4.331  12.301  0.5174 -1.6634 -1.7792
  359MPD2    H3 5381   1.928   4.299  12.422 -0.5808 -0.2103 -0.1857
  359MPD2     N 5382   2.008   3.880  12.548 -0.4317  0.1008  0.1285
  359MPD2    H5 5383   1.921   3.887  12.598  1.0529  0.3605  2.6712
  359MPD2    N1 5384   2.327   4.146  12.289  0.2417  1.0702  0.1782
  359MPD2    H7 5385   2.386   4.064  12.299  0.3465  1.2248  0.8054
  360TMC3    C1 5386   2.499   4.224  12.147  0.8038 -1.6186  0.0361
  360TMC3    C2 5387   2.570   4.143  12.225  0.1466  0.2388 -0.3802
  360TMC3    C3 5388   2.654   4.054  12.157 -0.3931  0.1276  0.3569
  360TMC3    C4 5389   2.492   4.204  12.012 -0.2835 -0.1644 -0.3480
  360TMC3    C5 5390   2.558   4.099  11.951  0.2938 -0.0126  0.6172
  360TMC3    C6 5391   2.637   4.021  12.023 -0.3174 -0.3866  0.4907
  360TMC3     C 5392   2.374   4.254  12.211  0.1478  1.0048  0.3846
  360TMC3     O 5393   2.308   4.341  12.156 -0.6848  0.1805 -0.3973
  360TMC3     H 5394   2.579   4.164  12.331 -2.8155  3.2284 -0.7240
  360TMC3    H1 5395   2.421   4.263  11.954 -1.1915 -0.7316  0.1832
  360TMC3    H2 5396   2.670   3.930  11.974 -2.7271 -0.9584 -0.0395
  360TMC3    C7 5397   2.514   4.054  11.822 -0.9592  0.0200 -0.1735
  360TMC3    C8 5398   2.731   3.965  12.236  0.4140  0.5972  1.0109
  360TMC3    O1 5399   2.516   4.133  11.731  0.2379  0.3226  0.4241
  360TMC3    O2 5400   2.713   3.961  12.359 -0.2375 -0.3153  0.2312
  361MPD2     C 5401   4.161   2.747  16.525  0.6674  0.3044  0.0917
  361MPD2    C1 5402   4.171   2.810  16.647 -0.1975 -0.2269  0.0592
  361MPD2    C2 5403   4.254   2.770  16.747 -0.5855 -0.5615  0.3824
  361MPD2    C3 5404   4.336   2.658  16.732 -0.2454  0.7039  0.1868
  361MPD2    C4 5405   4.325   2.596  16.606 -0.2468  0.9591 -0.3639
  361MPD2    C5 5406   4.236   2.639  16.514 -0.2371  0.6121  0.1639
  361MPD2     H 5407   4.244   2.820  16.843 -1.5626  0.0201 -0.0218
  361MPD2    H1 5408   4.373   2.504  16.575  0.7534  1.5671 -0.6314
  361MPD2    H2 5409   4.099   2.782  16.444 -2.0584 -3.4105  0.6077
  361MPD2    H3 5410   4.222   2.579  16.425  0.7490 -0.5500  0.7985
  361MPD2     N 5411   4.427   2.616  16.837 -0.9453 -0.2812  0.1358
  361MPD2    H5 5412   4.483   2.533  16.819 -1.9351 -0.9411  0.1131
  361MPD2    N1 5413   4.068   2.908  16.673  0.0677  0.1764  0.4365
  361MPD2    H7 5414   4.084   2.958  16.760 -0.1225  0.5584  0.2520
  362TMC3    C1 5415   3.879   3.051  16.638  0.8966 -0.3356 -0.0389
  362TMC3    C2 5416   3.742   3.046  16.632  0.4202 -0.1574  0.4139
  362TMC3    C3 5417   3.671   3.156  16.676  0.1717 -0.5652 -0.0732
  362TMC3    C4 5418   3.952   3.161  16.677 -0.1673 -1.2140 -0.6485
  362TMC3    C5 5419   3.877   3.264  16.714  0.1481 -0.2950  0.1566
  362TMC3    C6 5420   3.743   3.262  16.720  0.0630  0.1578  0.6167
  362TMC3     C 5421   3.941   2.923  16.612 -0.8301 -0.6624  0.3133
  362TMC3     O 5422   3.881   2.850  16.530 -0.2045 -0.1520  0.1698
  362TMC3     H 5423   3.690   2.956  16.600 -1.4339  0.9002  0.4374
  362TMC3    H1 5424   4.058   3.159  16.656 -0.1114 -0.0602 -0.4461
  362TMC3    H2 5425   3.687   3.346  16.760 -0.7457 -0.8174  1.5147
  362TMC3    C7 5426   3.916   3.397  16.666 -0.4226  0.4849  0.4236
  362TMC3    C8 5427   3.528   3.140  16.690  0.5955 -0.1167  0.0105
  362TMC3    O1 5428   3.830   3.480  16.667  0.7935  0.5346  0.3273
  362TMC3    O2 5429   3.480   3.026  16.688  0.1483  0.2020  0.3854
  363TMC3    C1 5430   3.282   0.545   9.730  0.5993  0.2527  0.6241
  363TMC3    C2 5431   3.194   0.438   9.725 -0.2296  0.1438 -0.1560
  363TMC3    C3 5432   3.061   0.465   9.725 -0.1691 -0.5147  0.3154
  363TMC3    C4 5433   3.242   0.680   9.730  0.0977 -0.3212 -0.3072
  363TMC3    C5 5434   3.105   0.695   9.730 -0.2918 -0.1623 -0.1763
  363TMC3    C6 5435   3.018   0.594   9.731 -0.4482 -0.8763  0.6432
  363TMC3     C 5436   3.421   0.514   9.726  0.0105 -0.8247  1.2724
  363TMC3     O 5437   3.468   0.406   9.700  0.0373  0.2172  0.3505
  363TMC3     H 5438   3.228   0.336   9.710 -1.7280 -0.5856  1.4206
  363TMC3    H1 5439   3.307   0.764   9.707 -0.5011  0.4692  0.9065
  363TMC3    H2 5440   2.912   0.620   9.736  0.1839  1.7940 -0.0552
  363TMC3    C7 5441   3.056   0.830   9.710 -0.2510 -0.2183 -0.2090
  363TMC3    C8 5442   2.951   0.368   9.731  0.8176  0.9827  0.1773
  363TMC3    O1 5443   2.945   0.852   9.753 -0.8720 -0.3110 -0.5258
  363TMC3    O2 5444   2.847   0.405   9.783  0.1979  0.3266  0.0604
  364MPD2     C 5445   1.099   4.169  10.576 -0.0734  0.1449 -0.9175
  364MPD2    C1 5446   1.226   4.159  10.522 -0.5692 -0.6943 -0.3530
  364MPD2    C2 5447   1.292   4.043  10.540 -0.1200  0.5269 -0.5909
  364MPD2    C3 5448   1.231   3.936  10.605  0.1351  0.2221 -0.1184
  364MPD2    C4 5449   1.103   3.946  10.648 -0.6318 -0.0018 -0.2644
  364MPD2    C5 5450   1.036   4.062  10.636 -0.1473 -0.0021 -0.8696
  364MPD2     H 5451   1.398   4.036  10.518  0.1065  2.5027 -0.1497
  364MPD2    H1 5452   1.062   3.857  10.695  0.0526 -0.2095 -0.0503
  364MPD2    H2 5453   1.030   4.249  10.552 -2.2755 -1.1328  1.1684
  364MPD2    H3 5454   0.938   4.066  10.682  0.0501  1.5724 -0.5846
  364MPD2     N 5455   1.295   3.809  10.624  0.3333  0.5503  0.6047
  364MPD2    H5 5456   1.254   3.752  10.697  0.3347 -1.4654 -0.9645
  364MPD2    N1 5457   1.281   4.273  10.465 -0.1315  0.4551  0.1705
  364MPD2    H7 5458   1.219   4.349  10.441 -0.9969  0.0367  1.1007
  365TMC3    C1 5459   1.438   4.411  10.350 -0.1629  0.3934 -0.5639
  365TMC3    C2 5460   1.543   4.411  10.263  0.1222  0.6232  0.4578
  365TMC3    C3 5461   1.589   4.533  10.221 -0.1977  0.7066  0.9276
  365TMC3    C4 5462   1.375   4.529  10.390 -0.3235  0.1444  0.0766
  365TMC3    C5 5463   1.422   4.644  10.337 -0.3546 -0.0622 -0.8941
  365TMC3    C6 5464   1.537   4.653  10.264  0.4802  0.2090 -0.1323
  365TMC3     C 5465   1.413   4.286  10.423  0.0701 -0.1459 -0.1891
  365TMC3     O 5466   1.504   4.206  10.429  0.0134 -0.0178  0.1693
  365TMC3     H 5467   1.609   4.326  10.245  0.0794  0.8846 -0.9776
  365TMC3    H1 5468   1.291   4.524  10.457 -0.3851  0.5301  0.0289
  365TMC3    H2 5469   1.570   0.029  10.235 -0.9971  1.3525  2.1077
  365TMC3    C7 5470   1.363   0.049  10.381  0.0781  0.1797 -0.1673
  365TMC3    C8 5471   1.712   4.542  10.154 -0.3602 -0.0989 -0.2911
  365TMC3    O1 5472   1.397   0.149  10.321  0.1031 -0.2078  0.3748
  365TMC3    O2 5473   1.756   4.653  10.138  0.1131 -0.5566  0.2181
  366MPD2     C 5474   4.272   0.888  15.396  0.0128  0.3430  0.0376
  366MPD2    C1 5475   4.361   0.984  15.403  0.1764 -0.0916  0.1795
  366MPD2    C2 5476   4.487   0.958  15.443 -0.0587  0.0313  0.3545
  366MPD2    C3 5477   4.536   0.838  15.472 -0.1689 -0.6077 -0.1533
  366MPD2    C4 5478   4.446   0.735  15.456 -0.6243 -0.4110 -0.5698
  366MPD2    C5 5479   4.314   0.759  15.422 -0.4249  0.3164 -0.6072
  366MPD2     H 5480   4.551   1.044  15.458  3.0124 -2.5384  1.9500
  366MPD2    H1 5481   4.477   0.635  15.483 -0.2782 -0.1089  0.1517
  366MPD2    H2 5482   4.168   0.912  15.379  0.2770  1.1713 -0.4292
  366MPD2    H3 5483   4.246   0.675  15.425 -0.0978  0.1384  2.0334
  366MPD2     N 5484   4.670   0.827  15.497  0.0277 -0.0019  0.2915
  366MPD2    H5 5485   0.006   0.907  15.479  0.2704 -0.0919  0.6735
  366MPD2    N1 5486   4.321   1.121  15.388  0.2815 -0.5737 -0.1214
  366MPD2    H7 5487   4.401   1.183  15.392 -0.3937  0.2409  0.4942
  367TMC3    C1 5488   4.206   1.311  15.387  0.3998 -0.1250 -0.4307
  367TMC3    C2 5489   4.300   1.343  15.475 -0.1573 -0.1350 -0.7289
  367TMC3    C3 5490   4.341   1.479  15.484 -0.8551 -0.3065 -1.2414
  367TMC3    C4 5491   4.158   1.401  15.296 -0.3892 -0.0763 -0.0414
  367TMC3    C5 5492   4.210   1.525  15.302 -0.7245  0.2165  0.0448
  367TMC3    C6 5493   4.293   1.572  15.397  0.2104 -0.0522 -0.7385
  367TMC3     C 5494   4.202   1.178  15.365 -0.0110 -0.0620  0.3015
  367TMC3     O 5495   4.107   1.134  15.306 -0.1914 -0.4609  0.4650
  367TMC3     H 5496   4.333   1.280  15.557 -3.9864  0.8202  1.5279
  367TMC3    H1 5497   4.078   1.372  15.229 -0.5260 -0.7554  0.4068
  367TMC3    H2 5498   4.340   1.669  15.382  0.4485 -0.1097 -0.3651
  367TMC3    C7 5499   4.174   1.614  15.195  0.2456 -0.8392 -0.7517
  367TMC3    C8 5500   4.415   1.520  15.604 -0.1831  0.2957 -0.6740
  367TMC3    O1 5501   4.184   1.737  15.212 -0.6502 -0.1538 -0.1393
  367TMC3    O2 5502   4.473   1.431  15.661  0.4648 -0.2091 -0.2083
  368MPD2     C 5503   0.779   2.811  13.655  0.2048 -0.5164 -0.1379
  368MPD2    C1 5504   0.735   2.861  13.529  0.0241  0.7358 -0.0804
  368MPD2    C2 5505   0.831   2.889  13.434  0.2608 -0.4109 -0.7813
  368MPD2    C3 5506   0.965   2.881  13.458 -0.0548 -0.0038 -0.6883
  368MPD2    C4 5507   1.006   2.839  13.584  0.1242 -0.0149 -0.4850
  368MPD2    C5 5508   0.916   2.803  13.683  0.4896 -0.6498  0.1755
  368MPD2     H 5509   0.794   2.940  13.346 -0.7419 -0.4064 -0.3499
  368MPD2    H1 5510   1.111   2.823  13.603 -0.1580  0.1982  1.2160
  368MPD2    H2 5511   0.709   2.783  13.733  1.7805  0.7115  1.7381
  368MPD2    H3 5512   0.936   2.773  13.785 -0.0586 -0.8899  0.2173
  368MPD2     N 5513   1.069   2.919  13.364  0.5658 -0.3820  0.1572
  368MPD2    H5 5514   1.165   2.926  13.397  0.4097  0.6764  0.3731
  368MPD2    N1 5515   0.603   2.881  13.521 -0.2812 -0.3958  0.3491
  368MPD2    H7 5516   0.546   2.861  13.603 -1.9274 -0.3847 -0.7867
  369TMC3    C1 5517   0.400   2.964  13.427  0.9512  0.0511  0.9195
  369TMC3    C2 5518   0.358   3.073  13.370 -0.1883  0.0599 -0.0977
  369TMC3    C3 5519   0.248   3.140  13.417  0.4657  0.7875  0.1368
  369TMC3    C4 5520   0.343   2.937  13.549 -0.2697  0.6320 -0.0025
  369TMC3    C5 5521   0.241   3.010  13.603  0.4034  0.0622 -0.2764
  369TMC3    C6 5522   0.191   3.114  13.535 -0.5375 -1.1574  0.1162
  369TMC3     C 5523   0.536   2.925  13.407 -0.0988 -1.0346  0.3243
  369TMC3     O 5524   0.571   2.940  13.289  0.2880  0.7965  0.5542
  369TMC3     H 5525   0.399   3.096  13.272  0.5939 -2.2246 -0.3252
  369TMC3    H1 5526   0.358   2.835  13.585 -1.6854  1.0733  1.8381
  369TMC3    H2 5527   0.116   3.181  13.577  1.5958  2.2492 -1.4997
  369TMC3    C7 5528   0.174   2.954  13.715 -0.0666 -0.1611 -0.5041
  369TMC3    C8 5529   0.198   3.254  13.333  0.4574 -0.6218  0.1682
  369TMC3    O1 5530   0.227   2.862  13.774 -0.7794 -0.1238  0.4059
  369TMC3    O2 5531   0.291   3.300  13.267  0.4485  0.2443  0.2953
  370TMC3    C1 5532   0.515   3.847  16.319 -0.0290  0.0224  0.1190
  370TMC3    C2 5533   0.454   3.770  16.414  0.3982 -0.7261  0.3477
  370TMC3    C3 5534   0.457   3.638  16.397  0.3463  0.2944 -0.1084
  370TMC3    C4 5535   0.592   3.787  16.221 -0.1499  0.6431 -0.7391
  370TMC3    C5 5536   0.586   3.653  16.202 -0.0261  0.7661 -0.2977
  370TMC3    C6 5537   0.517   3.574  16.290 -0.2095  0.1908  0.0084
  370TMC3     C 5538   0.507   3.991  16.345  0.4217  0.7248 -0.5862
  370TMC3     O 5539   0.431   4.025  16.435  0.4182 -0.2840  0.0614
  370TMC3     H 5540   0.386   3.809  16.490 -1.4719  0.4166 -1.9240
  370TMC3    H1 5541   0.620   3.846  16.135 -0.5959  2.0711  0.1047
  370TMC3    H2 5542   0.523   3.466  16.286  1.6441  0.3198 -0.6887
  370TMC3    C7 5543   0.675   3.597  16.102  0.0214 -0.1499  0.6512
  370TMC3    C8 5544   0.419   3.547  16.507 -0.5632 -0.4834  0.7234
  370TMC3    O1 5545   0.750   3.669  16.044  0.0502  0.3463  0.1732
  370TMC3    O2 5546   0.370   3.436  16.487  0.2889 -0.3741 -0.7670
  371TMC3    C1 5547   1.640   1.712  15.657  0.3604  0.4635 -0.3238
  371TMC3    C2 5548   1.513   1.750  15.633  0.2240  0.6183  0.4074
  371TMC3    C3 5549   1.479   1.881  15.635 -0.4724 -0.1891 -0.7324
  371TMC3    C4 5550   1.733   1.809  15.657 -0.4790  0.2082  0.8433
  371TMC3    C5 5551   1.710   1.938  15.649 -0.2074 -0.6526  0.0960
  371TMC3    C6 5552   1.579   1.979  15.641 -0.0750 -0.5326 -0.3741
  371TMC3     C 5553   1.675   1.572  15.617 -0.4262 -0.0462  0.0061
  371TMC3     O 5554   1.785   1.561  15.571  0.0769  0.6685 -0.4361
  371TMC3     H 5555   1.434   1.679  15.610  0.5316  0.1850  0.6789
  371TMC3    H1 5556   1.831   1.764  15.654 -0.7583 -0.2886 -0.7976
  371TMC3    H2 5557   1.550   2.081  15.623 -2.4372 -0.8456  1.7076
  371TMC3    C7 5558   1.794   2.021  15.567  0.1414 -0.1561 -1.3257
  371TMC3    C8 5559   1.359   1.922  15.554  0.1055 -0.2364 -0.1166
  371TMC3    O1 5560   1.776   2.141  15.577 -0.4350 -0.7118 -0.2228
  371TMC3    O2 5561   1.321   1.854  15.459 -0.0195 -0.0544  0.6531
  372MPD2     C 5562   0.402   3.115  13.946  0.7097 -0.1998 -0.4307
  372MPD2    C1 5563   0.522   3.064  13.910 -0.0426  0.4298  0.0412
  372MPD2    C2 5564   0.573   2.951  13.973 -0.3558 -0.2625  0.5211
  372MPD2    C3 5565   0.488   2.883  14.057 -0.3228  0.6499  0.1731
  372MPD2    C4 5566   0.361   2.924  14.076  0.5812  0.0852 -0.8116
  372MPD2    C5 5567   0.326   3.044  14.030  0.0310  0.2171  0.7024
  372MPD2     H 5568   0.677   2.924  13.959 -0.4661  0.3167 -1.4041
  372MPD2    H1 5569   0.292   2.874  14.143 -1.1853  1.1610 -1.8305
  372MPD2    H2 5570   0.372   3.210  13.904 -3.2269 -0.8577  0.8853
  372MPD2    H3 5571   0.232   3.090  14.058  1.3455  2.7336  1.0219
  372MPD2     N 5572   0.534   2.761  14.110  0.3844  0.1101 -0.0947
  372MPD2    H5 5573   0.635   2.751  14.113  0.3271 -0.3181  0.5134
  372MPD2    N1 5574   0.600   3.121  13.805 -0.6686  0.6484 -0.1812
  372MPD2    H7 5575   0.694   3.082  13.802 -0.2506  1.7817 -1.5633
  373TMC3    C1 5576   0.545   2.569  14.245  0.4996  0.4637  1.0043
  373TMC3    C2 5577   0.517   2.553  14.382  0.5098 -0.5890  0.3663
  373TMC3    C3 5578   0.611   2.484  14.445 -0.3619  0.1713  0.4653
  373TMC3    C4 5579   0.647   2.517  14.178 -0.2326 -0.5563 -0.4379
  373TMC3    C5 5580   0.743   2.456  14.258  0.3781  0.2501  0.3829
  373TMC3    C6 5581   0.732   2.436  14.391  0.0039  0.0141 -0.0706
  373TMC3     C 5582   0.463   2.670  14.185  0.6550  0.1146 -0.0525
  373TMC3     O 5583   0.346   2.665  14.216  0.2229  0.1517  0.3605
  373TMC3     H 5584   0.441   2.614  14.428 -0.0770 -0.4132 -0.8329
  373TMC3    H1 5585   0.659   2.558  14.078 -1.2136  1.1009  0.1389
  373TMC3    H2 5586   0.816   2.399  14.450  1.4354  0.9543 -1.4934
  373TMC3    C7 5587   0.857   2.420  14.186 -0.1533  0.0474  0.2500
  373TMC3    C8 5588   0.641   2.533  14.578  0.3037  0.2188  0.0629
  373TMC3    O1 5589   0.880   2.466  14.076 -0.1014 -0.1306 -0.1705
  373TMC3    O2 5590   0.678   2.450  14.665 -0.0644  0.0481 -0.0256
  374TMC3    C1 5591   2.249   2.718   9.640 -0.8228  0.3974  0.1346
  374TMC3    C2 5592   2.261   2.841   9.702  0.0944  0.0568  0.6055
  374TMC3    C3 5593   2.339   2.935   9.642  0.5370  0.5265 -0.0568
  374TMC3    C4 5594   2.313   2.689   9.523  0.2127  0.6617 -0.1502
  374TMC3    C5 5595   2.378   2.788   9.462  0.6483  0.3471 -0.3025
  374TMC3    C6 5596   2.381   2.921   9.514 -0.4383 -1.2895  0.2147
  374TMC3     C 5597   2.155   2.623   9.695  0.1010 -0.1704  0.0949
  374TMC3     O 5598   2.127   2.630   9.814  0.7897  0.6233  0.3040
  374TMC3     H 5599   2.211   2.861   9.796 -0.1423  0.2915  0.4292
  374TMC3    H1 5600   2.322   2.592   9.477 -1.9863  0.3803  0.0259
  374TMC3    H2 5601   2.439   3.003   9.475 -2.1042 -0.3922 -0.3890
  374TMC3    C7 5602   2.459   2.766   9.343 -0.4556  1.0143 -0.2517
  374TMC3    C8 5603   2.349   3.069   9.707 -0.0184  1.0318 -0.2230
  374TMC3    O1 5604   2.513   2.656   9.337  0.4845 -0.2323  0.5345
  374TMC3    O2 5605   2.410   3.158   9.646  0.1934 -0.0719 -0.1442
  375MPD2     C 5606   1.981   4.317  16.945  0.1283  0.0902 -0.3107
  375MPD2    C1 5607   1.878   4.285  16.860 -0.3424  0.0164 -0.1225
  375MPD2    C2 5608   1.904   4.201  16.750  0.0558 -0.0204  0.3585
  375MPD2    C3 5609   2.036   4.156  16.723  0.1825 -0.1526  0.7181
  375MPD2    C4 5610   2.137   4.191  16.816  0.6615 -0.8934 -0.4518
  375MPD2    C5 5611   2.101   4.260  16.932  0.5778  0.2387  0.0051
  375MPD2     H 5612   1.829   4.161  16.682  0.2374  1.4417 -0.6745
  375MPD2    H1 5613   2.237   4.152  16.807 -0.0525 -2.8886  0.2518
  375MPD2    H2 5614   1.978   4.376  17.036 -2.3397  0.6951 -0.7819
  375MPD2    H3 5615   2.172   4.275  17.012 -0.9666  2.5616  0.9658
  375MPD2     N 5616   2.082   4.093  16.602 -0.1145  0.2750  0.4710
  375MPD2    H5 5617   2.181   4.076  16.613 -0.8222 -2.4384  2.7263
  375MPD2    N1 5618   1.748   4.339  16.867  0.0115  0.8396 -0.1705
  375MPD2    H7 5619   1.682   4.309  16.797  1.0991 -1.4578 -0.1893
  376TMC3    C1 5620   2.109   4.036  16.385  0.2089 -0.7935  0.3527
  376TMC3    C2 5621   2.246   4.053  16.414  0.3757 -0.0324 -0.5011
  376TMC3    C3 5622   2.325   3.954  16.358 -0.3734  0.1841  0.9885
  376TMC3    C4 5623   2.067   3.941  16.298  0.1378 -0.1053  0.0155
  376TMC3    C5 5624   2.151   3.855  16.232  0.4939 -0.5784 -0.2326
  376TMC3    C6 5625   2.286   3.856  16.257 -0.5319  0.2182  0.4522
  376TMC3     C 5626   2.019   4.087  16.481  0.2402 -0.7655  0.6284
  376TMC3     O 5627   1.897   4.066  16.458  0.3861 -0.4312  0.2491
  376TMC3     H 5628   2.286   4.132  16.477  1.3524 -1.5422  0.7707
  376TMC3    H1 5629   1.960   3.936  16.281  0.0656  1.0523  0.1356
  376TMC3    H2 5630   2.355   3.783  16.216  0.7861  0.9126  1.4196
  376TMC3    C7 5631   2.099   3.793  16.117  0.1751  0.0370 -0.1560
  376TMC3    C8 5632   2.464   3.975  16.369  0.2419  0.1653  0.7728
  376TMC3    O1 5633   1.988   3.831  16.089 -0.4785  0.1567  0.5080
  376TMC3    O2 5634   2.498   4.091  16.391  0.4518 -0.0655 -0.4911
  377MPD2     C 5635   4.620   3.631  12.263 -1.1981  0.3247 -0.1969
  377MPD2    C1 5636   4.673   3.521  12.332 -0.1577  0.2529  0.5284
  377MPD2    C2 5637   4.603   3.464  12.436 -0.4667 -0.6581 -1.2023
  377MPD2    C3 5638   4.479   3.506  12.474  0.9057  0.0691  0.0974
  377MPD2    C4 5639   4.438   3.619  12.412  0.1829 -0.5142  0.3471
  377MPD2    C5 5640   4.498   3.679  12.304 -0.0932  0.5107  0.1610
  377MPD2     H 5641   4.639   3.376  12.488  3.1225  0.8925 -1.0981
  377MPD2    H1 5642   4.345   3.661  12.448  0.1564 -0.1475 -0.1500
  377MPD2    H2 5643   4.662   3.674  12.173 -0.2020 -0.9754 -0.3542
  377MPD2    H3 5644   4.447   3.756  12.248  0.1291  1.5802  1.4570
  377MPD2     N 5645   4.395   3.443  12.569  0.5842  0.0765 -0.6101
  377MPD2    H5 5646   4.305   3.488  12.582  0.5081 -0.7609  1.8001
  377MPD2    N1 5647   0.082   3.485  12.294  0.1610 -0.8999  0.1270
  377MPD2    H7 5648   0.115   3.530  12.209  0.6396  0.9890  1.3141
  378TMC3    C1 5649   0.388   3.336  12.093 -0.4119  0.2827 -1.1065
  378TMC3    C2 5650   0.270   3.360  12.165  0.5625 -0.1643  0.1582
  378TMC3    C3 5651   0.282   3.362  12.300  0.0300 -0.8098 -0.2249
  378TMC3    C4 5652   0.499   3.287  12.155  0.5737 -0.5068  0.2815
  378TMC3    C5 5653   0.497   3.291  12.291  0.5519  0.2857  0.1787
  378TMC3    C6 5654   0.393   3.335  12.368  0.1688  0.0387  0.5899
  378TMC3     C 5655   0.373   3.338  11.941 -0.3130  0.4527  0.3375
  378TMC3     O 5656   0.281   3.405  11.891 -0.6694 -0.1294 -0.2368
  378TMC3     H 5657   0.177   3.377  12.112  1.7675  2.6770 -1.0167
  378TMC3    H1 5658   0.588   3.292  12.093  2.1234  1.4391  2.7075
  378TMC3    H2 5659   0.393   3.343  12.476 -0.5508  0.0581  0.5858
  378TMC3    C7 5660   0.618   3.276  12.364 -0.6960 -0.1230 -0.0232
  378TMC3    C8 5661   0.171   3.413  12.372 -0.1185  0.2388  0.1881
  378TMC3    O1 5662   0.632   3.325  12.476  0.8523 -0.0998  0.0853
  378TMC3    O2 5663   0.164   3.363  12.484 -0.0415  0.2510  0.5845
  379MPD2     C 5664   0.700   1.656  16.191 -0.3837 -0.3380 -0.3613
  379MPD2    C1 5665   0.650   1.609  16.310 -0.7499  0.8617 -0.8547
  379MPD2    C2 5666   0.726   1.547  16.406  0.8441 -0.2087  0.3930
  379MPD2    C3 5667   0.864   1.534  16.385  0.4381 -0.2358 -0.0851
  379MPD2    C4 5668   0.916   1.581  16.262  0.4114  0.1047  0.3573
  379MPD2    C5 5669   0.836   1.642  16.168  0.0263 -0.3497 -0.3815
  379MPD2     H 5670   0.678   1.522  16.500  0.2141  1.6928  0.5565
  379MPD2    H1 5671   1.023   1.588  16.246  0.5140 -1.7503  0.2282
  379MPD2    H2 5672   0.635   1.702  16.118 -0.1410  0.4700 -0.0622
  379MPD2    H3 5673   0.881   1.683  16.079  0.0038  1.1873  0.3301
  379MPD2     N 5674   0.956   1.462  16.469 -0.6787 -0.2773 -0.0956
  379MPD2    H5 5675   1.054   1.468  16.442 -0.3295 -1.4643  0.9188
  379MPD2    N1 5676   0.507   1.614  16.316 -0.1424  0.2446 -0.4302
  379MPD2    H7 5677   0.463   1.653  16.233 -1.0206 -1.2053 -0.6384
  380TMC3    C1 5678   0.289   1.554  16.372  0.2196  0.1287  0.6042
  380TMC3    C2 5679   0.282   1.428  16.322 -0.6041  0.0590 -0.2498
  380TMC3    C3 5680   0.229   1.403  16.205 -0.0142  0.4819  0.6935
  380TMC3    C4 5681   0.219   1.649  16.299 -0.5365  0.9145 -0.6766
  380TMC3    C5 5682   0.147   1.607  16.190  0.1294 -0.1380  0.2843
  380TMC3    C6 5683   0.153   1.485  16.130 -0.1647  0.0761  0.0279
  380TMC3     C 5684   0.427   1.573  16.420 -0.4423 -0.3544 -0.3719
  380TMC3     O 5685   0.454   1.508  16.518 -0.4657 -0.5953 -0.3004
  380TMC3     H 5686   0.330   1.352  16.382  1.1865  0.4325 -1.2056
  380TMC3    H1 5687   0.214   1.753  16.331  0.7918  0.0574  2.3562
  380TMC3    H2 5688   0.112   1.460  16.033 -2.0372 -0.3126  0.9131
  380TMC3    C7 5689   0.067   1.707  16.115 -0.2640  0.4669  0.6492
  380TMC3    C8 5690   0.341   1.368  16.122  0.1321 -0.0308 -0.1407
  380TMC3    O1 5691   0.105   1.823  16.114 -0.1151 -0.5497 -0.1010
  380TMC3    O2 5692   0.336   1.415  16.011 -0.0870 -0.4462  0.1863
  381TMC3    C1 5693   0.379   2.768  16.097 -0.0231  0.3667 -0.1054
  381TMC3    C2 5694   0.495   2.822  16.139  0.4583 -0.8617  0.2087
  381TMC3    C3 5695   0.490   2.936  16.221  0.1143 -0.2072  0.8906
  381TMC3    C4 5696   0.251   2.817  16.128  0.2672  0.6028 -0.1112
  381TMC3    C5 5697   0.255   2.904  16.232  0.1175 -0.3608  0.0758
  381TMC3    C6 5698   0.367   2.973  16.269 -0.7788 -0.2244 -0.8431
  381TMC3     C 5699   0.392   2.641  16.032 -0.5548  0.5536 -0.4997
  381TMC3     O 5700   0.502   2.601  16.000  0.4611  0.4326  0.2037
  381TMC3     H 5701   0.584   2.765  16.118  0.5878 -0.0124 -1.4794
  381TMC3    H1 5702   0.154   2.781  16.095  0.8040 -2.3953  1.6077
  381TMC3    H2 5703   0.351   3.061  16.330  0.2135 -1.3455  1.0304
  381TMC3    C7 5704   0.146   2.891  16.320 -0.0312 -0.6415 -0.4661
  381TMC3    C8 5705   0.607   3.017  16.247 -0.8411 -0.5924 -0.1855
  381TMC3    O1 5706   0.087   2.782  16.313  0.1140  0.3580  0.2450
  381TMC3    O2 5707   0.697   3.011  16.162 -0.3340 -0.3556 -0.0833
  382MPD2     C 5708   4.195   0.899  17.694 -0.7813 -0.3304 -0.0283
  382MPD2    C1 5709   4.312   0.859  17.634 -0.6265  0.5499  0.4529
  382MPD2    C2 5710   4.327   0.742  17.564  0.7381  0.5098  0.1660
  382MPD2    C3 5711   4.215   0.663  17.538 -0.1406 -0.1809 -0.1226
  382MPD2    C4 5712   4.098   0.702  17.606 -0.4681  0.4265  0.1536
  382MPD2    C5 5713   4.089   0.813  17.686  0.0882  0.0204  0.4763
  382MPD2     H 5714   4.422   0.710  17.522  0.8893  1.9744 -0.5762
  382MPD2    H1 5715   4.018   0.632  17.627 -1.4408  1.1809 -1.0543
  382MPD2    H2 5716   4.174   0.990   0.054  1.7451  0.9050 -1.1161
  382MPD2    H3 5717   3.992   0.829   0.037  0.1311 -1.1771  0.9951
  382MPD2     N 5718   4.226   0.552  17.463 -0.4212 -0.3691  0.7464
  382MPD2    H5 5719   4.321   0.529  17.436 -1.6129 -2.6045 -1.4840
  382MPD2    N1 5720   4.426   0.944  17.646  0.5145  0.4999 -0.0210
  382MPD2    H7 5721   4.503   0.918  17.584  1.9255  2.2331  0.9942
  383TMC3    C1 5722   4.148   0.344  17.386 -0.1480 -0.0421  0.0458
  383TMC3    C2 5723   4.040   0.275  17.338 -0.5238 -0.1216 -0.7067
  383TMC3    C3 5724   4.063   0.161  17.267 -0.3412 -0.1569  0.5485
  383TMC3    C4 5725   4.273   0.292  17.369 -0.0795 -0.2264  0.1100
  383TMC3    C5 5726   4.290   0.171  17.314  0.0358  0.6063 -0.0613
  383TMC3    C6 5727   4.187   0.104  17.259 -0.5244 -0.1392 -0.1936
  383TMC3     C 5728   4.120   0.476  17.432 -0.2401 -0.5477  0.1897
  383TMC3     O 5729   3.999   0.498  17.453 -0.0946 -0.1766  0.0885
  383TMC3     H 5730   3.942   0.321  17.337  0.4686  2.1487  3.0878
  383TMC3    H1 5731   4.355   0.344  17.417  0.7900 -1.4278 -0.0827
  383TMC3    H2 5732   4.195   0.015  17.196  1.1141  0.5722 -0.9846
  383TMC3    C7 5733   4.421   0.121  17.283 -0.2827  0.3513 -0.1612
  383TMC3    C8 5734   3.949   0.104  17.203 -0.1556  0.4648 -0.0728
  383TMC3    O1 5735   4.450   0.060  17.181 -0.4791  0.1725  0.1013
  383TMC3    O2 5736   3.851   0.171  17.201  0.0505 -0.4763 -0.1410
  384MPD2     C 5737   1.209   1.624  11.536  0.8201  0.1862  0.1987
  384MPD2    C1 5738   1.132   1.543  11.621  0.6600  0.0570 -0.3113
  384MPD2    C2 5739   1.154   1.406  11.615 -0.2363 -0.6508 -0.2928
  384MPD2    C3 5740   1.263   1.351  11.539 -0.2154  0.1589 -0.3859
  384MPD2    C4 5741   1.332   1.436  11.459  0.2149 -0.0885  0.1825
  384MPD2    C5 5742   1.297   1.569  11.450  0.0109  0.2687  0.0150
  384MPD2     H 5743   1.095   1.356  11.692 -0.0961  1.7416  1.3762
  384MPD2    H1 5744   1.413   1.394  11.400 -1.5137 -1.3443 -1.2943
  384MPD2    H2 5745   1.199   1.731  11.528 -1.9128 -0.0012  1.4036
  384MPD2    H3 5746   1.353   1.641  11.390  0.8767  0.0666  0.5722
  384MPD2     N 5747   1.310   1.222  11.559  0.3067  0.1720 -0.2938
  384MPD2    H5 5748   1.406   1.194  11.541 -0.0312 -0.5633 -0.9519
  384MPD2    N1 5749   1.036   1.594  11.714  0.1118 -0.5169 -0.7417
  384MPD2    H7 5750   1.007   1.519  11.777  0.3876 -0.6118 -0.7287
  385TMC3    C1 5751   1.326   1.019  11.671 -0.3629 -0.1287  0.1088
  385TMC3    C2 5752   1.260   0.899  11.672  0.4542  0.8059 -0.1285
  385TMC3    C3 5753   1.235   0.858  11.798 -0.0712 -0.4357 -0.4440
  385TMC3    C4 5754   1.384   1.077  11.784  0.5166  0.8359  0.2507
  385TMC3    C5 5755   1.353   1.033  11.905 -0.2528 -0.2405  0.8208
  385TMC3    C6 5756   1.282   0.910  11.914  0.3606  0.5207 -0.0688
  385TMC3     C 5757   1.236   1.117  11.617 -0.0872 -0.1405  0.4787
  385TMC3     O 5758   1.120   1.115  11.655  0.7742 -0.2958  0.6413
  385TMC3     H 5759   1.216   0.865  11.580 -1.7006 -0.0806  1.2459
  385TMC3    H1 5760   1.415   1.181  11.774 -0.3892  1.0314 -0.5926
  385TMC3    H2 5761   1.247   0.880  12.012 -0.3154  0.7677 -0.2310
  385TMC3    C7 5762   1.365   1.129  12.010  0.4339 -0.0272 -0.2898
  385TMC3    C8 5763   1.131   0.753  11.815 -0.5402  0.5960 -0.2315
  385TMC3    O1 5764   1.408   1.243  11.981  0.2666 -0.3138 -0.6582
  385TMC3    O2 5765   1.090   0.737  11.928 -0.3099  0.4477  0.2003
  386TMC3    C1 5766   1.258   3.533  12.396  0.0181 -0.5008  0.0903
  386TMC3    C2 5767   1.246   3.466  12.277 -0.7539 -0.2652 -0.1519
  386TMC3    C3 5768   1.138   3.495  12.205  0.6248  0.3434  0.5301
  386TMC3    C4 5769   1.170   3.622  12.447  0.8083  0.1318  0.7369
  386TMC3    C5 5770   1.058   3.644  12.366  0.2733  0.1029  0.8602
  386TMC3    C6 5771   1.045   3.582  12.247 -0.5505  0.7073 -0.6642
  386TMC3     C 5772   1.394   3.557  12.433  0.0476 -0.4631 -0.0430
  386TMC3     O 5773   1.433   3.675  12.453  0.1587  0.5188 -0.1496
  386TMC3     H 5774   1.331   3.408  12.243 -2.1639 -1.5186 -1.4855
  386TMC3    H1 5775   1.188   3.683  12.535 -1.3299 -0.5555  1.6639
  386TMC3    H2 5776   0.959   3.593  12.183 -1.8857 -2.3284  0.5842
  386TMC3    C7 5777   0.951   3.732  12.419 -0.5639  0.3933 -0.3573
  386TMC3    C8 5778   1.134   3.456  12.067  0.2629 -0.9372  0.0020
  386TMC3    O1 5779   0.956   3.755  12.539 -0.3108  0.0459  0.3277
  386TMC3    O2 5780   1.023   3.443  12.015 -0.4840  0.0822  0.1684
  387MPD2     C 5781   3.291   3.708   9.727  0.5672  0.1269 -0.2131
  387MPD2    C1 5782   3.414   3.675   9.665 -0.5877  0.5791  0.7488
  387MPD2    C2 5783   3.474   3.552   9.688 -0.1073  0.3191 -0.0953
  387MPD2    C3 5784   3.419   3.459   9.772 -0.0228  0.5458  0.1526
  387MPD2    C4 5785   3.301   3.485   9.834  0.0366  0.0418 -0.0791
  387MPD2    C5 5786   3.247   3.610   9.816  0.1439  0.6272  0.1643
  387MPD2     H 5787   3.553   3.528   9.619  0.3823 -1.4069  1.0576
  387MPD2    H1 5788   3.252   3.413   9.899 -0.4819  1.7099  1.3812
  387MPD2    H2 5789   3.228   3.792   9.699  0.9256  1.0092  1.6515
  387MPD2    H3 5790   3.151   3.629   9.864 -1.4490 -0.3006 -2.6446
  387MPD2     N 5791   3.480   3.332   9.763 -0.6935 -0.1640 -0.3684
  387MPD2    H5 5792   3.572   3.324   9.722  0.1664 -0.1891  1.5747
  387MPD2    N1 5793   3.472   3.741   9.554  0.4097  0.4479  0.1427
  387MPD2    H7 5794   3.545   3.695   9.502  1.7770  0.2836  2.2023
  388TMC3    C1 5795   3.511   3.897   9.394  0.4708 -0.5227  0.0198
  388TMC3    C2 5796   3.564   4.023   9.376 -0.3411 -0.1993  0.5348
  388TMC3    C3 5797   3.661   4.035   9.274 -0.8132  0.6124  0.3236
  388TMC3    C4 5798   3.541   3.787   9.313 -0.9934  0.1314  0.5488
  388TMC3    C5 5799   3.615   3.809   9.203  0.2961 -0.6743 -0.8362
  388TMC3    C6 5800   3.679   3.933   9.177  0.3154 -0.7093 -0.3866
  388TMC3     C 5801   3.439   3.868   9.515 -0.2124 -0.9030  0.2676
  388TMC3     O 5802   3.377   3.961   9.568  0.0854  0.0352 -0.2522
  388TMC3     H 5803   3.558   4.103   9.449  2.7145 -0.5180  1.1742
  388TMC3    H1 5804   3.481   3.697   9.315 -1.7807  0.5666 -3.3517
  388TMC3    H2 5805   3.724   3.951   9.080  0.9241 -0.1231  0.0011
  388TMC3    C7 5806   3.666   3.690   9.137 -0.8645  1.0425  0.0462
  388TMC3    C8 5807   3.748   4.154   9.274  0.1668 -0.5003 -0.2025
  388TMC3    O1 5808   3.681   3.677   9.019  0.0632 -0.3415 -0.3150
  388TMC3    O2 5809   3.712   4.252   9.339 -0.3653 -0.3140  0.2057
  389MPD2     C 5810   3.190   1.735  11.408  0.2085 -0.2591  0.3115
  389MPD2    C1 5811   3.100   1.655  11.332  0.6528 -0.3032  0.2006
  389MPD2    C2 5812   3.036   1.552  11.399  0.2475 -0.3658  0.3104
  389MPD2    C3 5813   3.038   1.532  11.534 -0.0621 -0.4755  0.2124
  389MPD2    C4 5814   3.114   1.618  11.616 -0.0162  0.5685  0.2466
  389MPD2    C5 5815   3.192   1.709  11.546  0.2680 -0.1758  0.0864
  389MPD2     H 5816   2.957   1.495  11.351 -0.6530  1.4449 -0.3733
  389MPD2    H1 5817   3.126   1.612  11.723 -2.4755 -3.3456  0.2831
  389MPD2    H2 5818   3.248   1.816  11.367 -0.3682  0.3703  0.7214
  389MPD2    H3 5819   3.249   1.780  11.605 -0.7389  0.8367 -0.1636
  389MPD2     N 5820   2.972   1.427  11.605 -0.6563 -0.1772 -0.0868
  389MPD2    H5 5821   2.973   1.430  11.706  1.5387 -0.3815 -0.0910
  389MPD2    N1 5822   3.075   1.682  11.190  0.0409  0.3953 -0.1761
  389MPD2    H7 5823   3.125   1.767  11.170  0.8962 -0.5129 -1.9294
  390TMC3    C1 5824   2.857   1.232  11.652 -0.0795 -0.2157 -0.4568
  390TMC3    C2 5825   2.797   1.113  11.621  0.4628 -0.2712  0.4629
  390TMC3    C3 5826   2.731   1.044  11.709 -0.1356  0.4776 -0.2507
  390TMC3    C4 5827   2.838   1.275  11.787  0.5126 -0.2246  0.3160
  390TMC3    C5 5828   2.767   1.201  11.877 -0.6689  0.2616 -0.3292
  390TMC3    C6 5829   2.714   1.083  11.841  0.0942 -1.0690  0.4104
  390TMC3     C 5830   2.917   1.315  11.548 -0.3363 -1.0462  0.2751
  390TMC3     O 5831   2.901   1.274  11.438 -0.3444  0.1276 -0.3649
  390TMC3     H 5832   2.817   1.058  11.530  0.6371  0.9090 -0.2118
  390TMC3    H1 5833   2.869   1.374  11.818 -0.6330 -0.5014  2.3653
  390TMC3    H2 5834   2.673   1.013  11.913 -2.2440 -2.0827 -1.8953
  390TMC3    C7 5835   2.657   1.271  11.940  0.0850  0.9899 -0.8684
  390TMC3    C8 5836   2.604   1.024  11.653  0.1450  0.1760  0.5362
  390TMC3    O1 5837   2.567   1.197  11.977 -0.0151  0.2910  0.0435
  390TMC3    O2 5838   2.583   1.018  11.535  0.1883 -0.1438  0.2831
  391MPD2     C 5839   1.893   2.747  11.143  0.5571  0.4374 -0.5079
  391MPD2    C1 5840   2.000   2.822  11.188 -0.2731 -0.0290 -0.4108
  391MPD2    C2 5841   2.060   2.915  11.107 -0.6427  0.3498 -0.9783
  391MPD2    C3 5842   2.010   2.942  10.983 -0.0195  0.0468  0.3201
  391MPD2    C4 5843   1.904   2.863  10.931  0.3969 -0.3422  0.0733
  391MPD2    C5 5844   1.852   2.771  11.010 -0.2188 -0.1162  0.3187
  391MPD2     H 5845   2.150   2.967  11.137  0.0343 -0.7802 -1.0479
  391MPD2    H1 5846   1.852   2.882  10.838 -0.6872 -2.4563  0.2631
  391MPD2    H2 5847   1.841   2.675  11.205  0.6888  1.3656  0.6869
  391MPD2    H3 5848   1.772   2.717  10.962 -0.1272 -1.3586  1.5442
  391MPD2     N 5849   2.077   3.036  10.901  0.2398 -0.1206  0.2979
  391MPD2    H5 5850   2.138   3.102  10.948 -0.6450  0.2390  0.9493
  391MPD2    N1 5851   2.042   2.824  11.324 -0.0182  0.3147 -0.1766
  391MPD2    H7 5852   2.104   2.899  11.352  0.1859 -0.7642  2.2261
  392TMC3    C1 5853   2.156   3.135  10.698  1.2519  0.9507 -0.2138
  392TMC3    C2 5854   2.172   3.119  10.562  0.1386  0.2579 -0.4416
  392TMC3    C3 5855   2.237   3.219  10.493  0.6224  0.1466 -0.2271
  392TMC3    C4 5856   2.204   3.244  10.764 -0.2986  0.0953  0.4847
  392TMC3    C5 5857   2.270   3.344  10.691 -0.9717  0.0390 -0.3834
  392TMC3    C6 5858   2.286   3.331  10.556 -0.2606  0.1957  0.6999
  392TMC3     C 5859   2.071   3.034  10.764 -0.1419  0.1951 -0.2096
  392TMC3     O 5860   2.028   2.939  10.699 -0.4519  0.1188  0.1314
  392TMC3     H 5861   2.126   3.035  10.510  0.1104  0.1152 -0.1878
  392TMC3    H1 5862   2.172   3.272  10.863  1.8632 -0.1577  1.2496
  392TMC3    H2 5863   2.352   3.395  10.499  0.5280 -1.9818 -0.8394
  392TMC3    C7 5864   2.343   3.442  10.774  0.8696  0.7494  0.0768
  392TMC3    C8 5865   2.271   3.190  10.359 -0.2924 -0.0348 -0.8814
  392TMC3    O1 5866   2.349   3.418  10.898  0.3440  0.1532 -0.3011
  392TMC3    O2 5867   2.304   3.075  10.333 -0.2104  0.0537  0.2679
  393TMC3    C1 5868   0.979   1.101  10.364  0.1394 -0.5804  0.0815
  393TMC3    C2 5869   0.871   1.173  10.414 -0.3739 -0.0647  0.6466
  393TMC3    C3 5870   0.880   1.219  10.545  0.0358  0.5972  0.0707
  393TMC3    C4 5871   1.101   1.076  10.432 -0.0324  0.0837 -0.4454
  393TMC3    C5 5872   1.107   1.146  10.554 -0.0458 -0.6710 -0.2189
  393TMC3    C6 5873   1.000   1.208  10.608 -0.4435 -0.7561  0.2439
  393TMC3     C 5874   0.971   1.064  10.224 -0.3323  0.4352 -0.3206
  393TMC3     O 5875   0.859   1.058  10.175  0.3816 -0.2566 -0.0281
  393TMC3     H 5876   0.782   1.180  10.353  1.4751 -0.3442 -2.0836
  393TMC3    H1 5877   1.178   1.005  10.403 -0.5880 -0.1108 -1.4393
  393TMC3    H2 5878   1.009   1.248  10.708  1.8689  0.7743 -0.5476
  393TMC3    C7 5879   1.211   1.109  10.650  0.3941 -0.3228  0.4981
  393TMC3    C8 5880   0.805   1.345  10.575  0.0692 -0.3161  0.6238
  393TMC3    O1 5881   1.202   1.150  10.762  0.8165 -0.1020  0.0227
  393TMC3    O2 5882   0.813   1.389  10.688  0.1923  0.2999 -0.5925
  394TMC3    C1 5883   2.986   1.650  10.971  0.1571 -0.2290  0.1019
  394TMC3    C2 5884   2.899   1.582  10.889 -1.1034 -0.4876  0.8465
  394TMC3    C3 5885   2.880   1.622  10.762 -0.1985  0.1615  0.3925
  394TMC3    C4 5886   3.060   1.759  10.932 -0.8104  1.0102 -0.8678
  394TMC3    C5 5887   3.042   1.795  10.802  0.2049  0.6838 -0.0612
  394TMC3    C6 5888   2.955   1.730  10.720 -0.2307 -0.0109  0.0036
  394TMC3     C 5889   2.998   1.603  11.109  0.2713  0.0201 -0.0657
  394TMC3     O 5890   2.976   1.484  11.130 -0.3557 -0.6550 -0.5522
  394TMC3     H 5891   2.831   1.517  10.943  0.8041 -0.3887  3.3468
  394TMC3    H1 5892   3.128   1.813  10.996  0.9905 -1.4029 -0.7400
  394TMC3    H2 5893   2.956   1.765  10.617 -2.6254  0.3697  0.1095
  394TMC3    C7 5894   3.134   1.886  10.734 -0.1523 -0.1981 -0.1323
  394TMC3    C8 5895   2.868   1.512  10.670  0.1619 -0.2244  1.1875
  394TMC3    O1 5896   3.112   1.920  10.620 -0.5050 -0.1191 -0.5804
  394TMC3    O2 5897   2.894   1.403  10.723  0.0739  0.0722  0.8070
  395TMC3    C1 5898   2.716   4.166  14.183 -0.7383 -0.9777  0.6957
  395TMC3    C2 5899   2.598   4.221  14.225 -0.1775  0.3400  0.6097
  395TMC3    C3 5900   2.612   4.325  14.316  1.1678  0.4121  0.3717
  395TMC3    C4 5901   2.841   4.208  14.226 -0.0220  0.6185  0.0903
  395TMC3    C5 5902   2.846   4.308  14.321  0.3743  0.1952 -0.0854
  395TMC3    C6 5903   2.730   4.372  14.360  0.1524  0.8062 -0.1522
  395TMC3     C 5904   2.728   4.101  14.052 -0.5081  0.0375  0.0607
  395TMC3     O 5905   2.805   4.150  13.966  0.1512  0.2880  0.4727
  395TMC3     H 5906   2.507   4.188  14.176 -0.8167  2.0682  0.6512
  395TMC3    H1 5907   2.929   4.161  14.183  0.4723 -1.0198  2.8717
  395TMC3    H2 5908   2.728   4.460  14.425 -0.9761 -2.3963  4.1664
  395TMC3    C7 5909   2.968   4.372  14.364 -0.0542  1.0992 -0.2124
  395TMC3    C8 5910   2.502   4.355  14.404  0.5721 -0.6967 -0.3739
  395TMC3    O1 5911   2.974   4.452  14.460 -0.2513 -0.1908  0.1673
  395TMC3    O2 5912   2.515   4.441  14.494  0.5837  0.2170  0.3744
  396MPD2     C 5913   2.927   0.546  17.429  0.0111 -0.1462 -0.5442
  396MPD2    C1 5914   2.988   0.493  17.319 -0.0448  0.4265 -0.1143
  396MPD2    C2 5915   3.071   0.567  17.235  0.3293  0.1104 -0.0140
  396MPD2    C3 5916   3.098   0.699  17.264  0.0580  0.5554 -0.2203
  396MPD2    C4 5917   3.029   0.756  17.369 -0.3017 -0.0273 -0.4332
  396MPD2    C5 5918   2.945   0.684  17.453 -0.2401 -0.1797  0.2732
  396MPD2     H 5919   3.116   0.520  17.149 -0.1027 -1.8341  0.8139
  396MPD2    H1 5920   3.035   0.857  17.407 -3.2071  0.2212 -0.5735
  396MPD2    H2 5921   2.851   0.489  17.482 -1.1226  1.0359 -0.9223
  396MPD2    H3 5922   2.892   0.741  17.529  0.2997  1.2328 -0.3984
  396MPD2     N 5923   3.173   0.791  17.194 -0.1893 -0.1574 -0.3517
  396MPD2    H5 5924   3.160   0.886  17.227 -0.3989 -0.7226  1.1935
  396MPD2    N1 5925   2.952   0.362  17.294  0.3962  0.6550  0.0393
  396MPD2    H7 5926   2.873   0.324  17.345 -0.4944  2.3742 -0.0829
  397TMC3    C1 5927   2.964   0.140  17.205  0.0212 -0.2274  1.0392
  397TMC3    C2 5928   2.980   0.097  17.077  0.1686  0.3660 -1.1227
  397TMC3    C3 5929   2.869   0.057  17.008 -0.4496 -0.5960 -0.4981
  397TMC3    C4 5930   2.849   0.120  17.275  0.1538  0.4545 -0.5039
  397TMC3    C5 5931   2.743   0.073  17.201 -0.0538  0.1486 -0.2013
  397TMC3    C6 5932   2.746   0.052  17.062  0.0903  0.1268 -0.0253
  397TMC3     C 5933   3.007   0.279  17.202  0.2347  0.0441 -0.4258
  397TMC3     O 5934   3.096   0.295  17.118 -0.3406  0.6097 -0.8330
  397TMC3     H 5935   3.081   0.100  17.040  0.4206 -0.1439 -0.4717
  397TMC3    H1 5936   2.836   0.139  17.381  2.0858  4.0451 -0.8977
  397TMC3    H2 5937   2.656   0.028  17.007  0.1819  1.4176 -0.7227
  397TMC3    C7 5938   2.623   0.019  17.262 -0.1607  0.0489 -0.2477
  397TMC3    C8 5939   2.871   0.124  16.878 -0.2078  0.3609 -0.2487
  397TMC3    O1 5940   2.512   0.036  17.205 -0.1767  0.2646  0.4948
  397TMC3    O2 5941   2.794   0.085  16.794 -0.6651  0.4349  0.1986
  398MPD2     C 5942   1.016   0.759   0.259 -0.9612  0.0621 -0.4139
  398MPD2    C1 5943   1.142   0.735   0.315  0.2735 -0.2388  0.3096
  398MPD2    C2 5944   1.238   0.836   0.333 -0.4483  0.5917 -0.5230
  398MPD2    C3 5945   1.201   0.965   0.295  0.0059 -0.4606  1.1062
  398MPD2    C4 5946   1.077   0.991   0.238  0.5235 -0.0704 -0.5642
  398MPD2    C5 5947   0.990   0.887   0.224  0.0879 -0.5619  0.0059
  398MPD2     H 5948   1.337   0.816   0.372 -0.0793 -0.3679 -1.9459
  398MPD2    H1 5949   1.040   1.089   0.210  0.9279 -0.3278 -2.0158
  398MPD2    H2 5950   0.936   0.688   0.243 -1.6751  0.3748  1.8027
  398MPD2    H3 5951   0.896   0.913   0.176  0.3797 -2.2712 -1.4616
  398MPD2     N 5952   1.292   1.068   0.324 -0.6191  0.2035 -0.0543
  398MPD2    H5 5953   1.379   1.038   0.369 -0.2810 -0.9115 -1.4664
  398MPD2    N1 5954   1.172   0.605   0.354  0.1107 -0.5192 -0.6484
  398MPD2    H7 5955   1.263   0.586   0.395  0.1585 -3.4310 -2.0625
  399TMC3    C1 5956   1.157   0.375   0.389 -0.3002 -0.6559 -0.7052
  399TMC3    C2 5957   1.298   0.386   0.395  0.5085 -0.0832  0.1898
  399TMC3    C3 5958   1.364   0.301   0.479 -0.6372  0.6879 -0.3026
  399TMC3    C4 5959   1.088   0.303   0.477  0.2515 -0.1136  0.5630
  399TMC3    C5 5960   1.159   0.213   0.551 -0.5029  0.3688 -0.2985
  399TMC3    C6 5961   1.297   0.210   0.555 -0.3730 -0.1898  0.1643
  399TMC3     C 5962   1.090   0.495   0.339  0.2011 -1.1608  0.5136
  399TMC3     O 5963   0.973   0.480   0.318 -0.2573 -0.0674  0.1792
  399TMC3     H 5964   1.347   0.461   0.335  1.4437 -0.8462 -0.0050
  399TMC3    H1 5965   0.981   0.320   0.486  0.1897 -0.3862  0.3510
  399TMC3    H2 5966   1.360   0.148   0.618  1.2791 -0.2634 -1.5588
  399TMC3    C7 5967   1.086   0.141   0.654  0.4861  0.1494  0.1017
  399TMC3    C8 5968   1.511   0.276   0.444  0.1848 -0.1008 -0.4223
  399TMC3    O1 5969   1.165   0.087   0.729  0.1213 -0.0585 -0.0470
  399TMC3    O2 5970   1.556   0.355   0.363  0.5656 -0.5133 -0.1902
  400TMC3    C1 5971   4.255   4.553  16.951  0.2516 -0.1803 -0.4396
  400TMC3    C2 5972   4.126   4.544  16.897 -0.2623 -0.5254  0.4429
  400TMC3    C3 5973   4.084   4.648  16.825 -0.1467  0.7130 -0.0157
  400TMC3    C4 5974   4.331   4.660  16.926  0.8355  0.8758 -0.3427
  400TMC3    C5 5975   4.271   0.044  16.874 -0.0785 -0.1120 -0.1895
  400TMC3    C6 5976   4.147   0.046  16.826  0.2986 -0.4857  0.0803
  400TMC3     C 5977   4.291   4.458  17.052 -0.0083  0.1801  0.1605
  400TMC3     O 5978   4.232   4.352  17.050 -0.0589 -0.4903 -0.1192
  400TMC3     H 5979   4.065   4.456  16.915 -0.3786 -0.2799  1.2340
  400TMC3    H1 5980   4.431   4.661  16.968  0.2065  1.7970  1.1145
  400TMC3    H2 5981   4.104   0.127  16.768 -0.8964 -1.1244  0.0744
  400TMC3    C7 5982   4.346   0.162  16.873  0.1274  0.3364  1.0007
  400TMC3    C8 5983   3.953   4.640  16.765  0.4228  0.8358 -0.1543
  400TMC3    O1 5984   4.464   0.148  16.843  0.4086 -0.0838  0.5293
  400TMC3    O2 5985   3.898   0.021  16.735 -0.3240 -1.1427  0.6411
  401MPD2     C 5986   2.318   3.330   0.352 -0.6246 -0.9916  0.2346
  401MPD2    C1 5987   2.419   3.290   0.435 -0.6208 -0.4747 -0.4265
  401MPD2    C2 5988   2.445   3.154   0.449  0.1590 -0.5730  0.3264
  401MPD2    C3 5989   2.365   3.062   0.396 -0.2625  0.1597 -0.0697
  401MPD2    C4 5990   2.260   3.107   0.319  0.6241 -0.5276 -0.8981
  401MPD2    C5 5991   2.235   3.242   0.296  0.0049  0.6266  0.7061
  401MPD2     H 5992   2.534   3.114   0.496  0.1013 -0.3285  0.6427
  401MPD2    H1 5993   2.197   3.029   0.279  1.5134 -2.1236  0.7893
  401MPD2    H2 5994   2.296   3.435   0.338  3.3608 -0.1453  0.1953
  401MPD2    H3 5995   2.148   3.271   0.238 -0.6699 -0.6688  1.0784
  401MPD2     N 5996   2.388   2.928   0.429 -0.1410 -0.7907  0.5977
  401MPD2    H5 5997   2.476   2.905   0.474  1.0050  1.4520 -0.4818
  401MPD2    N1 5998   2.495   3.390   0.496 -0.3152  0.4510 -0.4022
  401MPD2    H7 5999   2.478   3.487   0.475 -1.2652  0.1703 -0.9056
  402TMC3    C1 6000   2.407   2.702   0.404  0.2829  0.8970 -0.8324
  402TMC3    C2 6001   2.396   2.642   0.521  0.4729 -0.0861  0.3918
  402TMC3    C3 6002   2.508   2.565   0.555  0.2316 -0.0622  0.2567
  402TMC3    C4 6003   2.524   2.688   0.327  0.2096  0.1099  0.6909
  402TMC3    C5 6004   2.631   2.615   0.365 -0.3929 -0.1300  0.0657
  402TMC3    C6 6005   2.622   2.543   0.482 -0.4696 -0.3578 -0.4306
  402TMC3     C 6006   2.316   2.821   0.373  0.4060  0.3452 -0.3651
  402TMC3     O 6007   2.220   2.807   0.301  0.0449 -0.0951 -0.4049
  402TMC3     H 6008   2.305   2.650   0.580  1.1146 -1.6562  1.5731
  402TMC3    H1 6009   2.524   2.729   0.227 -0.7671  2.2300  1.5687
  402TMC3    H2 6010   2.714   2.497   0.516 -1.0935 -2.3331 -1.4164
  402TMC3    C7 6011   2.760   2.621   0.304  0.2608  0.8236  0.1846
  402TMC3    C8 6012   2.520   2.502   0.686 -0.4072 -0.6134 -0.2111
  402TMC3    O1 6013   2.841   2.537   0.341 -0.0034  0.1486  0.3667
  402TMC3    O2 6014   2.565   2.387   0.690  0.6155  0.2844 -0.8330
  403MPD2     C 6015   0.584   1.580  13.305  0.0879  0.3258  0.2874
  403MPD2    C1 6016   0.656   1.461  13.319 -0.1696  0.0884  0.1221
  403MPD2    C2 6017   0.757   1.467  13.416 -0.1011 -0.1073 -0.1638
  403MPD2    C3 6018   0.789   1.579  13.491 -0.0101  0.2144  0.1690
  403MPD2    C4 6019   0.718   1.691  13.463  0.2065 -0.3666  0.6624
  403MPD2    C5 6020   0.615   1.685  13.380 -0.5914 -0.0778  0.0658
  403MPD2     H 6021   0.820   1.379  13.426 -2.0869 -1.5010  0.1433
  403MPD2    H1 6022   0.725   1.779  13.525  2.0385 -1.1178  1.5018
  403MPD2    H2 6023   0.497   1.580  13.240 -0.0786  3.0397  0.5128
  403MPD2    H3 6024   0.548   1.770  13.374 -0.7440 -0.3203 -1.7809
  403MPD2     N 6025   0.902   1.574  13.574 -0.0065  0.1614  0.0134
  403MPD2    H5 6026   0.961   1.492  13.573 -0.7548 -0.3779 -0.2174
  403MPD2    N1 6027   0.628   1.362  13.229 -0.1940 -0.1180 -0.3161
  403MPD2    H7 6028   0.561   1.379  13.155 -1.2927 -0.7865  0.5319
  404TMC3    C1 6029   0.621   1.138  13.148  0.5899  0.2314  0.1828
  404TMC3    C2 6030   0.604   1.011  13.193 -0.1351  0.0309  0.2708
  404TMC3    C3 6031   0.571   0.917  13.102 -0.2104 -0.5584  0.1725
  404TMC3    C4 6032   0.610   1.178  13.018 -0.3078  0.1893 -0.5248
  404TMC3    C5 6033   0.576   1.083  12.925  0.7976  0.1722 -0.1086
  404TMC3    C6 6034   0.559   0.951  12.965  0.3585 -0.2870 -0.7743
  404TMC3     C 6035   0.669   1.231  13.252  0.4239  0.3999  0.1364
  404TMC3     O 6036   0.742   1.185  13.343  0.1483 -0.6457 -0.4239
  404TMC3     H 6037   0.616   0.989  13.298 -2.4006 -1.0354  0.2995
  404TMC3    H1 6038   0.635   1.277  12.980  1.9840  0.6738  2.2737
  404TMC3    H2 6039   0.536   0.878  12.888 -0.1028 -1.1440  0.1919
  404TMC3    C7 6040   0.568   1.120  12.786  0.2258 -0.9447 -0.6432
  404TMC3    C8 6041   0.583   0.782  13.139  0.1383 -0.1267  0.2112
  404TMC3    O1 6042   0.621   1.226  12.753 -0.2660 -0.0009  0.3632
  404TMC3    O2 6043   0.601   0.705  13.049  0.0549  0.1291 -0.0207
  405MPD2     C 6044   0.972   1.783  15.157 -0.6958 -0.8208 -0.1076
  405MPD2    C1 6045   0.851   1.711  15.173  0.6378  0.2123  0.4228
  405MPD2    C2 6046   0.732   1.780  15.148  0.6254 -0.3598  0.0625
  405MPD2    C3 6047   0.730   1.921  15.142 -0.0291 -0.5833 -0.6167
  405MPD2    C4 6048   0.848   1.984  15.148  0.0846 -0.0739  0.3610
  405MPD2    C5 6049   0.967   1.920  15.154  0.6683  0.1711 -0.0483
  405MPD2     H 6050   0.644   1.717  15.141 -1.0281  2.1744 -1.9073
  405MPD2    H1 6051   0.863   2.091  15.138 -2.9922  0.4737  1.5929
  405MPD2    H2 6052   1.071   1.741  15.146 -1.0338 -1.7241  0.3282
  405MPD2    H3 6053   1.061   1.972  15.140 -0.0951  1.5308 -0.0497
  405MPD2     N 6054   0.598   1.982  15.136  0.3696  0.0163  0.6018
  405MPD2    H5 6055   0.521   1.916  15.136  1.4028 -1.1811  1.6683
  405MPD2    N1 6056   0.838   1.574  15.189 -0.2240 -0.4663 -0.0801
  405MPD2    H7 6057   0.748   1.529  15.175  0.2952 -1.9669  1.3263
  406TMC3    C1 6058   0.225   2.230  15.108 -0.0512  0.1906 -0.4089
  406TMC3    C2 6059   0.149   2.128  15.156  0.2363 -0.2453  0.0725
  406TMC3    C3 6060   0.221   2.022  15.211 -0.4051 -0.3103  0.1827
  406TMC3    C4 6061   0.363   2.222  15.128 -0.6092  0.0451  0.6857
  406TMC3    C5 6062   0.424   2.127  15.197 -0.3396 -0.3928  0.0095
  406TMC3    C6 6063   0.353   2.028  15.244 -0.5180 -0.5370  0.3467
  406TMC3     C 6064   0.181   2.290  14.983  0.2194  0.2297 -0.8170
  406TMC3     O 6065   0.061   2.312  14.976  0.3198  0.1496 -0.1185
  406TMC3     H 6066   0.041   2.131  15.143  0.1391  2.8895  1.6898
  406TMC3    H1 6067   0.423   2.303  15.088 -1.6035  0.6231  0.3382
  406TMC3    H2 6068   0.398   1.967  15.322  1.1090  0.1271 -0.0562
  406TMC3    C7 6069   0.566   2.113  15.171 -0.5041 -0.0620 -0.1127
  406TMC3    C8 6070   0.154   1.913  15.274 -0.6463  0.1347  0.4758
  406TMC3    O1 6071   0.634   2.216  15.182  0.3461  0.1519 -0.5192
  406TMC3    O2 6072   0.052   1.927  15.336  0.2358  0.4106  0.2733
  407MPD2     C 6073   3.198   2.654   9.575 -0.5409 -0.3517  0.3263
  407MPD2    C1 6074   3.228   2.783   9.527  0.4219 -0.2489 -0.0869
  407MPD2    C2 6075   3.206   2.892   9.605 -0.0659 -0.1341 -0.4842
  407MPD2    C3 6076   3.140   2.886   9.725  0.0340  0.0862  1.2737
  407MPD2    C4 6077   3.101   2.756   9.766 -0.2398  0.6846 -0.2374
  407MPD2    C5 6078   3.139   2.644   9.695  0.5434  0.0069 -0.2989
  407MPD2     H 6079   3.227   2.992   9.569 -1.4897  0.7792  1.2712
  407MPD2    H1 6080   3.048   2.738   9.858 -1.6016  0.8199 -1.0037
  407MPD2    H2 6081   3.211   2.563   9.517 -1.3923 -0.4492  0.2972
  407MPD2    H3 6082   3.120   2.548   9.742  1.7329  0.4537  1.1261
  407MPD2     N 6083   3.108   3.001   9.793 -0.1722  0.3787 -0.0954
  407MPD2    H5 6084   3.120   3.090   9.746  0.8437  1.3233  1.9724
  407MPD2    N1 6085   3.304   2.804   9.406 -0.2814  0.1263 -0.0150
  407MPD2    H7 6086   3.315   2.898   9.371  1.0094  0.6323  1.7564
  408TMC3    C1 6087   3.430   2.748   9.212  0.3089 -0.6096 -0.6241
  408TMC3    C2 6088   3.559   2.708   9.183 -0.1791 -0.5854 -0.9486
  408TMC3    C3 6089   3.613   2.772   9.069  0.5422  0.8223  0.2799
  408TMC3    C4 6090   3.351   2.825   9.136 -0.9488 -0.1719 -0.2192
  408TMC3    C5 6091   3.408   2.884   9.022  0.6171  0.4674 -1.3856
  408TMC3    C6 6092   3.542   2.867   8.993  0.4689  0.5391 -0.4628
  408TMC3     C 6093   3.381   2.709   9.344 -0.1067 -0.6203 -0.1059
  408TMC3     O 6094   3.433   2.606   9.379 -0.7300 -0.2950  0.3599
  408TMC3     H 6095   3.624   2.650   9.247 -0.9580  0.2950  0.6192
  408TMC3    H1 6096   3.263   2.874   9.177  1.1412  2.6340  0.8680
  408TMC3    H2 6097   3.588   2.908   8.904 -0.5637  1.2946 -0.6483
  408TMC3    C7 6098   3.357   3.013   8.988 -0.0161  0.3142  0.0389
  408TMC3    C8 6099   3.755   2.788   9.050 -0.2053 -0.0864  0.0343
  408TMC3    O1 6100   3.428   3.115   8.968  0.3657 -0.1533 -0.8962
  408TMC3    O2 6101   3.795   2.801   8.938 -0.1188  0.5675  0.0790
  409MPD2     C 6102   2.776   4.281  16.511 -0.3134 -0.2313 -0.3435
  409MPD2    C1 6103   2.862   4.273  16.617  0.1792 -0.3510  0.2951
  409MPD2    C2 6104   2.949   4.379  16.643  1.1524  0.2563 -0.0636
  409MPD2    C3 6105   2.944   4.494  16.572 -0.0695 -0.8587  0.4315
  409MPD2    C4 6106   2.844   4.508  16.473 -0.4253  0.0327  0.3054
  409MPD2    C5 6107   2.760   4.402  16.449  0.5824 -0.1146 -0.2616
  409MPD2     H 6108   3.021   4.367  16.724  1.3457  2.2994  0.0730
  409MPD2    H1 6109   2.854   4.588  16.401 -1.8331 -1.9029 -2.0219
  409MPD2    H2 6110   2.714   4.198  16.480 -0.6038  0.2791 -1.1135
  409MPD2    H3 6111   2.680   4.409  16.377 -0.0724 -1.6738  0.3297
  409MPD2     N 6112   3.032   4.606  16.596 -0.1023  0.5854 -0.0001
  409MPD2    H5 6113   3.032   4.665  16.513 -0.0330  1.4506  0.6119
  409MPD2    N1 6114   2.894   4.156  16.685 -0.6730  0.2368 -0.2307
  409MPD2    H7 6115   2.980   4.158  16.739  0.3463  1.5691 -1.8965
  410TMC3    C1 6116   3.217   4.714  16.683  0.3449  0.7465 -0.0511
  410TMC3    C2 6117   3.306   0.008  16.781 -0.0233  0.1713 -0.7304
  410TMC3    C3 6118   3.418   0.099  16.765  0.4393  0.2293  0.0170
  410TMC3    C4 6119   3.245   0.028  16.560 -0.5078 -0.0362 -0.2257
  410TMC3    C5 6120   3.354   0.115  16.543 -0.4722  0.3783  0.2151
  410TMC3    C6 6121   3.443   0.156  16.644 -0.1167 -0.1031 -0.2517
  410TMC3     C 6122   3.115   4.618  16.706  0.0272  1.2491 -0.7361
  410TMC3     O 6123   3.114   4.561  16.816 -0.2629  0.3494  0.6544
  410TMC3     H 6124   3.282   4.673  16.869  0.4711  2.1456  0.6992
  410TMC3    H1 6125   3.192   4.716  16.472  1.0864 -2.6162 -0.1486
  410TMC3    H2 6126   3.536   0.203  16.614 -2.0545  4.2313  0.5791
  410TMC3    C7 6127   3.361   0.176  16.412 -0.6400 -0.3797  0.6826
  410TMC3    C8 6128   3.536   0.087  16.852  0.1190 -0.3766 -0.1075
  410TMC3    O1 6129   3.340   0.093  16.322 -0.1085 -0.0104 -0.0777
  410TMC3    O2 6130   3.627   0.172  16.838 -0.4373  0.0615 -0.8233
  411MPD2     C 6131   3.624   0.529  14.388  0.7054  0.0910  0.2302
  411MPD2    C1 6132   3.490   0.550  14.377  0.2108  0.0565  0.2375
  411MPD2    C2 6133   3.412   0.446  14.332  0.2445 -0.2596  0.2822
  411MPD2    C3 6134   3.465   0.325  14.302 -0.1474 -0.4117  0.4505
  411MPD2    C4 6135   3.599   0.298  14.325  0.5772  0.0276 -0.1250
  411MPD2    C5 6136   3.679   0.408  14.356  0.3543 -0.5851  0.4152
  411MPD2     H 6137   3.312   0.469  14.297  1.0740 -0.4881 -2.2278
  411MPD2    H1 6138   3.644   0.202  14.299 -2.2152 -0.7399 -2.1525
  411MPD2    H2 6139   3.695   0.606  14.418  0.8644  0.5813 -1.4043
  411MPD2    H3 6140   3.786   0.393  14.369  0.4706  1.0728  1.4078
  411MPD2     N 6141   3.382   0.216  14.263  0.0294  0.3436 -0.3941
  411MPD2    H5 6142   3.428   0.134  14.225  0.0625 -0.5233  1.5106
  411MPD2    N1 6143   3.445   0.687  14.387  0.2328  0.5905 -0.7966
  411MPD2    H7 6144   3.523   0.752  14.395  0.5693  0.0621  0.1806
  412TMC3    C1 6145   3.182   0.085  14.227 -0.3448 -0.3503 -0.1672
  412TMC3    C2 6146   3.052   0.069  14.273 -0.2025 -0.1935 -0.0862
  412TMC3    C3 6147   2.971   4.713  14.198 -0.0037  0.1507 -0.4137
  412TMC3    C4 6148   3.225   0.031  14.105  0.8661  0.0317  0.3899
  412TMC3    C5 6149   3.132   4.674  14.032 -0.5606  0.0109  0.6744
  412TMC3    C6 6150   3.004   4.655  14.080 -0.4322 -0.2250 -0.2357
  412TMC3     C 6151   3.251   0.203  14.285  0.0248  0.4417  0.1326
  412TMC3     O 6152   3.175   0.284  14.342  0.0295  0.3025 -0.2267
  412TMC3     H 6153   3.014   0.121  14.361  1.2766 -2.9287  2.1743
  412TMC3    H1 6154   3.322   0.057  14.064  0.6398  1.9363  1.0566
  412TMC3    H2 6155   2.936   4.601  14.015  1.2462 -1.2980 -1.1112
  412TMC3    C7 6156   3.144   4.699  13.884  0.4168  0.0128  0.9005
  412TMC3    C8 6157   2.827   4.712  14.228 -0.3700 -0.1425 -0.6551
  412TMC3    O1 6158   3.237   0.044  13.842 -0.6943 -0.1177 -0.1506
  412TMC3    O2 6159   2.793   0.047  14.330  0.1980  0.6796  0.3809
  413MPD2     C 6160   0.238   3.308  15.613  0.2015  0.5004 -0.5017
  413MPD2    C1 6161   0.176   3.189  15.593 -0.7151  0.0585 -0.4020
  413MPD2    C2 6162   0.253   3.069  15.580 -0.2855  0.3724 -0.1729
  413MPD2    C3 6163   0.391   3.082  15.588  0.5912  0.4881 -0.3982
  413MPD2    C4 6164   0.450   3.206  15.607 -0.2034  0.5252 -1.0641
  413MPD2    C5 6165   0.377   3.317  15.611 -0.0760 -0.3676  0.8155
  413MPD2     H 6166   0.217   2.970  15.557 -1.0855  0.3489  1.1650
  413MPD2    H1 6167   0.557   3.221  15.594  0.1728 -0.4156  0.9219
  413MPD2    H2 6168   0.178   3.399  15.615  1.1077  1.0850  0.3326
  413MPD2    H3 6169   0.430   3.411  15.620  0.7889 -0.7327 -0.5266
  413MPD2     N 6170   0.482   2.972  15.575 -0.7858 -0.0662 -0.5223
  413MPD2    H5 6171   0.580   2.981  15.552 -0.6836 -0.9789 -0.4699
  413MPD2    N1 6172   0.033   3.187  15.586  0.3507  0.1796  0.2104
  413MPD2    H7 6173   4.697   3.270  15.592 -0.5360 -0.6180  2.3814
  414TMC3    C1 6174   0.538   2.737  15.591 -0.0822 -0.1802 -0.4016
  414TMC3    C2 6175   0.485   2.613  15.633 -0.0508  0.0555  0.0906
  414TMC3    C3 6176   0.509   2.512  15.549  0.0775 -0.1283 -0.4936
  414TMC3    C4 6177   0.609   2.751  15.476  0.6475 -0.1085  0.7514
  414TMC3    C5 6178   0.653   2.640  15.412 -0.4818  0.2139  0.3200
  414TMC3    C6 6179   0.588   2.520  15.436  0.2173  0.1740 -1.0137
  414TMC3     C 6180   0.449   2.850  15.632  0.1446 -0.3799 -0.1341
  414TMC3     O 6181   0.346   2.804  15.679  0.2766  0.0545  0.4001
  414TMC3     H 6182   0.430   2.599  15.726 -1.5584 -1.8963 -1.0789
  414TMC3    H1 6183   0.646   2.852  15.458 -1.3273  0.1880 -1.7189
  414TMC3    H2 6184   0.612   2.429  15.382  1.0729 -0.6260  0.7263
  414TMC3    C7 6185   0.785   2.637  15.343  0.1949  0.0716  1.0403
  414TMC3    C8 6186   0.514   2.379  15.611 -0.7599 -0.0128 -0.3068
  414TMC3    O1 6187   0.859   2.727  15.379  0.8121  0.0783 -0.1495
  414TMC3    O2 6188   0.486   2.282  15.545 -0.0158 -0.4326  0.1927
  415TMC3    C1 6189   0.681   4.554   9.955  0.6341 -1.1919  0.5299
  415TMC3    C2 6190   0.714   4.644   9.856  0.2745 -0.2211 -0.0812
  415TMC3    C3 6191   0.698   4.612   9.722 -0.2166 -0.1821 -0.1813
  415TMC3    C4 6192   0.627   4.431   9.921 -0.0619 -0.1675 -0.4594
  415TMC3    C5 6193   0.602   4.401   9.788 -0.7814  0.0912 -0.4038
  415TMC3    C6 6194   0.634   4.496   9.693 -0.2829 -0.2058  0.0813
  415TMC3     C 6195   0.665   4.593  10.091 -1.0336  0.2980  0.1192
  415TMC3     O 6196   0.673   4.509  10.179  0.4358  0.0267  0.1789
  415TMC3     H 6197   0.772   0.006   9.888 -1.4278 -0.1353  2.7483
  415TMC3    H1 6198   0.614   4.355   9.997  0.8911 -0.5309 -0.6635
  415TMC3    H2 6199   0.603   4.479   9.590 -2.0865 -0.6920  0.7034
  415TMC3    C7 6200   0.566   4.267   9.747  0.5135  0.0058 -0.0798
  415TMC3    C8 6201   0.757   4.690   9.612  0.4201 -0.6857  0.4465
  415TMC3    O1 6202   0.578   4.244   9.630  0.1895 -0.3233  0.3007
  415TMC3    O2 6203   0.722   4.676   9.497 -0.8062  0.3041  0.3349
  416MPD2     C 6204   2.661   0.008  10.988  0.0307  0.1455 -0.4974
  416MPD2    C1 6205   2.609   4.674  11.111 -0.4822 -0.2179 -0.0933
  416MPD2    C2 6206   2.600   4.540  11.121 -0.1876 -0.6192  0.1289
  416MPD2    C3 6207   2.629   4.455  11.015  0.3094 -0.4286 -0.5869
  416MPD2    C4 6208   2.680   4.506  10.899 -0.3228  0.1724 -0.3037
  416MPD2    C5 6209   2.703   4.639  10.891 -0.6535 -0.0642 -0.4344
  416MPD2     H 6210   2.559   4.496  11.211 -0.4936  0.9336  0.7622
  416MPD2    H1 6211   2.723   4.445  10.820  2.6761  2.6853 -0.5923
  416MPD2    H2 6212   2.664   0.115  10.972  0.4930  0.2436  0.2362
  416MPD2    H3 6213   2.746   4.685  10.803  1.0561 -2.0389 -0.6137
  416MPD2     N 6214   2.605   4.320  11.027 -0.1080  0.1498 -0.1672
  416MPD2    H5 6215   2.576   4.284  11.118  1.2627  0.1319  0.2673
  416MPD2    N1 6216   2.575   0.033  11.220 -0.1002 -0.3550 -0.4891
  416MPD2    H7 6217   2.572   0.133  11.204 -0.6914  0.0352  2.1348
  417TMC3    C1 6218   2.487   0.088  11.419  0.2218 -0.4229 -0.9522
  417TMC3    C2 6219   2.492   0.051  11.549  0.4164  0.5495 -0.1064
  417TMC3    C3 6220   2.371   0.037  11.618  0.1498 -0.2418 -0.1288
  417TMC3    C4 6221   2.368   0.104  11.354 -0.1678 -0.9245 -0.9020
  417TMC3    C5 6222   2.250   0.082  11.429  0.1613 -0.0013  0.8327
  417TMC3    C6 6223   2.248   0.052  11.562  0.3322 -0.0287  0.7172
  417TMC3     C 6224   2.576   4.722  11.350 -0.5508 -0.3013  0.5097
  417TMC3     O 6225   2.623   4.624  11.404  0.2337 -0.3632 -0.0998
  417TMC3     H 6226   2.587   0.026  11.595 -0.2199 -0.7995  0.4874
  417TMC3    H1 6227   2.368   0.148  11.255  0.7526 -1.3045 -1.0682
  417TMC3    H2 6228   2.153   0.052  11.614 -0.0855 -0.3024 -0.0499
  417TMC3    C7 6229   2.129   0.092  11.356 -0.6155 -0.4128 -0.0341
  417TMC3    C8 6230   2.371   0.033  11.763 -0.0475 -0.0414 -0.1326
  417TMC3    O1 6231   2.135   0.165  11.257  0.3158  0.2141 -0.3202
  417TMC3    O2 6232   2.287   0.097  11.827 -0.0084 -0.5267 -0.3551
  418TMC3    C1 6233   1.594   1.307   0.232  0.7358 -0.1913 -0.2339
  418TMC3    C2 6234   1.459   1.317   0.239  0.1741  0.6919  0.0440
  418TMC3    C3 6235   1.390   1.272   0.344  0.1234 -0.1164 -0.2695
  418TMC3    C4 6236   1.668   1.272   0.338  0.8104  0.1396  0.3275
  418TMC3    C5 6237   1.594   1.224   0.448 -0.0155 -0.0293  0.4253
  418TMC3    C6 6238   1.454   1.216   0.447 -0.1603 -0.1359  0.4181
  418TMC3     C 6239   1.665   1.320   0.106 -0.1397 -0.1836 -0.1203
  418TMC3     O 6240   1.614   1.389   0.014 -0.0662 -0.3351 -0.1847
  418TMC3     H 6241   1.403   1.355   0.154  1.8314  2.6818 -0.1670
  418TMC3    H1 6242   1.775   1.255   0.333  0.8263  0.2145  0.4109
  418TMC3    H2 6243   1.406   1.183   0.538 -1.4804 -0.8560 -0.5443
  418TMC3    C7 6244   1.660   1.164   0.564 -0.4759  0.1125 -0.5692
  418TMC3    C8 6245   1.273   1.206   0.308 -0.6836 -0.3685 -0.1250
  418TMC3    O1 6246   1.605   1.078   0.632  0.4831  0.0177  0.4170
  418TMC3    O2 6247   1.183   1.273   0.256 -0.8616 -0.6631  0.1587
  419MPD2     C 6248   4.518   4.401  12.409  0.4373  0.0338 -0.9322
  419MPD2    C1 6249   4.424   4.505  12.404 -0.0206 -0.6531 -0.7985
  419MPD2    C2 6250   4.359   4.540  12.522  0.0609 -0.0002 -0.3995
  419MPD2    C3 6251   4.380   4.478  12.644 -0.5587 -0.0357 -0.3411
  419MPD2    C4 6252   4.471   4.378  12.644 -0.0726 -0.2422 -0.3579
  419MPD2    C5 6253   4.544   4.345  12.534  0.1634 -0.4106 -0.1558
  419MPD2     H 6254   4.275   4.608  12.525 -1.6295 -2.0611 -1.3866
  419MPD2    H1 6255   4.496   4.317  12.730 -0.9619 -0.2525 -0.1044
  419MPD2    H2 6256   4.570   4.359  12.324 -1.0107 -1.2219 -1.1845
  419MPD2    H3 6257   4.617   4.265  12.544  1.7443  0.8810 -1.3151
  419MPD2     N 6258   4.304   4.515  12.755 -0.0821  0.1044 -0.3068
  419MPD2    H5 6259   4.248   4.598  12.738  2.8079  1.8820 -1.1526
  419MPD2    N1 6260   4.395   4.581  12.292  0.3675 -0.1037  0.4063
  419MPD2    H7 6261   4.327   4.657  12.293 -0.1611 -0.5865  1.6535
  420TMC3    C1 6262   4.273   4.552  13.000  0.6382 -0.0504  0.3270
  420TMC3    C2 6263   4.174   4.647  12.987 -0.8771 -0.3906  0.1372
  420TMC3    C3 6264   4.155   0.014  13.076  0.4779  0.0558  0.5891
  420TMC3    C4 6265   4.348   4.548  13.112 -0.8699  0.1375 -0.4211
  420TMC3    C5 6266   4.343   4.659  13.195  0.2762 -0.3712  0.1989
  420TMC3    C6 6267   4.247   0.034  13.173  0.1572  0.0465 -0.4717
  420TMC3     C 6268   4.317   4.468  12.887  0.1155 -0.0692  0.1623
  420TMC3     O 6269   4.386   4.375  12.923  0.1261 -0.1814  0.2885
  420TMC3     H 6270   4.110   4.653  12.900  0.1273  0.1121 -0.5704
  420TMC3    H1 6271   4.417   4.467  13.136 -0.2212  0.4669 -1.1951
  420TMC3    H2 6272   4.241   0.120  13.239  0.3415  0.3811 -0.8900
  420TMC3    C7 6273   4.391   4.640  13.327 -0.6638  0.0669 -0.8230
  420TMC3    C8 6274   4.065   0.122  13.045  0.4761 -0.2695 -0.2950
  420TMC3    O1 6275   4.431   4.536  13.366  0.1090  0.4569  0.1298
  420TMC3    O2 6276   4.032   0.142  12.925  0.3796 -0.0074 -0.2049
  421TMC3    C1 6277   1.056   1.638  13.743  0.7069 -0.6502 -0.2737
  421TMC3    C2 6278   1.079   1.721  13.854 -0.4054 -0.7235  0.0166
  421TMC3    C3 6279   1.171   1.685  13.942 -0.0968  0.7512 -0.8879
  421TMC3    C4 6280   1.129   1.529  13.728  0.7264 -0.0205  0.1593
  421TMC3    C5 6281   1.221   1.493  13.817 -0.6972 -0.6819 -0.7638
  421TMC3    C6 6282   1.241   1.566  13.933 -0.2662 -0.1671 -0.3613
  421TMC3     C 6283   0.943   1.676  13.656  0.1284 -0.4129  0.1396
  421TMC3     O 6284   0.888   1.782  13.682  0.4713 -0.0112 -0.4418
  421TMC3     H 6285   1.023   1.812  13.872  2.0142  1.3172 -2.7346
  421TMC3    H1 6286   1.129   1.472  13.636 -1.0387  0.4028 -0.1062
  421TMC3    H2 6287   1.307   1.528  14.010 -0.6892  1.1193  0.6226
  421TMC3    C7 6288   1.215   1.351  13.843  0.7175  0.6055 -0.7500
  421TMC3    C8 6289   1.161   1.736  14.074  0.4103 -0.0865 -0.5891
  421TMC3    O1 6290   1.105   1.304  13.825 -0.3058  0.2889 -0.2975
  421TMC3    O2 6291   1.053   1.789  14.100  0.3480  0.2774  0.5648
  422TMC3    C1 6292   3.576   2.532  12.772  0.3526 -0.0119  0.2355
  422TMC3    C2 6293   3.558   2.667  12.751  0.0143  0.6842  0.1204
  422TMC3    C3 6294   3.445   2.716  12.805  0.1039  0.4018  0.4251
  422TMC3    C4 6295   3.489   2.458  12.849  0.5745 -0.1285 -0.0525
  422TMC3    C5 6296   3.382   2.515  12.906  0.6543  0.1555  0.4390
  422TMC3    C6 6297   3.353   2.643  12.880 -0.0817  0.2170  0.5049
  422TMC3     C 6298   3.679   2.468  12.692 -0.2236  0.4080  0.2659
  422TMC3     O 6299   3.718   2.543  12.603 -0.5644 -1.3613 -0.4076
  422TMC3     H 6300   3.615   2.721  12.677  1.0941 -0.1867  0.3198
  422TMC3    H1 6301   3.507   2.353  12.867 -1.0818 -0.7549 -1.9599
  422TMC3    H2 6302   3.264   2.690  12.920 -0.8264 -2.1474  1.6311
  422TMC3    C7 6303   3.297   2.426  12.983 -0.5094  0.4313 -0.3528
  422TMC3    C8 6304   3.413   2.859  12.770  0.3565  0.0911  0.1402
  422TMC3    O1 6305   3.349   2.321  13.012 -0.2902  0.3003 -0.6931
  422TMC3    O2 6306   3.488   2.916  12.692  0.6703  0.4391 -0.0753
  423MPD2     C 6307   0.225   3.958   0.608 -0.1798  0.5030 -0.2590
  423MPD2    C1 6308   0.212   3.823   0.630 -0.6302 -0.1204 -0.4312
  423MPD2    C2 6309   0.159   3.739   0.530  0.0568  0.1166 -0.0071
  423MPD2    C3 6310   0.157   3.789   0.400  0.3298  0.3706  0.3773
  423MPD2    C4 6311   0.166   3.926   0.378 -0.0868 -0.3204 -0.0724
  423MPD2    C5 6312   0.203   4.010   0.483  0.0239  0.3458  0.2437
  423MPD2     H 6313   0.145   3.636   0.560  1.9551  0.1121  0.8230
  423MPD2    H1 6314   0.158   3.974   0.282 -1.0438  1.1883  0.7580
  423MPD2    H2 6315   0.251   4.033   0.682 -1.1556  2.0963 -1.5370
  423MPD2    H3 6316   0.204   4.119   0.477 -1.7362  0.1719 -3.1797
  423MPD2     N 6317   0.159   3.710   0.286 -0.3245  0.4880 -0.0054
  423MPD2    H5 6318   0.172   3.758   0.197  2.5209  0.9935  0.6799
  423MPD2    N1 6319   0.243   3.762   0.752  0.2216 -0.2324  0.5666
  423MPD2    H7 6320   0.219   3.664   0.758 -0.3832 -0.1533 -0.6827
  424TMC3    C1 6321   0.341   3.728   0.956 -0.3136  0.1310  0.0033
  424TMC3    C2 6322   0.459   3.722   1.031  0.8587  0.0729  0.0154
  424TMC3    C3 6323   0.461   3.648   1.148  0.0486  0.4261  0.2600
  424TMC3    C4 6324   0.221   3.690   1.011 -0.3865  0.6793 -0.4941
  424TMC3    C5 6325   0.223   3.620   1.133 -0.1746 -0.2286  0.1714
  424TMC3    C6 6326   0.340   3.605   1.199  0.1117  0.2162 -0.5122
  424TMC3     C 6327   0.337   3.811   0.836 -0.1343  0.8068  0.1775
  424TMC3     O 6328   0.425   3.886   0.805  0.2366  0.2143 -0.3010
  424TMC3     H 6329   0.549   3.756   0.981  0.1319 -1.0566 -2.0465
  424TMC3    H1 6330   0.131   3.696   0.951 -0.0026  0.3571 -1.0979
  424TMC3    H2 6331   0.341   3.577   1.304 -0.0314 -0.8015 -0.7758
  424TMC3    C7 6332   0.136   3.504   1.119  0.1824  0.1074 -0.1985
  424TMC3    C8 6333   0.586   3.586   1.191  0.3056  0.8351 -0.6185
  424TMC3    O1 6334   0.055   3.499   1.022  0.5688  0.3505 -0.0926
  424TMC3    O2 6335   0.579   3.507   1.285  0.0105 -0.4870  0.5352
  425MPD2     C 6336   3.796   3.158  17.023  0.3058 -0.1471  0.3793
  425MPD2    C1 6337   3.731   3.039  17.001  0.2064  0.2291 -0.8653
  425MPD2    C2 6338   3.587   3.037  17.015 -0.2462  0.3499 -0.4038
  425MPD2    C3 6339   3.511   3.152  17.025  0.7684 -0.7140  0.2875
  425MPD2    C4 6340   3.580   3.273  17.024  0.2767  0.1553  0.3583
  425MPD2    C5 6341   3.721   3.271  17.035 -0.2039 -0.0719 -0.4144
  425MPD2     H 6342   3.528   2.948  17.003 -0.9121  0.4898  1.8880
  425MPD2    H1 6343   3.532   3.370  17.029  0.4225  0.2061  0.8232
  425MPD2    H2 6344   3.903   3.167  17.032  0.0557  1.5940  1.6952
  425MPD2    H3 6345   3.769   3.368  17.038 -0.3891  0.0135 -0.2731
  425MPD2     N 6346   3.375   3.132  17.023 -0.4043  0.5628  0.1547
  425MPD2    H5 6347   3.350   3.034  17.021  1.4510  0.0759  1.1406
  425MPD2    N1 6348   3.811   2.928  16.970  0.8463 -0.5683 -0.0695
  425MPD2    H7 6349   3.908   2.955  16.980  0.5982 -0.4061  1.8241
  426TMC3    C1 6350   3.863   2.698  16.943  0.1169  0.2124  0.1028
  426TMC3    C2 6351   3.830   2.580  16.882  0.5810  1.0534 -0.1004
  426TMC3    C3 6352   3.924   2.485  16.896 -0.0391  0.1594 -0.4196
  426TMC3    C4 6353   3.977   2.721  17.018  0.0204  0.8056 -0.2070
  426TMC3    C5 6354   4.062   2.617  17.036  0.9899 -0.2590 -0.3535
  426TMC3    C6 6355   4.038   2.495  16.974 -0.3004  0.3540 -0.3134
  426TMC3     C 6356   3.765   2.800  16.946 -0.1780  1.1983 -0.8467
  426TMC3     O 6357   3.651   2.768  16.907 -0.3354 -0.4258 -0.1092
  426TMC3     H 6358   3.742   2.584  16.819  0.4364  1.4502  0.1180
  426TMC3    H1 6359   3.982   2.817  17.067  0.5181  0.2923  0.7568
  426TMC3    H2 6360   4.103   2.410  16.990  0.3937  1.1951  1.3818
  426TMC3    C7 6361   4.149   2.614  17.155 -0.1825  0.5223 -0.1375
  426TMC3    C8 6362   3.908   2.363  16.828 -0.1625 -0.1121  0.1203
  426TMC3    O1 6363   4.233   2.524  17.162 -0.2291  0.1501  0.5321
  426TMC3    O2 6364   4.013   2.299  16.809 -0.5853 -0.2903  0.2620
  427MPD2     C 6365   2.235   0.433  15.133  0.2209 -0.2037 -0.2965
  427MPD2    C1 6366   2.203   0.312  15.188  0.1442 -0.8184 -0.4118
  427MPD2    C2 6367   2.070   0.272  15.192  0.0592  0.5458  0.0417
  427MPD2    C3 6368   1.971   0.357  15.156  0.3745  0.2617 -0.2996
  427MPD2    C4 6369   2.000   0.484  15.111  0.2661 -0.1828 -0.0381
  427MPD2    C5 6370   2.131   0.521  15.099 -0.3102  0.4395 -1.0754
  427MPD2     H 6371   2.040   0.181  15.243  0.1704  0.6757  0.3391
  427MPD2    H1 6372   1.925   0.554  15.077  0.2762 -0.0639  0.1816
  427MPD2    H2 6373   2.335   0.457  15.102 -0.1668  1.3224 -0.3533
  427MPD2    H3 6374   2.154   0.609  15.040 -1.2102 -0.8974 -3.4178
  427MPD2     N 6375   1.832   0.317  15.153 -0.0268  0.2797 -0.0631
  427MPD2    H5 6376   1.768   0.386  15.114 -0.2902 -0.6085 -1.1880
  427MPD2    N1 6377   2.304   0.225  15.238  0.0917  0.1426 -0.0905
  427MPD2    H7 6378   2.280   0.132  15.272  2.3534 -0.3655  0.1186
  428TMC3    C1 6379   2.530   0.162  15.267 -0.1522  0.5015  0.3606
  428TMC3    C2 6380   2.503   0.039  15.213 -0.0296 -0.1745 -0.5263
  428TMC3    C3 6381   2.600   4.666  15.233 -0.5465  0.1729 -0.0858
  428TMC3    C4 6382   2.651   0.194  15.319 -0.4261  0.0433  0.1924
  428TMC3    C5 6383   2.752   0.105  15.310 -0.5933  0.8082 -0.4095
  428TMC3    C6 6384   2.721   4.706  15.269 -0.4964 -0.9304  0.0328
  428TMC3     C 6385   2.433   0.269  15.257 -0.2254 -0.5426  0.1099
  428TMC3     O 6386   2.478   0.384  15.269 -0.0465  0.0642  0.5454
  428TMC3     H 6387   2.403   0.005  15.189  0.3162 -0.5544 -1.4403
  428TMC3    H1 6388   2.676   0.294  15.354 -2.4228  0.3977  0.6428
  428TMC3    H2 6389   2.813   4.648  15.267  1.4482  2.1775 -0.8070
  428TMC3    C7 6390   2.883   0.154  15.309  0.2098  0.0178 -0.2935
  428TMC3    C8 6391   2.580   4.530  15.198  0.0958  0.2952 -0.3144
  428TMC3    O1 6392   2.939   0.183  15.411  0.0227 -0.4398 -0.1598
  428TMC3    O2 6393   2.475   4.492  15.145  0.0404  0.5093 -1.1102
  429MPD2     C 6394   3.426   0.394  17.308  0.5352  0.2094  0.2907
  429MPD2    C1 6395   3.555   0.356  17.287 -0.2238  0.3466 -0.0628
  429MPD2    C2 6396   3.654   0.448  17.289 -0.5956 -0.4574 -0.0596
  429MPD2    C3 6397   3.625   0.587  17.298 -0.1695  0.3260 -0.8100
  429MPD2    C4 6398   3.489   0.617  17.321  0.9775  0.5786  1.0727
  429MPD2    C5 6399   3.392   0.522  17.329  0.2752 -0.9415 -0.1191
  429MPD2     H 6400   3.758   0.424  17.268 -0.6383 -1.9133  1.4559
  429MPD2    H1 6401   3.453   0.719  17.317  2.3439  0.9832 -1.0733
  429MPD2    H2 6402   3.347   0.320  17.320  1.3523 -0.8807 -1.0903
  429MPD2    H3 6403   3.291   0.556  17.350  0.2321  0.6510 -2.8718
  429MPD2     N 6404   3.728   0.679  17.299 -0.3799 -0.7571 -0.2437
  429MPD2    H5 6405   3.823   0.645  17.290 -0.6572 -1.7066  0.4431
  429MPD2    N1 6406   3.585   0.217  17.274  0.0156 -0.2043  0.1911
  429MPD2    H7 6407   3.683   0.191  17.265  0.7837  3.0140 -0.9892
  430TMC3    C1 6408   3.843   0.883  17.316 -0.1550  0.3770  0.6977
  430TMC3    C2 6409   3.827   0.987  17.221 -0.4670  0.6633 -0.8451
  430TMC3    C3 6410   3.926   0.997  17.124 -0.1322 -0.0248 -0.0441
  430TMC3    C4 6411   3.953   0.808  17.315  0.2388  0.2061  0.1575
  430TMC3    C5 6412   4.048   0.819  17.219  0.1364 -0.3917 -0.6499
  430TMC3    C6 6413   4.040   0.918  17.128  0.1049 -0.2044 -0.3476
  430TMC3     C 6414   3.716   0.813  17.339  0.0982  1.1066  0.6959
  430TMC3     O 6415   3.615   0.872  17.379 -0.1673  0.1765  0.1099
  430TMC3     H 6416   3.731   1.037  17.220  0.0955  1.8052  1.2467
  430TMC3    H1 6417   3.961   0.710  17.361  1.2712 -0.2690 -1.0493
  430TMC3    H2 6418   4.105   0.911  17.041  0.5250 -1.7458  0.0887
  430TMC3    C7 6419   4.097   0.694  17.176  0.4037 -0.3989 -0.3393
  430TMC3    C8 6420   3.891   1.051  16.993  0.8644  0.0487  0.0059
  430TMC3    O1 6421   4.018   0.605  17.157  0.5540  0.4182  0.1839
  430TMC3    O2 6422   3.936   0.997  16.890  0.0082 -0.3991 -0.2399
  431MPD2     C 6423   4.197   0.590  12.411  0.4514  0.3755  0.4619
  431MPD2    C1 6424   4.262   0.613  12.296  0.4404 -0.1121 -0.6691
  431MPD2    C2 6425   4.260   0.518  12.199  0.0492 -0.4760  0.1997
  431MPD2    C3 6426   4.200   0.395  12.225  0.5791  0.0089 -0.3680
  431MPD2    C4 6427   4.117   0.383  12.334  0.1909  0.7119 -0.0165
  431MPD2    C5 6428   4.116   0.484  12.424 -0.1355 -0.3855  0.5456
  431MPD2     H 6429   4.322   0.536  12.111  1.2688 -1.6139  0.8253
  431MPD2    H1 6430   4.051   0.297  12.338  1.7868 -0.4878  0.8045
  431MPD2    H2 6431   4.193   0.670  12.483 -0.7499  0.2169  0.5693
  431MPD2    H3 6432   4.046   0.484  12.507 -1.3316 -2.4380 -0.4720
  431MPD2     N 6433   4.230   0.281  12.146  0.7024  0.2718 -0.4410
  431MPD2    H5 6434   4.192   0.193  12.179  3.7903 -1.0490 -0.3362
  431MPD2    N1 6435   4.343   0.719  12.266  0.5362 -0.0765  0.3581
  431MPD2    H7 6436   4.387   0.715  12.175 -0.5569 -2.4432 -0.0601
  432TMC3    C1 6437   4.350   0.141  12.006 -0.4099 -0.1940 -0.1810
  432TMC3    C2 6438   4.373   0.110  11.874 -0.4307 -0.2151 -0.8000
  432TMC3    C3 6439   4.414   4.714  11.840 -0.7374  0.1074 -0.4312
  432TMC3    C4 6440   4.363   0.059  12.113 -0.3679 -0.4673  0.0694
  432TMC3    C5 6441   4.406   4.662  12.075 -0.2980 -0.5639 -0.2928
  432TMC3    C6 6442   4.438   4.625  11.945 -0.5110  0.2156 -0.2522
  432TMC3     C 6443   4.317   0.276  12.033 -0.3851  0.1392 -1.1711
  432TMC3     O 6444   4.359   0.367  11.959 -0.2080 -0.3495  0.7832
  432TMC3     H 6445   4.347   0.186  11.801 -0.1146 -1.1454 -1.8800
  432TMC3    H1 6446   4.370   0.102  12.213  0.5689  0.5476 -0.4272
  432TMC3    H2 6447   4.493   4.535  11.920 -0.5184 -0.1417  1.0162
  432TMC3    C7 6448   4.453   4.569  12.173  0.8353  0.2312 -0.0629
  432TMC3    C8 6449   4.525   4.700  11.742 -0.3598 -0.5833  0.0213
  432TMC3    O1 6450   4.541   4.485  12.139 -0.5745  0.3969  0.2049
  432TMC3    O2 6451   4.629   4.656  11.786  0.4897 -0.4431  0.2972
  433MPD2     C 6452   3.052   3.496  10.923  0.1586  0.1642 -0.6873
  433MPD2    C1 6453   2.985   3.399  10.988  0.7362  0.2168 -0.5960
  433MPD2    C2 6454   2.996   3.386  11.128  0.0170  0.0964 -0.7707
  433MPD2    C3 6455   3.070   3.477  11.204  0.7041 -0.2395  1.0659
  433MPD2    C4 6456   3.125   3.583  11.132 -0.0271 -0.1496 -0.1847
  433MPD2    C5 6457   3.127   3.587  10.997 -0.6863  0.4815 -0.5027
  433MPD2     H 6458   2.940   3.316  11.189  1.4079 -2.1868 -2.1276
  433MPD2    H1 6459   3.161   3.672  11.183 -1.5250  0.5610 -0.3702
  433MPD2    H2 6460   3.058   3.503  10.815 -1.3574  0.6526 -0.7416
  433MPD2    H3 6461   3.186   3.669  10.957 -1.2965  0.3127 -1.7672
  433MPD2     N 6462   3.097   3.461  11.341  0.2928 -0.3327 -0.0155
  433MPD2    H5 6463   3.055   3.384  11.392  1.5257  0.3811  2.0630
  433MPD2    N1 6464   2.925   3.306  10.903  0.0399 -0.2682  0.4914
  433MPD2    H7 6465   2.941   3.318  10.803 -0.1067  1.3971  0.6668
  434TMC3    C1 6466   2.885   3.091  10.849 -0.0431  0.4755  0.2873
  434TMC3    C2 6467   2.937   2.980  10.910  0.1330  0.0434  0.0029
  434TMC3    C3 6468   3.016   2.902  10.843 -0.0999 -0.9745 -0.0581
  434TMC3    C4 6469   2.905   3.107  10.721  0.1871  0.1500  0.2847
  434TMC3    C5 6470   2.981   3.018  10.650 -0.5442  0.6075 -0.8825
  434TMC3    C6 6471   3.038   2.910  10.711  0.0691 -0.1137  0.2666
  434TMC3     C 6472   2.858   3.189  10.945  0.0606  0.0851  0.1068
  434TMC3     O 6473   2.815   3.157  11.055  0.1633  0.2493  0.5612
  434TMC3     H 6474   2.897   2.959  11.009 -0.0423 -1.9013 -0.4786
  434TMC3    H1 6475   2.860   3.189  10.666 -2.5913 -2.3088 -1.0759
  434TMC3    H2 6476   3.080   2.827  10.655  2.0426 -0.8433  2.8145
  434TMC3    C7 6477   2.998   3.035  10.504  0.2162  0.0744  0.2187
  434TMC3    C8 6478   3.102   2.808  10.917 -0.2944 -0.0564  0.5414
  434TMC3    O1 6479   2.951   3.130  10.441 -0.3161  0.4442 -0.3465
  434TMC3    O2 6480   3.061   2.780  11.027  0.0618 -0.3278 -0.2067
  435MPD2     C 6481   0.847   3.885  15.557  0.5611  0.8061  0.2892
  435MPD2    C1 6482   0.810   3.877  15.685  0.3869 -0.2162  0.1017
  435MPD2    C2 6483   0.882   3.808  15.777  0.1404 -0.1716  0.2432
  435MPD2    C3 6484   0.975   3.712  15.734  0.7227 -0.3223 -0.0965
  435MPD2    C4 6485   1.010   3.717  15.599 -0.2100 -0.2203  0.1517
  435MPD2    C5 6486   0.947   3.800  15.513 -0.5359  0.1027 -0.8525
  435MPD2     H 6487   0.845   3.816  15.878 -0.9425  0.9032 -0.2421
  435MPD2    H1 6488   1.081   3.642  15.567  0.8678  1.2469 -0.8924
  435MPD2    H2 6489   0.795   3.954  15.492  0.1094 -0.1697 -0.3845
  435MPD2    H3 6490   0.970   3.794  15.407  0.4519 -3.0546 -0.4675
  435MPD2     N 6491   1.030   3.629  15.829 -0.0714  0.4177 -0.2299
  435MPD2    H5 6492   1.005   3.647  15.925  0.5623 -0.8847  0.1798
  435MPD2    N1 6493   0.701   3.951  15.742 -0.2744 -1.2835 -0.2966
  435MPD2    H7 6494   0.683   3.935  15.841 -1.4553 -0.7075 -0.4277
  436TMC3    C1 6495   0.340   4.011  15.914  0.0445  0.2446  0.1778
  436TMC3    C2 6496   0.461   3.986  15.860  0.0055  0.0126  0.2891
  436TMC3    C3 6497   0.488   4.063  15.747 -0.6772  0.2002 -0.1547
  436TMC3    C4 6498   0.235   4.074  15.850 -0.4792 -0.5980 -0.0413
  436TMC3    C5 6499   0.257   4.116  15.729 -0.2794  0.0242  0.1408
  436TMC3    C6 6500   0.388   4.128  15.682  0.1450 -0.2517 -0.2602
  436TMC3     C 6501   0.306   3.903  16.003 -0.3495 -0.2194 -0.2718
  436TMC3     O 6502   0.364   3.793  15.992  0.0398  0.2084 -0.4864
  436TMC3     H 6503   0.536   3.926  15.910 -1.2317 -3.3133 -1.9066
  436TMC3    H1 6504   0.136   4.073  15.894 -1.3237  0.8321 -1.9219
  436TMC3    H2 6505   0.413   4.180  15.590  0.1671 -2.4927 -1.5321
  436TMC3    C7 6506   0.154   4.159  15.642  0.2937 -0.6781  0.0975
  436TMC3    C8 6507   0.610   4.027  15.671 -0.5339  0.2124  0.8764
  436TMC3    O1 6508   0.178   4.221  15.539 -0.2182  0.7202 -0.1625
  436TMC3    O2 6509   0.620   4.072  15.557  0.1538 -0.0483  0.0327
  437TMC3    C1 6510   3.763   1.240  12.712 -0.0289 -0.6391  0.7927
  437TMC3    C2 6511   3.640   1.294  12.738  1.1372  0.2529 -0.2114
  437TMC3    C3 6512   3.593   1.391  12.651  0.1252 -0.3050 -0.0317
  437TMC3    C4 6513   3.833   1.280  12.603  0.0639  0.2608 -0.2037
  437TMC3    C5 6514   3.786   1.388  12.524 -0.2000 -0.6814  0.7113
  437TMC3    C6 6515   3.671   1.450  12.549 -0.0694 -0.4791  0.0855
  437TMC3     C 6516   3.801   1.114  12.776  0.0351  0.5686 -0.5972
  437TMC3     O 6517   3.880   1.047  12.714 -0.5689  0.7597 -0.5541
  437TMC3     H 6518   3.574   1.263  12.818  0.5579  0.2753 -0.6810
  437TMC3    H1 6519   3.928   1.235  12.577  0.4926  0.7087  0.6024
  437TMC3    H2 6520   3.640   1.534  12.488 -0.5539 -0.5215  0.2740
  437TMC3    C7 6521   3.842   1.401  12.389 -0.1164 -0.4865 -0.0128
  437TMC3    C8 6522   3.463   1.437  12.680 -0.1884 -0.2377 -0.1482
  437TMC3    O1 6523   3.776   1.479  12.319 -0.2558  0.5174  0.1351
  437TMC3    O2 6524   3.388   1.348  12.725  0.1274  0.1900 -0.1826
  438MPD2     C 6525   1.607   1.427  16.510  0.4611  0.3697 -0.1169
  438MPD2    C1 6526   1.708   1.383  16.590  0.2170 -0.0051  0.7201
  438MPD2    C2 6527   1.697   1.383  16.730 -0.6485 -0.2219  0.2568
  438MPD2    C3 6528   1.579   1.437  16.788  0.2241 -0.1120 -0.4421
  438MPD2    C4 6529   1.476   1.468  16.709  0.3678 -0.4881 -0.0920
  438MPD2    C5 6530   1.490   1.458  16.571  0.9472 -0.1101 -0.5227
  438MPD2     H 6531   1.777   1.355  16.797 -1.5197  0.1028  1.4413
  438MPD2    H1 6532   1.388   1.513  16.754  0.7583  0.6640 -0.4673
  438MPD2    H2 6533   1.616   1.442  16.403 -0.5603 -0.1197 -0.2677
  438MPD2    H3 6534   1.410   1.499  16.510  0.7154 -0.2775 -0.3336
  438MPD2     N 6535   1.579   1.448  16.926  0.1675 -0.0336  0.4101
  438MPD2    H5 6536   1.644   1.386  16.973 -1.8052 -0.7146  2.2647
  438MPD2    N1 6537   1.828   1.346  16.524 -0.0028  0.2225 -0.3525
  438MPD2    H7 6538   1.830   1.360  16.424  0.7111 -1.6888 -0.6004
  439TMC3    C1 6539   2.057   1.268  16.527  0.3991  0.8375  0.4776
  439TMC3    C2 6540   2.058   1.308  16.397 -0.1665 -0.1895  0.1048
  439TMC3    C3 6541   2.172   1.284  16.334  0.3853  0.1783  0.7978
  439TMC3    C4 6542   2.166   1.213  16.587  0.0385  0.5778  0.0428
  439TMC3    C5 6543   2.285   1.214  16.524  0.0439 -0.0000 -0.1387
  439TMC3    C6 6544   2.285   1.235  16.389 -0.3429 -0.1013  0.6081
  439TMC3     C 6545   1.938   1.298  16.601  0.1387 -0.4160  0.2307
  439TMC3     O 6546   1.952   1.248  16.712  0.1715 -0.6301 -0.3223
  439TMC3     H 6547   1.987   1.366  16.339  1.2651  1.9391  0.4767
  439TMC3    H1 6548   2.165   1.199  16.695 -2.0529 -2.4694 -0.3591
  439TMC3    H2 6549   2.378   1.225  16.334 -1.0052 -0.8539 -0.3644
  439TMC3    C7 6550   2.405   1.163  16.605  0.6192  1.1318  0.2647
  439TMC3    C8 6551   2.183   1.353  16.206 -0.9351  0.2463  0.6271
  439TMC3    O1 6552   2.409   1.192  16.723 -0.6203 -0.1160  0.4122
  439TMC3    O2 6553   2.109   1.316  16.119  0.0551  0.3389 -0.4314
  440MPD2     C 6554   0.168   1.946  15.715  0.2000 -0.4368  0.4302
  440MPD2    C1 6555   0.245   2.010  15.620  0.3577 -0.3349  0.2292
  440MPD2    C2 6556   0.358   1.947  15.571 -0.8350  0.2557  0.0680
  440MPD2    C3 6557   0.391   1.816  15.588  0.7469 -0.5020 -0.4641
  440MPD2    C4 6558   0.307   1.755  15.684  0.8972  0.6714 -0.1400
  440MPD2    C5 6559   0.205   1.819  15.749 -0.8812  0.2354  0.5968
  440MPD2     H 6560   0.433   2.009  15.522  0.7470 -0.1126  2.0218
  440MPD2    H1 6561   0.326   1.649  15.700  1.4567  0.9031  0.7320
  440MPD2    H2 6562   0.086   1.997  15.763  0.1844 -0.2324  0.1890
  440MPD2    H3 6563   0.136   1.759  15.807 -0.0073 -1.3222  0.0258
  440MPD2     N 6564   0.503   1.744  15.541  0.2458 -0.1899 -0.1426
  440MPD2    H5 6565   0.516   1.649  15.576  2.4767  0.0878 -0.1785
  440MPD2    N1 6566   0.235   2.148  15.597 -0.6140 -0.7760  0.2972
  440MPD2    H7 6567   0.316   2.194  15.556  0.3216 -1.3334  1.5133
  441TMC3    C1 6568   0.726   1.725  15.483  0.3278 -0.4330 -0.9593
  441TMC3    C2 6569   0.829   1.802  15.515  0.3424 -0.6454  0.0566
  441TMC3    C3 6570   0.900   1.765  15.624 -0.1234  0.2923  0.5668
  441TMC3    C4 6571   0.699   1.607  15.550 -0.1748 -0.5401  0.0894
  441TMC3    C5 6572   0.780   1.562  15.648 -0.8667  0.1871  0.3129
  441TMC3    C6 6573   0.876   1.654  15.692 -0.2048  0.2191  0.3823
  441TMC3     C 6574   0.606   1.806  15.478  0.2519  0.4319  0.3585
  441TMC3     O 6575   0.619   1.921  15.450  0.3023  0.2650  0.3689
  441TMC3     H 6576   0.843   1.888  15.450 -0.7137 -0.0797  0.5727
  441TMC3    H1 6577   0.632   1.535  15.503 -0.3099  0.5254 -1.3508
  441TMC3    H2 6578   0.928   1.629  15.784 -0.8528 -0.7510  0.4840
  441TMC3    C7 6579   0.710   1.497  15.751 -1.4232  0.5943 -0.5411
  441TMC3    C8 6580   0.914   1.880  15.713 -0.9297  0.7873 -0.4589
  441TMC3    O1 6581   0.588   1.501  15.745  0.6088 -0.6390 -0.2867
  441TMC3    O2 6582   0.960   1.867  15.823  0.5344  0.4127 -0.7290
  442MPD2     C 6583   3.187   2.683  16.548  0.4668 -0.4606  0.7821
  442MPD2    C1 6584   3.112   2.597  16.629 -0.1525  0.1257  1.6357
  442MPD2    C2 6585   3.123   2.454  16.605  0.4720 -0.4072 -0.2853
  442MPD2    C3 6586   3.207   2.415  16.495 -0.1392  0.6062 -0.5905
  442MPD2    C4 6587   3.279   2.510  16.425  0.2044 -0.3342 -0.1157
  442MPD2    C5 6588   3.264   2.641  16.446 -0.5398  0.3615 -1.0091
  442MPD2     H 6589   3.061   2.380  16.655  0.1064  0.6315  0.7966
  442MPD2    H1 6590   3.340   2.485  16.338 -0.9054  2.7138 -1.7493
  442MPD2    H2 6591   3.185   2.791  16.559 -1.4826 -0.6353  2.0758
  442MPD2    H3 6592   3.313   2.713  16.380  0.8015  0.5600  0.1851
  442MPD2     N 6593   3.217   2.282  16.456 -0.3421 -0.1941  0.2750
  442MPD2    H5 6594   3.285   2.269  16.382 -0.8632  3.0664 -0.7837
  442MPD2    N1 6595   3.024   2.638  16.735 -0.3086 -0.5844 -0.1104
  442MPD2    H7 6596   2.953   2.574  16.766  0.8405 -0.6962  2.2597
  443TMC3    C1 6597   2.908   2.793  16.889  0.5469  1.0699  1.1625
  443TMC3    C2 6598   2.848   2.922  16.887  0.2028  0.1365  0.0499
  443TMC3    C3 6599   2.724   2.916  16.940 -0.5561 -0.0299  0.1522
  443TMC3    C4 6600   2.864   2.678  16.957 -0.6691  0.1435 -0.5662
  443TMC3    C5 6601   2.748   2.699  17.020  0.6028 -0.0264  0.0758
  443TMC3    C6 6602   2.676   2.816  17.017  0.1801 -0.5978  0.6878
  443TMC3     C 6603   3.008   2.769  16.777 -0.2750  0.5233  0.5219
  443TMC3     O 6604   3.072   2.864  16.740 -0.1761 -0.3767 -0.1190
  443TMC3     H 6605   2.887   3.003  16.828 -0.3317  1.0847  1.0033
  443TMC3    H1 6606   2.927   2.591  16.974  2.0042  1.9479 -1.1800
  443TMC3    H2 6607   2.571   2.813  17.043 -0.3280 -1.4862 -1.5104
  443TMC3    C7 6608   2.714   2.594  17.116 -0.2500  0.0197 -0.5194
  443TMC3    C8 6609   2.636   3.028  16.937 -0.3029  0.1722  0.3553
  443TMC3    O1 6610   2.772   2.485  17.113  0.4678  0.8868 -0.0671
  443TMC3    O2 6611   2.553   3.038  17.023  0.1962 -0.4663  0.8402
  444MPD2     C 6612   3.609   2.343   0.053  0.2067  0.6603 -1.1084
  444MPD2    C1 6613   3.531   2.267  17.659  0.3414 -0.0549  0.1394
  444MPD2    C2 6614   3.590   2.188  17.570 -0.1032  0.3953 -0.6001
  444MPD2    C3 6615   3.729   2.179  17.556 -0.2582 -0.4425  0.7215
  444MPD2    C4 6616   3.806   2.258  17.637 -0.8080  0.8155  0.0479
  444MPD2    C5 6617   3.749   2.341   0.032 -0.1107 -0.5390  0.2284
  444MPD2     H 6618   3.525   2.137  17.500  0.0259  1.2094 -1.3199
  444MPD2    H1 6619   3.914   2.253  17.626 -0.6483  1.5920  1.2189
  444MPD2    H2 6620   3.557   2.416   0.114  0.6349  1.3046 -1.5232
  444MPD2    H3 6621   3.808   2.411   0.089 -1.5064  1.4856 -0.8251
  444MPD2     N 6622   3.778   2.081  17.469  0.8861  0.0960  0.3981
  444MPD2    H5 6623   3.704   2.052  17.406 -1.1210 -0.1337  2.8303
  444MPD2    N1 6624   3.395   2.267  17.654  0.0514  0.7003 -0.0192
  444MPD2    H7 6625   3.353   2.205  17.584 -0.4641 -1.3480  2.1017
  445TMC3    C1 6626   3.925   1.962  17.336  0.3923 -0.0252 -0.7909
  445TMC3    C2 6627   3.828   1.964  17.238 -0.0658 -0.8464  0.3873
  445TMC3    C3 6628   3.860   1.926  17.110 -0.2296  0.4981 -0.4686
  445TMC3    C4 6629   4.051   1.916  17.310  0.3972 -0.4547  0.3668
  445TMC3    C5 6630   4.074   1.897  17.178  0.0112  0.9875  0.1115
  445TMC3    C6 6631   3.990   1.899  17.072 -0.3771  0.1478 -0.0384
  445TMC3     C 6632   3.908   2.045  17.453  0.2537  0.1569 -0.3328
  445TMC3     O 6633   4.006   2.060  17.527 -0.1032  0.2211  0.2866
  445TMC3     H 6634   3.727   1.998  17.258  0.1210  1.0856 -1.9474
  445TMC3    H1 6635   4.132   1.918  17.382  0.6229 -1.2050  0.1315
  445TMC3    H2 6636   4.026   1.872  16.973 -1.5290  1.5782 -0.8459
  445TMC3    C7 6637   4.190   1.819  17.129  0.2903  0.2667  0.5087
  445TMC3    C8 6638   3.752   1.869  17.020 -0.5657  0.0344  0.3544
  445TMC3    O1 6639   4.241   1.852  17.023 -0.7423  0.6458 -0.1940
  445TMC3    O2 6640   3.779   1.761  16.969 -0.0048  0.1202  0.4524
  446MPD2     C 6641   2.913   2.698  11.507  1.1311  0.6475  0.0145
  446MPD2    C1 6642   2.868   2.738  11.377  0.1088 -0.4458 -0.2214
  446MPD2    C2 6643   2.924   2.840  11.313  0.1477 -0.1805 -0.1993
  446MPD2    C3 6644   3.034   2.900  11.356  0.3493  0.9913 -0.2820
  446MPD2    C4 6645   3.085   2.871  11.483 -0.0293 -1.2304  0.3518
  446MPD2    C5 6646   3.015   2.775  11.558  0.2362 -0.0793  0.2688
  446MPD2     H 6647   2.895   2.858  11.210 -1.4509  3.0641  0.8004
  446MPD2    H1 6648   3.169   2.922  11.528 -1.3033  0.5155  0.7437
  446MPD2    H2 6649   2.876   2.615  11.564  0.5016  0.7497 -0.2434
  446MPD2    H3 6650   3.054   2.746  11.655 -0.2510  0.2425  0.5619
  446MPD2     N 6651   3.105   2.989  11.262  0.2391  0.2069 -0.8513
  446MPD2    H5 6652   3.058   3.013  11.175 -0.5739 -2.1156 -1.0468
  446MPD2    N1 6653   2.764   2.672  11.304 -0.8880 -0.1696  0.2899
  446MPD2    H7 6654   2.735   2.716  11.217 -1.0811 -2.3553 -0.7652
  447TMC3    C1 6655   3.258   3.164  11.205  0.0480  0.3631  0.1728
  447TMC3    C2 6656   3.233   3.155  11.071 -0.4925 -0.2332  0.6601
  447TMC3    C3 6657   3.291   3.253  10.995 -0.0411  0.0426 -0.7451
  447TMC3    C4 6658   3.331   3.262  11.262  0.4570  0.5344 -0.0183
  447TMC3    C5 6659   3.375   3.361  11.177 -0.3011 -0.2999  0.0231
  447TMC3    C6 6660   3.363   3.356  11.043 -0.3537  0.2522 -0.0717
  447TMC3     C 6661   3.220   3.060  11.290  0.1785  0.3822 -0.1750
  447TMC3     O 6662   3.287   3.045  11.389 -0.1688  0.3456 -0.2183
  447TMC3     H 6663   3.174   3.074  11.030 -1.2113  0.2755  0.6931
  447TMC3    H1 6664   3.370   3.257  11.363  0.1800  1.8164  0.1577
  447TMC3    H2 6665   3.398   3.430  10.972 -1.8707 -0.1454 -1.2399
  447TMC3    C7 6666   3.505   3.404  11.214 -0.4505  0.0363 -0.2753
  447TMC3    C8 6667   3.279   3.237  10.849 -0.3439  0.5538  0.2267
  447TMC3    O1 6668   3.609   3.394  11.143 -0.2107 -0.1545  0.6088
  447TMC3    O2 6669   3.201   3.153  10.806  0.5706  0.2589  0.2506
  448TMC3    C1 6670   2.184   3.831  17.234  0.2613  0.7155 -1.0488
  448TMC3    C2 6671   2.176   3.714  17.160 -0.0556  0.4450  0.1213
  448TMC3    C3 6672   2.114   3.608  17.229  0.3161 -0.0915 -0.6335
  448TMC3    C4 6673   2.138   3.838  17.366  0.2294 -0.2595 -0.1890
  448TMC3    C5 6674   2.072   3.734  17.423 -0.7225  0.0825 -0.9096
  448TMC3    C6 6675   2.063   3.619  17.355  0.3443 -0.4738 -0.3880
  448TMC3     C 6676   2.268   3.935  17.167  0.1536  0.1810 -0.0126
  448TMC3     O 6677   2.303   3.910  17.053 -0.0941 -0.2330 -0.4101
  448TMC3     H 6678   2.210   3.709  17.057  0.6182 -0.7773  0.3996
  448TMC3    H1 6679   2.152   3.934  17.414  2.4789 -0.4436 -0.5074
  448TMC3    H2 6680   2.001   3.537  17.390 -0.7992 -0.3885 -2.2110
  448TMC3    C7 6681   2.021   3.754  17.556  0.9565  0.1333  0.6810
  448TMC3    C8 6682   2.101   3.485  17.170  0.8824 -1.6054 -0.2464
  448TMC3    O1 6683   2.027   3.870  17.593 -0.0746  0.0040  0.0451
  448TMC3    O2 6684   2.070   3.394  17.248 -1.0312  0.4281  0.2573
  449MPD2     C 6685   3.155   1.736  14.203 -0.4139 -0.6610 -0.3491
  449MPD2    C1 6686   3.076   1.683  14.106 -0.6221  0.4507  0.0844
  449MPD2    C2 6687   2.975   1.602  14.141  1.2132  0.1477 -1.2121
  449MPD2    C3 6688   2.957   1.560  14.274 -0.0276 -0.2662 -0.3245
  449MPD2    C4 6689   3.051   1.603  14.371 -0.4064  0.3559 -0.1174
  449MPD2    C5 6690   3.146   1.692  14.331 -0.6440  0.0759 -0.4432
  449MPD2     H 6691   2.908   1.577  14.061 -1.5105 -0.3175  1.2107
  449MPD2    H1 6692   3.054   1.576  14.476  1.7065  0.7000 -0.0871
  449MPD2    H2 6693   3.230   1.809  14.175  0.3727 -0.5928  1.8879
  449MPD2    H3 6694   3.211   1.733  14.407  0.6427  0.7299 -1.9067
  449MPD2     N 6695   2.858   1.475  14.304 -0.3966  0.2810  0.1059
  449MPD2    H5 6696   2.794   1.451  14.229  1.2241 -1.7378 -0.6350
  449MPD2    N1 6697   3.093   1.729  13.972  0.0247 -0.2849  0.1021
  449MPD2    H7 6698   3.011   1.724  13.913  1.2850  1.7222 -1.7969
  450TMC3    C1 6699   3.201   1.772  13.772 -0.2489 -0.5404 -0.4985
  450TMC3    C2 6700   3.324   1.729  13.740  0.0856 -0.3678  0.6689
  450TMC3    C3 6701   3.328   1.604  13.675 -0.3941  0.4868 -0.2401
  450TMC3    C4 6702   3.089   1.712  13.730 -0.0637 -0.1158 -0.1619
  450TMC3    C5 6703   3.098   1.599  13.660 -0.0703  0.2545 -0.0845
  450TMC3    C6 6704   3.216   1.535  13.635 -0.6643  0.3504  0.2582
  450TMC3     C 6705   3.204   1.780  13.917  0.2663 -0.1589  0.2575
  450TMC3     O 6706   3.309   1.809  13.969  0.4638 -0.5192 -0.1457
  450TMC3     H 6707   3.413   1.780  13.775 -0.6992  2.1845 -1.0810
  450TMC3    H1 6708   2.992   1.757  13.748  0.8313  2.1891 -1.0867
  450TMC3    H2 6709   3.224   1.447  13.572  2.2037  1.0897 -0.4019
  450TMC3    C7 6710   2.987   1.516  13.689 -0.0373 -0.4357  0.6018
  450TMC3    C8 6711   3.445   1.523  13.710  0.0669 -0.3132 -0.0572
  450TMC3    O1 6712   2.913   1.558  13.776  0.2377 -0.1889  0.3244
  450TMC3    O2 6713   3.502   1.552  13.813  0.3084 -0.1148 -0.4002
  451MPD2     C 6714   4.385   4.705   0.856 -0.5084  0.1484  0.5038
  451MPD2    C1 6715   4.511   4.695   0.906  0.1173 -0.1448  0.5618
  451MPD2    C2 6716   4.570   4.571   0.917 -0.2899  0.2882  0.4854
  451MPD2    C3 6717   4.493   4.457   0.898  0.1890  0.5106  0.3013
  451MPD2    C4 6718   4.363   4.470   0.851 -0.9118 -0.5422  0.1093
  451MPD2    C5 6719   4.306   4.596   0.827 -0.7478  0.0296 -0.1296
  451MPD2     H 6720   4.673   4.560   0.948  0.3236  2.0730 -0.9091
  451MPD2    H1 6721   4.298   4.384   0.840  0.2703 -1.6637  1.8923
  451MPD2    H2 6722   4.334   0.077   0.857 -2.4200 -0.8725  0.5441
  451MPD2    H3 6723   4.207   4.613   0.786 -2.3077 -2.2310  2.7694
  451MPD2     N 6724   4.538   4.330   0.934  0.3892 -0.1440  0.1673
  451MPD2    H5 6725   4.467   4.258   0.925 -1.8260  2.0077  0.2872
  451MPD2    N1 6726   4.583   0.090   0.931  0.0689 -0.2306  0.2030
  451MPD2    H7 6727   4.529   0.175   0.925  0.2632 -0.0700  0.7021
  452TMC3    C1 6728   4.679   4.154   1.013 -0.2923  0.5596 -0.4348
  452TMC3    C2 6729   4.578   4.102   1.093 -0.0806 -0.4792  0.0123
  452TMC3    C3 6730   4.619   3.991   1.174  0.6842  0.6398 -0.0208
  452TMC3    C4 6731   0.084   4.094   1.010 -0.4547 -0.5901 -0.1780
  452TMC3    C5 6732   0.119   3.997   1.103 -0.3391  0.2462  0.5300
  452TMC3    C6 6733   0.026   3.941   1.183  0.0084 -0.0586 -0.0657
  452TMC3     C 6734   4.669   4.291   0.956 -0.9286  0.1542 -0.6202
  452TMC3     O 6735   0.050   4.357   0.968 -0.5611 -0.1717 -0.3997
  452TMC3     H 6736   4.481   4.150   1.099  1.7304  3.0733  1.0873
  452TMC3    H1 6737   0.161   4.131   0.944  0.7333  1.4548  2.3516
  452TMC3    H2 6738   0.051   3.861   1.252 -1.1637 -0.8410 -0.5394
  452TMC3    C7 6739   0.257   4.007   1.152 -0.8813  0.7797 -0.4088
  452TMC3    C8 6740   4.513   3.924   1.256 -0.6694 -0.7601  0.3991
  452TMC3    O1 6741   0.337   4.074   1.085  0.7970  0.2128 -0.0857
  452TMC3    O2 6742   4.552   3.890   1.365 -0.2728  0.1415 -0.3684
  453TMC3    C1 6743   0.871   2.180  11.691  0.1231  0.3987 -0.1215
  453TMC3    C2 6744   0.777   2.084  11.725  0.7578  0.0263 -0.3347
  453TMC3    C3 6745   0.704   2.027  11.626 -0.6246  0.1967  0.1316
  453TMC3    C4 6746   0.899   2.204  11.563  0.5353  0.2726 -0.8189
  453TMC3    C5 6747   0.821   2.144  11.471 -0.1884  0.1785  0.8877
  453TMC3    C6 6748   0.721   2.058  11.495 -0.1375 -0.4962 -0.7020
  453TMC3     C 6749   0.975   2.204  11.794 -0.0154  0.0958  0.2180
  453TMC3     O 6750   1.090   2.220  11.753  0.2531 -0.0085  0.2592
  453TMC3     H 6751   0.761   2.050  11.827 -0.7315  0.6844 -0.3447
  453TMC3    H1 6752   0.988   2.260  11.536 -0.0868  1.8739  0.4146
  453TMC3    H2 6753   0.667   2.018  11.410  0.3775  1.2578 -1.8554
  453TMC3    C7 6754   0.861   2.161  11.332 -0.3648  0.4476 -0.0626
  453TMC3    C8 6755   0.631   1.914  11.661 -0.7009 -0.5067  0.2437
  453TMC3    O1 6756   0.902   2.061  11.278 -0.5132  0.0082 -0.1774
  453TMC3    O2 6757   0.608   1.906  11.778 -0.0496  0.6848 -0.4634
  454MPD2     C 6758   4.318   1.204  16.474  0.3397  0.3961  0.2450
  454MPD2    C1 6759   4.286   1.330  16.495 -0.3872  0.5043 -0.2769
  454MPD2    C2 6760   4.247   1.381  16.616  0.4384  0.0200  0.1609
  454MPD2    C3 6761   4.221   1.292  16.722  0.5622 -0.0551 -0.0173
  454MPD2    C4 6762   4.256   1.162  16.710  0.4745  0.3099  0.1652
  454MPD2    C5 6763   4.308   1.116  16.585  0.1940 -0.6802  0.2082
  454MPD2     H 6764   4.240   1.489  16.627  0.5409 -0.0008  0.4480
  454MPD2    H1 6765   4.240   1.096  16.794  1.6084  0.2081  0.3005
  454MPD2    H2 6766   4.325   1.163  16.374 -0.7170 -1.1163  0.7859
  454MPD2    H3 6767   4.341   1.013  16.578 -1.2168 -1.0984 -0.2437
  454MPD2     N 6768   4.161   1.333  16.842  0.6322  0.9737  0.4338
  454MPD2    H5 6769   4.189   1.277  16.922  3.4568  0.8030 -0.6707
  454MPD2    N1 6770   4.284   1.421  16.388 -0.2711 -0.3852  0.6271
  454MPD2    H7 6771   4.266   1.517  16.413  0.2555 -0.0827 -0.1221
  455TMC3    C1 6772   4.026   1.519  16.754 -0.0274 -0.4772 -0.3974
  455TMC3    C2 6773   4.020   1.650  16.754  0.4289  0.2762 -0.2032
  455TMC3    C3 6774   3.941   1.707  16.658 -0.8490  0.0574 -0.3419
  455TMC3    C4 6775   3.954   1.437  16.667 -0.0534 -0.0204  0.2212
  455TMC3    C5 6776   3.883   1.506  16.564  0.1449  0.4413  0.6586
  455TMC3    C6 6777   3.871   1.642  16.566 -0.0916 -0.0088  0.4509
  455TMC3     C 6778   4.095   1.457  16.869 -0.0979  0.2387  0.1321
  455TMC3     O 6779   4.068   1.499  16.977 -0.2062 -0.8850  0.9277
  455TMC3     H 6780   4.058   1.710  16.837  2.6374 -1.9071  0.3439
  455TMC3    H1 6781   3.950   1.330  16.686  0.8921 -0.1422 -0.3096
  455TMC3    H2 6782   3.833   1.694  16.479 -0.4769  1.6332  1.6196
  455TMC3    C7 6783   3.853   1.435  16.439 -0.5662  0.1074  0.6039
  455TMC3    C8 6784   3.906   1.841  16.682  0.4621  0.2967 -0.4849
  455TMC3    O1 6785   3.774   1.483  16.362 -0.4874 -0.0239 -0.6128
  455TMC3    O2 6786   3.975   1.911  16.753 -0.0711  0.0494  0.5661
  456MPD2     C 6787   1.662   2.262  16.426 -0.5234  0.8953  0.1820
  456MPD2    C1 6788   1.776   2.210  16.481  0.2446 -0.2449 -0.0355
  456MPD2    C2 6789   1.843   2.267  16.589  0.3443 -0.3135  0.0318
  456MPD2    C3 6790   1.783   2.378  16.648 -0.1182 -0.5151 -0.0216
  456MPD2    C4 6791   1.660   2.425  16.599  0.4989  0.8900 -0.2391
  456MPD2    C5 6792   1.607   2.376  16.482  0.1475  0.2614  0.1716
  456MPD2     H 6793   1.934   2.221  16.627 -0.9404 -2.0143  1.0331
  456MPD2    H1 6794   1.607   2.508  16.643 -0.4630 -0.7789  1.8100
  456MPD2    H2 6795   1.607   2.212  16.348  1.1912 -0.5780 -0.0835
  456MPD2    H3 6796   1.516   2.423  16.445 -0.4379 -2.1838 -1.5102
  456MPD2     N 6797   1.846   2.452  16.756  0.2399  0.7533 -0.2914
  456MPD2    H5 6798   1.938   2.424  16.787  0.6519  0.8395 -1.4292
  456MPD2    N1 6799   1.832   2.104  16.409  0.1027  0.2060 -1.2878
  456MPD2    H7 6800   1.782   2.050  16.339 -1.5984 -0.5222  0.4683
  457TMC3    C1 6801   1.899   2.630  16.899  0.8782  0.9377 -0.4616
  457TMC3    C2 6802   1.918   2.761  16.900  0.4563  0.8607  0.3127
  457TMC3    C3 6803   1.976   2.816  17.012 -0.4984 -0.2508 -0.1760
  457TMC3    C4 6804   1.918   2.553  17.009  0.5412  0.5566 -0.6030
  457TMC3    C5 6805   1.961   2.612  17.126  0.5125  0.0718  0.3811
  457TMC3    C6 6806   2.000   2.746  17.130 -0.8992 -0.3405  0.2919
  457TMC3     C 6807   1.817   2.583  16.779  0.3649  0.0538  1.0296
  457TMC3     O 6808   1.771   2.668  16.702  0.2256  0.0263  0.3491
  457TMC3     H 6809   1.911   2.824  16.812  1.5043  1.3756  0.5930
  457TMC3    H1 6810   1.881   2.451  17.013 -0.8638  1.0331 -1.2197
  457TMC3    H2 6811   2.043   2.789  17.219  0.0640  1.0906 -0.8615
  457TMC3    C7 6812   1.991   2.531  17.239 -0.4706  0.6285  0.9831
  457TMC3    C8 6813   2.028   2.951  17.012 -0.2641 -0.3414 -0.3403
  457TMC3    O1 6814   2.042   2.425  17.215 -0.3557  0.0671  0.8796
  457TMC3    O2 6815   2.053   3.001  17.123 -0.1265  0.8071 -0.1259
  458MPD2     C 6816   4.250   1.473  12.091 -0.0129 -0.3479  0.4224
  458MPD2    C1 6817   4.290   1.389  12.193 -0.3100 -0.2262  0.1483
  458MPD2    C2 6818   4.198   1.352  12.284 -0.3889  0.0184  0.2056
  458MPD2    C3 6819   4.065   1.394  12.276 -0.1088 -0.1245 -0.4284
  458MPD2    C4 6820   4.028   1.476  12.165  0.1749 -0.1565 -0.2976
  458MPD2    C5 6821   4.123   1.512  12.076  0.1003 -0.0792  0.8328
  458MPD2     H 6822   4.230   1.286  12.364  0.1575 -0.0645 -0.0820
  458MPD2    H1 6823   3.925   1.505  12.145  0.0970 -0.5677 -0.4905
  458MPD2    H2 6824   4.324   1.503  12.017  0.3963 -0.0369  0.9577
  458MPD2    H3 6825   4.095   1.571  11.989 -0.3676 -0.0487  1.0031
  458MPD2     N 6826   3.975   1.357  12.385 -0.0935  0.3683  0.4365
  458MPD2    H5 6827   4.009   1.309  12.467 -2.1838  1.1970  1.7753
  458MPD2    N1 6828   4.428   1.366  12.206  0.2971  0.0055 -0.0661
  458MPD2    H7 6829   4.491   1.425  12.153 -0.8911  0.4339 -1.0019
  459TMC3    C1 6830   4.607   1.285  12.344 -0.2865  0.0433  0.3284
  459TMC3    C2 6831   4.694   1.386  12.299  0.5838  0.4393  0.3364
  459TMC3    C3 6832   0.094   1.404  12.361  0.7334  0.4037 -0.1379
  459TMC3    C4 6833   4.644   1.209  12.453 -0.4469  0.0414 -0.3801
  459TMC3    C5 6834   0.041   1.225  12.509  0.3508  0.4188  0.4598
  459TMC3    C6 6835   0.126   1.320  12.470  0.0383 -0.6659 -1.1896
  459TMC3     C 6836   4.469   1.267  12.293 -0.4307  1.0925 -0.5044
  459TMC3     O 6837   4.414   1.169  12.345 -0.0018  0.4812  0.1779
  459TMC3     H 6838   4.673   1.440  12.208  0.3662  1.1918  0.8275
  459TMC3    H1 6839   4.570   1.151  12.508 -1.3809  4.1421  2.6815
  459TMC3    H2 6840   0.227   1.323  12.508 -1.1306  0.2349  1.9110
  459TMC3    C7 6841   0.060   1.156  12.625 -0.5904 -0.6209  0.7472
  459TMC3    C8 6842   0.207   1.472  12.300 -0.2903  0.6463 -0.0734
  459TMC3    O1 6843   4.715   1.057  12.642 -0.3193 -0.6840 -0.2194
  459TMC3    O2 6844   0.322   1.425  12.314  0.3581  0.1494 -0.1445
  460MPD2     C 6845   3.426   3.455  10.598  0.4561 -0.6940  0.0334
  460MPD2    C1 6846   3.333   3.376  10.645  0.4470  0.1965  0.1393
  460MPD2    C2 6847   3.224   3.342  10.569  0.6387  0.0804  0.1209
  460MPD2    C3 6848   3.225   3.381  10.436  0.5514  0.5267 -0.0029
  460MPD2    C4 6849   3.327   3.469  10.390  0.2895 -0.5114  0.3060
  460MPD2    C5 6850   3.426   3.508  10.472 -0.0088 -0.0390  0.0809
  460MPD2     H 6851   3.142   3.279  10.600  1.6868 -1.1438  0.4555
  460MPD2    H1 6852   3.333   3.515  10.292  0.4340 -0.9964  0.0869
  460MPD2    H2 6853   3.514   3.474  10.658  0.6958 -0.6718 -0.3258
  460MPD2    H3 6854   3.518   3.558  10.443  0.9705 -1.5187  0.6538
  460MPD2     N 6855   3.129   3.329  10.349 -0.4676 -0.2667 -0.0026
  460MPD2    H5 6856   3.060   3.261  10.380  0.5451 -0.3119  2.1278
  460MPD2    N1 6857   3.357   3.331  10.777 -0.3306  0.0513 -0.3853
  460MPD2    H7 6858   3.444   3.355  10.824  0.9120 -1.2635 -2.0197
  461TMC3    C1 6859   3.015   3.304  10.148 -0.4436  0.2404 -0.0007
  461TMC3    C2 6860   3.059   3.177  10.104 -0.1579  0.1482  0.5072
  461TMC3    C3 6861   3.039   3.138   9.976 -0.1358 -0.0717 -0.2380
  461TMC3    C4 6862   2.959   3.384  10.051  0.6708 -0.7045  0.3594
  461TMC3    C5 6863   2.943   3.348   9.921 -0.7568 -0.0451 -0.0647
  461TMC3    C6 6864   2.969   3.216   9.887  0.1131  0.4728 -0.2845
  461TMC3     C 6865   3.120   3.371  10.219  0.1920 -0.0733 -0.0049
  461TMC3     O 6866   3.184   3.447  10.146  0.2870 -0.1724 -0.1311
  461TMC3     H 6867   3.109   3.109  10.172  0.8417 -1.4541 -1.8006
  461TMC3    H1 6868   2.961   3.490  10.076 -0.7879 -0.4956 -0.4278
  461TMC3    H2 6869   2.949   3.185   9.785  1.8193 -1.6133  0.0202
  461TMC3    C7 6870   2.932   3.455   9.825  0.4279 -0.4108  0.4540
  461TMC3    C8 6871   3.068   3.001   9.929  0.0044 -0.4891 -0.1749
  461TMC3    O1 6872   2.900   3.568   9.859 -0.0466 -1.0496  0.2661
  461TMC3    O2 6873   3.064   2.908  10.007  0.1339 -0.1784 -0.5614
  462TMC3    C1 6874   3.744   0.190   0.478  0.3706 -0.3224  0.2025
  462TMC3    C2 6875   3.858   0.125   0.512 -0.1559 -0.1942  0.1574
  462TMC3    C3 6876   3.884   0.014   0.438  1.1520  0.6432  0.0986
  462TMC3    C4 6877   3.648   0.148   0.382 -0.2932 -0.5775 -0.2726
  462TMC3    C5 6878   3.686   0.036   0.313  0.9479 -0.7810 -0.5668
  462TMC3    C6 6879   3.807   4.698   0.326 -0.0626  0.1670 -0.3021
  462TMC3     C 6880   3.705   0.304   0.555  0.1925 -0.3940  0.4158
  462TMC3     O 6881   3.582   0.317   0.559  0.0587  0.1112  0.2118
  462TMC3     H 6882   3.907   0.145   0.607  0.0749 -0.7919  0.1652
  462TMC3    H1 6883   3.546   0.184   0.384 -0.8608 -2.2505  0.9504
  462TMC3    H2 6884   3.809   4.598   0.283 -1.8830 -0.3804  0.8485
  462TMC3    C7 6885   3.581   4.683   0.245  0.0807 -0.0906  0.2362
  462TMC3    C8 6886   3.969   4.637   0.501 -0.6229  0.2804 -0.2096
  462TMC3    O1 6887   3.601   4.565   0.251 -0.4935 -0.1734 -0.2040
  462TMC3    O2 6888   4.061   4.686   0.569 -0.0316  0.1516  0.1550
  463MPD2     C 6889   0.521   2.341   1.232 -0.5944  0.1944 -0.4522
  463MPD2    C1 6890   0.429   2.431   1.287 -0.8750 -0.5273 -0.1603
  463MPD2    C2 6891   0.485   2.534   1.359 -0.8041 -0.2230 -0.2102
  463MPD2    C3 6892   0.617   2.541   1.390  0.3843 -0.9567  0.3447
  463MPD2    C4 6893   0.708   2.453   1.326 -0.1811  0.9035  0.2187
  463MPD2    C5 6894   0.655   2.350   1.248  0.2122  0.5030  0.8997
  463MPD2     H 6895   0.412   2.592   1.414  1.2801  0.7026  1.5527
  463MPD2    H1 6896   0.814   2.469   1.338  0.0834 -0.1098 -0.6974
  463MPD2    H2 6897   0.494   2.268   1.157  2.4783 -0.4425 -0.9234
  463MPD2    H3 6898   0.722   2.287   1.191  0.3601  2.2597 -0.8749
  463MPD2     N 6899   0.676   2.640   1.471  0.4287 -0.3983  0.3382
  463MPD2    H5 6900   0.774   2.632   1.495  0.2084  1.1303  1.7670
  463MPD2    N1 6901   0.291   2.420   1.256 -0.9954  0.5038  0.7267
  463MPD2    H7 6902   0.234   2.496   1.290 -1.5502  0.4418 -0.0425
  464TMC3    C1 6903   0.085   2.339   1.173  0.4956 -0.3363  0.6141
  464TMC3    C2 6904   0.042   2.470   1.182 -0.3877 -0.0544 -0.4474
  464TMC3    C3 6905   4.631   2.494   1.208  0.0172  0.0361  1.4495
  464TMC3    C4 6906   4.718   2.233   1.172  0.1561  0.4552 -0.1482
  464TMC3    C5 6907   4.586   2.264   1.192 -0.4868  0.4421 -0.3428
  464TMC3    C6 6908   4.546   2.391   1.218  0.0031 -0.1306  0.6804
  464TMC3     C 6909   0.228   2.323   1.181  0.3685 -0.9265  0.0263
  464TMC3     O 6910   0.270   2.217   1.139 -0.2896  0.0841  0.0502
  464TMC3     H 6911   0.114   2.550   1.179  1.4633 -1.6144  2.3914
  464TMC3    H1 6912   0.023   2.129   1.165 -1.2720  0.1484 -1.4953
  464TMC3    H2 6913   4.438   2.406   1.220 -0.0114 -0.1061 -0.2005
  464TMC3    C7 6914   4.494   2.156   1.170 -0.1133  0.3028  0.2875
  464TMC3    C8 6915   4.586   2.623   1.261 -0.4830 -0.1115  0.0149
  464TMC3    O1 6916   4.537   2.047   1.132 -0.4659 -0.3458  0.0056
  464TMC3    O2 6917   4.636   2.720   1.208  0.2792 -0.2423 -0.1925
  465MPD2     C 6918   1.197   1.712  16.681  0.1181  0.2193  0.0537
  465MPD2    C1 6919   1.108   1.707  16.788 -0.6260 -0.2990  0.2383
  465MPD2    C2 6920   0.979   1.726  16.764  0.8502  1.1339  0.0006
  465MPD2    C3 6921   0.938   1.769  16.634  0.2273  0.4800 -0.3552
  465MPD2    C4 6922   1.024   1.782  16.533 -0.6403 -1.1177 -0.1617
  465MPD2    C5 6923   1.154   1.751  16.558  0.2915 -0.6121  0.7077
  465MPD2     H 6924   0.899   1.717  16.836  0.3601  0.0639 -0.6782
  465MPD2    H1 6925   1.000   1.816  16.433 -1.3790 -1.0163  0.0558
  465MPD2    H2 6926   1.303   1.702  16.703 -0.3769 -1.2864  1.7219
  465MPD2    H3 6927   1.229   1.754  16.480 -2.5306 -2.3370 -2.0261
  465MPD2     N 6928   0.803   1.811  16.621 -0.0632  0.5626 -1.1448
  465MPD2    H5 6929   0.751   1.817  16.708 -1.3950 -1.2949 -1.8117
  465MPD2    N1 6930   1.166   1.687  16.914  0.5165  0.4923 -0.0690
  465MPD2    H7 6931   1.268   1.686  16.921  0.5664  2.6996 -0.6331
  466TMC3    C1 6932   0.469   1.895  16.737 -0.0053 -0.8183 -0.1825
  466TMC3    C2 6933   0.403   2.008  16.676 -0.2754 -0.2732 -1.1503
  466TMC3    C3 6934   0.441   2.035  16.545  0.1373  0.3310  0.6481
  466TMC3    C4 6935   0.555   1.820  16.661 -0.9152 -0.1554 -0.0350
  466TMC3    C5 6936   0.598   1.867  16.544  0.1417  0.4775  0.0582
  466TMC3    C6 6937   0.534   1.966  16.478  0.4247 -0.2987 -0.5172
  466TMC3     C 6938   0.521   1.918  16.863  0.2605 -0.1859 -0.0735
  466TMC3     O 6939   0.643   1.905  16.872  0.2120  0.0066  0.1027
  466TMC3     H 6940   0.326   2.066  16.725  1.1088  0.3623  0.2264
  466TMC3    H1 6941   0.587   1.726  16.705 -1.0830  0.1937  0.8529
  466TMC3    H2 6942   0.569   1.998  16.381 -0.9028 -0.1183 -0.9335
  466TMC3    C7 6943   0.738   1.855  16.510  0.3142  0.7093  0.9201
  466TMC3    C8 6944   0.390   2.161  16.481 -0.0121  0.3500  0.8488
  466TMC3    O1 6945   0.777   1.917  16.414  0.0581 -0.3844 -0.2576
  466TMC3    O2 6946   0.386   2.155  16.359  0.7297 -0.3854 -0.6026
  467TMC3    C1 6947   1.982   0.508  13.695 -0.8394  0.1180  0.0645
  467TMC3    C2 6948   1.931   0.636  13.689 -0.1460  0.5656  0.5791
  467TMC3    C3 6949   1.798   0.639  13.703  0.2216 -0.4068 -0.6000
  467TMC3    C4 6950   1.911   0.393  13.705 -0.2323 -0.3818 -0.0270
  467TMC3    C5 6951   1.780   0.401  13.730  0.1475  0.9019 -0.1025
  467TMC3    C6 6952   1.720   0.522  13.725  0.2320 -0.6663 -0.0690
  467TMC3     C 6953   2.128   0.512  13.688 -0.1572  0.1018 -0.0501
  467TMC3     O 6954   2.186   0.617  13.717 -0.3140 -0.3850 -0.8817
  467TMC3     H 6955   1.991   0.727  13.684 -0.7543  0.8229 -1.9655
  467TMC3    H1 6956   1.940   0.288  13.700  1.7447  0.1603 -0.0592
  467TMC3    H2 6957   1.612   0.528  13.729  0.2344  0.0789 -1.2984
  467TMC3    C7 6958   1.734   0.300  13.823  0.0978  0.3997  0.6970
  467TMC3    C8 6959   1.736   0.769  13.677  0.6894 -0.6845 -0.6438
  467TMC3    O1 6960   1.811   0.287  13.912 -0.1037 -0.3728 -0.0792
  467TMC3    O2 6961   1.813   0.865  13.668 -0.4385 -0.0031 -0.1661
  468MPD2     C 6962   0.670   3.048  10.846  0.0620  0.0195  0.1312
  468MPD2    C1 6963   0.790   3.019  10.903  0.0768  0.1589 -0.6016
  468MPD2    C2 6964   0.854   2.910  10.860  0.4654 -0.2241  0.8238
  468MPD2    C3 6965   0.790   2.825  10.773  0.0328  0.2402  0.5096
  468MPD2    C4 6966   0.666   2.849  10.722  0.1896 -0.0198 -0.1600
  468MPD2    C5 6967   0.608   2.967  10.756 -0.7015  0.3990 -0.2206
  468MPD2     H 6968   0.944   2.887  10.914  0.4322 -4.0341 -0.7660
  468MPD2    H1 6969   0.611   2.783  10.657 -0.9400  0.3424  0.4197
  468MPD2    H2 6970   0.617   3.139  10.871  0.1791 -0.2883  1.5197
  468MPD2    H3 6971   0.514   3.002  10.715 -0.9182 -0.0783 -0.1247
  468MPD2     N 6972   0.847   2.698  10.727 -0.2247 -0.2307 -0.2497
  468MPD2    H5 6973   0.789   2.628  10.683 -1.7388  0.0177  1.3636
  468MPD2    N1 6974   0.848   3.103  11.006 -0.4799  0.0120 -0.1078
  468MPD2    H7 6975   0.947   3.089  11.024 -0.6724 -0.4761  0.5605
  469TMC3    C1 6976   0.854   3.277  11.169  0.2875  0.2128 -0.1092
  469TMC3    C2 6977   0.959   3.227  11.245 -0.4500  0.6909 -0.4584
  469TMC3    C3 6978   0.998   3.309  11.342 -0.4743  0.0425  0.9397
  469TMC3    C4 6979   0.796   3.408  11.191  0.1279 -0.4865 -0.0561
  469TMC3    C5 6980   0.841   3.485  11.292 -0.0945 -0.5790 -0.0494
  469TMC3    C6 6981   0.952   3.437  11.355  0.4725  0.4861  0.1165
  469TMC3     C 6982   0.776   3.195  11.080 -0.1744  0.1233 -0.3350
  469TMC3     O 6983   0.657   3.227  11.078  0.1213 -0.4080  0.0409
  469TMC3     H 6984   1.012   3.134  11.233  1.3960  1.8005 -0.8918
  469TMC3    H1 6985   0.713   3.443  11.132 -0.1103  0.5948  0.9200
  469TMC3    H2 6986   1.016   3.516  11.394 -0.7662  1.4498  0.1768
  469TMC3    C7 6987   0.851   3.623  11.250  0.3714 -0.0498 -0.5270
  469TMC3    C8 6988   1.092   3.258  11.433 -0.4522 -0.2621  0.5771
  469TMC3    O1 6989   0.960   3.665  11.205  0.2112  0.6152  0.0166
  469TMC3    O2 6990   1.163   3.170  11.391 -0.2814  0.0422 -0.0221
  470TMC3    C1 6991   3.406   4.268   0.348  0.7663 -0.1055  0.6437
  470TMC3    C2 6992   3.457   4.358   0.439  0.0516  0.2636 -0.5758
  470TMC3    C3 6993   3.577   4.335   0.495  0.6182  0.3562  0.4220
  470TMC3    C4 6994   3.469   4.154   0.329  0.2790  0.1145  0.4341
  470TMC3    C5 6995   3.580   4.122   0.406 -0.2935  0.0962  0.6489
  470TMC3    C6 6996   3.641   4.213   0.480  0.5602 -0.1256  1.0663
  470TMC3     C 6997   3.281   4.292   0.279  0.3312 -0.1099  0.8363
  470TMC3     O 6998   3.292   4.340   0.168  0.0462 -0.4244  0.2917
  470TMC3     H 6999   3.413   4.456   0.455  1.6219  1.0267 -0.9261
  470TMC3    H1 7000   3.427   4.092   0.251 -1.7873  2.0188  0.0035
  470TMC3    H2 7001   3.745   4.196   0.506  0.9098 -0.4039 -0.5210
  470TMC3    C7 7002   3.661   4.022   0.350 -0.5265 -0.6831 -0.3156
  470TMC3    C8 7003   3.622   4.438   0.584  0.2499  0.3238 -0.4949
  470TMC3    O1 7004   3.701   4.043   0.237  0.1852  0.2382 -0.0744
  470TMC3    O2 7005   3.631   4.549   0.534 -0.1834  0.5975  0.1207
  471MPD2     C 7006   3.577   1.353  16.703 -0.0651  0.6987 -0.9501
  471MPD2    C1 7007   3.646   1.236  16.673 -0.4535 -0.0697  0.1758
  471MPD2    C2 7008   3.731   1.180  16.768  0.1077  0.2843 -0.2498
  471MPD2    C3 7009   3.743   1.232  16.895 -0.1178  0.0896 -0.1939
  471MPD2    C4 7010   3.662   1.341  16.929  0.1801 -0.6210 -0.0856
  471MPD2    C5 7011   3.597   1.401  16.825  0.0304 -0.2030  0.0754
  471MPD2     H 7012   3.784   1.089  16.744 -0.7377 -0.3017  0.1093
  471MPD2    H1 7013   3.665   1.386  17.028 -2.1665  1.0577 -0.7836
  471MPD2    H2 7014   3.530   1.417  16.629 -1.0255  0.4140 -0.5907
  471MPD2    H3 7015   3.547   1.496  16.845 -0.0306 -0.3646  0.7063
  471MPD2     N 7016   3.807   1.162  16.999 -0.2247 -0.1934  0.6075
  471MPD2    H5 7017   3.780   1.191  17.092  1.8751  1.5982  0.6547
  471MPD2    N1 7018   3.629   1.164  16.551  0.0325 -0.5376 -0.6170
  471MPD2    H7 7019   3.690   1.083  16.544 -0.9681 -1.3639  0.3397
  472TMC3    C1 7020   3.565   1.119  16.335  0.2759 -0.6272 -0.3471
  472TMC3    C2 7021   3.479   1.145  16.231  0.1600  0.2044 -0.3213
  472TMC3    C3 7022   3.479   1.063  16.128 -0.1851  0.6331 -0.0773
  472TMC3    C4 7023   3.634   1.001  16.352  0.3066 -0.4788 -0.0785
  472TMC3    C5 7024   3.625   0.918  16.245  0.0299 -0.2780  0.1977
  472TMC3    C6 7025   3.555   0.951  16.132 -0.3854  1.1248  0.2606
  472TMC3     C 7026   3.541   1.201  16.448 -0.2424  0.3237 -0.2744
  472TMC3     O 7027   3.454   1.285  16.442  0.2267 -0.0346  0.6157
  472TMC3     H 7028   3.420   1.236  16.228 -1.7758 -1.0269  0.5991
  472TMC3    H1 7029   3.685   0.965  16.440 -0.8518 -2.2096 -0.1002
  472TMC3    H2 7030   3.576   0.899  16.040 -0.2288  1.6095  0.0188
  472TMC3    C7 7031   3.616   0.779  16.276  0.9298  0.0602 -0.3164
  472TMC3    C8 7032   3.373   1.069  16.037  0.3690  0.0357  0.0004
  472TMC3    O1 7033   3.633   0.750  16.393  0.3688  0.1683 -0.4657
  472TMC3    O2 7034   3.333   1.179  15.997  0.8650  0.3457  0.9008
  473MPD2     C 7035   3.442   2.539  13.925 -0.6404 -0.2852  0.0007
  473MPD2    C1 7036   3.415   2.646  13.837 -0.7145 -0.0402 -0.4793
  473MPD2    C2 7037   3.471   2.776  13.862 -0.6656 -0.2120 -0.4637
  473MPD2    C3 7038   3.568   2.786  13.963  0.3369 -0.1167 -0.1412
  473MPD2    C4 7039   3.585   2.684  14.051 -0.9253 -0.0217  0.1099
  473MPD2    C5 7040   3.520   2.563  14.039 -0.7317  0.0118  0.0420
  473MPD2     H 7041   3.459   2.851  13.785 -1.9514 -0.6146 -0.6554
  473MPD2    H1 7042   3.655   2.696  14.133  0.3638  1.7539 -1.2435
  473MPD2    H2 7043   3.405   2.437  13.920 -0.0348 -0.5014 -0.0113
  473MPD2    H3 7044   3.545   2.482  14.106 -3.9725 -0.8609  0.1885
  473MPD2     N 7045   3.635   2.906  13.991 -0.3765 -0.3094 -0.0243
  473MPD2    H5 7046   3.709   2.902  14.059 -0.4904  2.0660  0.2437
  473MPD2    N1 7047   3.338   2.634  13.722 -0.3551  0.1557 -0.7205
  473MPD2    H7 7048   3.329   2.718  13.665 -0.9064 -0.3279 -1.3512
  474TMC3    C1 7049   3.701   3.132  13.992  0.1808 -0.0353 -0.1734
  474TMC3    C2 7050   3.748   3.232  13.921 -0.2270  0.2606 -0.9087
  474TMC3    C3 7051   3.818   3.337  13.979 -0.4013 -0.3817  0.6123
  474TMC3    C4 7052   3.727   3.127  14.125  0.0815 -0.1534  0.2690
  474TMC3    C5 7053   3.787   3.241  14.183  0.1986 -1.0644  0.2942
  474TMC3    C6 7054   3.845   3.341  14.107  0.6777 -0.2383 -0.1061
  474TMC3     C 7055   3.628   3.028  13.925 -0.8774  0.3165  0.0481
  474TMC3     O 7056   3.579   3.055  13.814  0.3411  0.4871  0.4940
  474TMC3     H 7057   3.727   3.242  13.815 -2.5870 -0.4374 -0.5076
  474TMC3    H1 7058   3.675   3.058  14.190  0.4204  0.3553  1.0790
  474TMC3    H2 7059   3.905   3.417  14.154  0.9826 -1.0373  0.8077
  474TMC3    C7 7060   3.836   3.217  14.317 -0.4306 -0.0981  0.2150
  474TMC3    C8 7061   3.826   3.461  13.911 -0.3001 -0.6387 -0.2046
  474TMC3    O1 7062   3.861   3.098  14.343  0.3795  0.4268  0.1173
  474TMC3    O2 7063   3.827   3.453  13.789  0.1967  0.1341  0.2989
  475MPD2     C 7064   1.697   0.949  10.760 -0.0192  0.1442  0.3085
  475MPD2    C1 7065   1.667   0.922  10.631  0.4075  0.4795 -0.8541
  475MPD2    C2 7066   1.548   0.965  10.579  0.1401  0.3632  0.1245
  475MPD2    C3 7067   1.448   1.019  10.654 -0.3027  0.2172  0.1909
  475MPD2    C4 7068   1.479   1.054  10.787 -0.1822 -0.9859  0.0634
  475MPD2    C5 7069   1.603   1.015  10.837 -0.4912 -0.3741  0.5741
  475MPD2     H 7070   1.521   0.935  10.478 -2.0246  2.9938 -0.0765
  475MPD2    H1 7071   1.412   1.113  10.849 -0.5895 -2.4987  1.0424
  475MPD2    H2 7072   1.797   0.928  10.795  0.1045  0.0596 -0.0990
  475MPD2    H3 7073   1.622   1.041  10.941 -1.2580 -0.4611  0.7395
  475MPD2     N 7074   1.318   1.038  10.595  0.1501 -0.1799 -0.7750
  475MPD2    H5 7075   1.303   1.022  10.496 -1.7950  2.5702 -0.9227
  475MPD2    N1 7076   1.766   0.857  10.563 -0.4708 -0.0613  0.0980
  475MPD2    H7 7077   1.855   0.844  10.611 -0.4376 -1.5297 -0.3534
  476TMC3    C1 7078   1.866   0.758  10.364  0.6020 -0.0209 -0.5459
  476TMC3    C2 7079   1.839   0.695  10.241  0.4623  0.5119 -0.5086
  476TMC3    C3 7080   1.939   0.689  10.152  0.0958 -0.6344  0.4517
  476TMC3    C4 7081   1.990   0.802  10.401  0.5628 -0.1374 -0.2672
  476TMC3    C5 7082   2.092   0.778  10.315 -0.4766  0.8059  0.1907
  476TMC3    C6 7083   2.067   0.722  10.189 -0.4565 -0.3491 -0.2606
  476TMC3     C 7084   1.750   0.793  10.440  0.5653  0.1853 -0.1210
  476TMC3     O 7085   1.640   0.759  10.394  0.4590 -0.0331  0.1322
  476TMC3     H 7086   1.739   0.662  10.216  1.1998 -0.8078 -1.6879
  476TMC3    H1 7087   1.996   0.862  10.492 -1.9313 -0.8277  0.3349
  476TMC3    H2 7088   2.156   0.718  10.126  1.3650  2.0410  2.1589
  476TMC3    C7 7089   2.224   0.832  10.343  0.0509 -0.0641  0.7171
  476TMC3    C8 7090   1.904   0.672  10.011  0.2578 -0.9295  0.1609
  476TMC3    O1 7091   2.302   0.831  10.252 -0.1786 -0.1198  0.5591
  476TMC3    O2 7092   1.974   0.730   9.925 -0.7390 -0.4047 -0.1193
  477MPD2     C 7093   4.139   2.423  11.502  0.2706 -0.6146  0.7919
  477MPD2    C1 7094   4.046   2.356  11.582 -0.9096  0.4411 -0.6324
  477MPD2    C2 7095   4.097   2.268  11.678 -0.2405  0.5356 -0.8553
  477MPD2    C3 7096   4.231   2.231  11.687 -0.4105  0.8181 -0.1208
  477MPD2    C4 7097   4.317   2.294  11.598 -0.1913 -0.2605  0.1843
  477MPD2    C5 7098   4.274   2.396  11.522 -0.0579 -0.6045  0.4001
  477MPD2     H 7099   4.026   2.225  11.748  1.0328 -1.0902 -0.5501
  477MPD2    H1 7100   4.424   2.281  11.586  0.2004  2.1007  1.0175
  477MPD2    H2 7101   4.105   2.496  11.429  1.3027 -1.9581 -1.0313
  477MPD2    H3 7102   4.341   2.447  11.454 -0.6491 -0.3360  0.0094
  477MPD2     N 7103   4.283   2.148  11.789  0.0561 -0.4437  0.4619
  477MPD2    H5 7104   4.216   2.105  11.853 -1.1163  1.3966  0.4630
  477MPD2    N1 7105   3.914   2.389  11.567 -0.4111  0.0596  0.3011
  477MPD2    H7 7106   3.894   2.455  11.492 -2.6325  0.1081  0.9453
  478TMC3    C1 7107   3.681   2.387  11.598 -0.8404  0.7877 -0.1150
  478TMC3    C2 7108   3.578   2.414  11.686 -0.2505 -0.9950  0.1234
  478TMC3    C3 7109   3.468   2.484  11.642  0.6284  0.4865  0.2342
  478TMC3    C4 7110   3.668   2.409  11.461  0.5443 -0.0913  0.1220
  478TMC3    C5 7111   3.564   2.488  11.429  0.2306 -0.4727  0.2495
  478TMC3    C6 7112   3.465   2.528  11.511  0.2619 -0.1405  0.2467
  478TMC3     C 7113   3.810   2.348  11.649 -0.1282 -0.2692  0.0533
  478TMC3     O 7114   3.811   2.302  11.763  0.4509  0.2119 -0.3544
  478TMC3     H 7115   3.588   2.399  11.793  1.0835  1.0771  0.2958
  478TMC3    H1 7116   3.742   2.369  11.392  0.2995 -2.2310  1.0832
  478TMC3    H2 7117   3.390   2.600  11.481 -0.4595 -0.9160  0.1987
  478TMC3    C7 7118   3.581   2.544  11.300  0.1043 -0.0662  0.4750
  478TMC3    C8 7119   3.377   2.537  11.744  0.2759 -0.3257 -0.1405
  478TMC3    O1 7120   3.699   2.565  11.268 -0.0050  0.3255 -0.6158
  478TMC3    O2 7121   3.360   2.471  11.844  0.0286  0.4768  0.1680
  479MPD2     C 7122   3.086   0.224  15.004 -0.5358  1.1075  0.0520
  479MPD2    C1 7123   3.063   0.210  15.138 -0.4336  0.1745 -0.6129
  479MPD2    C2 7124   3.165   0.243  15.221 -0.5754  0.4919 -0.6984
  479MPD2    C3 7125   3.284   0.298  15.174  1.0261 -0.7278 -0.3604
  479MPD2    C4 7126   3.300   0.318  15.038  0.3397  0.0128  0.0736
  479MPD2    C5 7127   3.200   0.272  14.959 -0.3378 -0.2210  0.1380
  479MPD2     H 7128   3.154   0.225  15.328 -1.4568  3.1287 -0.3352
  479MPD2    H1 7129   3.392   0.357  14.997  0.1219  0.0315 -0.3984
  479MPD2    H2 7130   3.006   0.202  14.933  0.0792 -1.0021  0.0202
  479MPD2    H3 7131   3.224   0.299  14.856 -0.1461 -0.4154  0.1314
  479MPD2     N 7132   3.393   0.339  15.259  0.0112 -0.3315 -0.6089
  479MPD2    H5 7133   3.479   0.370  15.215  0.1405 -0.4056 -0.4082
  479MPD2    N1 7134   2.934   0.162  15.184 -0.5454 -0.0007 -0.1722
  479MPD2    H7 7135   2.879   0.131  15.104 -1.5597 -0.0204  0.5392
  480TMC3    C1 7136   3.137   0.433  15.653  0.4198 -0.1740  0.2820
  480TMC3    C2 7137   3.039   0.491  15.577  0.8230 -0.7142  0.3568
  480TMC3    C3 7138   3.068   0.525  15.448  0.5676  0.9564 -0.1316
  480TMC3    C4 7139   3.266   0.407  15.602 -0.1439  0.2956 -0.4183
  480TMC3    C5 7140   3.277   0.428  15.467 -0.2209 -0.0999 -0.5177
  480TMC3    C6 7141   3.188   0.495  15.392  0.8633 -0.7422 -0.2964
  480TMC3     C 7142   3.103   0.326  15.736  0.6157 -0.6353 -0.1364
  480TMC3     O 7143   3.186   0.281  15.812 -0.3742 -0.4012  0.3308
  480TMC3     H 7144   2.944   0.518  15.623  0.6370 -0.3239 -0.2650
  480TMC3    H1 7145   3.349   0.366  15.658 -1.6955 -0.6685  1.1806
  480TMC3    H2 7146   3.217   0.527  15.293  1.3004 -2.4754 -0.7107
  480TMC3    C7 7147   3.395   0.371  15.393  0.2590 -0.6261 -0.5791
  480TMC3    C8 7148   2.952   0.514  15.358 -0.0115  0.2980  0.1132
  480TMC3    O1 7149   3.502   0.381  15.452 -0.0995  0.4659  0.0048
  480TMC3    O2 7150   2.848   0.473  15.407  0.1438  0.0455  0.7963
  481MPD2     C 7151   0.142   4.273  14.283  0.6031  0.3387  0.7320
  481MPD2    C1 7152   0.015   4.249  14.339  0.7213  0.2353 -0.2793
  481MPD2    C2 7153   4.721   4.195  14.466  0.5696 -0.3503 -0.3642
  481MPD2    C3 7154   0.114   4.167  14.535 -0.6713 -0.3669  0.2496
  481MPD2    C4 7155   0.234   4.171  14.474 -0.6666  0.1307  0.3863
  481MPD2    C5 7156   0.253   4.225  14.350 -0.1065  0.0371  0.4781
  481MPD2     H 7157   4.624   4.179  14.512  1.3860 -3.6749  0.1566
  481MPD2    H1 7158   0.318   4.121  14.522 -2.7018 -2.1597  1.5304
  481MPD2    H2 7159   0.152   4.314  14.183 -0.9315 -0.7942  0.1039
  481MPD2    H3 7160   0.351   4.234  14.305 -1.0157  0.1217 -1.5037
  481MPD2     N 7161   0.117   4.135  14.678 -0.3625  0.4445  0.2202
  481MPD2    H5 7162   0.204   4.103  14.720 -1.4559  0.1256  2.2541
  481MPD2    N1 7163   4.622   4.277  14.263 -0.1653  0.3396  0.2272
  481MPD2    H7 7164   4.617   4.341  14.184  0.7366 -2.2946 -1.9673
  482TMC3    C1 7165   4.395   4.267  14.210 -0.6656  0.4065  0.0445
  482TMC3    C2 7166   4.307   4.183  14.142 -0.2629 -0.2597 -0.3932
  482TMC3    C3 7167   4.233   4.227  14.032  0.0528  0.1421 -0.0736
  482TMC3    C4 7168   4.413   4.398  14.160 -0.1860 -0.0205  0.1726
  482TMC3    C5 7169   4.354   4.424  14.042 -0.4947 -0.1007  0.2286
  482TMC3    C6 7170   4.269   4.344  13.980  0.5994  0.2855 -1.0610
  482TMC3     C 7171   4.509   4.201  14.263 -0.8678  0.0598 -0.4534
  482TMC3     O 7172   4.500   4.090  14.304  0.0293  0.8936  0.2003
  482TMC3     H 7173   4.292   4.082  14.179  0.1227 -0.4276 -0.7060
  482TMC3    H1 7174   4.470   4.476  14.210 -0.5828  0.5671 -0.2942
  482TMC3    H2 7175   4.229   4.375  13.884 -2.6294 -0.3570  0.0564
  482TMC3    C7 7176   4.379   4.558  13.987 -0.2824  0.6316 -0.2539
  482TMC3    C8 7177   4.151   4.130  13.956 -0.2683  0.2574 -0.0276
  482TMC3    O1 7178   4.420   4.649  14.059 -0.3952  0.3180  0.1446
  482TMC3    O2 7179   4.154   4.014  13.995  0.0056  0.9069  0.3783
  483TMC3    C1 7180   2.654   3.481   0.660 -0.6946 -0.0467 -0.2595
  483TMC3    C2 7181   2.727   3.551   0.565 -0.5491  0.2248 -0.1617
  483TMC3    C3 7182   2.855   3.598   0.597  0.2839 -0.1326  0.2735
  483TMC3    C4 7183   2.702   3.463   0.783 -0.1418  0.1486 -0.0042
  483TMC3    C5 7184   2.832   3.503   0.816 -0.1344  0.3688  0.2241
  483TMC3    C6 7185   2.907   3.571   0.723  0.2854 -0.4405 -0.6245
  483TMC3     C 7186   2.571   3.365   0.614  0.1183 -0.3645 -0.0919
  483TMC3     O 7187   2.597   3.261   0.673 -0.1664 -0.0171  0.1790
  483TMC3     H 7188   2.694   3.543   0.461  2.4347 -0.7062 -1.0328
  483TMC3    H1 7189   2.650   3.401   0.856 -0.1718 -0.6375 -0.6947
  483TMC3    H2 7190   3.006   3.598   0.757 -0.2954 -0.5427  1.1510
  483TMC3    C7 7191   2.909   3.428   0.917 -0.2226  0.5338 -0.2846
  483TMC3    C8 7192   2.939   3.640   0.490 -0.4383  0.8732  0.7097
  483TMC3    O1 7193   3.025   3.413   0.879  0.2547 -0.1338 -0.1350
  483TMC3    O2 7194   2.874   3.662   0.387 -0.3838 -0.5344 -0.0249
  484MPD2     C 7195   0.169   1.749  12.059  0.3309  0.8498 -0.0547
  484MPD2    C1 7196   0.235   1.648  12.129 -0.4226 -0.5552  0.8925
  484MPD2    C2 7197   0.373   1.625  12.114  0.4718 -0.3539 -0.2828
  484MPD2    C3 7198   0.444   1.712  12.029 -0.1279  0.9330 -0.0764
  484MPD2    C4 7199   0.373   1.815  11.964  0.5669 -0.7306  0.3763
  484MPD2    C5 7200   0.239   1.828  11.983  0.3385 -0.1182 -0.2605
  484MPD2     H 7201   0.428   1.558  12.179  2.0591  0.4412 -0.8193
  484MPD2    H1 7202   0.424   1.884  11.898  3.7780 -4.0687 -0.6356
  484MPD2    H2 7203   0.064   1.752  12.084  0.0157  0.1498 -1.3071
  484MPD2    H3 7204   0.186   1.907  11.930  0.5702 -0.5548 -1.1566
  484MPD2     N 7205   0.586   1.701  12.015  0.0305  0.1343  0.0615
  484MPD2    H5 7206   0.629   1.771  11.955  2.5168 -2.5657 -1.3200
  484MPD2    N1 7207   0.166   1.583  12.227 -0.5293 -0.4800 -0.2361
  484MPD2    H7 7208   0.067   1.604  12.236 -0.1658  1.5116 -1.0725
  485TMC3    C1 7209   0.810   1.626  12.045 -0.5739  0.2116 -1.3907
  485TMC3    C2 7210   0.902   1.617  12.141  0.1010  0.4875  0.3060
  485TMC3    C3 7211   1.026   1.670  12.108 -0.0548  0.5472 -0.4339
  485TMC3    C4 7212   0.836   1.679  11.917 -0.1337  0.7593  0.3506
  485TMC3    C5 7213   0.958   1.721  11.889 -0.3758  0.4996  0.3748
  485TMC3    C6 7214   1.050   1.720  11.983  0.3220  0.1497  0.3313
  485TMC3     C 7215   0.670   1.619  12.088  0.3043  0.2841  0.5685
  485TMC3     O 7216   0.646   1.562  12.196 -0.3634 -0.0016  0.1062
  485TMC3     H 7217   0.872   1.579  12.238 -0.3257 -1.7643 -0.7102
  485TMC3    H1 7218   0.770   1.675  11.832 -0.1110  0.5886  0.3397
  485TMC3    H2 7219   1.151   1.747  11.955  1.3500 -2.2837  1.6780
  485TMC3    C7 7220   1.006   1.724  11.747 -0.6901  0.3080 -0.5016
  485TMC3    C8 7221   1.134   1.585  12.148  0.4494  0.3425 -0.5699
  485TMC3    O1 7222   1.045   1.831  11.700  0.2360 -0.3686 -0.0755
  485TMC3    O2 7223   1.227   1.574  12.072  0.3326  0.0896 -0.6032
  486MPD2     C 7224   2.940   0.134  12.751 -0.0290 -0.8119  0.6378
  486MPD2    C1 7225   2.822   0.105  12.678  0.3947 -0.3720  0.0290
  486MPD2    C2 7226   2.718   0.198  12.664 -0.7415 -0.2232  0.5357
  486MPD2    C3 7227   2.727   0.319  12.726  0.2196 -0.1218 -0.3848
  486MPD2    C4 7228   2.846   0.349  12.802  0.4803  0.5425  0.7534
  486MPD2    C5 7229   2.952   0.262  12.802  0.2547 -0.2962  0.0126
  486MPD2     H 7230   2.620   0.169  12.628 -0.9693 -3.0303  3.4725
  486MPD2    H1 7231   2.865   0.448  12.841 -1.8316  0.5802  1.8014
  486MPD2    H2 7232   3.017   0.059  12.767 -0.6432 -1.4647  0.5157
  486MPD2    H3 7233   3.038   0.295  12.859 -1.3141 -0.6531  2.6401
  486MPD2     N 7234   2.622   0.418  12.721  0.6984  0.2701  0.5978
  486MPD2    H5 7235   2.553   0.400  12.649  0.3606 -0.4430  1.1039
  486MPD2    N1 7236   2.823   4.694  12.641 -0.3614 -1.1674 -0.4600
  486MPD2    H7 7237   2.913   4.652  12.663  0.1234  0.4641  0.6688
  487TMC3    C1 7238   2.741   4.475  12.595 -0.3296  1.1173 -0.3229
  487TMC3    C2 7239   2.633   4.400  12.553 -0.6609 -0.8308  0.2923
  487TMC3    C3 7240   2.638   4.266  12.573 -0.1429  0.0271  0.3767
  487TMC3    C4 7241   2.837   4.425  12.678 -0.4499 -0.1907 -0.0392
  487TMC3    C5 7242   2.833   4.291  12.705 -0.2338  0.2630  0.0280
  487TMC3    C6 7243   2.747   4.209  12.641  0.5795  0.8796 -0.0621
  487TMC3     C 7244   2.715   4.620  12.597  0.5152 -0.6839 -0.2076
  487TMC3     O 7245   2.629   4.661  12.522 -0.1430  0.0468  0.0302
  487TMC3     H 7246   2.554   4.450  12.499  0.0627 -1.6144 -1.4876
  487TMC3    H1 7247   2.906   4.488  12.733  0.7560 -0.1591 -1.5952
  487TMC3    H2 7248   2.739   4.107  12.677 -4.6043  1.4462  0.4080
  487TMC3    C7 7249   2.850   4.268  12.853  0.0788 -0.2170  0.2440
  487TMC3    C8 7250   2.514   4.204  12.603 -0.8415  0.0903 -0.5752
  487TMC3    O1 7251   2.862   4.375  12.915  0.1639  0.0707 -0.7470
  487TMC3    O2 7252   2.420   4.278  12.608 -0.7359  0.2674 -0.1947
  488MPD2     C 7253   2.658   1.927  16.607 -0.3520 -0.6125  0.5435
  488MPD2    C1 7254   2.655   2.041  16.682 -0.0449 -0.2202  0.1391
  488MPD2    C2 7255   2.631   2.034  16.816  0.8740 -0.3613 -0.3705
  488MPD2    C3 7256   2.605   1.916  16.877  0.4361 -0.2834 -0.3955
  488MPD2    C4 7257   2.587   1.800  16.798 -0.1371  0.5617 -0.0656
  488MPD2    C5 7258   2.623   1.809  16.666 -0.5778 -0.6572  0.6172
  488MPD2     H 7259   2.629   2.124  16.877 -0.4535 -0.2891 -0.5115
  488MPD2    H1 7260   2.552   1.702  16.828  1.4470 -0.3156 -1.0812
  488MPD2    H2 7261   2.674   1.925  16.499  1.4518  0.0909  0.7971
  488MPD2    H3 7262   2.614   1.719  16.605  1.0406  0.3276 -1.0888
  488MPD2     N 7263   2.583   1.912  17.017  0.3328 -0.0115 -0.5576
  488MPD2    H5 7264   2.585   2.003  17.062  0.3824 -0.3161  0.0636
  488MPD2    N1 7265   2.690   2.163  16.622  0.1394 -0.2916  0.0523
  488MPD2    H7 7266   2.699   2.241  16.687  0.1748 -1.4404  1.4093
  489TMC3    C1 7267   2.546   1.848  17.236  0.4510  0.0728  0.2973
  489TMC3    C2 7268   2.621   1.958  17.269 -0.2849  0.4404 -0.1482
  489TMC3    C3 7269   2.589   2.011  17.390 -0.2537 -0.0741 -0.8705
  489TMC3    C4 7270   2.461   1.788  17.317 -0.3967  0.5928 -0.2037
  489TMC3    C5 7271   2.432   1.837  17.438 -0.1747  0.2439  0.3277
  489TMC3    C6 7272   2.497   1.951  17.479  0.7428  0.1588  0.1714
  489TMC3     C 7273   2.540   1.809  17.093  0.1600  0.0123  0.5456
  489TMC3     O 7274   2.536   1.687  17.074  0.1920 -0.3281 -0.1518
  489TMC3     H 7275   2.701   2.006  17.213  0.4514 -0.0811  0.4501
  489TMC3    H1 7276   2.422   1.694  17.280  1.9554  0.1606 -1.5774
  489TMC3    H2 7277   2.502   1.975  17.585  0.6225  0.8206  0.0283
  489TMC3    C7 7278   2.383   1.751  17.536 -0.3384 -0.6828  0.3479
  489TMC3    C8 7279   2.620   2.152  17.398 -0.0772  0.2370  1.0743
  489TMC3    O1 7280   2.337   1.797  17.640  0.5657  0.3687 -0.1951
  489TMC3    O2 7281   2.715   2.184  17.328  0.3132 -0.3395  0.5950
  490MPD2     C 7282   3.253   2.119   0.275 -0.1047  0.4142  0.2123
  490MPD2    C1 7283   3.315   2.011   0.208  0.2084  0.6496  0.2983
  490MPD2    C2 7284   3.450   2.010   0.205 -0.1421 -0.0538  0.3809
  490MPD2    C3 7285   3.517   2.108   0.280  0.1810  0.5471 -0.5950
  490MPD2    C4 7286   3.458   2.203   0.355  0.2055 -0.3693  0.1614
  490MPD2    C5 7287   3.321   2.209   0.347  0.2102 -0.5307 -0.8064
  490MPD2     H 7288   3.505   1.944   0.139 -1.2375 -0.7855  0.1970
  490MPD2    H1 7289   3.516   2.280   0.405 -1.1438  0.0860  1.0181
  490MPD2    H2 7290   3.145   2.121   0.274 -0.1365 -0.5114  1.6145
  490MPD2    H3 7291   3.274   2.300   0.382 -0.0582 -1.9419  2.5186
  490MPD2     N 7292   3.660   2.099   0.292  0.2472  0.1348  0.8084
  490MPD2    H5 7293   3.709   2.167   0.350  0.6737 -0.6834  1.4170
  490MPD2    N1 7294   3.235   1.911   0.157  0.1259 -0.6117 -0.3438
  490MPD2    H7 7295   3.281   1.845   0.095 -1.0011 -1.1779 -0.5818
  491TMC3    C1 7296   3.084   1.745   0.151 -0.4063  0.8337 -0.3605
  491TMC3    C2 7297   3.032   1.662   0.244 -0.3202 -0.3483  0.8143
  491TMC3    C3 7298   3.028   1.526   0.213 -0.5481  0.0252 -0.2998
  491TMC3    C4 7299   3.139   1.705   0.034  0.3911  0.1697  0.1511
  491TMC3    C5 7300   3.134   1.566   0.011  0.2295  0.0783  0.4478
  491TMC3    C6 7301   3.074   1.476   0.096 -0.1488  0.6180  0.1500
  491TMC3     C 7302   3.116   1.873   0.209  0.2166 -0.6337  0.6643
  491TMC3     O 7303   3.053   1.913   0.305 -0.1036  0.4743  0.2472
  491TMC3     H 7304   2.995   1.686   0.344  0.0718 -1.2605  1.1836
  491TMC3    H1 7305   3.173   1.781  17.659  0.7967  0.0403  0.2069
  491TMC3    H2 7306   3.070   1.371   0.071  0.3461  0.9658 -1.4135
  491TMC3    C7 7307   3.192   1.507  17.583  0.3486 -0.3458 -0.0831
  491TMC3    C8 7308   2.989   1.435   0.321 -0.2771 -0.0827 -0.1225
  491TMC3    O1 7309   3.198   1.384  17.573 -0.1248  0.0774 -0.1641
  491TMC3    O2 7310   2.911   1.487   0.403  0.4668 -0.2801 -0.5664
  492MPD2     C 7311   4.170   1.395  11.247  0.1367 -0.8702 -0.0139
  492MPD2    C1 7312   4.124   1.287  11.175  0.1867 -0.0405  0.0754
  492MPD2    C2 7313   4.036   1.204  11.240 -0.0428 -0.1832  0.0034
  492MPD2    C3 7314   3.988   1.234  11.368 -0.6753 -0.1448  0.4944
  492MPD2    C4 7315   4.035   1.346  11.434  0.1720  0.1463 -0.4680
  492MPD2    C5 7316   4.132   1.426  11.371 -0.5270 -0.3713  0.5638
  492MPD2     H 7317   3.990   1.121  11.187  1.1599 -1.8835  1.6490
  492MPD2    H1 7318   4.001   1.384  11.529 -0.9247  0.9545 -1.1956
  492MPD2    H2 7319   4.228   1.466  11.190 -0.2818 -0.7801 -0.3316
  492MPD2    H3 7320   4.169   1.521  11.408 -0.5527 -0.5459  1.0430
  492MPD2     N 7321   3.879   1.162  11.432 -0.3981 -0.4189 -0.0220
  492MPD2    H5 7322   3.844   1.215  11.511 -0.7020 -0.1172 -0.3590
  492MPD2    N1 7323   4.136   1.285  11.035  0.1570  0.7310  0.5794
  492MPD2    H7 7324   4.196   1.356  10.994 -0.3593  1.9706  2.0056
  493TMC3    C1 7325   4.114   1.223  10.806 -0.2725 -1.0694  0.3547
  493TMC3    C2 7326   4.115   1.359  10.782  0.6267 -1.1135  0.3384
  493TMC3    C3 7327   4.044   1.410  10.674 -0.3950 -0.6972 -0.0286
  493TMC3    C4 7328   4.052   1.139  10.716  0.1804  0.0303  0.7240
  493TMC3    C5 7329   3.986   1.192  10.610  0.2029  0.3911 -0.0273
  493TMC3    C6 7330   3.973   1.328  10.589  0.7594  0.0444 -0.0636
  493TMC3     C 7331   4.102   1.178  10.947  0.6951  0.3763  0.1233
  493TMC3     O 7332   4.046   1.071  10.963  0.5572 -0.2674  0.1113
  493TMC3     H 7333   4.152   1.431  10.854 -1.0037 -0.2728  0.3397
  493TMC3    H1 7334   4.055   1.032  10.735 -0.9023 -0.2097 -0.4789
  493TMC3    H2 7335   3.909   1.362  10.508  0.5132 -0.4129 -0.0626
  493TMC3    C7 7336   3.884   1.109  10.545 -0.1891  0.8425  0.3416
  493TMC3    C8 7337   3.978   1.541  10.699 -0.3035 -0.5836  0.2049
  493TMC3    O1 7338   3.781   1.171  10.521 -0.1138  0.3236 -1.0106
  493TMC3    O2 7339   3.937   1.563  10.813  0.7690  0.2958  0.5180
  494TMC3    C1 7340   4.566   3.287   0.450  0.1840  0.2215 -0.0781
  494TMC3    C2 7341   4.590   3.152   0.454 -0.8946  0.5771 -0.8993
  494TMC3    C3 7342   4.583   3.080   0.336 -0.3979 -0.4543 -0.8744
  494TMC3    C4 7343   4.558   3.363   0.338 -0.3724 -0.2352 -0.3019
  494TMC3    C5 7344   4.557   3.287   0.229 -0.1936 -0.3214 -0.4654
  494TMC3    C6 7345   4.571   3.151   0.221 -0.3126  0.1931 -0.4826
  494TMC3     C 7346   4.540   3.346   0.584 -0.5848 -0.0540  0.7116
  494TMC3     O 7347   4.618   3.306   0.671 -0.5254  0.0878 -0.1770
  494TMC3     H 7348   4.609   3.097   0.545  0.3732  1.5279 -0.5957
  494TMC3    H1 7349   4.571   3.469   0.355 -1.2162 -0.0409 -0.8326
  494TMC3    H2 7350   4.587   3.108   0.123 -2.3286 -3.4757  0.7798
  494TMC3    C7 7351   4.563   3.362   0.098  0.0172 -0.0744  0.0286
  494TMC3    C8 7352   4.643   2.949   0.329  0.4328 -0.0363  0.5682
  494TMC3    O1 7353   4.572   3.290  17.693 -0.0423  0.2519  0.7496
  494TMC3    O2 7354   4.685   2.905   0.433  0.1676 -0.2519 -0.1809
  495TMC3    C1 7355   3.205   0.640  14.408 -0.4520 -0.0357 -0.0538
  495TMC3    C2 7356   3.106   0.630  14.311 -0.2984  0.0767 -0.1056
  495TMC3    C3 7357   2.991   0.558  14.348 -0.4916  0.0986  0.4909
  495TMC3    C4 7358   3.190   0.601  14.539  0.4491  0.3147 -1.1869
  495TMC3    C5 7359   3.067   0.545  14.570 -0.2262 -0.2905 -0.1680
  495TMC3    C6 7360   2.971   0.516  14.471  0.2540  1.0070  0.5497
  495TMC3     C 7361   3.309   0.737  14.372 -0.7331  0.2516 -0.8041
  495TMC3     O 7362   3.285   0.854  14.361  0.3198 -0.9219  0.4857
  495TMC3     H 7363   3.115   0.684  14.217 -1.4195  2.6864  1.2828
  495TMC3    H1 7364   3.262   0.622  14.617  1.2178  0.1943 -1.8592
  495TMC3    H2 7365   2.884   0.454  14.492 -0.2645  1.4614 -0.2697
  495TMC3    C7 7366   3.046   0.523  14.716  0.7186  0.5391 -0.3599
  495TMC3    C8 7367   2.899   0.492  14.253  0.5323  0.1843  0.0074
  495TMC3    O1 7368   3.140   0.543  14.791  0.0812  0.2161 -0.5415
  495TMC3    O2 7369   2.784   0.474  14.290  0.1817  0.0828  0.4644
  496MPD2     C 7370   4.577   0.118  15.003 -0.3987 -0.8869  0.6655
  496MPD2    C1 7371   4.664   0.144  15.110  0.4565 -0.4769  0.8430
  496MPD2    C2 7372   4.621   0.208  15.222  0.1352  0.1639 -0.2097
  496MPD2    C3 7373   4.490   0.250  15.234  0.0649 -0.3577 -0.0775
  496MPD2    C4 7374   4.399   0.223  15.131 -0.0266 -0.9223  0.4904
  496MPD2    C5 7375   4.445   0.147  15.021 -0.6465  0.5143 -0.5413
  496MPD2     H 7376   4.697   0.237  15.294  1.0341 -2.1183 -0.2555
  496MPD2    H1 7377   4.292   0.229  15.145 -0.1305  1.0399 -1.0101
  496MPD2    H2 7378   4.605   0.063  14.914  2.1070 -0.8405  1.4234
  496MPD2    H3 7379   4.372   0.140  14.940  1.0631  0.2721 -2.0699
  496MPD2     N 7380   4.439   0.298  15.352 -0.7592  0.5632 -0.3841
  496MPD2    H5 7381   4.338   0.293  15.362 -0.7923 -2.0318 -1.9932
  496MPD2    N1 7382   0.077   0.088  15.103  0.0824 -0.3415  0.2350
  496MPD2    H7 7383   0.097   0.041  15.015 -0.4418 -2.5184  1.2849
  497TMC3    C1 7384   4.452   0.294  15.584 -0.0557 -0.4038  0.0628
  497TMC3    C2 7385   4.327   0.346  15.595  0.2043  0.8406 -0.2687
  497TMC3    C3 7386   4.271   0.332  15.723  0.1975 -0.2882 -0.1814
  497TMC3    C4 7387   4.516   0.229  15.684 -0.0996 -0.0179  0.2322
  497TMC3    C5 7388   4.457   0.220  15.801  0.1304  0.0562 -0.0059
  497TMC3    C6 7389   4.331   0.256  15.823  0.2938  0.3157  0.3883
  497TMC3     C 7390   4.521   0.313  15.460 -0.0436  0.1941  0.0518
  497TMC3     O 7391   4.639   0.332  15.480  0.1967 -0.0906  0.0522
  497TMC3     H 7392   4.291   0.411  15.517  1.1800  2.6054  0.7470
  497TMC3    H1 7393   4.615   0.188  15.670 -1.2838 -2.5558 -0.8082
  497TMC3    H2 7394   4.281   0.225  15.914  0.0518  0.5556  0.3355
  497TMC3    C7 7395   4.525   0.142  15.901  0.7999  0.2343  0.1515
  497TMC3    C8 7396   4.186   0.444  15.767  0.0175 -0.2970 -0.0122
  497TMC3    O1 7397   4.480   0.030  15.907 -0.1359  0.2004  0.2213
  497TMC3    O2 7398   4.137   0.519  15.682 -0.1950 -0.0673  0.0562
  498MPD2     C 7399   1.093   0.316   9.443 -0.3730 -0.5005 -0.4492
  498MPD2    C1 7400   1.082   0.320   9.578  0.2844 -0.0658  0.9446
  498MPD2    C2 7401   1.012   0.223   9.649 -0.4627  0.4356 -0.1336
  498MPD2    C3 7402   0.939   0.126   9.579 -0.7133  0.3031  0.4357
  498MPD2    C4 7403   0.939   0.129   9.439 -0.8668  0.6744 -0.0559
  498MPD2    C5 7404   1.018   0.223   9.373  0.7115  0.6233 -0.2152
  498MPD2     H 7405   1.001   0.215   9.756 -0.9287  1.5973 -0.0986
  498MPD2    H1 7406   0.884   0.060   9.377  0.4114 -0.0214 -0.4023
  498MPD2    H2 7407   1.163   0.383   9.396 -0.2231 -0.3053  0.0480
  498MPD2    H3 7408   1.013   0.213   9.265 -1.6435 -1.3455  0.0667
  498MPD2     N 7409   0.851   0.048   9.658 -0.1513 -0.3694 -0.3399
  498MPD2    H5 7410   0.872   0.040   9.757 -1.4593 -1.7377 -0.1593
  498MPD2    N1 7411   1.152   0.407   9.663 -0.2100 -0.6196  0.4548
  498MPD2    H7 7412   1.141   0.386   9.761 -1.4971 -0.6698  0.3099
  499TMC3    C1 7413   1.253   0.599   9.744 -0.5528  0.5678 -0.5764
  499TMC3    C2 7414   1.175   0.592   9.853 -0.0350 -0.2847  0.8496
  499TMC3    C3 7415   1.210   0.672   9.957 -0.6780 -0.0104 -0.6459
  499TMC3    C4 7416   1.360   0.678   9.736 -0.0115  0.3382 -0.3387
  499TMC3    C5 7417   1.402   0.750   9.845 -0.0787 -0.1010 -0.2530
  499TMC3    C6 7418   1.330   0.740   9.963 -0.4407 -0.4588 -0.0556
  499TMC3     C 7419   1.222   0.518   9.626 -0.4052  0.4001  0.1496
  499TMC3     O 7420   1.235   0.566   9.516  0.4254 -0.2737  0.4414
  499TMC3     H 7421   1.085   0.531   9.859 -1.1645  1.4262  1.3409
  499TMC3    H1 7422   1.419   0.699   9.647  0.2200 -3.0182 -0.9607
  499TMC3    H2 7423   1.344   0.811  10.044 -0.5119 -0.1571 -0.3112
  499TMC3    C7 7424   1.508   0.843   9.826 -0.2372  0.0645 -0.1687
  499TMC3    C8 7425   1.109   0.692  10.061 -0.3149  0.3030  0.4019
  499TMC3    O1 7426   1.543   0.879   9.716 -0.3114  0.5471  0.0663
  499TMC3    O2 7427   0.998   0.654  10.030 -0.3894  0.1773  0.5174
  500MPD2     C 7428   2.899   2.076  10.988 -0.3773  0.3215 -0.4860
  500MPD2    C1 7429   2.900   2.170  10.892 -0.8154 -0.7523 -0.1866
  500MPD2    C2 7430   2.789   2.199  10.816  0.7575 -0.2920 -0.0348
  500MPD2    C3 7431   2.678   2.112  10.820 -0.3662 -0.3443 -0.3766
  500MPD2    C4 7432   2.678   2.010  10.916  0.2792  0.3808 -0.4135
  500MPD2    C5 7433   2.792   1.997  10.996 -0.4156  0.7511  0.3651
  500MPD2     H 7434   2.792   2.271  10.735  0.3007  1.0137  1.1026
  500MPD2    H1 7435   2.588   1.953  10.932 -1.6377  4.9050  4.9217
  500MPD2    H2 7436   2.984   2.043  11.047 -0.9861  0.8147  0.6715
  500MPD2    H3 7437   2.787   1.916  11.068 -0.2930  0.5778  0.1781
  500MPD2     N 7438   2.568   2.116  10.731 -0.3280  0.0679 -0.3162
  500MPD2    H5 7439   2.492   2.056  10.761 -1.4828  1.3600 -0.6757
  500MPD2    N1 7440   3.011   2.251  10.857 -0.1501 -0.2683 -0.2087
  500MPD2    H7 7441   2.986   2.329  10.797  2.0425 -0.7812 -1.7894
  501TMC3    C1 7442   3.239   2.318  10.850  0.4278 -0.3732  0.0692
  501TMC3    C2 7443   3.223   2.371  10.723  0.0153 -0.3716 -0.2924
  501TMC3    C3 7444   3.332   2.431  10.664  0.7291  0.2175  0.8394
  501TMC3    C4 7445   3.358   2.332  10.922  0.2304  0.6169  0.1712
  501TMC3    C5 7446   3.460   2.396  10.864  0.0151  0.8965  0.5733
  501TMC3    C6 7447   3.449   2.448  10.735 -0.6634  0.1519 -0.7414
  501TMC3     C 7448   3.138   2.237  10.915  0.6886  0.2006  1.0106
  501TMC3     O 7449   3.171   2.175  11.014  0.2934 -0.5399 -0.6104
  501TMC3     H 7450   3.126   2.367  10.675 -0.4611  0.9390  0.5740
  501TMC3    H1 7451   3.367   2.289  11.021 -2.7109  1.7314  0.9346
  501TMC3    H2 7452   3.536   2.480  10.678  0.3430 -1.4867 -0.1059
  501TMC3    C7 7453   3.591   2.380  10.920  0.2787  0.5290  0.0997
  501TMC3    C8 7454   3.312   2.521  10.557 -0.2588  0.2716 -0.3169
  501TMC3    O1 7455   3.605   2.310  11.022 -0.3291  0.3078  0.5677
  501TMC3    O2 7456   3.402   2.602  10.542  0.2056 -0.4651 -0.7509
  502TMC3    C1 7457   2.520   1.214  15.207  0.5053  0.2248 -0.7986
  502TMC3    C2 7458   2.503   1.297  15.104 -0.3134  0.6924 -0.2379
  502TMC3    C3 7459   2.376   1.324  15.063  0.3782 -0.3890  0.2326
  502TMC3    C4 7460   2.411   1.156  15.271  0.7724  0.1137 -0.6115
  502TMC3    C5 7461   2.284   1.181  15.222  0.3317 -0.3578  0.5312
  502TMC3    C6 7462   2.268   1.269  15.117 -0.8146  0.5846  0.0041
  502TMC3     C 7463   2.648   1.145  15.227  0.1942  0.1052  0.7735
  502TMC3     O 7464   2.714   1.106  15.133  0.0038 -0.4637  0.1418
  502TMC3     H 7465   2.590   1.343  15.058  0.8453  0.0447  1.3268
  502TMC3    H1 7466   2.428   1.075  15.342  3.4485  0.7550 -0.5278
  502TMC3    H2 7467   2.174   1.292  15.067 -0.3697  0.6663 -0.7926
  502TMC3    C7 7468   2.175   1.103  15.280 -0.3056  0.1189  0.2212
  502TMC3    C8 7469   2.354   1.468  15.043  0.0985  0.4254 -0.0776
  502TMC3    O1 7470   2.213   1.030  15.368 -0.4241  0.2412  0.0163
  502TMC3    O2 7471   2.282   1.507  14.955  0.2519  0.4012  0.1772
  503MPD2     C 7472   4.604   1.955  17.059 -0.0045 -0.7353  0.2191
  503MPD2    C1 7473   4.677   2.030  17.148  0.4066  0.2204  0.6412
  503MPD2    C2 7474   0.041   1.968  17.235  0.0311 -0.4251 -0.4390
  503MPD2    C3 7475   0.059   1.828  17.231 -0.1022 -0.3549 -0.3336
  503MPD2    C4 7476   4.713   1.759  17.135  0.1744 -0.0326  0.6415
  503MPD2    C5 7477   4.622   1.820  17.056  0.5171  0.2395 -0.3684
  503MPD2     H 7478   0.103   2.025  17.304  0.0755 -1.4296  0.3378
  503MPD2    H1 7479   4.719   1.651  17.127 -0.9243 -0.0730  0.3084
  503MPD2    H2 7480   4.530   1.993  16.990  1.5116  0.6813 -0.6027
  503MPD2    H3 7481   4.569   1.765  16.980  2.0828 -1.8424  0.0462
  503MPD2     N 7482   0.156   1.766  17.318  0.2983 -0.0062  0.4288
  503MPD2    H5 7483   0.198   1.825  17.389  0.9659  0.9490 -0.7653
  503MPD2    N1 7484   4.668   2.172  17.160  0.6170  0.3280  0.0852
  503MPD2    H7 7485   4.721   2.220  17.232  0.7399  0.8783 -0.3705
  504TMC3    C1 7486   0.315   1.622  17.399  0.3498  0.3729 -0.3611
  504TMC3    C2 7487   0.294   1.626  17.537 -0.2083  0.0326  0.1482
  504TMC3    C3 7488   0.389   1.560  17.617  0.1819 -0.2839 -0.3998
  504TMC3    C4 7489   0.421   1.561  17.340 -0.6778 -0.5423  0.4981
  504TMC3    C5 7490   0.511   1.498  17.424  0.1152  0.3789  0.2407
  504TMC3    C6 7491   0.500   1.497  17.562 -0.8586 -0.2325  0.0795
  504TMC3     C 7492   0.200   1.636  17.309  0.7539  0.9291 -0.5491
  504TMC3     O 7493   0.187   1.559  17.216  0.0097  0.8133 -0.4014
  504TMC3     H 7494   0.207   1.671  17.583 -1.3098 -1.8995 -0.0868
  504TMC3    H1 7495   0.441   1.568  17.234  1.5051 -2.8727  0.7480
  504TMC3    H2 7496   0.567   1.443  17.629 -0.8020 -0.1217  0.1119
  504TMC3    C7 7497   0.621   1.437  17.357  0.9140  0.0658  0.0526
  504TMC3    C8 7498   0.366   1.568   0.066 -0.4810 -0.1948 -0.5188
  504TMC3    O1 7499   0.596   1.406  17.242  0.1216 -0.5328  0.6427
  504TMC3    O2 7500   0.270   1.630   0.107  0.4057  0.1889  0.3042
  505MPD2     C 7501   4.570   4.191  10.265  0.5355 -0.2222 -0.0251
  505MPD2    C1 7502   4.647   4.127  10.357 -0.4041  0.2764  0.3059
  505MPD2    C2 7503   4.691   4.203  10.465 -0.2366 -0.0422  0.9857
  505MPD2    C3 7504   4.669   4.336  10.477  0.6053  0.0685  0.3512
  505MPD2    C4 7505   4.581   4.399  10.393  0.1790  0.1064  0.1319
  505MPD2    C5 7506   4.536   4.326  10.280  0.0922 -0.1534  0.4015
  505MPD2     H 7507   0.034   4.156  10.537 -1.2814  1.9256  3.2609
  505MPD2    H1 7508   4.562   4.504  10.409 -0.4685  0.2834 -1.8579
  505MPD2    H2 7509   4.523   4.133  10.187 -0.4493 -1.1229  1.2288
  505MPD2    H3 7510   4.466   4.379  10.216  1.4953 -0.1653 -1.1445
  505MPD2     N 7511   0.011   4.400  10.579  0.0288 -0.2000  0.5427
  505MPD2    H5 7512   0.069   4.339  10.636  0.0699  1.0637  1.8488
  505MPD2    N1 7513   4.683   3.991  10.339 -0.0716 -0.1836 -0.1528
  505MPD2    H7 7514   4.658   3.960  10.246 -3.1209 -0.0429  0.6263
  506TMC3    C1 7515   0.052   3.772  10.388 -0.2564  0.2304 -0.3308
  506TMC3    C2 7516   0.126   3.773  10.269  0.2379  0.3357 -0.1688
  506TMC3    C3 7517   0.224   3.678  10.256  0.3119 -0.5068  0.3709
  506TMC3    C4 7518   0.096   3.689  10.495  0.2858  0.0333 -0.2003
  506TMC3    C5 7519   0.208   3.608  10.478  1.0804  0.4079  0.0321
  506TMC3    C6 7520   0.260   3.584  10.352 -0.2395 -0.2935 -0.2986
  506TMC3     C 7521   0.018   3.910  10.438 -0.1620 -0.3484 -0.4506
  506TMC3     O 7522   0.029   3.923  10.560  0.3518  0.4628  0.4297
  506TMC3     H 7523   0.087   3.832  10.186 -1.5794  2.1638  1.9720
  506TMC3    H1 7524   0.047   3.696  10.592  1.4296 -1.9224  0.5286
  506TMC3    H2 7525   0.337   3.511  10.331  0.0423  0.5578 -2.2765
  506TMC3    C7 7526   0.314   3.653  10.572 -0.5029  0.2133 -0.1568
  506TMC3    C8 7527   0.314   3.685  10.135 -0.3267 -0.3685 -0.7521
  506TMC3    O1 7528   0.401   3.572  10.595  0.6557 -0.1422  0.3674
  506TMC3    O2 7529   0.353   3.580  10.087 -0.1084 -0.4254  0.3693
  507TMC3    C1 7530   0.796   1.269  15.479  0.2318 -0.8632 -0.5212
  507TMC3    C2 7531   0.667   1.270  15.450 -0.4768 -0.4130 -0.2659
  507TMC3    C3 7532   0.644   1.309  15.321  0.1843  0.4687  0.8923
  507TMC3    C4 7533   0.903   1.323  15.408 -0.0084 -0.2167  0.2867
  507TMC3    C5 7534   0.876   1.367  15.284  0.4091  0.4698 -0.1760
  507TMC3    C6 7535   0.748   1.346  15.240  0.1379  0.0927  0.0891
  507TMC3     C 7536   0.836   1.193  15.604  0.6125 -0.0796  0.0515
  507TMC3     O 7537   0.944   1.221  15.651 -0.0976 -0.1068 -0.5208
  507TMC3     H 7538   0.593   1.236  15.521  0.1978  3.8627  2.4812
  507TMC3    H1 7539   0.999   1.347  15.453 -1.4471  0.1951  3.1313
  507TMC3    H2 7540   0.737   1.350  15.132  3.4236  2.3409 -0.1419
  507TMC3    C7 7541   0.929   1.497  15.250 -0.3958 -0.2184  0.3363
  507TMC3    C8 7542   0.528   1.386  15.288 -0.0110  0.4408  0.0508
  507TMC3    O1 7543   1.034   1.529  15.301  0.1208 -0.1114 -0.4556
  507TMC3    O2 7544   0.554   1.472  15.201  0.7035  0.5353  0.3962
  508MPD2     C 7545   2.219   3.526  15.897 -0.4309  0.1872  0.0367
  508MPD2    C1 7546   2.148   3.641  15.933  0.0928  0.3683 -0.3814
  508MPD2    C2 7547   2.054   3.688  15.845  0.5108  0.2163  0.7880
  508MPD2    C3 7548   2.039   3.632  15.722 -0.5873 -0.1835 -0.1399
  508MPD2    C4 7549   2.100   3.516  15.693  0.1661 -0.3814  0.4347
  508MPD2    C5 7550   2.187   3.459  15.781 -0.2445  0.2876  0.3600
  508MPD2     H 7551   2.000   3.779  15.868 -0.0192  0.4406 -1.3409
  508MPD2    H1 7552   2.079   3.463  15.601  0.7224  0.4872 -0.1924
  508MPD2    H2 7553   2.280   3.478  15.972  0.3000  3.1023  1.2997
  508MPD2    H3 7554   2.241   3.367  15.760 -0.2214  0.6404 -1.1924
  508MPD2     N 7555   1.956   3.683  15.624 -0.4656 -0.3137  0.0402
  508MPD2    H5 7556   1.930   3.630  15.541 -0.2503 -0.7227  0.2299
  508MPD2    N1 7557   2.178   3.701  16.053 -0.2266  0.2885 -0.1523
  508MPD2    H7 7558   2.262   3.663  16.095  0.1452  1.3977  0.1269
  509TMC3    C1 7559   1.656   3.992  15.440  0.7750 -0.2122  0.4751
  509TMC3    C2 7560   1.725   4.019  15.328 -0.9892 -0.3517 -0.6934
  509TMC3    C3 7561   1.839   3.949  15.307 -0.6847 -0.6844 -0.4964
  509TMC3    C4 7562   1.698   3.889  15.518  0.0587 -0.1731  0.6842
  509TMC3    C5 7563   1.811   3.817  15.497  0.1502  0.0876 -0.3111
  509TMC3    C6 7564   1.881   3.842  15.385 -0.1172 -0.4545  0.4108
  509TMC3     C 7565   1.589   4.096  15.522 -0.4900 -0.1153  0.3064
  509TMC3     O 7566   1.587   4.082  15.647 -0.3797 -0.4896  0.0139
  509TMC3     H 7567   1.694   4.098  15.260  1.9443  0.6704 -0.8255
  509TMC3    H1 7568   1.651   3.866  15.613 -0.1049  0.7076  0.8169
  509TMC3    H2 7569   1.979   3.799  15.366  0.8025  1.1401  1.5910
  509TMC3    C7 7570   1.891   3.802  15.628 -0.1641 -0.6664  0.7629
  509TMC3    C8 7571   1.952   4.037  15.276  0.0660 -0.8096 -0.6105
  509TMC3    O1 7572   1.899   3.898  15.702 -0.4671  0.2526  0.3890
  509TMC3    O2 7573   2.057   3.993  15.224 -0.3376  0.4462  0.2709
  510MPD2     C 7574   4.616   0.811  14.283  0.2135 -0.2456 -0.4737
  510MPD2    C1 7575   4.684   0.740  14.384  0.1259 -0.0877  0.5937
  510MPD2    C2 7576   0.068   0.665  14.348 -0.7275  0.1904 -0.9505
  510MPD2    C3 7577   0.115   0.672  14.218  0.1348 -0.3412  0.0407
  510MPD2    C4 7578   0.025   0.712  14.123 -0.5008 -0.3876 -0.0370
  510MPD2    C5 7579   4.639   0.783  14.154  0.0971  0.1479 -0.1464
  510MPD2     H 7580   0.124   0.601  14.415  0.2406  0.6066 -1.3595
  510MPD2    H1 7581   0.042   0.693  14.017  0.2695  2.3561 -0.4053
  510MPD2    H2 7582   4.520   0.859  14.297  1.5602  2.2409  0.2201
  510MPD2    H3 7583   4.575   0.829  14.079 -0.7389  1.7117  1.5251
  510MPD2     N 7584   0.239   0.604  14.192 -0.2391  0.5896  0.1435
  510MPD2    H5 7585   0.270   0.556  14.276  2.5224  1.2314 -0.5155
  510MPD2    N1 7586   4.629   0.723  14.516 -0.0105  0.0907 -0.4029
  510MPD2    H7 7587   4.671   0.657  14.581  0.7444 -1.2226 -2.2334
  511TMC3    C1 7588   4.458   0.725  14.682 -0.6333 -0.3903 -0.2593
  511TMC3    C2 7589   4.356   0.799  14.742  0.0344  0.3615 -0.3776
  511TMC3    C3 7590   4.243   0.729  14.770  0.5325  0.3517  0.1769
  511TMC3    C4 7591   4.453   0.588  14.687  0.8682 -0.8258 -0.3497
  511TMC3    C5 7592   4.334   0.528  14.720 -0.0179  0.7902 -0.3418
  511TMC3    C6 7593   4.219   0.596  14.757 -0.0650 -0.1521 -0.4783
  511TMC3     C 7594   4.517   0.786  14.563  0.9428 -0.0383 -0.1851
  511TMC3     O 7595   4.465   0.887  14.516  0.0220 -0.2735 -0.0032
  511TMC3     H 7596   4.362   0.907  14.739  0.2549  0.4161  2.3167
  511TMC3    H1 7597   4.528   0.526  14.638  1.6165 -0.2633  0.0749
  511TMC3    H2 7598   4.124   0.548  14.779  0.5729 -1.0804  0.2421
  511TMC3    C7 7599   4.331   0.385  14.684  0.2582  0.4407 -0.1804
  511TMC3    C8 7600   4.158   0.818  14.855 -0.4350  0.3480 -0.2256
  511TMC3    O1 7601   4.418   0.347  14.608 -0.2695  0.2907  0.4125
  511TMC3    O2 7602   4.207   0.907  14.923  0.0665 -0.0923  0.4523
  512TMC3    C1 7603   3.386   0.121  12.941 -0.2112  0.3972 -0.6437
  512TMC3    C2 7604   3.407   0.081  13.069  0.1905 -0.0601  0.0701
  512TMC3    C3 7605   3.377   4.671  13.093 -0.5052 -0.0145 -0.4983
  512TMC3    C4 7606   3.341   0.036  12.843  0.5362  0.6926 -0.0601
  512TMC3    C5 7607   3.310   4.630  12.871 -0.0872 -0.0282 -0.4064
  512TMC3    C6 7608   3.330   4.577  13.001  0.0719  0.4145  0.6247
  512TMC3     C 7609   3.387   0.267  12.923 -0.3214 -0.0945  0.2871
  512TMC3     O 7610   3.366   0.354  13.012 -0.0594  0.3451  0.0224
  512TMC3     H 7611   3.441   0.149  13.146 -1.7155 -1.6075  2.3035
  512TMC3    H1 7612   3.328   0.059  12.738  0.6857 -2.5962 -0.7913
  512TMC3    H2 7613   3.298   4.476  13.019  2.7236 -0.2495  1.5750
  512TMC3    C7 7614   3.253   4.552  12.765 -0.3155 -1.0659 -0.1572
  512TMC3    C8 7615   3.444   4.621  13.208 -0.6568  0.1938 -0.4872
  512TMC3    O1 7616   3.158   4.603  12.699  0.1704  0.1852 -0.2269
  512TMC3    O2 7617   3.433   4.499  13.205 -0.2155 -0.1907 -0.0324
  513MPD2     C 7618   0.032   0.079  13.187  0.2500 -0.4225  0.7018
  513MPD2    C1 7619   0.104   0.040  13.073  0.1500  0.3198  0.0415
  513MPD2    C2 7620   0.248   0.042  13.081  0.3091  0.0317  0.0113
  513MPD2    C3 7621   0.314   0.085  13.190 -0.3066  0.7597 -0.5888
  513MPD2    C4 7622   0.243   0.123  13.300  0.5922 -0.2405  0.1316
  513MPD2    C5 7623   0.104   0.129  13.296  0.1509  0.2374  0.5895
  513MPD2     H 7624   0.306   0.014  12.994  0.4920  0.2046  0.0771
  513MPD2    H1 7625   0.300   0.145  13.390  0.0457 -2.0528  0.9239
  513MPD2    H2 7626   4.649   0.062  13.189  0.4015 -1.2828  1.2855
  513MPD2    H3 7627   0.045   0.148  13.385 -0.6784  1.8743 -0.3122
  513MPD2     N 7628   0.454   0.092  13.180  0.7114  0.6146  0.4923
  513MPD2    H5 7629   0.493   0.059  13.092  1.5396  1.0721  0.6900
  513MPD2    N1 7630   0.049   4.713  12.952 -0.0654 -0.5142 -0.3176
  513MPD2    H7 7631   0.117   4.684  12.883  0.1118 -1.5815  0.3201
  514TMC3    C1 7632   4.636   4.648  12.779  0.6990  0.5261  0.1395
  514TMC3    C2 7633   4.600   4.722  12.670 -0.7662 -0.4489 -0.3167
  514TMC3    C3 7634   4.670   4.698  12.555  0.0111  0.3958 -0.0606
  514TMC3    C4 7635   0.019   4.559  12.773 -0.1814  0.7658  0.0495
  514TMC3    C5 7636   0.087   4.545  12.656  0.1583 -0.3507 -0.1020
  514TMC3    C6 7637   0.060   4.618  12.547 -0.6130 -0.0136  0.1523
  514TMC3     C 7638   4.645   4.706  12.911  0.5289 -0.0506  0.2622
  514TMC3     O 7639   4.546   0.039  12.948  0.1710  0.1782  0.4459
  514TMC3     H 7640   4.517   0.068  12.676 -1.2455 -1.1768  1.3186
  514TMC3    H1 7641   0.048   4.496  12.857 -0.1326 -0.0147 -0.5572
  514TMC3    H2 7642   0.121   4.608  12.458  0.1243  1.9213  0.4419
  514TMC3    C7 7643   0.229   4.524  12.691 -0.6585 -0.2339  1.1183
  514TMC3    C8 7644   4.625   0.053  12.440  0.2518 -0.1747  0.8214
  514TMC3    O1 7645   0.254   4.574  12.799  0.2234  0.5491 -0.3055
  514TMC3    O2 7646   4.520   0.114  12.456 -0.2915 -0.1511 -0.3826
  515MPD2     C 7647   2.830   2.037  14.951 -0.5807  0.3666  0.3042
  515MPD2    C1 7648   2.880   1.921  14.904  0.2714  0.0907  0.0351
  515MPD2    C2 7649   2.992   1.877  14.956  0.4272  0.1898 -0.3773
  515MPD2    C3 7650   3.069   1.949  15.047 -0.6898 -0.1277  0.1497
  515MPD2    C4 7651   3.014   2.065  15.094  0.5650  1.0799  0.4159
  515MPD2    C5 7652   2.893   2.101  15.052 -0.0864 -0.0841 -0.7096
  515MPD2     H 7653   3.028   1.780  14.926  0.0668  0.0805 -0.4571
  515MPD2    H1 7654   3.067   2.125  15.167 -0.5177  1.4655  0.8964
  515MPD2    H2 7655   2.736   2.080  14.917 -1.5024 -1.0982  1.0437
  515MPD2    H3 7656   2.845   2.184  15.105  0.1570 -0.5154  0.1890
  515MPD2     N 7657   3.194   1.908  15.089  0.0058  0.0384 -0.0353
  515MPD2    H5 7658   3.239   1.972  15.154  0.3230  0.7879 -1.0010
  515MPD2    N1 7659   2.810   1.839  14.817  0.3198 -0.1638 -0.0804
  515MPD2    H7 7660   2.826   1.739  14.812 -2.1419 -0.5022 -1.3488
  516TMC3    C1 7661   2.627   1.779  14.681 -0.2516 -0.4196  0.0862
  516TMC3    C2 7662   2.592   1.797  14.546  0.1273 -0.6500 -0.1481
  516TMC3    C3 7663   2.566   1.684  14.473 -0.5478 -0.0469 -0.3446
  516TMC3    C4 7664   2.620   1.655  14.741 -0.2158 -0.9386 -0.7913
  516TMC3    C5 7665   2.567   1.555  14.669  0.1736  0.4640 -0.1233
  516TMC3    C6 7666   2.548   1.567  14.532  0.6940 -0.3322 -0.3167
  516TMC3     C 7667   2.712   1.887  14.733  0.0508 -0.1281  0.3142
  516TMC3     O 7668   2.674   1.996  14.695  1.0306  0.0199 -0.2467
  516TMC3     H 7669   2.628   1.885  14.494  0.0725 -0.3419  0.3407
  516TMC3    H1 7670   2.655   1.639  14.843 -1.1674  3.9986  0.3358
  516TMC3    H2 7671   2.520   1.484  14.468 -2.9197  0.2126  0.5776
  516TMC3    C7 7672   2.575   1.423  14.740  0.5304 -0.5044  0.4803
  516TMC3    C8 7673   2.573   1.682  14.326 -0.1740 -0.4167 -0.2080
  516TMC3    O1 7674   2.646   1.411  14.839 -0.3313  0.3860  0.0807
  516TMC3    O2 7675   2.515   1.592  14.267  0.6102 -0.1167  0.3319
  517MPD2     C 7676   2.715   3.678  17.076  0.5455  0.2802  0.3879
  517MPD2    C1 7677   2.840   3.649  17.127  0.1515  0.2187  0.0321
  517MPD2    C2 7678   2.911   3.751  17.188  0.6047 -0.8189  0.7813
  517MPD2    C3 7679   2.855   3.874  17.212 -0.2630  0.3339 -0.1462
  517MPD2    C4 7680   2.735   3.904  17.148 -0.3060 -0.4857  0.4251
  517MPD2    C5 7681   2.657   3.804  17.089 -0.7905 -0.4801 -0.5066
  517MPD2     H 7682   3.012   3.729  17.222  0.6888 -1.7297 -0.0903
  517MPD2    H1 7683   2.688   4.001  17.160 -1.5884 -1.0699  0.0392
  517MPD2    H2 7684   2.665   3.607  17.011  0.0995  0.3390  0.6695
  517MPD2    H3 7685   2.557   3.824  17.052 -0.5469  2.3709  0.3424
  517MPD2     N 7686   2.928   3.979  17.288  0.0686  0.1444 -0.3160
  517MPD2    H5 7687   2.909   4.077  17.267  1.3047  0.1201 -1.5098
  517MPD2    N1 7688   2.901   3.518  17.124  0.6956 -0.2643  0.1593
  517MPD2    H7 7689   2.997   3.517  17.155  2.0639 -0.6195 -4.0124
  518TMC3    C1 7690   2.922   3.288  17.075  0.4850  0.6555 -0.6980
  518TMC3    C2 7691   2.879   3.165  17.115  0.1911  0.3841 -0.6757
  518TMC3    C3 7692   2.971   3.066  17.143  0.8132 -0.5247 -0.5642
  518TMC3    C4 7693   3.055   3.306  17.046 -0.1198  0.1420 -0.2316
  518TMC3    C5 7694   3.145   3.200  17.052 -0.5433  0.3153  0.7521
  518TMC3    C6 7695   3.107   3.084  17.109  0.3631 -0.0784 -0.9558
  518TMC3     C 7696   2.839   3.404  17.086  0.1076 -0.0723  0.6201
  518TMC3     O 7697   2.720   3.385  17.091 -0.2213 -0.5761  0.5182
  518TMC3     H 7698   2.774   3.146  17.136 -0.1076  1.5045 -1.2031
  518TMC3    H1 7699   3.094   3.403  17.019 -1.5625  1.0205  0.7939
  518TMC3    H2 7700   3.182   3.009  17.128 -1.0064 -1.0991  0.3584
  518TMC3    C7 7701   3.283   3.234  17.020 -0.7125  0.3739 -0.0874
  518TMC3    C8 7702   2.943   2.950  17.220  0.1371  0.2657  0.1611
  518TMC3    O1 7703   3.310   3.350  16.998  0.0407 -0.4820  0.5394
  518TMC3    O2 7704   3.030   2.862  17.222  0.2669 -0.6652 -0.7930
  519MPD2     C 7705   0.305   1.724  14.344 -0.8045 -0.1024 -0.0685
  519MPD2    C1 7706   0.294   1.776  14.218 -0.6473 -0.0303  0.2244
  519MPD2    C2 7707   0.323   1.699  14.109  0.2118 -0.7064  0.1120
  519MPD2    C3 7708   0.396   1.580  14.117  0.0594  0.1655  0.5669
  519MPD2    C4 7709   0.416   1.526  14.246  0.0959  0.3850 -0.2099
  519MPD2    C5 7710   0.364   1.599  14.356  0.1249 -0.3843  0.6002
  519MPD2     H 7711   0.299   1.741  14.012  0.0415 -0.5569  0.2185
  519MPD2    H1 7712   0.471   1.434  14.258  2.6227  1.8325 -0.7942
  519MPD2    H2 7713   0.263   1.778  14.428  0.1087 -0.4001  0.5811
  519MPD2    H3 7714   0.384   1.557  14.454 -1.5531 -0.3931  0.9483
  519MPD2     N 7715   0.443   1.511  14.001 -0.5781  0.5427  0.6347
  519MPD2    H5 7716   0.488   1.421  14.019  1.3061  1.2675 -0.5315
  519MPD2    N1 7717   0.228   1.900  14.202  0.3091  0.0058  0.1740
  519MPD2    H7 7718   0.176   1.937  14.281 -1.9751  0.2103 -1.4374
  520TMC3    C1 7719   0.444   1.447  13.781 -0.6718 -0.2392 -0.1655
  520TMC3    C2 7720   0.349   1.429  13.680 -0.4833  0.4258 -0.1231
  520TMC3    C3 7721   0.363   1.336  13.584 -0.9249 -0.1892  0.0451
  520TMC3    C4 7722   0.553   1.375  13.787  0.0767  0.9184  0.1331
  520TMC3    C5 7723   0.563   1.274  13.691  0.8082  0.4659 -0.3865
  520TMC3    C6 7724   0.472   1.260  13.590  0.7605  0.6215 -0.5208
  520TMC3     C 7725   0.419   1.550  13.872 -0.5969  0.5328 -0.1278
  520TMC3     O 7726   0.353   1.642  13.825 -0.3906 -0.4222  0.6923
  520TMC3     H 7727   0.254   1.482  13.682 -1.0477 -0.5224 -1.6147
  520TMC3    H1 7728   0.618   1.381  13.874 -3.0847  1.0802  2.4552
  520TMC3    H2 7729   0.495   1.178  13.522 -3.3638  0.5038 -1.7753
  520TMC3    C7 7730   0.666   1.170  13.721 -0.0434 -0.8189 -0.2607
  520TMC3    C8 7731   0.252   1.295  13.500 -0.0745  0.3267  0.6905
  520TMC3    O1 7732   0.706   1.172  13.835  0.2202  0.2835 -0.3494
  520TMC3    O2 7733   0.272   1.205  13.421  0.2831 -0.7982 -0.2145
  521MPD2     C 7734   0.905   0.035  17.405  0.2322  0.4748 -0.0745
  521MPD2    C1 7735   0.881   0.007  17.271  0.3654 -0.1239 -0.5151
  521MPD2    C2 7736   0.987   0.001  17.182 -0.1227 -0.0896 -0.3944
  521MPD2    C3 7737   1.117   0.028  17.217 -0.7795  0.3076 -0.2275
  521MPD2    C4 7738   1.138   0.068  17.348 -0.3699 -0.2496  0.3905
  521MPD2    C5 7739   1.036   0.064  17.442 -0.9321  0.2604  0.1898
  521MPD2     H 7740   0.964   4.682  17.085  2.2474  1.5158 -1.6759
  521MPD2    H1 7741   1.239   0.086  17.385 -1.3452 -1.1987  3.4777
  521MPD2    H2 7742   0.824   0.035  17.476 -0.5969  0.4002 -1.0291
  521MPD2    H3 7743   1.048   0.088  17.547 -1.3719 -1.3712  0.6096
  521MPD2     N 7744   1.216   0.007  17.119  0.6100  0.0486 -0.1762
  521MPD2    H5 7745   1.173   4.722  17.027 -0.8932  0.1749  0.5216
  521MPD2    N1 7746   0.750   4.689  17.237  0.2424  0.0764  0.4892
  521MPD2    H7 7747   0.682   4.696  17.312 -1.5596 -0.8454 -1.0728
  522TMC3    C1 7748   1.405   4.621  17.044  0.4735 -0.7154 -0.5600
  522TMC3    C2 7749   1.508   4.541  17.065  1.2154  0.4457  0.0768
  522TMC3    C3 7750   1.569   4.477  16.954  0.1894  0.2445 -0.4229
  522TMC3    C4 7751   1.344   4.636  16.916  0.1216  0.3638 -0.6227
  522TMC3    C5 7752   1.393   4.563  16.810  0.2444  0.0982  0.1309
  522TMC3    C6 7753   1.517   4.499  16.824  0.6412 -0.6146  0.0953
  522TMC3     C 7754   1.342   4.706  17.148 -0.1982  0.2937  0.3887
  522TMC3     O 7755   1.406   4.710  17.253  0.1816  0.2818 -0.1399
  522TMC3     H 7756   1.551   4.529  17.163  2.2442  2.3410 -0.1315
  522TMC3    H1 7757   1.266   4.705  16.885 -0.2534  0.4870  0.6036
  522TMC3    H2 7758   1.570   4.461  16.738  1.8594 -0.3272  0.7166
  522TMC3    C7 7759   1.366   4.622  16.673 -0.0621  0.3888 -0.5674
  522TMC3    C8 7760   1.700   4.420  16.975 -0.4791 -0.1237  0.2779
  522TMC3    O1 7761   1.464   4.630  16.593 -0.4642  0.3434 -0.2471
  522TMC3    O2 7762   1.756   4.454  17.075 -0.0359 -0.4718 -0.1829
  523MPD2     C 7763   2.992   3.414   9.469  0.2584  0.1591 -0.0944
  523MPD2    C1 7764   2.983   3.487   9.582 -0.6867  0.7170  0.1741
  523MPD2    C2 7765   2.993   3.625   9.566  0.3626  0.6398 -0.2437
  523MPD2    C3 7766   3.022   3.676   9.443 -0.2819 -0.4400  0.7963
  523MPD2    C4 7767   3.040   3.598   9.340  0.3356 -0.5107 -0.9660
  523MPD2    C5 7768   3.035   3.463   9.350  0.4269  0.8404  0.1567
  523MPD2     H 7769   2.994   3.685   9.657  2.3654 -0.6691  0.6097
  523MPD2    H1 7770   3.060   3.633   9.239  0.9222 -0.3722 -0.7983
  523MPD2    H2 7771   2.968   3.310   9.486  1.4821 -0.0315  0.4553
  523MPD2    H3 7772   3.037   3.395   9.265 -2.3289 -0.6687  1.2792
  523MPD2     N 7773   3.037   3.816   9.418 -0.3369  0.2395  0.0036
  523MPD2    H5 7774   3.068   3.835   9.323 -1.7672  1.1883 -0.2669
  523MPD2    N1 7775   2.979   3.417   9.699  0.4969 -0.4479 -0.3650
  523MPD2    H7 7776   3.008   3.320   9.695  0.6183 -0.4005 -0.5857
  524TMC3    C1 7777   3.032   4.046   9.466 -0.5972 -0.2842  0.1040
  524TMC3    C2 7778   3.124   4.072   9.371  0.2321 -0.1217  0.5735
  524TMC3    C3 7779   3.156   4.199   9.339 -0.2407  0.6168  0.6079
  524TMC3    C4 7780   2.963   4.139   9.531  0.1318  0.3741 -0.5550
  524TMC3    C5 7781   3.006   4.273   9.505 -0.6087 -0.0247  0.6188
  524TMC3    C6 7782   3.097   4.305   9.406 -0.5085  0.1021 -0.0334
  524TMC3     C 7783   3.020   3.912   9.519 -0.1346  0.7470  0.3542
  524TMC3     O 7784   2.973   3.900   9.632  0.3948  0.6310  0.5057
  524TMC3     H 7785   3.195   3.995   9.341  0.1470  0.8104 -2.0292
  524TMC3    H1 7786   2.893   4.104   9.606 -2.1653  1.3226 -2.2427
  524TMC3    H2 7787   3.116   4.409   9.380  0.3263 -0.1223 -0.3080
  524TMC3    C7 7788   2.930   4.365   9.582  0.2515  0.3181 -0.2030
  524TMC3    C8 7789   3.253   4.229   9.238  0.3503 -0.6499  0.1356
  524TMC3    O1 7790   2.834   4.323   9.640 -0.5215  0.5951  0.2247
  524TMC3    O2 7791   3.267   4.350   9.212 -0.5733  0.3249  0.3360
  525MPD2     C 7792   1.315   0.906  14.309 -0.3561 -0.6682 -0.6107
  525MPD2    C1 7793   1.433   0.918  14.395  0.2402 -0.2191  0.0555
  525MPD2    C2 7794   1.500   1.038  14.392 -0.4884  0.4496  0.0826
  525MPD2    C3 7795   1.456   1.148  14.313 -0.0820 -0.1891 -0.7341
  525MPD2    C4 7796   1.344   1.128  14.239 -0.3256 -0.3759 -0.0070
  525MPD2    C5 7797   1.278   1.012  14.233 -0.1010 -0.1090  0.4692
  525MPD2     H 7798   1.590   1.046  14.451  0.4986  0.8924 -1.4727
  525MPD2    H1 7799   1.298   1.199  14.172  0.2146  0.7409  0.8065
  525MPD2    H2 7800   1.250   0.819  14.310 -1.9415  0.5363 -0.1296
  525MPD2    H3 7801   1.191   0.995  14.171 -0.7050  0.8503  1.0508
  525MPD2     N 7802   1.532   1.269  14.326 -0.0159  0.4469 -0.6256
  525MPD2    H5 7803   1.603   1.276  14.399 -1.2955  0.2929  0.6199
  525MPD2    N1 7804   1.468   0.811  14.482  0.4374  0.4654  0.0355
  525MPD2    H7 7805   1.557   0.818  14.530 -0.4585  3.0831  1.3312
  526TMC3    C1 7806   1.423   0.633  14.632 -0.3559 -0.0967  0.3068
  526TMC3    C2 7807   1.336   0.602  14.739 -0.5224 -0.2247 -0.2489
  526TMC3    C3 7808   1.389   0.557  14.855 -0.0745  0.3718 -0.2524
  526TMC3    C4 7809   1.561   0.608  14.645 -0.4699  0.1133 -0.1858
  526TMC3    C5 7810   1.607   0.564  14.772 -0.3085 -0.1544 -0.1323
  526TMC3    C6 7811   1.524   0.552  14.878 -0.2378 -0.0964 -0.0807
  526TMC3     C 7812   1.375   0.721  14.528  0.1003  0.6502 -0.7197
  526TMC3     O 7813   1.255   0.719  14.512  0.4229 -0.4996  0.5418
  526TMC3     H 7814   1.233   0.633  14.724 -0.1886  0.1447 -1.7272
  526TMC3    H1 7815   1.629   0.633  14.565  0.1434 -0.9498 -0.0042
  526TMC3    H2 7816   1.571   0.530  14.973  0.8257 -2.4475 -1.1296
  526TMC3    C7 7817   1.730   0.489  14.787  0.2582  0.8498 -0.2287
  526TMC3    C8 7818   1.318   0.563  14.981  0.0560  0.4637  1.2763
  526TMC3    O1 7819   1.769   0.463  14.902 -0.6459 -0.2781 -0.4964
  526TMC3    O2 7820   1.380   0.578  15.086  0.4961 -0.1872  0.1675
  527MPD2     C 7821   0.072   3.010   1.228 -0.0835 -0.0242 -0.5352
  527MPD2    C1 7822   0.140   3.062   1.330 -0.4077 -0.9857  0.5881
  527MPD2    C2 7823   0.165   3.200   1.332 -0.0325  0.1194 -0.1866
  527MPD2    C3 7824   0.126   3.279   1.224 -0.9595  0.4058 -0.8176
  527MPD2    C4 7825   0.048   3.225   1.128 -0.5047  0.1704 -0.9020
  527MPD2    C5 7826   0.014   3.093   1.136  0.3374 -0.8732  0.1682
  527MPD2     H 7827   0.244   3.230   1.400  0.1738  1.3849 -0.9849
  527MPD2    H1 7828   0.020   3.284   1.042 -1.9045 -1.6077 -1.6727
  527MPD2    H2 7829   0.053   2.904   1.215  1.6564 -0.5448  1.2564
  527MPD2    H3 7830   4.681   3.041   1.060 -3.2204  0.4660  1.8543
  527MPD2     N 7831   0.169   3.410   1.214 -0.0008 -0.0067 -0.2173
  527MPD2    H5 7832   0.232   3.442   1.287 -0.3821 -1.1083  0.5923
  527MPD2    N1 7833   0.202   2.983   1.428  0.1458  0.2607 -0.0916
  527MPD2    H7 7834   0.244   3.038   1.503  0.0420  0.9479 -0.5379
  528TMC3    C1 7835   0.200   2.814   1.583 -0.0891  0.4332  0.0594
  528TMC3    C2 7836   0.134   2.909   1.659  0.4731  0.5655 -0.0816
  528TMC3    C3 7837   0.041   2.861   1.749  0.0115 -0.0685  0.4447
  528TMC3    C4 7838   0.168   2.683   1.575 -0.4314  0.8796  0.7902
  528TMC3    C5 7839   0.072   2.647   1.667 -0.8015  0.0732  0.2246
  528TMC3    C6 7840   0.001   2.729   1.751  0.3587 -0.2399 -0.2686
  528TMC3     C 7841   0.199   2.850   1.444  0.3807 -0.0604 -0.9481
  528TMC3     O 7842   0.184   2.761   1.357 -0.1825  0.5684 -0.0182
  528TMC3     H 7843   0.158   3.015   1.663  0.3606  0.5932 -0.1414
  528TMC3    H1 7844   0.221   2.613   1.512 -0.7385  1.8177 -0.5196
  528TMC3    H2 7845   4.639   2.692   1.808  0.6803 -0.8384 -0.1705
  528TMC3    C7 7846   0.013   2.514   1.652 -0.2905  0.4861  0.3476
  528TMC3    C8 7847   4.688   2.969   1.800 -0.1864 -0.6403  0.0252
  528TMC3    O1 7848   4.629   2.487   1.705 -0.4287  0.4914  0.4177
  528TMC3    O2 7849   4.709   3.087   1.777  0.0516  0.1944  0.2371
  529MPD2     C 7850   2.146   2.835   1.104 -0.0223  0.5270  0.3714
  529MPD2    C1 7851   2.092   2.737   1.028  0.5897  0.3274 -0.9369
  529MPD2    C2 7852   2.046   2.767   0.900  0.4281 -0.5477  0.0929
  529MPD2    C3 7853   2.043   2.900   0.861  0.6098 -0.2300  0.6901
  529MPD2    C4 7854   2.087   2.998   0.947 -0.0991  0.1250  0.2811
  529MPD2    C5 7855   2.139   2.964   1.069  0.5511  0.3863 -0.3266
  529MPD2     H 7856   2.014   2.684   0.838  1.0310 -0.8909  0.2431
  529MPD2    H1 7857   2.095   3.099   0.909  2.2450  0.3314  1.2906
  529MPD2    H2 7858   2.176   2.815   1.207 -2.7961 -0.0998  1.0451
  529MPD2    H3 7859   2.184   3.031   1.141  0.1691 -1.4252  1.5911
  529MPD2     N 7860   2.022   2.944   0.725 -0.1546  0.1343  0.0896
  529MPD2    H5 7861   2.027   3.045   0.712  0.5237 -0.1113 -1.5796
  529MPD2    N1 7862   2.087   2.604   1.058 -0.5139  0.1187  0.2801
  529MPD2    H7 7863   2.047   2.529   1.001  0.6769  1.0841 -1.8177
  530TMC3    C1 7864   2.143   2.415   1.180  0.4357 -0.4765  0.2103
  530TMC3    C2 7865   2.176   2.355   1.304  0.2147  0.0885  0.3349
  530TMC3    C3 7866   2.247   2.240   1.314 -0.0009 -0.3086  0.2689
  530TMC3    C4 7867   2.189   2.341   1.073 -0.1280 -0.0283 -0.0452
  530TMC3    C5 7868   2.268   2.233   1.083  0.0115  0.7126 -0.4989
  530TMC3    C6 7869   2.291   2.165   1.205  0.2291 -0.2082  0.3759
  530TMC3     C 7870   2.129   2.558   1.183  0.5664  0.1441  0.4640
  530TMC3     O 7871   2.146   2.622   1.287 -0.4804  0.0418  0.5213
  530TMC3     H 7872   2.147   2.413   1.391 -1.1857 -1.5225  0.9404
  530TMC3    H1 7873   2.177   2.384   0.974  0.1443  0.8957  0.3227
  530TMC3    H2 7874   2.357   2.081   1.223  1.0241  0.1222 -1.0030
  530TMC3    C7 7875   2.299   2.162   0.961  0.0058 -0.1548 -0.4734
  530TMC3    C8 7876   2.305   2.223   1.448 -0.1575 -0.5753 -0.3451
  530TMC3    O1 7877   2.320   2.221   0.856 -0.2089  0.0688  0.9129
  530TMC3    O2 7878   2.298   2.316   1.528 -0.4018  0.5678  0.3304
  531MPD2     C 7879   0.707   4.400  12.672 -0.6510 -0.2426  0.2592
  531MPD2    C1 7880   0.649   4.503  12.734 -0.1047 -0.8249 -0.4449
  531MPD2    C2 7881   0.515   4.527  12.708 -0.0908  0.1220  0.2313
  531MPD2    C3 7882   0.445   4.452  12.621 -0.1132 -0.0088 -0.0930
  531MPD2    C4 7883   0.508   4.359  12.548  0.1615  0.0145  0.0384
  531MPD2    C5 7884   0.639   4.330  12.573 -0.2923 -1.1272 -0.0462
  531MPD2     H 7885   0.462   4.607  12.758 -0.6878  1.0232 -1.8517
  531MPD2    H1 7886   0.461   4.309  12.463 -1.2156  0.8001  0.3377
  531MPD2    H2 7887   0.812   4.380  12.693 -0.7592  0.2187  1.2649
  531MPD2    H3 7888   0.693   4.251  12.522 -0.1146 -0.5571 -0.7422
  531MPD2     N 7889   0.308   4.469  12.603  0.3551 -0.1907 -0.1054
  531MPD2    H5 7890   0.268   4.414  12.527 -1.4738 -0.2385  0.9025
  531MPD2    N1 7891   0.727   4.564  12.834  0.1068 -0.3321  0.3381
  531MPD2    H7 7892   0.815   4.516  12.855 -1.1853 -2.7023  0.3678
  532TMC3    C1 7893   0.756   4.710  13.023 -0.6268 -0.3442 -0.1876
  532TMC3    C2 7894   0.685   0.094  13.083  0.8959  0.6482 -0.1577
  532TMC3    C3 7895   0.683   0.103  13.220 -0.4169  0.3049  0.4510
  532TMC3    C4 7896   0.812   4.611  13.099 -0.5627  0.9063  0.2471
  532TMC3    C5 7897   0.812   4.631  13.237  0.6134 -0.1153 -0.0321
  532TMC3    C6 7898   0.750   0.011  13.296  0.7095  0.0764  0.8799
  532TMC3     C 7899   0.683   4.670  12.902 -0.5789 -0.1674  0.5245
  532TMC3     O 7900   0.583   0.011  12.895  0.3466  0.6455  0.1835
  532TMC3     H 7901   0.636   0.178  13.036 -0.8576  0.5341  1.4837
  532TMC3    H1 7902   0.859   4.524  13.054  0.4806  1.4290  0.3216
  532TMC3    H2 7903   0.739   0.031  13.402 -0.2561 -0.5901  0.8960
  532TMC3    C7 7904   0.878   4.538  13.332 -0.3380 -0.6762  0.3424
  532TMC3    C8 7905   0.551   0.125  13.275 -0.1327 -0.1421 -0.1974
  532TMC3    O1 7906   0.922   4.593  13.436  0.1257 -0.0750 -0.2564
  532TMC3    O2 7907   0.526   0.145  13.394  0.2547  0.7453 -0.0908
  533TMC3    C1 7908   1.555   1.485  14.343 -0.4072  0.4235  0.1143
  533TMC3    C2 7909   1.692   1.481  14.368  0.8411  0.2887 -0.1472
  533TMC3    C3 7910   1.735   1.557  14.473  0.6999 -0.2116 -0.2951
  533TMC3    C4 7911   1.476   1.560  14.423  0.3922 -0.1838  0.0893
  533TMC3    C5 7912   1.522   1.618  14.540 -0.4610  0.1427  0.3502
  533TMC3    C6 7913   1.653   1.615  14.565 -0.1588  1.0663 -0.1903
  533TMC3     C 7914   1.484   1.383  14.279 -0.0582  0.3676  0.2748
  533TMC3     O 7915   1.394   1.412  14.199 -0.8336 -0.4664 -0.4467
  533TMC3     H 7916   1.755   1.419  14.305 -3.4301 -1.3475 -2.9219
  533TMC3    H1 7917   1.372   1.564  14.391  0.5719  0.5216 -0.4141
  533TMC3    H2 7918   1.685   1.667  14.654  1.8656 -0.3808 -0.0805
  533TMC3    C7 7919   1.434   1.591  14.654 -0.1499 -0.5732  0.4111
  533TMC3    C8 7920   1.870   1.605  14.478 -0.1218 -0.6756 -0.0650
  533TMC3    O1 7921   1.354   1.497  14.630  0.0137 -0.0764 -0.5840
  533TMC3    O2 7922   1.901   1.661  14.584 -0.2872  0.7674  0.1989
  534MPD2     C 7923   4.247   1.979   1.156  0.5070 -0.8430  0.5658
  534MPD2    C1 7924   4.249   2.108   1.209 -0.2889  0.4095 -0.3575
  534MPD2    C2 7925   4.134   2.168   1.257 -0.5686  0.5365  0.6445
  534MPD2    C3 7926   4.013   2.101   1.239  0.2164 -0.1318 -0.0346
  534MPD2    C4 7927   4.011   1.970   1.196 -1.1112  0.1969 -0.1138
  534MPD2    C5 7928   4.128   1.909   1.152 -0.4365 -0.1535  0.2145
  534MPD2     H 7929   4.147   2.268   1.295  0.7100  1.6101 -2.6322
  534MPD2    H1 7930   3.920   1.913   1.205 -1.4093  1.0500  2.2482
  534MPD2    H2 7931   4.333   1.921   1.124  0.3691 -2.3697  3.0034
  534MPD2    H3 7932   4.119   1.813   1.101  1.0758 -0.5292  0.6567
  534MPD2     N 7933   3.892   2.177   1.250 -0.2631  0.6686  0.2829
  534MPD2    H5 7934   3.805   2.128   1.233  1.0170 -1.3994 -0.3400
  534MPD2    N1 7935   4.368   2.184   1.221  0.0475  0.3150 -0.5959
  534MPD2    H7 7936   4.361   2.264   1.282  1.2218 -0.2509  0.2760
  535TMC3    C1 7937   3.753   2.361   1.205 -0.4020  0.0707 -0.1765
  535TMC3    C2 7938   3.640   2.307   1.250 -0.0747 -0.5605  0.0577
  535TMC3    C3 7939   3.526   2.341   1.197  0.7056  0.1436 -0.5057
  535TMC3    C4 7940   3.759   2.465   1.117  0.0715 -0.1779  0.4775
  535TMC3    C5 7941   3.640   2.482   1.051  0.2599  0.1378 -0.3058
  535TMC3    C6 7942   3.522   2.429   1.096  0.5391 -0.1174 -0.2780
  535TMC3     C 7943   3.884   2.318   1.254 -0.0643 -0.6362 -0.2669
  535TMC3     O 7944   3.972   2.403   1.244 -0.1929  0.0023 -0.5441
  535TMC3     H 7945   3.640   2.241   1.336  0.2892 -1.7722 -0.8622
  535TMC3    H1 7946   3.856   2.485   1.073  1.0522 -0.9122  2.3135
  535TMC3    H2 7947   3.425   2.448   1.051  0.6851  1.6924  0.1352
  535TMC3    C7 7948   3.640   2.546   0.922 -0.2234 -0.7249 -0.1388
  535TMC3    C8 7949   3.401   2.285   1.250 -0.0150 -0.1393 -0.5744
  535TMC3    O1 7950   3.742   2.605   0.896 -0.2397  0.3541 -0.0440
  535TMC3    O2 7951   3.303   2.286   1.173  0.2994  0.1240  0.7961
  536MPD2     C 7952   3.281   0.800  16.443 -0.9974 -0.4126  0.5977
  536MPD2    C1 7953   3.282   0.928  16.496 -0.2505 -0.0125 -0.0879
  536MPD2    C2 7954   3.213   1.028  16.440 -0.3000  0.2807 -0.4600
  536MPD2    C3 7955   3.144   0.997  16.324  0.6430 -0.3063 -0.4729
  536MPD2    C4 7956   3.131   0.866  16.278 -0.1417 -1.7837  0.0908
  536MPD2    C5 7957   3.194   0.768  16.341  0.1934 -0.1074 -0.8754
  536MPD2     H 7958   3.219   1.130  16.479  1.8137 -0.4271  1.0805
  536MPD2    H1 7959   3.078   0.838  16.187  1.7826  0.7556 -1.8230
  536MPD2    H2 7960   3.336   0.713  16.476 -2.4432 -0.6635  2.3221
  536MPD2    H3 7961   3.204   0.665  16.307  0.6198 -0.2325 -0.3618
  536MPD2     N 7962   3.085   1.098  16.242  0.2993 -0.4856  0.2561
  536MPD2    H5 7963   3.024   1.063  16.169  0.8246 -0.5981 -0.1262
  536MPD2    N1 7964   3.337   0.940  16.626 -0.2403 -0.8719 -0.1587
  536MPD2    H7 7965   3.401   0.866  16.653  0.0208 -0.7100 -0.3276
  537TMC3    C1 7966   3.343   1.019  16.847 -0.3366 -0.2818 -0.3130
  537TMC3    C2 7967   3.354   1.138  16.923  0.7977  0.5805 -0.2717
  537TMC3    C3 7968   3.358   1.115  17.058  0.2001 -0.0016  0.0454
  537TMC3    C4 7969   3.310   0.903  16.897  0.5687 -0.2265  0.7917
  537TMC3    C5 7970   3.301   0.894  17.033 -0.4592 -0.2798  0.2134
  537TMC3    C6 7971   3.335   0.993  17.117 -0.0362  0.4283  0.3006
  537TMC3     C 7972   3.311   1.041  16.714 -0.1963 -0.2374 -1.1215
  537TMC3     O 7973   3.238   1.136  16.703 -0.3472 -0.1979 -0.3259
  537TMC3     H 7974   3.370   1.230  16.868 -0.3867 -1.1804 -3.6000
  537TMC3    H1 7975   3.273   0.824  16.834 -0.2303  1.1043 -0.4218
  537TMC3    H2 7976   3.337   0.980  17.224  0.1217  0.3651  0.2888
  537TMC3    C7 7977   3.245   0.769  17.081 -0.4054  0.1590 -0.0753
  537TMC3    C8 7978   3.365   1.234  17.149  0.0257 -0.1162  0.5123
  537TMC3    O1 7979   3.242   0.667  17.016 -0.5289  0.0666 -0.0451
  537TMC3    O2 7980   3.381   1.208  17.265  0.5785 -0.8164 -0.0956
  538TMC3    C1 7981   3.885   3.989  11.379 -0.5259  0.1411  0.0418
  538TMC3    C2 7982   3.920   3.965  11.246  0.0456  0.2045 -0.4924
  538TMC3    C3 7983   3.824   4.002  11.157 -0.3212 -0.0252 -0.0049
  538TMC3    C4 7984   3.769   4.046  11.425  0.7723  0.1383 -0.4513
  538TMC3    C5 7985   3.670   4.062  11.333  0.1261  0.3054 -0.2162
  538TMC3    C6 7986   3.697   4.051  11.198  0.7359  0.4058 -0.2202
  538TMC3     C 7987   3.957   3.913  11.474 -0.8429  0.5366 -0.4043
  538TMC3     O 7988   3.907   3.925  11.584 -0.2773  0.0115 -0.4087
  538TMC3     H 7989   4.019   3.942  11.210  1.0534  3.0967  0.4666
  538TMC3    H1 7990   3.757   4.081  11.527  2.7560 -0.9668  0.1755
  538TMC3    H2 7991   3.624   4.094  11.130 -0.8475 -0.6377  0.8214
  538TMC3    C7 7992   3.536   4.039  11.375  0.5575 -0.0096 -0.1864
  538TMC3    C8 7993   3.840   3.980  11.013  0.0241 -0.5094 -0.0382
  538TMC3    O1 7994   3.459   4.032  11.284  0.6155  0.0152 -0.1518
  538TMC3    O2 7995   3.745   4.018  10.949  0.1657  0.0128  0.1321
  539MPD2     C 7996   3.199   2.703  11.907  0.0787 -0.7721  0.0760
  539MPD2    C1 7997   3.281   2.756  11.813  0.0014 -0.3017 -0.6992
  539MPD2    C2 7998   3.271   2.896  11.787  0.3754  0.0869  0.1618
  539MPD2    C3 7999   3.174   2.969  11.852  0.1467  0.0932  0.0849
  539MPD2    C4 8000   3.099   2.911  11.952  0.0192 -0.2677  0.1992
  539MPD2    C5 8001   3.109   2.777  11.981  0.2708  0.5514  0.3878
  539MPD2     H 8002   3.329   2.946  11.710  2.0475 -0.8721  0.7983
  539MPD2    H1 8003   3.015   2.961  11.999 -0.0213  0.6335 -0.8425
  539MPD2    H2 8004   3.208   2.597  11.927  0.8607 -0.6660  0.3148
  539MPD2    H3 8005   3.045   2.733  12.057  2.0810 -1.7899  0.5738
  539MPD2     N 8006   3.135   3.091  11.802 -0.5727  0.5746  0.0655
  539MPD2    H5 8007   3.041   3.124  11.821 -0.9633 -0.7116  0.3328
  539MPD2    N1 8008   3.358   2.671  11.728  1.0859  0.3116 -0.5482
  539MPD2    H7 8009   3.400   2.716  11.646 -1.5856  0.2355 -1.9643
  540TMC3    C1 8010   3.136   3.304  11.690  0.4376 -0.2285 -0.1827
  540TMC3    C2 8011   3.170   3.350  11.570  0.1949  0.2356  0.3623
  540TMC3    C3 8012   3.182   3.478  11.551  0.4029 -0.6385  1.0441
  540TMC3    C4 8013   3.144   3.384  11.797 -0.4553 -0.5664 -0.1641
  540TMC3    C5 8014   3.169   3.520  11.780  0.4603 -0.4728 -0.4522
  540TMC3    C6 8015   3.189   3.566  11.658 -0.2420 -0.2391  0.2856
  540TMC3     C 8016   3.210   3.179  11.721  0.1829  0.5768 -1.0731
  540TMC3     O 8017   3.333   3.186  11.693 -0.5228 -0.0447  0.1554
  540TMC3     H 8018   3.180   3.280  11.488 -0.8850  0.3693  0.1180
  540TMC3    H1 8019   3.116   3.333  11.888  0.3038 -1.1490 -0.2597
  540TMC3    H2 8020   3.174   3.672  11.642  1.8905  0.2292  1.3405
  540TMC3    C7 8021   3.095   3.605  11.877  0.0879 -0.7283  0.4077
  540TMC3    C8 8022   3.189   3.526  11.417  0.1693  0.0518 -0.6130
  540TMC3    O1 8023   3.048   3.705  11.820 -0.0640 -0.7194 -0.3840
  540TMC3    O2 8024   3.277   3.607  11.394 -0.5256 -0.5128  0.4126
  541MPD2     C 8025   2.096   4.624  13.222  0.6989  0.0190 -0.5562
  541MPD2    C1 8026   2.110   4.548  13.105  0.6272  0.4098 -0.4486
  541MPD2    C2 8027   2.179   4.608  12.999 -0.3073  0.1966  0.0585
  541MPD2    C3 8028   2.230   0.013  13.015 -0.0120  0.5098 -0.2932
  541MPD2    C4 8029   2.218   0.077  13.134 -0.4141  0.3350  0.3367
  541MPD2    C5 8030   2.152   0.026  13.235  0.9353  1.0724  0.3488
  541MPD2     H 8031   2.178   4.553  12.906  2.0409  1.3791 -0.6592
  541MPD2    H1 8032   2.255   0.179  13.143 -1.0619  0.6418 -0.5535
  541MPD2    H2 8033   2.049   4.573  13.306  0.7120  0.8022 -0.0784
  541MPD2    H3 8034   2.141   0.079  13.329  0.4241  2.1806 -0.3259
  541MPD2     N 8035   2.294   0.082  12.909 -0.1782 -0.2795  0.2280
  541MPD2    H5 8036   2.326   0.176  12.927  1.0129 -0.2420 -2.0890
  541MPD2    N1 8037   2.055   4.419  13.091  0.3835 -1.6384  0.3169
  541MPD2    H7 8038   2.100   4.367  13.016  2.6289  1.1961 -0.3245
  542TMC3    C1 8039   2.333   0.131  12.685 -0.4253 -0.3771 -0.2731
  542TMC3    C2 8040   2.359   0.084  12.553  0.1620  0.6069 -0.2692
  542TMC3    C3 8041   2.309   0.142  12.444 -0.1726 -0.2916 -0.0388
  542TMC3    C4 8042   2.253   0.242  12.700 -0.2651  0.3242  0.0470
  542TMC3    C5 8043   2.197   0.296  12.586 -0.5196 -0.3172 -0.0588
  542TMC3    C6 8044   2.232   0.256  12.457  0.4729  0.3628 -0.1319
  542TMC3     C 8045   2.306   0.028  12.781 -0.0275  0.1979 -0.3870
  542TMC3     O 8046   2.309   4.639  12.735 -0.6244 -0.2083  0.1205
  542TMC3     H 8047   2.419   4.718  12.543 -0.4065 -0.0794  2.5657
  542TMC3    H1 8048   2.225   0.279  12.798  0.1247  0.3790  0.1408
  542TMC3    H2 8049   2.197   0.305  12.367  1.2680 -1.9708 -1.7177
  542TMC3    C7 8050   2.094   0.396  12.598  0.5187 -0.0842 -0.3021
  542TMC3    C8 8051   2.348   0.107  12.305  0.0735 -0.4071  0.1740
  542TMC3    O1 8052   2.093   0.466  12.697 -0.1321 -0.4816  0.1690
  542TMC3    O2 8053   2.278   0.150  12.213  0.3154  0.4266  0.4491
  543TMC3    C1 8054   1.510   1.494  17.144 -0.2615  0.4517 -0.6602
  543TMC3    C2 8055   1.483   1.371  17.185 -0.4229  0.2650  0.2142
  543TMC3    C3 8056   1.462   1.338  17.318 -0.2338 -0.7020 -0.0884
  543TMC3    C4 8057   1.516   1.594  17.239  0.0677 -0.3669  0.1997
  543TMC3    C5 8058   1.518   1.561  17.374 -0.0656 -0.7156  0.6881
  543TMC3    C6 8059   1.496   1.432  17.412  0.6808 -0.5312  0.0645
  543TMC3     C 8060   1.497   1.529  17.005 -0.5722  0.4414  0.7827
  543TMC3     O 8061   1.425   1.620  16.973  0.6515 -0.0208 -0.0577
  543TMC3     H 8062   1.468   1.293  17.111 -0.2681 -0.7502  1.2488
  543TMC3    H1 8063   1.536   1.694  17.205  3.4636 -0.9396  0.4838
  543TMC3    H2 8064   1.494   1.416  17.519 -0.1181 -1.6938 -0.1294
  543TMC3    C7 8065   1.564   1.667  17.470 -0.4815 -0.4556  0.0635
  543TMC3    C8 8066   1.491   1.199  17.352 -0.0212 -0.2075 -0.1962
  543TMC3    O1 8067   1.607   1.773  17.423  0.3879 -0.4679 -0.6541
  543TMC3    O2 8068   1.543   1.135  17.257  0.3804 -0.0424  0.6298
  544MPD2     C 8069   1.522   0.809  17.682  0.3833  0.4709  0.3379
  544MPD2    C1 8070   1.577   0.823  17.551 -0.0031 -0.2245  0.5524
  544MPD2    C2 8071   1.553   0.948  17.485 -0.4129  0.3615 -0.2199
  544MPD2    C3 8072   1.464   1.041  17.540 -0.0871 -0.6056 -0.3467
  544MPD2    C4 8073   1.411   1.024  17.668  0.0853  0.2258  0.0534
  544MPD2    C5 8074   1.445   0.912   0.039 -0.4085 -0.5230  0.0138
  544MPD2     H 8075   1.605   0.968  17.392 -1.0615  0.1280 -0.6294
  544MPD2    H1 8076   1.345   1.092   0.026  0.3230  1.0907 -0.7640
  544MPD2    H2 8077   1.539   0.715   0.037  1.3734  1.2940  1.5594
  544MPD2    H3 8078   1.398   0.887   0.134 -0.9181 -1.4904 -0.4828
  544MPD2     N 8079   1.440   1.167  17.480  0.0187  0.8810  0.1863
  544MPD2    H5 8080   1.387   1.235  17.533 -1.4178  1.8376 -2.4506
  544MPD2    N1 8081   1.656   0.720  17.490 -0.0073 -0.4575 -0.6511
  544MPD2    H7 8082   1.682   0.641  17.547  0.2839  0.5277  0.5881
  545TMC3    C1 8083   1.767   0.602  17.317  0.0308 -0.5764 -0.2734
  545TMC3    C2 8084   1.837   0.610  17.198  0.9647 -0.9091 -0.5168
  545TMC3    C3 8085   1.940   0.522  17.187  0.5834  0.2427  0.2943
  545TMC3    C4 8086   1.793   0.505  17.419 -0.8435 -0.0196  1.0406
  545TMC3    C5 8087   1.899   0.419  17.393 -0.0331 -0.3370 -0.3331
  545TMC3    C6 8088   1.968   0.421  17.277  0.3941  0.4042  0.2424
  545TMC3     C 8089   1.677   0.708  17.356 -0.6795 -0.6728  0.2904
  545TMC3     O 8090   1.634   0.787  17.272  0.0710  0.0671  0.1362
  545TMC3     H 8091   1.823   0.707  17.151  2.2719 -0.0794  0.7670
  545TMC3    H1 8092   1.726   0.486  17.501 -0.3206  0.1371  1.4995
  545TMC3    H2 8093   2.055   0.359  17.260  1.9936  2.6242  0.2882
  545TMC3    C7 8094   1.913   0.310  17.486 -0.4103 -0.4812  0.0401
  545TMC3    C8 8095   2.008   0.524  17.057 -0.0690 -0.0242 -0.5131
  545TMC3    O1 8096   1.827   0.310  17.576  0.2765 -0.1168 -0.3197
  545TMC3    O2 8097   2.127   0.492  17.054  0.8876  0.4502  0.2276
  546MPD2     C 8098   2.742   1.589  17.636 -0.6418  0.0271  1.2636
  546MPD2    C1 8099   2.816   1.634  17.533  0.1470  0.1927 -0.2961
  546MPD2    C2 8100   2.850   1.771  17.538 -0.9737  0.7835  0.0748
  546MPD2    C3 8101   2.805   1.845  17.640  0.3519  0.1149 -0.5745
  546MPD2    C4 8102   2.722   1.798   0.044  0.5366 -0.3175 -0.0688
  546MPD2    C5 8103   2.689   1.667   0.037 -0.2534 -0.5180  0.5159
  546MPD2     H 8104   2.905   1.809  17.453  1.1934 -0.0944  1.0853
  546MPD2    H1 8105   2.688   1.852   0.131  0.7202 -0.1158 -0.1240
  546MPD2    H2 8106   2.722   1.483  17.640  2.9182 -0.6647 -0.0289
  546MPD2    H3 8107   2.629   1.619   0.114  0.9703 -1.1924  1.0541
  546MPD2     N 8108   2.852   1.976  17.647 -0.8769  0.0121  0.4236
  546MPD2    H5 8109   2.804   2.041   0.014  0.3700 -0.6516  2.0928
  546MPD2    N1 8110   2.849   1.544  17.430  0.3372 -0.1067  0.1101
  546MPD2    H7 8111   2.833   1.444  17.438  3.1098 -0.8165 -3.2690
  547TMC3    C1 8112   2.935   1.477  17.216 -0.2663  0.0249  0.3761
  547TMC3    C2 8113   2.883   1.456  17.093 -0.6953 -0.4954  0.9092
  547TMC3    C3 8114   2.912   1.337  17.023 -0.2301 -0.4011 -0.2807
  547TMC3    C4 8115   3.004   1.376  17.276  0.0486 -0.5428 -0.2751
  547TMC3    C5 8116   3.029   1.258  17.205 -0.2517  0.8294 -0.2963
  547TMC3    C6 8117   2.992   1.242  17.077 -0.4777 -0.1367 -0.3138
  547TMC3     C 8118   2.893   1.586  17.306 -0.2035 -0.4051  0.1957
  547TMC3     O 8119   2.899   1.702  17.258 -0.5598 -0.7841  0.3706
  547TMC3     H 8120   2.816   1.533  17.056  2.6161  1.0035 -2.0450
  547TMC3    H1 8121   3.044   1.385  17.377  0.3835  0.4560 -0.5016
  547TMC3    H2 8122   3.009   1.148  17.027 -1.5842 -0.8590  0.6676
  547TMC3    C7 8123   3.040   1.140  17.274  0.6337 -0.3104  0.0047
  547TMC3    C8 8124   2.839   1.310  16.898  0.7865 -0.0208 -0.1892
  547TMC3    O1 8125   2.988   1.042  17.217  0.2618  0.6326  0.3915
  547TMC3    O2 8126   2.738   1.377  16.879  0.0723 -0.6096 -0.1552
  548MPD2     C 8127   2.692   1.870  12.349  0.4147  0.6600 -0.5473
  548MPD2    C1 8128   2.674   1.783  12.454  0.1307 -0.4626 -0.6184
  548MPD2    C2 8129   2.742   1.663  12.444  0.2622  0.0678  0.3481
  548MPD2    C3 8130   2.823   1.642  12.333 -0.1290 -0.7399  0.3736
  548MPD2    C4 8131   2.845   1.729  12.227 -0.0719  0.5930  0.1877
  548MPD2    C5 8132   2.771   1.848  12.242  0.5682  0.5812  0.6915
  548MPD2     H 8133   2.732   1.588  12.522  2.1115 -2.8068 -2.1634
  548MPD2    H1 8134   2.911   1.715  12.142 -0.1451  0.8979  0.0805
  548MPD2    H2 8135   2.644   1.967  12.354 -1.3590 -0.2470 -0.0544
  548MPD2    H3 8136   2.783   1.920  12.163  0.3615 -2.0923 -1.7772
  548MPD2     N 8137   2.888   1.513  12.336 -0.4991  0.0016  0.2486
  548MPD2    H5 8138   2.858   1.449  12.409 -1.7071  1.1159  0.7188
  548MPD2    N1 8139   2.584   1.822  12.551 -0.0393  0.1296  0.2650
  548MPD2    H7 8140   2.530   1.901  12.519 -0.0153  0.5940  1.3861
  549TMC3    C1 8141   2.438   1.777  12.740 -0.1352 -0.7526 -0.6033
  549TMC3    C2 8142   2.354   1.883  12.707 -0.3563 -0.1723  0.4913
  549TMC3    C3 8143   2.242   1.893  12.776  0.0354  0.6314 -0.2590
  549TMC3    C4 8144   2.395   1.681  12.833  0.7836  0.5176  0.7363
  549TMC3    C5 8145   2.271   1.690  12.881 -0.0688 -1.1211  0.2789
  549TMC3    C6 8146   2.193   1.796  12.856 -0.4414  0.0766  0.0494
  549TMC3     C 8147   2.555   1.734  12.660  0.1447 -0.1658 -1.1489
  549TMC3     O 8148   2.610   1.630  12.697 -0.4241  0.2752  0.0852
  549TMC3     H 8149   2.372   1.945  12.620 -1.3652 -1.4536 -0.6298
  549TMC3    H1 8150   2.466   1.604  12.863 -0.8902  0.0600  3.5977
  549TMC3    H2 8151   2.096   1.816  12.899 -1.9615 -2.0695 -2.3858
  549TMC3    C7 8152   2.231   1.587  12.976  0.6478 -0.7209 -0.0721
  549TMC3    C8 8153   2.160   1.993  12.709 -0.5459 -0.6571  0.0260
  549TMC3    O1 8154   2.137   1.614  13.055 -0.0378 -0.0299 -0.4942
  549TMC3    O2 8155   2.049   1.952  12.671 -0.0467 -0.1938  0.1468
  550TMC3    C1 8156   1.065   4.115  12.365 -0.5034  0.0293  0.1285
  550TMC3    C2 8157   1.082   4.200  12.473 -0.0564 -0.2721  0.0420
  550TMC3    C3 8158   0.997   4.306  12.482  0.1514 -0.1805 -0.1077
  550TMC3    C4 8159   0.985   4.149  12.259 -0.3152 -0.4514 -0.5563
  550TMC3    C5 8160   0.898   4.255  12.275 -0.4204  0.4140 -0.2272
  550TMC3    C6 8161   0.897   4.334  12.389  0.4253  0.4235  0.2812
  550TMC3     C 8162   1.175   4.019  12.347 -0.0818 -0.2880  0.3360
  550TMC3     O 8163   1.260   3.993  12.429 -0.4021  0.1531 -0.4393
  550TMC3     H 8164   1.138   4.163  12.558 -2.0655 -0.2702  1.3493
  550TMC3    H1 8165   0.986   4.088  12.170 -2.0777 -0.6375 -0.4373
  550TMC3    H2 8166   0.823   4.414  12.387  2.5279  2.3268 -1.6980
  550TMC3    C7 8167   0.840   4.315  12.157  0.7825 -0.4411  0.4428
  550TMC3    C8 8168   1.054   4.420  12.551 -0.3343  0.2313  0.4218
  550TMC3    O1 8169   0.725   4.356  12.175 -0.1602 -0.3579 -0.0611
  550TMC3    O2 8170   1.123   4.378  12.645  0.0420 -0.1598 -0.0852
  551TMC3    C1 8171   3.926   2.410  13.486  0.6963  1.0745  0.2576
  551TMC3    C2 8172   3.970   2.499  13.398  0.1757  0.1934 -0.0340
  551TMC3    C3 8173   4.030   2.611  13.448 -0.3291 -0.6762  0.1588
  551TMC3    C4 8174   3.941   2.428  13.620  0.3537 -0.2405 -0.3370
  551TMC3    C5 8175   4.007   2.539  13.667  0.2634  0.3057 -0.4136
  551TMC3    C6 8176   4.059   2.625  13.580  0.0391  0.2742  0.2403
  551TMC3     C 8177   3.851   2.301  13.433  0.4287  0.0771 -0.0100
  551TMC3     O 8178   3.853   2.284  13.311  0.3020  0.6073  0.1367
  551TMC3     H 8179   3.953   2.489  13.291 -0.8268  0.3369  0.1180
  551TMC3    H1 8180   3.893   2.371  13.698 -1.0606 -0.6526 -1.4968
  551TMC3    H2 8181   4.131   2.697  13.618  0.7236 -0.3137  0.0719
  551TMC3    C7 8182   4.027   2.555  13.809 -0.1148  0.0290 -0.1548
  551TMC3    C8 8183   4.062   2.722  13.366 -0.0127 -0.1896  0.8595
  551TMC3    O1 8184   4.022   2.459  13.885 -0.5439  0.0040 -0.2587
  551TMC3    O2 8185   4.077   2.702  13.247  0.6265 -0.1694 -0.3341
  552MPD2     C 8186   1.014   4.510  13.752  0.4959  0.0296  0.9032
  552MPD2    C1 8187   0.989   4.383  13.804  0.4542 -0.6080 -0.5083
  552MPD2    C2 8188   1.092   4.318  13.863 -0.1967 -0.1643 -0.1138
  552MPD2    C3 8189   1.224   4.364  13.868  0.5355 -0.0790 -0.1645
  552MPD2    C4 8190   1.244   4.492  13.826  0.1607 -0.6436 -0.3721
  552MPD2    C5 8191   1.140   4.558  13.763 -0.5953  0.4272 -0.0950
  552MPD2     H 8192   1.074   4.220  13.905 -0.8003  0.3625  0.8450
  552MPD2    H1 8193   1.336   4.548  13.827 -0.4898  0.4453 -1.8317
  552MPD2    H2 8194   0.952   4.576  13.693 -2.1940 -1.0128  2.5906
  552MPD2    H3 8195   1.164   4.645  13.702  0.1085 -0.3127 -0.8728
  552MPD2     N 8196   1.332   4.296  13.933  0.0642  0.8734  0.3603
  552MPD2    H5 8197   1.422   4.344  13.935  0.6938 -0.3587  1.7172
  552MPD2    N1 8198   0.857   4.327  13.798 -0.3034 -0.0884 -0.7856
  552MPD2    H7 8199   0.841   4.245  13.856  2.4096 -1.5030 -2.0619
  553TMC3    C1 8200   0.643   4.277  13.714 -0.3583  0.3391  0.0070
  553TMC3    C2 8201   0.575   4.280  13.595 -0.2405  0.3695  0.3923
  553TMC3    C3 8202   0.485   4.182  13.561 -0.0433 -0.2984 -0.4017
  553TMC3    C4 8203   0.638   4.164  13.790 -0.3723  0.1631 -0.9939
  553TMC3    C5 8204   0.538   4.078  13.763 -0.2377  0.1921  1.0986
  553TMC3    C6 8205   0.456   4.084  13.656  0.1141  0.8029  0.1214
  553TMC3     C 8206   0.752   4.374  13.720 -0.2185  0.3988 -0.6542
  553TMC3     O 8207   0.739   4.478  13.656 -0.7029 -0.2059 -0.1682
  553TMC3     H 8208   0.600   4.353  13.520  0.6302 -0.4072 -0.0709
  553TMC3    H1 8209   0.689   4.168  13.886  0.1309  0.4172 -1.2670
  553TMC3    H2 8210   0.380   4.011  13.632 -0.1904  0.5475  1.8294
  553TMC3    C7 8211   0.526   3.966  13.848  0.0544  0.6780  0.4059
  553TMC3    C8 8212   0.504   4.120  13.431 -0.4713  0.4539  0.4805
  553TMC3    O1 8213   0.418   3.956  13.907  0.0370 -0.3042 -0.1782
  553TMC3    O2 8214   0.512   3.998  13.445 -0.0684  0.3345 -0.1847
  554TMC3    C1 8215   2.149   2.716  11.759  0.0950  0.7875  0.4988
  554TMC3    C2 8216   2.080   2.683  11.645  0.3723  0.2748  0.5417
  554TMC3    C3 8217   2.055   2.778  11.558  0.4995  0.0293 -0.1833
  554TMC3    C4 8218   2.206   2.838  11.778  0.5066  0.6342  0.2289
  554TMC3    C5 8219   2.182   2.925  11.679 -0.5493 -0.3765 -0.2353
  554TMC3    C6 8220   2.101   2.903  11.570 -0.2055  0.1800  0.5550
  554TMC3     C 8221   2.159   2.609  11.856  0.4049  0.0566 -0.5064
  554TMC3     O 8222   2.107   2.502  11.828 -1.0310  0.6163  0.4656
  554TMC3     H 8223   2.023   2.591  11.643  1.4743 -0.3466 -1.8399
  554TMC3    H1 8224   2.272   2.851  11.864 -2.1849 -0.0836  2.3929
  554TMC3    H2 8225   2.045   2.987  11.530  0.1809  1.3202  2.4253
  554TMC3    C7 8226   2.254   3.048  11.669  0.1238 -0.1857 -0.5975
  554TMC3    C8 8227   2.005   2.741  11.422 -0.3167 -0.4809  0.1786
  554TMC3    O1 8228   2.246   3.103  11.560 -0.2956  1.1242 -0.0948
  554TMC3    O2 8229   1.951   2.631  11.415  0.1810  0.0194 -0.1366
  555TMC3    C1 8230   2.220   2.629  15.040 -0.1468 -0.2452 -0.1586
  555TMC3    C2 8231   2.223   2.758  15.098  0.0080 -0.2396 -0.1688
  555TMC3    C3 8232   2.196   2.769  15.230  0.0937  0.8140 -1.0102
  555TMC3    C4 8233   2.194   2.521  15.113  0.1513 -0.2182  0.1006
  555TMC3    C5 8234   2.158   2.543  15.241 -1.2476  0.1352 -0.5733
  555TMC3    C6 8235   2.149   2.663  15.303 -0.0663  0.0141  0.0904
  555TMC3     C 8236   2.174   2.610  14.907 -0.0333  0.2040  0.7342
  555TMC3     O 8237   2.187   2.500  14.852  0.8055  0.2757  0.1938
  555TMC3     H 8238   2.271   2.838  15.043 -0.1401  0.7968  1.2361
  555TMC3    H1 8239   2.179   2.424  15.067 -0.0265 -0.2573  0.2405
  555TMC3    H2 8240   2.121   2.672  15.408 -2.7035  0.5315 -0.6555
  555TMC3    C7 8241   2.101   2.430  15.311 -0.8016  0.5602 -0.7289
  555TMC3    C8 8242   2.233   2.892  15.300 -0.2417  0.3413 -0.6385
  555TMC3    O1 8243   2.004   2.448  15.383  0.1132 -0.1309  0.0651
  555TMC3    O2 8244   2.252   2.982  15.219 -0.0355 -0.1384  0.0296
  556MPD2     C 8245   0.251   3.913  11.121  0.0562 -0.0255  0.6155
  556MPD2    C1 8246   0.132   3.969  11.080  0.8604 -1.2300  0.1331
  556MPD2    C2 8247   0.046   3.893  11.010  0.2514  0.6865 -0.1671
  556MPD2    C3 8248   0.070   3.756  10.979  0.2961  0.1266  0.0287
  556MPD2    C4 8249   0.193   3.700  11.008  0.4912  0.4409  0.6826
  556MPD2    C5 8250   0.282   3.783  11.081 -0.1873  0.0536 -0.3212
  556MPD2     H 8251   4.677   3.941  10.982  0.1003  1.4476  1.6790
  556MPD2    H1 8252   0.234   3.602  10.991 -0.7521  0.2932 -1.3800
  556MPD2    H2 8253   0.321   3.964  11.185  1.8144 -1.3537 -0.2631
  556MPD2    H3 8254   0.379   3.741  11.107 -0.8722 -0.2822  1.6696
  556MPD2     N 8255   4.698   3.691  10.901  0.1000 -0.1889 -0.6595
  556MPD2    H5 8256   4.614   3.745  10.887 -0.5009 -0.3439  2.3044
  556MPD2    N1 8257   0.086   4.103  11.113  0.3456  0.4179  0.6073
  556MPD2    H7 8258   4.720   4.131  11.073  1.2781  2.1923 -0.2315
  557TMC3    C1 8259   4.611   3.541  10.739  0.7291 -0.8880  0.2397
  557TMC3    C2 8260   4.654   3.442  10.649 -0.2237  0.3016  0.3438
  557TMC3    C3 8261   4.578   3.432  10.536 -0.4440 -0.0171  0.6450
  557TMC3    C4 8262   4.516   3.639  10.707  0.6996 -0.3165 -0.1727
  557TMC3    C5 8263   4.455   3.628  10.581 -0.3599  0.4647 -0.5284
  557TMC3    C6 8264   4.481   3.520  10.501 -0.4267  0.8210 -0.3671
  557TMC3     C 8265   4.706   3.567  10.844 -0.9882  1.3779 -0.4556
  557TMC3     O 8266   0.072   3.484  10.848  0.2057  0.6925 -0.3748
  557TMC3     H 8267   4.713   3.356  10.678 -1.2961 -0.6151 -0.2102
  557TMC3    H1 8268   4.505   3.723  10.775  1.0472 -0.6789  0.3315
  557TMC3    H2 8269   4.418   3.500  10.414 -1.5744 -1.5005  1.0144
  557TMC3    C7 8270   4.330   3.697  10.557  0.1515 -0.2864 -0.0904
  557TMC3    C8 8271   4.622   3.331  10.450  0.9624  0.2243 -0.8027
  557TMC3    O1 8272   4.281   3.695  10.446  0.0819 -0.2228 -0.4116
  557TMC3    O2 8273   4.680   3.237  10.503  0.7315 -0.0158  0.1061
  558TMC3    C1 8274   2.458   2.145  10.522 -0.8139  0.0131 -0.0350
  558TMC3    C2 8275   2.326   2.121  10.563  0.4130 -0.0201  0.0513
  558TMC3    C3 8276   2.235   2.088  10.469  0.2281  0.6667 -0.9023
  558TMC3    C4 8277   2.482   2.158  10.388 -0.1220  0.2834  0.8650
  558TMC3    C5 8278   2.383   2.135  10.300  0.1273  0.5196 -0.7436
  558TMC3    C6 8279   2.259   2.085  10.338 -0.1064  0.1819  0.2897
  558TMC3     C 8280   2.572   2.175  10.612 -0.0170 -0.6983  0.1426
  558TMC3     O 8281   2.667   2.231  10.559  0.5247 -0.5218 -0.3582
  558TMC3     H 8282   2.296   2.128  10.667  0.1658 -0.4305  0.0078
  558TMC3    H1 8283   2.579   2.179  10.346 -0.3593 -0.9671 -0.3330
  558TMC3    H2 8284   2.181   2.053  10.270 -0.4005 -0.2325  0.8190
  558TMC3    C7 8285   2.427   2.137  10.157 -0.7382  0.0388 -0.1732
  558TMC3    C8 8286   2.115   2.007  10.509  0.0655 -0.3848  0.0481
  558TMC3    O1 8287   2.527   2.203  10.130  0.2434  0.2537 -0.3398
  558TMC3    O2 8288   2.018   2.021  10.439  0.1548 -0.0135  0.2614
  559MPD2     C 8289   2.497   2.581  10.379  0.4427  0.3985 -0.8812
  559MPD2    C1 8290   2.378   2.597  10.436  0.0201 -0.1556 -0.4908
  559MPD2    C2 8291   2.369   2.564  10.577  0.1602  0.6481 -0.2301
  559MPD2    C3 8292   2.484   2.544  10.653  0.5224  0.0567  0.5817
  559MPD2    C4 8293   2.602   2.515  10.591 -0.2730  0.0091 -0.1513
  559MPD2    C5 8294   2.603   2.538  10.458 -0.3420 -0.0552 -0.0765
  559MPD2     H 8295   2.280   2.566  10.638 -0.5464 -0.9940 -1.2119
  559MPD2    H1 8296   2.693   2.478  10.637  0.2666  2.6751  0.9331
  559MPD2    H2 8297   2.502   2.591  10.271  2.1052 -1.7468 -0.9933
  559MPD2    H3 8298   2.701   2.523  10.414  0.3453  1.2158  1.0463
  559MPD2     N 8299   2.471   2.521  10.792  0.1836 -0.1912 -0.3623
  559MPD2    H5 8300   2.380   2.534  10.833  0.2597 -0.1654 -0.2005
  559MPD2    N1 8301   2.268   2.628  10.358  0.2627  0.9177 -0.4885
  559MPD2    H7 8302   2.270   2.621  10.257  0.8899 -0.0727 -0.4111
  560TMC3    C1 8303   2.526   2.504  11.015 -0.3007  0.0885  0.9500
  560TMC3    C2 8304   2.456   2.390  11.046 -0.3028 -0.2547  0.3868
  560TMC3    C3 8305   2.476   2.334  11.171 -0.1165 -0.6539 -0.7096
  560TMC3    C4 8306   2.606   2.567  11.110  0.2462  0.3703 -0.0074
  560TMC3    C5 8307   2.608   2.512  11.245  0.1897  0.0313  0.4184
  560TMC3    C6 8308   2.541   2.393  11.275 -0.0893 -0.0418  0.3691
  560TMC3     C 8309   2.575   2.507  10.882 -0.2626 -0.1434 -0.1619
  560TMC3     O 8310   2.696   2.522  10.868  0.3827 -0.0779 -0.2403
  560TMC3     H 8311   2.409   2.335  10.965 -0.4346  0.0831  0.2330
  560TMC3    H1 8312   2.678   2.643  11.085  2.7711 -2.0268 -0.0352
  560TMC3    H2 8313   2.559   2.344  11.370  2.1982 -2.2018 -1.1811
  560TMC3    C7 8314   2.705   2.558  11.340  0.8564  0.3245  0.5992
  560TMC3    C8 8315   2.453   2.187  11.185 -0.1090  1.0837  0.1795
  560TMC3    O1 8316   2.742   2.487  11.432 -0.2053 -0.5580 -0.0127
  560TMC3    O2 8317   2.386   2.129  11.103 -0.1086  0.0026  0.0192
  561TMC3    C1 8318   0.412   1.524  11.089  0.0216 -0.3008 -0.5758
  561TMC3    C2 8319   0.391   1.444  11.202 -0.5748 -0.6854  0.0412
  561TMC3    C3 8320   0.383   1.510  11.320  0.3531 -0.3814 -0.4442
  561TMC3    C4 8321   0.440   1.660  11.101 -0.2375 -0.0396  0.3819
  561TMC3    C5 8322   0.437   1.716  11.228 -0.2971 -0.5261  0.1232
  561TMC3    C6 8323   0.409   1.639  11.337  0.3476  0.7954 -0.6752
  561TMC3     C 8324   0.423   1.458  10.962 -1.1176 -0.5159  0.2479
  561TMC3     O 8325   0.478   1.348  10.965 -0.5466  0.0295  0.3138
  561TMC3     H 8326   0.356   1.342  11.193 -0.3540 -0.6324 -1.4803
  561TMC3    H1 8327   0.481   1.721  11.021 -0.7635  2.2419  1.8289
  561TMC3    H2 8328   0.413   1.687  11.434 -0.1318 -0.1009 -0.2160
  561TMC3    C7 8329   0.463   1.850  11.257  0.3369  0.4554  0.1363
  561TMC3    C8 8330   0.317   1.437  11.425  0.0111  0.6002  0.5947
  561TMC3    O1 8331   0.403   1.898  11.354  0.4493  0.3613 -0.0670
  561TMC3    O2 8332   0.329   1.316  11.434 -0.0391  0.4616  0.2406
  562TMC3    C1 8333   1.945   3.352  16.081  0.9619 -0.0312 -0.6808
  562TMC3    C2 8334   1.863   3.443  16.033 -0.1796 -0.5665  0.6385
  562TMC3    C3 8335   1.805   3.427  15.910  0.2899 -0.4414 -0.2138
  562TMC3    C4 8336   1.982   3.240  16.011 -0.3681  0.0064  0.1653
  562TMC3    C5 8337   1.929   3.228  15.883 -0.3353 -0.7534  0.3239
  562TMC3    C6 8338   1.848   3.321  15.831  1.0274  0.2180  0.2486
  562TMC3     C 8339   2.030   3.395  16.189  0.2479  0.1802  0.2563
  562TMC3     O 8340   2.138   3.339  16.199  0.4443  0.8187 -0.2537
  562TMC3     H 8341   1.825   3.521  16.098  0.3383 -0.4801  0.8398
  562TMC3    H1 8342   2.068   3.182  16.042 -0.9185 -1.9055 -1.8817
  562TMC3    H2 8343   1.811   3.303  15.731 -0.8970 -0.8639  1.1475
  562TMC3    C7 8344   1.940   3.096  15.816  0.0447 -0.0723 -0.3448
  562TMC3    C8 8345   1.687   3.504  15.883 -0.5847 -0.3531 -0.1440
  562TMC3    O1 8346   1.930   3.095  15.694  0.1895  0.2589 -0.0999
  562TMC3    O2 8347   1.635   3.548  15.984 -0.6314 -0.2415  0.1130
  563MPD2     C 8348   3.932   0.168  15.658  1.1576 -0.3704  0.5300
  563MPD2    C1 8349   3.968   0.143  15.788  0.1675  0.6857  0.1158
  563MPD2    C2 8350   4.081   0.065  15.804 -0.5212 -0.1902 -0.0803
  563MPD2    C3 8351   4.154   0.008  15.701  0.3067 -0.1040 -0.2637
  563MPD2    C4 8352   4.116   0.030  15.573  0.3934 -0.8150  0.3250
  563MPD2    C5 8353   4.002   0.110  15.554  0.1935 -0.1421  0.3739
  563MPD2     H 8354   4.131   0.041  15.897  1.2483 -2.7853 -1.6929
  563MPD2    H1 8355   4.179   0.011  15.487  0.5670  1.8547 -0.1244
  563MPD2    H2 8356   3.859   0.244  15.632  0.2390 -1.6531 -0.7030
  563MPD2    H3 8357   3.965   0.116  15.452  0.9960 -0.7925  0.0472
  563MPD2     N 8358   4.256   4.640  15.735  0.0343  0.0798 -0.1272
  563MPD2    H5 8359   4.272   4.628  15.834  0.6485  0.4659 -0.1759
  563MPD2    N1 8360   3.901   0.203  15.894  0.5744 -0.3902 -0.7310
  563MPD2    H7 8361   3.826   0.269  15.872  2.7996  1.6629 -2.1581
  564TMC3    C1 8362   3.834   0.226  16.119  0.1510  0.2281 -0.6200
  564TMC3    C2 8363   3.713   0.185  16.079 -0.1776  0.8097  0.1024
  564TMC3    C3 8364   3.643   0.100  16.161 -0.1657 -0.0801 -0.1748
  564TMC3    C4 8365   3.879   0.190  16.248 -0.5491 -0.4223 -0.0266
  564TMC3    C5 8366   3.805   0.097  16.323  0.3791 -0.4184  0.2449
  564TMC3    C6 8367   3.687   0.062  16.283  0.4084  0.1156  1.1445
  564TMC3     C 8368   3.939   0.193  16.026  0.2543  0.3374  0.3185
  564TMC3     O 8369   4.041   0.147  16.079 -0.5700 -0.3043 -0.0175
  564TMC3     H 8370   3.668   0.230  15.990  0.8193  0.8778 -0.3689
  564TMC3    H1 8371   3.967   0.239  16.286  0.2626 -0.2356 -2.1443
  564TMC3    H2 8372   3.624   0.001  16.347  0.7988 -1.7979 -0.3042
  564TMC3    C7 8373   3.886   4.711  16.383  0.0416 -0.6804 -0.7479
  564TMC3    C8 8374   3.569   4.713  16.099 -0.1216  0.1704  0.5556
  564TMC3    O1 8375   3.983   0.023  16.448  0.0719 -0.9302 -0.1396
  564TMC3    O2 8376   3.555   4.614  16.168  0.0285 -0.6500  0.1611
  565TMC3    C1 8377   4.458   1.341  10.400  0.0853  0.2875  0.5129
  565TMC3    C2 8378   4.425   1.285  10.522 -0.5865 -0.3066 -0.6518
  565TMC3    C3 8379   4.461   1.157  10.550  0.0254  0.1933  0.4886
  565TMC3    C4 8380   4.515   1.258  10.300  0.2358 -0.0799  0.1610
  565TMC3    C5 8381   4.542   1.127  10.335 -0.4098  0.4833  0.3470
  565TMC3    C6 8382   4.512   1.070  10.456  0.3659  0.2990  0.3636
  565TMC3     C 8383   4.427   1.484  10.369  0.6829  0.2477  1.0698
  565TMC3     O 8384   4.440   1.517  10.254 -0.5457  0.7887  0.4403
  565TMC3     H 8385   4.374   1.340  10.600  0.0416  1.3226 -1.3799
  565TMC3    H1 8386   4.531   1.301  10.202  0.1911  2.1614  1.1402
  565TMC3    H2 8387   4.557   0.979  10.495 -0.4360  0.4096  1.5440
  565TMC3    C7 8388   4.592   1.037  10.231 -0.5086  0.1193  0.3774
  565TMC3    C8 8389   4.430   1.096  10.682 -0.5762  0.7051 -0.1047
  565TMC3    O1 8390   4.605   1.085  10.113  0.3651  0.3384  0.0001
  565TMC3    O2 8391   4.420   0.976  10.681 -0.4521  0.0441  0.0313
  566MPD2     C 8392   0.931   2.860  14.850  0.0707 -0.4782  0.0701
  566MPD2    C1 8393   0.932   2.901  14.723  0.5795  0.2085  0.3164
  566MPD2    C2 8394   0.841   2.841  14.635  0.1098 -0.4271  0.6021
  566MPD2    C3 8395   0.765   2.736  14.671 -0.3696  0.0579  0.9678
  566MPD2    C4 8396   0.761   2.705  14.806 -0.2292  0.8268 -0.0535
  566MPD2    C5 8397   0.839   2.771  14.895 -0.7898  0.0390  0.0205
  566MPD2     H 8398   0.846   2.873  14.531 -1.1335 -0.9439  0.3872
  566MPD2    H1 8399   0.695   2.626  14.841 -2.3163  3.0411  1.0186
  566MPD2    H2 8400   0.998   2.899  14.925 -0.7720  1.9436 -0.4307
  566MPD2    H3 8401   0.829   2.753  15.002  1.4770 -0.0278  0.2203
  566MPD2     N 8402   0.691   2.666  14.570  0.6716  0.0932  0.8575
  566MPD2    H5 8403   0.697   2.696  14.474  1.4573  0.7582  1.1151
  566MPD2    N1 8404   1.029   2.988  14.672  0.3008 -0.6758  1.3095
  566MPD2    H7 8405   1.096   3.024  14.739  1.3617 -0.6960  0.2679
  567TMC3    C1 8406   1.160   3.086  14.514  0.5481  0.2466 -0.3518
  567TMC3    C2 8407   1.172   3.163  14.402 -0.0708  0.2850 -0.0420
  567TMC3    C3 8408   1.281   3.164  14.323 -0.4997 -0.8243 -0.1139
  567TMC3    C4 8409   1.269   3.002  14.545 -0.1060  0.8176 -0.3279
  567TMC3    C5 8410   1.383   3.009  14.461 -0.4376 -0.1590  0.0945
  567TMC3    C6 8411   1.385   3.079  14.347 -0.5317  0.7586  0.6550
  567TMC3     C 8412   1.025   3.047  14.544 -0.5467 -0.3980 -0.4582
  567TMC3     O 8413   0.938   3.066  14.459  0.1332 -0.8319 -0.4103
  567TMC3     H 8414   1.098   3.240  14.383 -0.8569 -0.6658 -0.8307
  567TMC3    H1 8415   1.258   2.921  14.615  0.8038  0.8593 -0.1288
  567TMC3    H2 8416   1.462   3.087  14.271  0.7014 -0.2274  1.7969
  567TMC3    C7 8417   1.501   2.927  14.482 -0.0091  1.4737 -0.1009
  567TMC3    C8 8418   1.237   3.172  14.183  0.7484  0.6814 -0.5054
  567TMC3    O1 8419   1.568   2.893  14.388 -0.3089 -0.2975  0.2805
  567TMC3    O2 8420   1.119   3.143  14.165 -0.6178  0.6726  0.0503
  568MPD2     C 8421   4.200   3.476  16.445 -0.2035 -0.1526 -0.3812
  568MPD2    C1 8422   4.079   3.487  16.497 -0.1160  0.3599  0.3572
  568MPD2    C2 8423   3.994   3.585  16.445 -0.2527  0.5110 -0.2950
  568MPD2    C3 8424   4.028   3.673  16.344  0.6498 -0.4273 -0.2469
  568MPD2    C4 8425   4.153   3.664  16.298  0.1939  0.3259  0.3052
  568MPD2    C5 8426   4.240   3.565  16.346 -0.2820 -0.2055  0.8201
  568MPD2     H 8427   3.897   3.593  16.492 -0.8835  0.5257 -1.5866
  568MPD2    H1 8428   4.197   3.733  16.228 -1.8795  2.2802  0.9355
  568MPD2    H2 8429   4.272   3.398  16.469 -0.7474 -0.5185  0.0560
  568MPD2    H3 8430   4.338   3.576  16.301 -0.3218 -1.8632  0.3052
  568MPD2     N 8431   3.929   3.762  16.302 -0.0848  0.0778  0.4533
  568MPD2    H5 8432   3.846   3.769  16.360  0.7403  0.5080  1.5792
  568MPD2    N1 8433   4.036   3.393  16.592  0.0445 -0.2454  0.4818
  568MPD2    H7 8434   4.098   3.314  16.599  0.1866  0.1164  3.2520
  569TMC3    C1 8435   3.827   3.927  16.169  0.1668 -0.1527 -0.0714
  569TMC3    C2 8436   3.757   3.984  16.271 -0.6044  0.2969  0.3074
  569TMC3    C3 8437   3.646   4.060  16.238 -0.4932  0.4569 -0.0438
  569TMC3    C4 8438   3.801   3.942  16.044  0.8772  0.9433 -0.3396
  569TMC3    C5 8439   3.690   4.019  16.010 -0.1668 -0.2201 -0.3756
  569TMC3    C6 8440   3.611   4.076  16.104  0.0135 -0.1103  0.3983
  569TMC3     C 8441   3.948   3.850  16.197 -0.3989  0.2717 -0.2571
  569TMC3     O 8442   4.042   3.863  16.118 -1.0778 -0.0464  0.0523
  569TMC3     H 8443   3.788   3.964  16.372 -1.2766 -0.1272  0.4327
  569TMC3    H1 8444   3.862   3.894  15.968  0.3089  0.5909 -0.5737
  569TMC3    H2 8445   3.512   4.114  16.079  1.6635  1.6361 -3.5146
  569TMC3    C7 8446   3.715   4.117  15.907  0.1521 -0.0748 -0.0714
  569TMC3    C8 8447   3.606   4.180  16.314 -0.6731  0.0643  0.3190
  569TMC3    O1 8448   3.794   4.086  15.819 -0.6136  0.0478  0.0416
  569TMC3    O2 8449   3.528   4.253  16.255 -0.1831  0.7383  0.4509
  570TMC3    C1 8450   2.780   2.313  16.463 -0.4259 -0.5098 -0.1815
  570TMC3    C2 8451   2.845   2.326  16.341 -0.0819 -0.5050 -0.2431
  570TMC3    C3 8452   2.871   2.447  16.289 -0.3757  0.4437 -0.1366
  570TMC3    C4 8453   2.729   2.424  16.526  0.7929  0.7523  0.6488
  570TMC3    C5 8454   2.758   2.547  16.467  0.1334  0.4798  0.3551
  570TMC3    C6 8455   2.830   2.560  16.353 -0.2635 -0.1693 -0.2927
  570TMC3     C 8456   2.731   2.177  16.491  0.7562 -0.4199 -0.3825
  570TMC3     O 8457   2.749   2.099  16.397 -0.3216 -0.3463 -0.4920
  570TMC3     H 8458   2.903   2.244  16.300  0.9161  1.4122 -2.6632
  570TMC3    H1 8459   2.680   2.415  16.622 -0.4158  2.0804  0.1677
  570TMC3    H2 8460   2.846   2.658  16.310  1.5754 -0.0950  0.5743
  570TMC3    C7 8461   2.714   2.666  16.537 -0.0400 -0.3942 -0.1430
  570TMC3    C8 8462   2.970   2.462  16.179 -0.1265  0.2218  0.3196
  570TMC3    O1 8463   2.669   2.651  16.651 -0.3476 -0.3943  0.5238
  570TMC3    O2 8464   3.012   2.572  16.153 -0.2008  0.3619 -0.0096
  571MPD2     C 8465   0.435   4.183   0.196  0.0395 -0.3625  0.1956
  571MPD2    C1 8466   0.517   4.137   0.293  0.0823 -0.3530 -0.5461
  571MPD2    C2 8467   0.604   4.218   0.348 -0.2141 -0.4787 -0.6608
  571MPD2    C3 8468   0.616   4.358   0.316 -0.3666  0.0786 -0.4734
  571MPD2    C4 8469   0.526   4.403   0.216 -0.2651  0.6860 -0.5301
  571MPD2    C5 8470   0.436   4.314   0.152 -0.2238  0.6520 -0.5075
  571MPD2     H 8471   0.678   4.176   0.415  1.4288  1.4243 -1.2804
  571MPD2    H1 8472   0.519   4.508   0.189 -2.5717  0.7552  0.3886
  571MPD2    H2 8473   0.367   4.115   0.144  1.4995 -0.0906 -2.0567
  571MPD2    H3 8474   0.367   4.348   0.076 -1.7234 -0.1198  0.5022
  571MPD2     N 8475   0.719   4.444   0.356  0.4212  0.4207  0.7644
  571MPD2    H5 8476   0.733   4.534   0.311 -1.2318 -0.4043 -1.4144
  571MPD2    N1 8477   0.500   3.998   0.324  0.4314 -0.1106 -0.2261
  571MPD2    H7 8478   0.436   3.941   0.270  1.1989 -1.3528  0.1899
  572TMC3    C1 8479   0.937   4.494   0.451 -0.0603  0.8720  0.1103
  572TMC3    C2 8480   1.025   4.461   0.556 -0.3547  0.1199  0.5527
  572TMC3    C3 8481   1.159   4.503   0.545  0.3823 -0.6158 -0.4374
  572TMC3    C4 8482   0.980   4.572   0.341  0.1822  0.0233 -0.5411
  572TMC3    C5 8483   1.107   4.613   0.346 -0.1931 -0.8301 -0.4396
  572TMC3    C6 8484   1.200   4.569   0.433  0.5399 -1.1978  0.3709
  572TMC3     C 8485   0.825   4.402   0.436  0.2416  0.0524  0.0452
  572TMC3     O 8486   0.829   4.304   0.510 -0.4227  0.0704 -0.4741
  572TMC3     H 8487   0.979   4.440   0.652 -0.6621 -0.5029  0.2670
  572TMC3    H1 8488   0.912   4.623   0.274 -1.3826  3.2945  3.5800
  572TMC3    H2 8489   1.307   4.589   0.427  0.2795  0.5515  1.7375
  572TMC3    C7 8490   1.149   4.699   0.234  0.5323  0.4269 -0.1190
  572TMC3    C8 8491   1.250   4.495   0.661  0.4912 -0.9345 -0.1646
  572TMC3    O1 8492   1.063   0.046   0.185  0.1444 -0.0894  0.1385
  572TMC3    O2 8493   1.355   4.554   0.637  0.1191  0.3635  0.4791
  573MPD2     C 8494   3.044   0.009   0.937  0.2463 -0.1521 -0.4615
  573MPD2    C1 8495   2.938   4.644   0.913 -0.3006 -0.8953 -0.4794
  573MPD2    C2 8496   2.861   4.654   0.799 -0.1476  0.2101 -0.1225
  573MPD2    C3 8497   2.904   0.027   0.708 -0.3732 -0.0679  0.1297
  573MPD2    C4 8498   3.019   0.099   0.730 -0.5845 -0.0118 -0.0991
  573MPD2    C5 8499   3.086   0.095   0.846 -0.5776 -0.0406 -0.4273
  573MPD2     H 8500   2.776   4.587   0.790 -1.0442  1.0425  2.3028
  573MPD2    H1 8501   3.064   0.167   0.658  0.1897 -0.4530 -0.0298
  573MPD2    H2 8502   3.098   0.012   1.031  1.9330 -1.2485 -1.3949
  573MPD2    H3 8503   3.174   0.158   0.857 -0.7312 -0.2975  2.1739
  573MPD2     N 8504   2.833   0.061   0.589  0.2627 -0.7421 -0.5610
  573MPD2    H5 8505   2.877   0.135   0.535  0.9371 -1.7278 -1.3663
  573MPD2    N1 8506   2.924   4.545   1.008 -0.5366  0.5499  0.0637
  573MPD2    H7 8507   2.998   4.536   1.077 -0.2394  1.4483 -0.1426
  574TMC3    C1 8508   2.669   0.061   0.425  0.6227 -0.4053  0.3821
  574TMC3    C2 8509   2.544   0.022   0.385  1.1069 -1.0611 -0.3747
  574TMC3    C3 8510   2.504   0.070   0.263 -0.1804 -0.3037  0.3660
  574TMC3    C4 8511   2.757   0.125   0.342 -0.0085  0.2048  0.6709
  574TMC3    C5 8512   2.709   0.164   0.221  0.5125 -0.1189  0.3358
  574TMC3    C6 8513   2.581   0.139   0.176  0.4848 -1.2336  0.0705
  574TMC3     C 8514   2.713   0.018   0.555 -0.1182 -0.4977 -0.2512
  574TMC3     O 8515   2.646   4.658   0.608  0.3691 -0.1339 -1.3080
  574TMC3     H 8516   2.482   4.682   0.447  1.6053 -1.3518 -0.1733
  574TMC3    H1 8517   2.862   0.142   0.361  0.3773 -0.2007 -1.0502
  574TMC3    H2 8518   2.560   0.168   0.074  0.5708  1.9689  0.9452
  574TMC3    C7 8519   2.797   0.217   0.119  0.3011  0.5164  0.3326
  574TMC3    C8 8520   2.372   0.018   0.223  0.1963 -0.0995  0.4599
  574TMC3    O1 8521   2.757   0.220   0.004  0.7098 -0.3333 -0.3193
  574TMC3    O2 8522   2.318   4.661   0.296 -0.1537  0.0517 -0.6757
  575TMC3    C1 8523   4.095   0.571  11.338  0.7534  0.4021 -0.8252
  575TMC3    C2 8524   4.132   0.444  11.302 -0.5785 -0.6952  0.1110
  575TMC3    C3 8525   4.218   0.428  11.200 -0.2228 -0.4307  0.3520
  575TMC3    C4 8526   4.137   0.682  11.265 -0.2846 -0.3325  0.0478
  575TMC3    C5 8527   4.224   0.658  11.164  0.1429  0.3318  0.2171
  575TMC3    C6 8528   4.266   0.535  11.134 -0.2695  0.0347  0.1345
  575TMC3     C 8529   4.016   0.588  11.461 -0.3386 -0.0018 -0.1627
  575TMC3     O 8530   3.958   0.489  11.498 -0.1145  0.0294  0.4616
  575TMC3     H 8531   4.088   0.358  11.352  2.2209 -1.1381  1.8122
  575TMC3    H1 8532   4.110   0.785  11.283 -0.4953  0.2831 -4.0047
  575TMC3    H2 8533   4.339   0.514  11.057  0.0593 -0.8384  0.6888
  575TMC3    C7 8534   4.285   0.768  11.094  0.0276  0.5765  0.2927
  575TMC3    C8 8535   4.266   0.289  11.175 -0.4068 -0.6467  0.5612
  575TMC3    O1 8536   4.339   0.732  10.991  0.4704 -0.1729 -0.3103
  575TMC3    O2 8537   4.254   0.208  11.269 -0.1428  0.4992  1.1212
  576MPD2     C 8538   4.322   2.115  12.509  0.1407 -0.7199  0.3794
  576MPD2    C1 8539   4.356   2.180  12.391  0.0351 -0.0353 -0.4463
  576MPD2    C2 8540   4.364   2.316  12.396 -0.6164  0.3425  0.5156
  576MPD2    C3 8541   4.341   2.393  12.505 -0.6570 -0.2860  0.1728
  576MPD2    C4 8542   4.299   2.325  12.620 -0.6154 -0.1493  0.1422
  576MPD2    C5 8543   4.294   2.191  12.626  0.3418  0.4571 -0.0033
  576MPD2     H 8544   4.398   2.372  12.309  1.8616 -0.2772  1.0900
  576MPD2    H1 8545   4.266   2.379  12.708  2.4125  1.6958  0.1606
  576MPD2    H2 8546   4.315   2.007  12.517  1.9849 -0.7433  1.6107
  576MPD2    H3 8547   4.257   2.141  12.715 -5.0237  0.4688 -2.1746
  576MPD2     N 8548   4.371   2.531  12.498  0.4678  1.0349 -0.3080
  576MPD2    H5 8549   4.388   2.578  12.409  0.6014 -0.0455 -0.8469
  576MPD2    N1 8550   4.372   2.118  12.271 -0.4676 -0.2053  0.1468
  576MPD2    H7 8551   4.368   2.176  12.189 -1.0761 -0.2803  0.1191
  577TMC3    C1 8552   4.390   1.939  12.113 -0.6575 -0.2716 -0.5516
  577TMC3    C2 8553   4.449   1.817  12.087  0.5945 -0.1573  0.0564
  577TMC3    C3 8554   4.508   1.794  11.964 -0.1293 -0.2734 -0.0074
  577TMC3    C4 8555   4.386   2.039  12.016  0.5034  0.0470 -0.3766
  577TMC3    C5 8556   4.440   2.008  11.891  0.2855 -0.4047 -0.0608
  577TMC3    C6 8557   4.501   1.890  11.862  0.0305 -0.4987 -0.4632
  577TMC3     C 8558   4.400   1.984  12.252 -0.8343 -1.0662  0.1446
  577TMC3     O 8559   4.435   1.906  12.337  0.1528 -0.5277 -0.1327
  577TMC3     H 8560   4.441   1.743  12.167  0.6667 -0.9950 -0.7135
  577TMC3    H1 8561   4.343   2.137  12.034  1.4935  0.3207  0.4967
  577TMC3    H2 8562   4.519   1.865  11.758  2.1961  1.8200 -0.6446
  577TMC3    C7 8563   4.407   2.088  11.781  0.5547  0.4433  0.5059
  577TMC3    C8 8564   4.579   1.666  11.943 -0.3105 -0.2973 -0.2835
  577TMC3    O1 8565   4.492   2.088  11.692 -0.4293  0.5697  0.8766
  577TMC3    O2 8566   4.564   1.581  12.031  0.3016 -0.3102 -0.1822
  578MPD2     C 8567   2.445   2.684   1.002  0.5417  0.3300 -0.7005
  578MPD2    C1 8568   2.469   2.576   0.918  0.1398  0.7847  0.2099
  578MPD2    C2 8569   2.507   2.459   0.976  0.5773  0.5353 -0.3844
  578MPD2    C3 8570   2.526   2.439   1.111  0.5864  0.1908  0.0694
  578MPD2    C4 8571   2.504   2.550   1.192 -0.2379 -0.1112  0.2604
  578MPD2    C5 8572   2.460   2.673   1.136 -0.1306  0.3804 -0.2579
  578MPD2     H 8573   2.541   2.372   0.922 -1.1474 -0.0374 -0.5292
  578MPD2    H1 8574   2.517   2.539   1.299 -3.6960 -1.1972  0.5737
  578MPD2    H2 8575   2.417   2.784   0.969 -0.4113  0.2321 -0.1978
  578MPD2    H3 8576   2.446   2.758   1.201 -2.1750 -0.5443  0.5113
  578MPD2     N 8577   2.585   2.319   1.148 -0.1282  0.4308 -0.1930
  578MPD2    H5 8578   2.605   2.250   1.075 -2.4515 -1.2514  0.7585
  578MPD2    N1 8579   2.467   2.590   0.779 -0.3920 -0.9411  0.1062
  578MPD2    H7 8580   2.461   2.688   0.753  1.9700 -0.6522  0.6672
  579TMC3    C1 8581   2.677   2.164   1.299 -0.2548  0.2251 -0.8784
  579TMC3    C2 8582   2.732   2.140   1.421 -0.4546 -0.1327 -0.6300
  579TMC3    C3 8583   2.766   2.012   1.445 -0.8671 -1.0746 -0.0419
  579TMC3    C4 8584   2.627   2.063   1.217  0.1090 -0.1448 -0.2654
  579TMC3    C5 8585   2.660   1.932   1.257  0.0830  0.3997 -0.0366
  579TMC3    C6 8586   2.745   1.912   1.361 -0.7446 -0.4119 -0.1191
  579TMC3     C 8587   2.646   2.299   1.270 -0.0968 -0.1491 -0.0134
  579TMC3     O 8588   2.666   2.377   1.363 -0.2366  0.6357  0.3718
  579TMC3     H 8589   2.770   2.216   1.489  1.8224 -1.3472 -0.5693
  579TMC3    H1 8590   2.572   2.069   1.124  1.1029 -1.2597 -0.9178
  579TMC3    H2 8591   2.795   1.819   1.384 -1.8110 -0.7126  0.9562
  579TMC3    C7 8592   2.648   1.836   1.153 -0.0474  0.6115  0.2594
  579TMC3    C8 8593   2.888   1.990   1.522  0.6124 -0.1209 -0.0972
  579TMC3    O1 8594   2.707   1.861   1.049 -0.0106  0.1443  0.8382
  579TMC3    O2 8595   2.887   1.946   1.638  0.1854  0.2993  0.2312
  580TMC3    C1 8596   1.772   1.391  11.880 -0.3972 -0.2866 -0.0455
  580TMC3    C2 8597   1.864   1.487  11.930 -0.0441 -0.4867  0.4026
  580TMC3    C3 8598   1.958   1.438  12.019 -0.6934 -0.5618 -0.0460
  580TMC3    C4 8599   1.752   1.268  11.927  0.4815 -0.1811 -0.5517
  580TMC3    C5 8600   1.857   1.224  12.008  0.3035 -0.3538 -0.0321
  580TMC3    C6 8601   1.957   1.303  12.057 -0.2643 -0.1477 -0.4864
  580TMC3     C 8602   1.687   1.447  11.777  0.6714  0.2925  0.9352
  580TMC3     O 8603   1.565   1.417  11.781 -0.1138 -0.2590  0.9786
  580TMC3     H 8604   1.841   1.589  11.902 -0.8793 -1.4084 -2.2541
  580TMC3    H1 8605   1.682   1.205  11.873  0.9394  1.1012 -2.6822
  580TMC3    H2 8606   2.033   1.263  12.123 -2.6894 -1.6492  1.3640
  580TMC3    C7 8607   1.849   1.086  12.057  0.9188 -0.4610 -0.1912
  580TMC3    C8 8608   2.075   1.520  12.042  0.4098 -0.2237 -0.6234
  580TMC3    O1 8609   1.749   1.026  12.017 -0.4862  0.1899  0.0686
  580TMC3    O2 8610   2.055   1.640  12.040  0.3891 -0.1953  0.3364
  581MPD2     C 8611   0.496   1.045  15.207 -0.2705  0.1940 -0.1156
  581MPD2    C1 8612   0.370   1.075  15.245 -1.6628 -0.1836  0.0708
  581MPD2    C2 8613   0.282   1.134  15.152  0.2177 -0.6472 -0.4393
  581MPD2    C3 8614   0.334   1.195  15.034 -0.2500 -0.1962 -0.1804
  581MPD2    C4 8615   0.470   1.183  15.014  0.7275  0.0678  1.4207
  581MPD2    C5 8616   0.545   1.097  15.088  0.1612 -0.2635  0.3406
  581MPD2     H 8617   0.184   1.164  15.187  1.3473  1.2151  1.1068
  581MPD2    H1 8618   0.514   1.235  14.929 -0.2896  3.2159  2.7936
  581MPD2    H2 8619   0.559   0.981  15.269 -0.0659  0.4513 -0.0590
  581MPD2    H3 8620   0.648   1.070  15.070  0.2939 -0.2414  1.0728
  581MPD2     N 8621   0.237   1.257  14.951  0.1307  0.0043  0.5441
  581MPD2    H5 8622   0.142   1.267  14.984 -0.2488 -2.0557  0.0630
  581MPD2    N1 8623   0.316   1.028  15.358  0.5291 -0.2960 -0.6017
  581MPD2    H7 8624   0.216   1.025  15.374  0.9558 -2.1980  1.7280
  582TMC3    C1 8625   0.295   0.931  15.569 -0.0719  0.9456  0.1503
  582TMC3    C2 8626   0.322   0.943  15.703  0.8960 -0.6644 -0.2786
  582TMC3    C3 8627   0.249   0.861  15.788 -0.6869  0.6652  0.0885
  582TMC3    C4 8628   0.199   0.844  15.527 -0.3812 -0.4157  0.0666
  582TMC3    C5 8629   0.133   0.762  15.614  0.8863 -0.1099  0.1430
  582TMC3    C6 8630   0.150   0.777  15.749  1.4843  0.3076  0.0225
  582TMC3     C 8631   0.381   0.996  15.471 -0.1101 -0.1736  0.6687
  582TMC3     O 8632   0.499   0.999  15.497  0.7827  0.1969  0.3405
  582TMC3     H 8633   0.393   1.017  15.740  0.9025  0.2676 -2.1539
  582TMC3    H1 8634   0.192   0.833  15.420 -0.0397  0.6229 -0.0662
  582TMC3    H2 8635   0.081   0.723  15.813 -1.1108  0.4176 -2.6641
  582TMC3    C7 8636   4.719   0.731  15.579 -0.4225  0.1103 -0.2589
  582TMC3    C8 8637   0.209   0.920  15.913  0.0890  0.8077  0.0402
  582TMC3    O1 8638   4.655   0.656  15.650  0.0522 -0.0259  0.3038
  582TMC3    O2 8639   0.092   0.950  15.931  0.0700 -0.3218 -0.1504
  583MPD2     C 8640   0.023   2.871  16.585 -0.4415 -0.4802  0.1832
  583MPD2    C1 8641   0.061   2.994  16.536  0.2982  0.4346  0.5616
  583MPD2    C2 8642   0.052   3.108  16.612 -0.4177  0.1711 -0.2361
  583MPD2    C3 8643   4.706   3.111  16.728 -0.5478  0.6846 -0.1684
  583MPD2    C4 8644   4.670   2.986  16.782 -0.0905 -0.8158 -0.9821
  583MPD2    C5 8645   4.691   2.868  16.710  0.1054 -0.5708  0.1255
  583MPD2     H 8646   0.089   3.202  16.572 -0.7908 -0.9591 -3.1861
  583MPD2    H1 8647   4.623   2.981  16.879  0.3258  1.1237 -0.6836
  583MPD2    H2 8648   0.030   2.780  16.526  2.2882 -0.4821  0.5087
  583MPD2    H3 8649   4.647   2.777  16.748 -2.2290  0.2588 -0.5312
  583MPD2     N 8650   4.691   3.239  16.798  0.1124  0.2385 -0.0242
  583MPD2    H5 8651   0.020   3.314  16.754  0.8071 -1.3938 -2.0088
  583MPD2    N1 8652   0.129   2.996  16.410  0.2330 -0.4701  0.1631
  583MPD2    H7 8653   0.155   3.088  16.374 -1.4213  0.0903  0.3831
  584TMC3    C1 8654   4.656   3.392  16.980  0.0686 -0.5522  0.1322
  584TMC3    C2 8655   4.669   3.500  16.899 -0.7064  0.1291  0.8694
  584TMC3    C3 8656   4.711   3.620  16.954  0.2684  0.0165 -0.2922
  584TMC3    C4 8657   4.668   3.398  17.117 -0.0964 -0.0249 -0.0549
  584TMC3    C5 8658   4.706   3.520  17.162  0.1222  0.8415 -0.1702
  584TMC3    C6 8659   0.017   3.629  17.087 -0.1327 -0.0302  0.5423
  584TMC3     C 8660   4.628   3.260  16.927 -0.4237 -0.0980 -0.3340
  584TMC3     O 8661   4.560   3.184  16.996  0.3441 -0.1573 -0.2704
  584TMC3     H 8662   4.663   3.482  16.792 -2.3424 -3.8740  1.6307
  584TMC3    H1 8663   4.641   3.315  17.181 -2.1783  1.2066  0.6627
  584TMC3    H2 8664   0.063   3.716  17.133 -0.1298 -0.9698  2.3402
  584TMC3    C7 8665   4.706   3.523  17.304 -0.7802 -0.0089  0.6005
  584TMC3    C8 8666   0.041   3.722  16.867  0.3120 -0.4952 -0.6656
  584TMC3    O1 8667   4.720   3.419  17.361 -0.0188  0.2146  0.1714
  584TMC3    O2 8668   0.060   3.682  16.751 -0.2936 -0.5432 -0.2143
  585MPD2     C 8669   4.492   2.580   0.471  0.0056  0.2080  0.1248
  585MPD2    C1 8670   4.358   2.605   0.452 -1.0638 -0.3411 -0.0193
  585MPD2    C2 8671   4.270   2.498   0.430 -0.1389  0.3691 -0.1552
  585MPD2    C3 8672   4.319   2.374   0.411 -0.2469 -0.2808 -0.1904
  585MPD2    C4 8673   4.448   2.343   0.435  0.0703 -0.1914 -0.2073
  585MPD2    C5 8674   4.530   2.448   0.463  0.9239 -0.1596 -0.1930
  585MPD2     H 8675   4.165   2.525   0.418  0.4543  3.2482  1.0020
  585MPD2    H1 8676   4.487   2.242   0.424 -0.2572 -0.3617  0.1960
  585MPD2    H2 8677   4.562   2.662   0.485  0.0644  0.0933  0.4842
  585MPD2    H3 8678   4.635   2.428   0.479  1.3858  2.0219 -0.4351
  585MPD2     N 8679   4.232   2.273   0.366  0.4858 -0.4031  0.4575
  585MPD2    H5 8680   4.263   2.177   0.356 -0.0379 -0.5937  0.6517
  585MPD2    N1 8681   4.322   2.742   0.465  0.1100  0.0373  0.2448
  585MPD2    H7 8682   4.387   2.803   0.513 -1.7693  2.5462 -0.3954
  586TMC3    C1 8683   4.058   2.181   0.237 -0.1221 -0.0920 -0.1216
  586TMC3    C2 8684   4.145   2.099   0.174 -0.3601 -0.6379 -0.4849
  586TMC3    C3 8685   4.092   1.985   0.122  1.3104 -0.1049 -0.4029
  586TMC3    C4 8686   3.934   2.159   0.262 -1.0617 -0.3267 -0.5173
  586TMC3    C5 8687   3.884   2.038   0.232 -0.4916 -0.8266 -0.0066
  586TMC3    C6 8688   3.968   1.950   0.172 -0.2569 -0.7063 -0.2824
  586TMC3     C 8689   4.111   2.298   0.313  0.0665  0.0843  0.2696
  586TMC3     O 8690   4.038   2.395   0.307 -0.1955  0.8220 -0.1712
  586TMC3     H 8691   4.244   2.132   0.143 -0.4493  1.0946  1.1381
  586TMC3    H1 8692   3.874   2.231   0.317  0.0541 -1.1552  1.7886
  586TMC3    H2 8693   3.931   1.858   0.130 -2.9055  1.3264 -2.3458
  586TMC3    C7 8694   3.745   2.004   0.228  0.4252 -0.7988  0.6298
  586TMC3    C8 8695   4.179   1.885   0.084  0.2616 -0.2599 -0.1502
  586TMC3    O1 8696   3.720   1.906   0.167 -0.0969  1.1019 -0.2273
  586TMC3    O2 8697   4.181   1.780   0.149  0.0937 -0.3335  0.1935
  587TMC3    C1 8698   1.438   0.297  16.669  0.1456 -1.0173  0.1806
  587TMC3    C2 8699   1.442   0.418  16.611 -0.4795 -0.2699 -0.7818
  587TMC3    C3 8700   1.557   0.456  16.554 -0.7333 -0.4670  0.3595
  587TMC3    C4 8701   1.557   0.226  16.681  0.8358 -0.3264  0.0122
  587TMC3    C5 8702   1.671   0.268  16.621  0.7872  0.5530  0.0641
  587TMC3    C6 8703   1.674   0.386  16.557  0.4144 -0.1391  0.2647
  587TMC3     C 8704   1.333   0.260  16.759 -0.8605 -0.0107 -0.0057
  587TMC3     O 8705   1.364   0.198  16.861 -0.2039 -0.6184  0.0980
  587TMC3     H 8706   1.351   0.476  16.614 -0.6027 -0.3638 -2.5311
  587TMC3    H1 8707   1.561   0.141  16.747  0.6405 -1.0149 -0.8570
  587TMC3    H2 8708   1.767   0.417  16.510  0.3629 -4.7759 -2.8642
  587TMC3    C7 8709   1.767   0.170  16.572  0.3848 -0.7111 -0.2784
  587TMC3    C8 8710   1.556   0.553  16.448  0.4415  0.3744 -0.0971
  587TMC3    O1 8711   1.867   0.223  16.531  0.4867 -0.2614  0.2035
  587TMC3    O2 8712   1.655   0.567  16.375 -0.4293 -0.2398  0.2083
  588TMC3    C1 8713   3.518   3.106   9.769  0.3028  0.3152  0.1120
  588TMC3    C2 8714   3.515   2.978   9.826 -0.3951  0.5511  0.0790
  588TMC3    C3 8715   3.560   2.871   9.757  0.3946 -0.3341 -0.0165
  588TMC3    C4 8716   3.554   3.115   9.634 -0.0783  0.3776  0.3370
  588TMC3    C5 8717   3.594   3.004   9.573  0.3761 -0.8300  0.0614
  588TMC3    C6 8718   3.600   2.886   9.625  0.4184 -0.5906  0.5569
  588TMC3     C 8719   3.441   3.215   9.821 -0.1792 -0.4696 -0.1775
  588TMC3     O 8720   3.371   3.194   9.918  0.0246  0.3266  0.0430
  588TMC3     H 8721   3.482   2.961   9.928 -0.5531  0.9058  0.0881
  588TMC3    H1 8722   3.528   3.205   9.580 -3.5794 -0.9211 -0.0956
  588TMC3    H2 8723   3.595   2.795   9.566  0.3069 -0.1883 -0.0564
  588TMC3    C7 8724   3.646   3.029   9.438 -0.3516 -0.0233 -0.3792
  588TMC3    C8 8725   3.535   2.741   9.808 -0.3898 -0.5327 -0.3586
  588TMC3    O1 8726   3.634   2.943   9.354  0.5769 -0.4114  0.1064
  588TMC3    O2 8727   3.439   2.729   9.884  0.2328  0.1046  0.4403
  589TMC3    C1 8728   3.498   0.475   1.003  0.0218  0.8191 -0.1700
  589TMC3    C2 8729   3.595   0.521   1.088  0.1697 -0.0665 -0.1712
  589TMC3    C3 8730   3.717   0.455   1.093  0.4507  0.6723 -0.2568
  589TMC3    C4 8731   3.524   0.357   0.935 -0.1164 -0.0464  0.7771
  589TMC3    C5 8732   3.640   0.286   0.950 -0.2160  0.4960  0.5611
  589TMC3    C6 8733   3.739   0.340   1.027 -0.7610 -0.1241  0.0160
  589TMC3     C 8734   3.365   0.499   1.050 -0.1816 -0.4464 -0.3457
  589TMC3     O 8735   3.281   0.417   1.011 -0.0075 -0.0950 -0.2665
  589TMC3     H 8736   3.575   0.612   1.144  1.7197  1.6602 -2.4163
  589TMC3    H1 8737   3.451   0.321   0.863  0.3316 -0.9092  0.7530
  589TMC3    H2 8738   3.830   0.286   1.051  0.8975  2.2508 -0.9372
  589TMC3    C7 8739   3.649   0.157   0.884 -1.0778  0.1782 -0.6372
  589TMC3    C8 8740   3.824   0.531   1.167 -0.0063 -0.5826  0.0078
  589TMC3    O1 8741   3.549   0.113   0.834 -0.3821 -0.1562  0.1661
  589TMC3    O2 8742   3.788   0.625   1.233 -0.0072 -0.1334 -0.1805
  590MPD2     C 8743   2.731   3.732  16.409 -0.1698  0.1173  0.2659
  590MPD2    C1 8744   2.669   3.850  16.378 -0.6094  0.2246  0.5224
  590MPD2    C2 8745   2.744   3.957  16.331  0.3776  0.3531 -0.5016
  590MPD2    C3 8746   2.879   3.954  16.330  0.2165  0.2444  0.5931
  590MPD2    C4 8747   2.942   3.834  16.368  0.1507 -0.4533  0.1307
  590MPD2    C5 8748   2.861   3.728  16.406 -0.7250  0.4383  0.0627
  590MPD2     H 8749   2.698   4.050  16.299 -1.9960 -1.3920 -2.1478
  590MPD2    H1 8750   3.049   3.821  16.378 -0.0158  0.9723  3.8298
  590MPD2    H2 8751   2.683   3.644  16.450 -0.7306 -0.1417 -0.9563
  590MPD2    H3 8752   2.908   3.637  16.442 -0.5812  0.6724  0.4561
  590MPD2     N 8753   2.943   4.076  16.294 -0.2270  0.1981  1.0018
  590MPD2    H5 8754   2.885   4.143  16.245 -1.6188  0.1049  2.5327
  590MPD2    N1 8755   2.532   3.860  16.379 -0.4434  0.6321  0.4859
  590MPD2    H7 8756   2.473   3.779  16.400  0.4289 -0.3958 -1.0674
  591TMC3    C1 8757   3.105   4.215  16.199 -0.1880  0.3355 -0.4574
  591TMC3    C2 8758   3.220   4.216  16.127  0.2780  0.0036  0.0504
  591TMC3    C3 8759   3.231   4.306  16.024  0.0448  0.4662 -0.2927
  591TMC3    C4 8760   3.000   4.296  16.171  0.0191  0.8132  0.3814
  591TMC3    C5 8761   3.025   4.398  16.082  0.3796 -0.8438 -0.0795
  591TMC3    C6 8762   3.140   4.407  16.010  0.1628 -0.5711 -1.1479
  591TMC3     C 8763   3.079   4.094  16.273 -0.3693  0.3276 -0.2972
  591TMC3     O 8764   3.162   4.001  16.277  0.1977  0.0984 -0.2516
  591TMC3     H 8765   3.291   4.135  16.135 -1.3359 -1.3020  1.1538
  591TMC3    H1 8766   2.910   4.305  16.230 -1.5499 -0.8425 -1.7553
  591TMC3    H2 8767   3.140   4.468  15.921  1.9720  2.0921  0.6909
  591TMC3    C7 8768   2.919   4.496  16.052 -0.5683  0.1434  0.5264
  591TMC3    C8 8769   3.318   4.269  15.913 -0.1557 -0.0970  0.4850
  591TMC3    O1 8770   2.804   4.451  16.061 -0.5565  0.4892  0.4956
  591TMC3    O2 8771   3.356   4.151  15.916  0.0520  0.2624  0.1532
  592MPD2     C 8772   2.995   0.915  11.240 -0.2276  0.2242 -0.6145
  592MPD2    C1 8773   3.013   0.902  11.372  0.1333  0.5092 -0.5379
  592MPD2    C2 8774   2.925   0.826  11.447  0.4704 -0.5291 -0.2912
  592MPD2    C3 8775   2.813   0.771  11.384 -0.1370  0.7639  0.1673
  592MPD2    C4 8776   2.796   0.783  11.247 -0.0738 -0.3788  0.6378
  592MPD2    C5 8777   2.886   0.861  11.175 -0.1318  0.1873  0.2078
  592MPD2     H 8778   2.939   0.801  11.551  0.1591 -1.4616 -0.4709
  592MPD2    H1 8779   2.717   0.724  11.202 -0.1922 -0.5237  1.0314
  592MPD2    H2 8780   3.054   0.977  11.174 -1.3754  1.1261 -0.8082
  592MPD2    H3 8781   2.870   0.881  11.070  1.8476  1.6329  0.1825
  592MPD2     N 8782   2.721   0.698  11.466  0.4645  0.2774 -0.2695
  592MPD2    H5 8783   2.730   0.717  11.565 -1.1406  2.3577 -0.5245
  592MPD2    N1 8784   3.117   0.980  11.421 -0.1626 -0.0617 -0.4795
  592MPD2    H7 8785   3.161   1.036  11.349  0.5575 -0.5391 -0.4120
  593TMC3    C1 8786   3.216   1.118  11.572 -0.7158  0.0033  0.1066
  593TMC3    C2 8787   3.210   1.160  11.702 -0.1806 -0.7267  0.5021
  593TMC3    C3 8788   3.280   1.277  11.724 -0.0480  0.1821 -0.4172
  593TMC3    C4 8789   3.307   1.169  11.476  0.1519 -0.5701  0.1812
  593TMC3    C5 8790   3.389   1.279  11.515  0.0038  0.0057  0.4640
  593TMC3    C6 8791   3.364   1.338  11.639 -0.2238  0.3583 -0.0794
  593TMC3     C 8792   3.154   0.988  11.553 -0.0914  0.1004 -0.1227
  593TMC3     O 8793   3.104   0.938  11.650 -0.1851  0.1487  0.2727
  593TMC3     H 8794   3.132   1.132  11.772  1.1712 -1.9141  1.5469
  593TMC3    H1 8795   3.327   1.111  11.387 -0.9982 -1.2040  0.3437
  593TMC3    H2 8796   3.401   1.437  11.666 -0.7170 -0.5066  3.7222
  593TMC3    C7 8797   3.514   1.314  11.440  0.2005  0.0913  0.0370
  593TMC3    C8 8798   3.252   1.343  11.849 -0.6115 -0.5909 -0.4226
  593TMC3    O1 8799   3.594   1.399  11.487  0.7032 -0.5526 -0.5386
  593TMC3    O2 8800   3.142   1.358  11.885 -0.0846 -0.0488 -0.1406
  594MPD2     C 8801   1.842   4.372  13.638 -0.0922  0.4441 -0.2269
  594MPD2    C1 8802   1.856   4.352  13.773  0.0934  0.4063 -0.2066
  594MPD2    C2 8803   1.928   4.452  13.839  0.1789  0.2962  0.1274
  594MPD2    C3 8804   1.972   4.574  13.773  0.2358  0.2164 -0.6126
  594MPD2    C4 8805   1.952   4.584  13.638 -0.1788 -0.5782  0.5131
  594MPD2    C5 8806   1.896   4.478  13.569 -0.6260  0.6117 -0.2915
  594MPD2     H 8807   1.934   4.444  13.947  1.2076 -0.2673  0.0301
  594MPD2    H1 8808   1.979   4.672  13.581  1.7257 -2.5103 -1.5980
  594MPD2    H2 8809   1.811   4.290  13.574  1.5827  2.6043 -3.8012
  594MPD2    H3 8810   1.887   4.479  13.461  0.3161  0.7184 -0.3690
  594MPD2     N 8811   2.026   4.676  13.857 -0.4854  0.7801  0.0174
  594MPD2    H5 8812   2.021   4.648  13.955 -3.8133  0.6342 -0.1878
  594MPD2    N1 8813   1.796   4.244  13.836 -0.5722  0.0628 -0.9261
  594MPD2    H7 8814   1.718   4.199  13.789 -0.5998  0.0060 -0.8269
  595TMC3    C1 8815   2.326   0.258  14.022  0.3667  0.3467  0.4392
  595TMC3    C2 8816   2.269   0.200  13.914  0.1691 -1.2351 -0.8522
  595TMC3    C3 8817   2.147   0.141  13.925 -0.5348  0.1810  0.5254
  595TMC3    C4 8818   2.261   0.255  14.143 -0.5803  0.0666  0.1274
  595TMC3    C5 8819   2.137   0.196  14.155  0.6875  0.5564  0.0385
  595TMC3    C6 8820   2.085   0.134  14.046 -0.3870 -0.1491  0.2495
  595TMC3     C 8821   2.459   0.320  14.021 -0.1182  0.4292 -0.6330
  595TMC3     O 8822   2.477   0.397  14.115 -0.2609 -0.0208 -0.2234
  595TMC3     H 8823   2.319   0.200  13.817  0.5759  0.0203 -0.6396
  595TMC3    H1 8824   2.302   0.308  14.228  2.5010 -2.6025  0.2816
  595TMC3    H2 8825   1.982   0.099  14.052 -0.2820 -0.2962  1.2162
  595TMC3    C7 8826   2.059   0.232  14.268  0.1113  0.1281 -0.1507
  595TMC3    C8 8827   2.097   0.063  13.817 -0.6523 -0.0454 -0.0149
  595TMC3    O1 8828   1.939   0.232  14.265 -0.0209  0.1476  0.6470
  595TMC3    O2 8829   2.143   0.088  13.706 -0.7809 -0.1976  0.5763
  596MPD2     C 8830   0.666   2.714  16.617  0.0712  0.4658  0.0847
  596MPD2    C1 8831   0.749   2.817  16.570 -0.0693  0.1160 -0.0380
  596MPD2    C2 8832   0.799   2.814  16.444 -0.0327 -0.2909 -0.7326
  596MPD2    C3 8833   0.777   2.702  16.370  0.6116  0.1469 -0.2015
  596MPD2    C4 8834   0.696   2.604  16.416 -0.4941  1.4286 -0.2564
  596MPD2    C5 8835   0.648   2.602  16.542  0.0190 -0.0362 -0.6207
  596MPD2     H 8836   0.863   2.894  16.409 -0.3901  0.4151  0.2387
  596MPD2    H1 8837   0.662   2.529  16.346 -1.0295  1.6111 -0.1909
  596MPD2    H2 8838   0.621   2.711  16.715  0.7526 -0.3265  0.3700
  596MPD2    H3 8839   0.585   2.522  16.578  0.6605  0.4726  1.6239
  596MPD2     N 8840   0.837   2.706  16.242  0.1446  0.4273  0.4601
  596MPD2    H5 8841   0.889   2.792  16.227  3.4898 -1.6819 -0.0769
  596MPD2    N1 8842   0.784   2.927  16.652  0.5992 -0.1867 -0.1685
  596MPD2    H7 8843   0.861   2.987  16.622 -0.5716  1.3394 -0.1445
  597TMC3    C1 8844   0.791   3.086  16.826 -0.0514 -0.3345  0.2570
  597TMC3    C2 8845   0.885   3.165  16.762  0.6874 -0.2238  0.3029
  597TMC3    C3 8846   0.921   3.285  16.819  0.6292  0.0488 -0.6851
  597TMC3    C4 8847   0.720   3.138  16.933  0.2089 -0.2208 -0.2629
  597TMC3    C5 8848   0.748   3.265  16.979 -0.2504  0.0048 -0.3670
  597TMC3    C6 8849   0.856   3.333  16.929  0.1942  0.2442  0.0873
  597TMC3     C 8850   0.715   2.969  16.763 -0.4314  0.0063 -0.1433
  597TMC3     O 8851   0.604   2.934  16.806  0.3874  0.1740  0.6546
  597TMC3     H 8852   0.948   3.131  16.680  1.7672  0.4874  0.8330
  597TMC3    H1 8853   0.639   3.077  16.972  0.1455  1.2667  1.9447
  597TMC3    H2 8854   0.884   3.430  16.970 -1.4197  1.5184 -1.8305
  597TMC3    C7 8855   0.679   3.316  17.097  0.3614  0.2298  0.2654
  597TMC3    C8 8856   1.037   3.351  16.762 -0.0416  0.2910  0.0140
  597TMC3    O1 8857   0.629   3.225  17.169  0.2619  0.1998  0.0986
  597TMC3    O2 8858   1.119   3.285  16.701 -0.3559 -0.1124  0.2608
  598TMC3    C1 8859   3.705   4.485  15.082 -0.6209 -0.7152 -0.3604
  598TMC3    C2 8860   3.598   4.407  15.048 -0.4967  0.2737 -0.1240
  598TMC3    C3 8861   3.572   4.399  14.914  0.0278 -0.2043 -0.3107
  598TMC3    C4 8862   3.785   4.548  14.990  0.2080  0.1234  0.4223
  598TMC3    C5 8863   3.755   4.535  14.861 -0.0284  0.2247 -0.5306
  598TMC3    C6 8864   3.658   4.448  14.828  0.1775  0.2133  0.7691
  598TMC3     C 8865   3.782   4.462  15.211  0.2194 -0.6985 -0.4504
  598TMC3     O 8866   3.849   4.556  15.246 -0.5278  0.0875 -0.8135
  598TMC3     H 8867   3.527   4.386  15.128 -1.0462  0.6410 -0.5155
  598TMC3    H1 8868   3.871   4.607  15.019  0.5985 -0.7174  0.9811
  598TMC3    H2 8869   3.640   4.442  14.721  3.4060 -1.8650  0.3305
  598TMC3    C7 8870   3.856   4.568  14.759 -0.2325  0.2789 -0.0003
  598TMC3    C8 8871   3.444   4.346  14.871  0.2018 -0.0148  0.1384
  598TMC3    O1 8872   3.856   4.509  14.652 -0.3996  0.3175  0.4670
  598TMC3    O2 8873   3.423   4.376  14.755 -0.0135  0.0766  0.5307
  599MPD2     C 8874   3.953   1.953  16.314 -0.0859  0.4529 -1.1340
  599MPD2    C1 8875   3.892   1.848  16.246  0.1774 -0.5118 -0.2641
  599MPD2    C2 8876   3.750   1.863  16.218  0.4605  1.1726  0.5518
  599MPD2    C3 8877   3.676   1.971  16.267 -0.4661  0.1898  0.5980
  599MPD2    C4 8878   3.742   2.082  16.322 -0.0656  1.5182  0.1152
  599MPD2    C5 8879   3.877   2.066  16.351  0.5078 -0.2500 -0.0552
  599MPD2     H 8880   3.704   1.777  16.170 -0.5549  1.4349  1.0788
  599MPD2    H1 8881   3.681   2.165  16.356 -2.7243 -0.1964 -0.5163
  599MPD2    H2 8882   4.058   1.941  16.340 -0.0483  2.6053 -0.2508
  599MPD2    H3 8883   3.930   2.144  16.405  0.8426  0.2477 -1.1115
  599MPD2     N 8884   3.537   1.977  16.274 -0.3625  0.1692 -0.2187
  599MPD2    H5 8885   3.499   2.061  16.317  1.8800  1.4110 -0.6646
  599MPD2    N1 8886   3.967   1.736  16.222  0.0312 -0.2483 -0.3492
  599MPD2    H7 8887   4.065   1.733  16.248  0.6455  1.1403 -2.4823
  600TMC3    C1 8888   3.312   1.921  16.279 -0.1633 -0.2865 -0.3224
  600TMC3    C2 8889   3.204   1.851  16.224  0.5005  0.1907 -0.3135
  600TMC3    C3 8890   3.078   1.895  16.259  0.2890  0.3003 -0.1748
  600TMC3    C4 8891   3.291   2.023  16.371 -0.6089 -0.6527 -0.6600
  600TMC3    C5 8892   3.164   2.061  16.401  0.0226 -0.2369  0.2103
  600TMC3    C6 8893   3.059   2.001  16.345 -0.5636 -1.0780 -0.7010
  600TMC3     C 8894   3.446   1.887  16.231  0.2490 -0.6262  0.3731
  600TMC3     O 8895   3.460   1.787  16.166  0.2322 -0.5098 -0.5618
  600TMC3     H 8896   3.223   1.774  16.151 -1.6463 -1.8846  1.3374
  600TMC3    H1 8897   3.376   2.060  16.428 -2.9053 -0.4089  2.6125
  600TMC3    H2 8898   2.960   2.036  16.372  0.6750  1.5090  0.5293
  600TMC3    C7 8899   3.138   2.174  16.490  0.5452  0.1215 -0.0951
  600TMC3    C8 8900   2.967   1.845  16.174  0.5255  0.2723 -0.2300
  600TMC3    O1 8901   3.040   2.174  16.565  0.6218 -0.0849 -0.0234
  600TMC3    O2 8902   2.997   1.788  16.071  0.6290  0.1900  0.5376
  601MPD2     C 8903   1.492   0.202  17.614 -0.4721 -0.5945  0.2679
  601MPD2    C1 8904   1.365   0.246  17.650 -0.3644  0.6036 -0.5076
  601MPD2    C2 8905   1.290   0.173   0.051 -0.1666  0.2518  0.9653
  601MPD2    C3 8906   1.353   0.063   0.116 -0.2875  0.2889  0.0652
  601MPD2    C4 8907   1.485   0.031   0.085 -0.5403 -0.6907 -0.2836
  601MPD2    C5 8908   1.545   0.095  17.677 -0.0293  0.7695 -0.5628
  601MPD2     H 8909   1.189   0.206   0.073 -0.9781 -0.8804 -1.0953
  601MPD2    H1 8910   1.528   4.662   0.122 -0.2255 -0.9124 -1.1825
  601MPD2    H2 8911   1.545   0.247  17.531  3.7490 -3.2255  1.5571
  601MPD2    H3 8912   1.650   0.071  17.665 -0.0398  0.2013  0.4049
  601MPD2     N 8913   1.287   4.704   0.212  0.9649 -0.5136  0.7298
  601MPD2    H5 8914   1.333   4.618   0.241 -1.5055 -1.2463  2.4312
  601MPD2    N1 8915   1.300   0.357  17.598  0.2894 -0.0991  0.1372
  601MPD2    H7 8916   1.205   0.378  17.627  0.7297  1.4155  0.4885
  602TMC3    C1 8917   1.285   0.572  17.496 -1.0202 -0.3617 -0.5785
  602TMC3    C2 8918   1.331   0.652  17.395  0.3980  0.5062 -0.0765
  602TMC3    C3 8919   1.294   0.778  17.391 -0.5832 -0.3541 -0.5141
  602TMC3    C4 8920   1.197   0.609  17.590  0.4424  0.3360  0.2156
  602TMC3    C5 8921   1.159   0.743  17.584 -0.4774 -0.3549  0.1625
  602TMC3    C6 8922   1.212   0.829  17.494 -0.1382 -0.7210  1.0290
  602TMC3     C 8923   1.365   0.449  17.515  0.3489 -0.3567 -0.1929
  602TMC3     O 8924   1.472   0.442  17.460  0.0657 -0.0494  0.0772
  602TMC3     H 8925   1.397   0.609  17.320 -0.8477 -0.2585 -0.7330
  602TMC3    H1 8926   1.175   0.544  17.674  2.3278  2.3456  2.2770
  602TMC3    H2 8927   1.199   0.935  17.509  1.7369 -0.6909  2.4335
  602TMC3    C7 8928   1.021   0.777  17.602  0.6035 -0.6459 -0.3366
  602TMC3    C8 8929   1.271   0.830  17.255 -0.0049 -0.1931 -0.7585
  602TMC3    O1 8930   0.984   0.872  17.533  0.3376  0.1101 -0.2685
  602TMC3    O2 8931   1.353   0.821  17.164  0.0333  0.3017 -0.5684
  603TMC3    C1 8932   4.198   4.562  10.579 -0.0066 -0.1210  0.5971
  603TMC3    C2 8933   4.147   4.598  10.702 -0.4298 -0.0682 -0.0597
  603TMC3    C3 8934   4.151   0.006  10.735 -0.3997 -0.1585 -0.3812
  603TMC3    C4 8935   4.248   4.649  10.492 -0.2817 -0.1535  0.3730
  603TMC3    C5 8936   4.247   0.059  10.532  0.3210 -0.6923 -0.3031
  603TMC3    C6 8937   4.184   0.102  10.644  0.4597  0.3581 -0.0454
  603TMC3     C 8938   4.209   4.422  10.562 -0.1472  0.6890  0.0266
  603TMC3     O 8939   4.212   4.347  10.660  0.7073  0.4899  0.2521
  603TMC3     H 8940   4.093   4.525  10.763  0.2745  0.5262  1.2636
  603TMC3    H1 8941   4.282   4.615  10.395  0.3082 -0.4660  0.6920
  603TMC3    H2 8942   4.212   0.204  10.669 -1.4030  0.7852  0.3209
  603TMC3    C7 8943   4.284   0.146  10.422  0.0853 -0.3364 -0.3748
  603TMC3    C8 8944   4.088   0.045  10.856  0.1136 -0.0203 -0.1828
  603TMC3    O1 8945   4.374   0.107  10.351  0.1869  0.6964 -0.0061
  603TMC3    O2 8946   4.057   4.675  10.925 -0.7762  0.0509  0.4691
  604MPD2     C 8947   0.077   3.759  16.436 -0.9877  0.0612  0.9978
  604MPD2    C1 8948   0.067   3.899  16.415  0.6078  0.3400 -0.4487
  604MPD2    C2 8949   0.131   3.957  16.316  0.4784  0.1981  0.1431
  604MPD2    C3 8950   0.190   3.879  16.221 -0.2397 -0.0605  0.4462
  604MPD2    C4 8951   0.186   3.741  16.230  0.3892  0.3307  0.3918
  604MPD2    C5 8952   0.136   3.681  16.337  0.2229 -0.1518  0.1319
  604MPD2     H 8953   0.138   4.064  16.299 -1.0520 -0.0774 -2.0752
  604MPD2    H1 8954   0.231   3.681  16.152 -2.0333 -1.0738  0.0838
  604MPD2    H2 8955   0.031   3.703  16.517 -2.6955  1.1757  0.7935
  604MPD2    H3 8956   0.142   3.575  16.358  0.0519 -0.3097 -0.6078
  604MPD2     N 8957   0.230   3.954  16.108  0.3265  0.7349  0.4844
  604MPD2    H5 8958   0.230   4.055  16.104  0.8315  0.6138 -2.4694
  604MPD2    N1 8959   4.701   3.970  16.496  0.3396 -0.1938 -0.1076
  604MPD2    H7 8960   4.649   3.913  16.562 -0.2323 -0.4684 -0.7885
  605TMC3    C1 8961   4.546   4.132  16.559 -0.2826  0.3815  0.5413
  605TMC3    C2 8962   4.584   4.120  16.686  0.8212 -0.3553 -0.0381
  605TMC3    C3 8963   4.507   4.191  16.783  0.5146  0.1337  0.3154
  605TMC3    C4 8964   4.437   4.200  16.515 -0.3648  0.6406  0.2818
  605TMC3    C5 8965   4.356   4.257  16.611  0.1525 -0.5520 -0.4189
  605TMC3    C6 8966   4.392   4.257  16.743 -0.4957  0.3259 -0.0423
  605TMC3     C 8967   4.651   4.095  16.465  0.3747 -0.6307 -0.5180
  605TMC3     O 8968   4.683   4.180  16.385  0.4072 -0.1241 -0.4033
  605TMC3     H 8969   4.685   4.096  16.718  0.4635  0.3801  1.6291
  605TMC3    H1 8970   4.422   4.218  16.410  0.3344  0.7035  0.1915
  605TMC3    H2 8971   4.342   4.322  16.813 -1.2137  0.9322 -1.1147
  605TMC3    C7 8972   4.237   4.326  16.574 -0.7606  0.1186 -0.2479
  605TMC3    C8 8973   4.585   4.260  16.878  0.0737 -0.6457 -0.8544
  605TMC3    O1 8974   4.162   4.388  16.645 -0.5469  0.2771  0.1489
  605TMC3    O2 8975   4.551   4.256  16.996 -0.0421  0.5444  0.0471
  606TMC3    C1 8976   1.690   3.355  17.129 -0.0375 -0.2232 -0.4064
  606TMC3    C2 8977   1.746   3.314  17.245  0.0139 -0.3126  0.8472
  606TMC3    C3 8978   1.795   3.189  17.248 -0.5139 -0.0133  0.4541
  606TMC3    C4 8979   1.655   3.256  17.035  0.1650  0.2570 -0.1082
  606TMC3    C5 8980   1.672   3.120  17.068  0.0616  0.1209  0.2776
  606TMC3    C6 8981   1.752   3.086  17.169 -0.1952  0.5022 -0.5940
  606TMC3     C 8982   1.704   3.491  17.070 -0.5410 -0.5350  0.3022
  606TMC3     O 8983   1.692   3.511  16.952 -0.0053  0.1348  0.4397
  606TMC3     H 8984   1.771   3.376  17.330 -0.0756 -0.7560  1.1984
  606TMC3    H1 8985   1.596   3.291  16.951 -2.0519 -1.1379  0.8874
  606TMC3    H2 8986   1.780   2.983  17.191  1.4169  1.7478  3.0553
  606TMC3    C7 8987   1.635   3.014  16.974  0.5722  0.4247 -0.6748
  606TMC3    C8 8988   1.851   3.153  17.377 -0.1550 -0.1906  0.0520
  606TMC3    O1 8989   1.622   3.051  16.859  0.1586 -0.2641  0.1364
  606TMC3    O2 8990   1.802   3.203  17.474  0.0462 -0.0057  0.5782
  607MPD2     C 8991   3.169   0.590  11.441  0.1362 -0.6324  0.6430
  607MPD2    C1 8992   3.263   0.607  11.542 -0.4220  0.4200 -0.3385
  607MPD2    C2 8993   3.229   0.562  11.670 -0.3314 -0.1227  0.9683
  607MPD2    C3 8994   3.102   0.513  11.701  0.5131  0.2213 -0.1395
  607MPD2    C4 8995   3.014   0.493  11.601  0.2821  0.4069 -0.5023
  607MPD2    C5 8996   3.051   0.524  11.470  0.5052  0.3477 -0.3985
  607MPD2     H 8997   3.291   0.589  11.754 -2.6769  3.3011  1.6157
  607MPD2    H1 8998   2.921   0.441  11.621  0.7384  0.9131  2.9554
  607MPD2    H2 8999   3.182   0.616  11.336  1.8582  0.9350  1.2547
  607MPD2    H3 9000   2.983   0.510  11.387 -1.5788  2.6115  0.9204
  607MPD2     N 9001   3.075   0.478  11.842 -0.4424 -0.1372  0.1039
  607MPD2    H5 9002   3.154   0.478  11.907 -2.5925 -2.7537  2.7051
  607MPD2    N1 9003   3.375   0.691  11.529  0.4585  0.6864 -0.6938
  607MPD2    H7 9004   3.419   0.714  11.617  1.0089  2.2263 -1.3727
  608TMC3    C1 9005   3.513   0.877  11.487  0.6825 -0.8556  0.3710
  608TMC3    C2 9006   3.496   0.904  11.619  0.4184  0.0364  0.0796
  608TMC3    C3 9007   3.591   0.984  11.672  0.4477  0.1952  0.4778
  608TMC3    C4 9008   3.613   0.932  11.409 -0.0536  0.1222 -0.0048
  608TMC3    C5 9009   3.697   1.025  11.462 -0.1825  0.3229 -0.1455
  608TMC3    C6 9010   3.684   1.054  11.600 -0.4045  0.8183  0.4743
  608TMC3     C 9011   3.424   0.775  11.429 -0.2097 -0.1446 -0.4916
  608TMC3     O 9012   3.411   0.764  11.310  0.0190  0.6666  0.6126
  608TMC3     H 9013   3.414   0.871  11.682  1.0918 -0.5386  0.6557
  608TMC3    H1 9014   3.622   0.910  11.303  1.4192  0.3597  0.0693
  608TMC3    H2 9015   3.755   1.117  11.652  0.2955  1.8811 -1.7635
  608TMC3    C7 9016   3.809   1.056  11.379 -0.5221 -0.4715 -0.6626
  608TMC3    C8 9017   3.549   1.035  11.804  0.0076 -0.0563 -0.2909
  608TMC3    O1 9018   3.826   0.989  11.277 -0.2063 -0.0084  0.2965
  608TMC3    O2 9019   3.561   1.155  11.826  0.1476  0.1120  0.1163
  609TMC3    C1 9020   1.708   4.304   9.323 -0.3648  0.3186 -0.8162
  609TMC3    C2 9021   1.796   4.414   9.309 -0.1820 -0.1402 -0.2451
  609TMC3    C3 9022   1.903   4.404   9.217 -0.2776  0.2571 -0.5766
  609TMC3    C4 9023   1.721   4.195   9.249  0.0402  0.5714  0.2914
  609TMC3    C5 9024   1.827   4.187   9.158 -0.2057  0.0132 -0.0165
  609TMC3    C6 9025   1.925   4.290   9.149  0.1764 -0.5670  0.7244
  609TMC3     C 9026   1.582   4.318   9.400 -0.3611 -0.4943 -0.0171
  609TMC3     O 9027   1.547   4.215   9.455 -0.1343 -0.0548 -0.1770
  609TMC3     H 9028   1.755   4.503   9.355 -1.6717 -0.6416 -0.6050
  609TMC3    H1 9029   1.647   4.117   9.260  0.7755  0.0445  1.4685
  609TMC3    H2 9030   2.018   4.270   9.098  0.0915 -0.7559  0.6423
  609TMC3    C7 9031   1.840   4.066   9.091 -0.3992  0.3514  0.5655
  609TMC3    C8 9032   1.992   4.515   9.194  0.2836  0.2173  0.5296
  609TMC3    O1 9033   1.745   3.988   9.089 -0.3964 -0.2019 -0.8757
  609TMC3    O2 9034   2.054   4.514   9.089  0.1157  0.0352  0.4766
  610TMC3    C1 9035   3.579   0.837  12.763  0.1329  0.5810  0.5298
  610TMC3    C2 9036   3.640   0.859  12.644 -0.2105 -0.8974  0.0058
  610TMC3    C3 9037   3.736   0.776  12.605  0.3295  0.7272 -0.0056
  610TMC3    C4 9038   3.595   0.714  12.831 -1.7600 -0.5733 -0.3775
  610TMC3    C5 9039   3.694   0.630  12.780  0.0054  0.2410  0.6001
  610TMC3    C6 9040   3.771   0.661  12.671 -0.6403 -0.5979 -0.2008
  610TMC3     C 9041   3.476   0.931  12.808 -0.0616  0.1919 -0.3300
  610TMC3     O 9042   3.450   1.031  12.740  0.2890  0.0896 -0.1294
  610TMC3     H 9043   3.634   0.963  12.612 -0.6474 -1.0408 -0.3865
  610TMC3    H1 9044   3.531   0.678  12.911 -0.6940 -1.4082  0.0970
  610TMC3    H2 9045   3.855   0.605  12.632  1.1598  1.1324  1.1441
  610TMC3    C7 9046   3.747   0.516  12.855  0.5834  0.1866  0.5236
  610TMC3    C8 9047   3.829   0.810  12.498 -0.3920 -0.3617  0.3280
  610TMC3    O1 9048   3.829   0.449  12.792  0.2895  0.0318  0.2768
  610TMC3    O2 9049   3.937   0.750  12.503 -0.4593 -0.3853 -0.2924
  611MPD2     C 9050   3.252   0.237   9.984  0.4129  0.3724 -0.3217
  611MPD2    C1 9051   3.196   0.359  10.022  0.3820 -0.1258  0.0699
  611MPD2    C2 9052   3.280   0.468  10.058 -0.1657 -0.4194 -0.1683
  611MPD2    C3 9053   3.415   0.447  10.057 -0.3456 -0.1932 -0.4496
  611MPD2    C4 9054   3.471   0.325  10.021 -0.2444  0.3278  0.5518
  611MPD2    C5 9055   3.388   0.226   9.969 -0.4969 -0.5940 -0.1382
  611MPD2     H 9056   3.238   0.564  10.085 -0.2282 -0.6145  0.4404
  611MPD2    H1 9057   3.579   0.318  10.012 -0.5135 -0.1729 -2.3149
  611MPD2    H2 9058   3.183   0.161   9.949  0.6471 -0.0902  0.2157
  611MPD2    H3 9059   3.433   0.143   9.917  0.2004  0.8070 -1.7940
  611MPD2     N 9060   3.501   0.554  10.099 -0.1799  0.6418 -0.5771
  611MPD2    H5 9061   3.599   0.529  10.099 -0.2146  0.5049 -0.5024
  611MPD2    N1 9062   3.055   0.357  10.034  0.0028 -0.0627  0.0756
  611MPD2    H7 9063   3.011   0.269  10.007  1.0229 -0.3222 -0.7569
  612TMC3    C1 9064   3.584   0.770  10.155  0.3690  0.4773 -0.6569
  612TMC3    C2 9065   3.714   0.718  10.165  0.6806 -0.7215  0.9573
  612TMC3    C3 9066   3.817   0.804  10.182 -0.2996 -0.6509  0.8625
  612TMC3    C4 9067   3.566   0.907  10.166 -0.1268  0.4249  0.0261
  612TMC3    C5 9068   3.677   0.989  10.191 -0.1192  0.2380  0.1708
  612TMC3    C6 9069   3.807   0.938  10.191 -0.6348  0.1892  1.3822
  612TMC3     C 9070   3.467   0.684  10.130 -0.6555  0.1841  0.1297
  612TMC3     O 9071   3.363   0.745  10.118  0.1480  0.2407  0.7407
  612TMC3     H 9072   3.732   0.613  10.145 -1.1637 -0.8105 -0.2511
  612TMC3    H1 9073   3.467   0.949  10.150 -0.4453  0.5733  2.3744
  612TMC3    H2 9074   3.891   1.006  10.181 -1.4712  1.4068  2.6424
  612TMC3    C7 9075   3.660   1.131  10.172 -0.2622  0.5152  0.1899
  612TMC3    C8 9076   3.953   0.754  10.169  0.0454  0.1299  0.6888
  612TMC3    O1 9077   3.746   1.189  10.105  0.1856  0.1218  0.0789
  612TMC3    O2 9078   4.031   0.842  10.138  0.3772 -0.2772 -0.0666
  613MPD2     C 9079   2.340   2.928  16.761 -0.0154 -0.4054  0.0182
  613MPD2    C1 9080   2.296   2.923  16.628 -0.3632 -0.7185 -0.0555
  613MPD2    C2 9081   2.224   2.816  16.588  0.3461 -0.2603 -0.1156
  613MPD2    C3 9082   2.198   2.709  16.670  0.1409  0.1118 -0.4077
  613MPD2    C4 9083   2.256   2.716  16.802  0.2098 -0.2843  0.4608
  613MPD2    C5 9084   2.327   2.826  16.843  0.0247  0.6630 -0.0880
  613MPD2     H 9085   2.193   2.813  16.484  1.1651 -1.4665 -0.3237
  613MPD2    H1 9086   2.234   2.633  16.867  1.9694 -0.8299  0.3555
  613MPD2    H2 9087   2.384   3.021  16.798 -2.2443  0.7326 -0.1867
  613MPD2    H3 9088   2.374   2.824  16.941  1.9701  1.5670 -1.0141
  613MPD2     N 9089   2.135   2.591  16.620  0.6229  0.1390 -0.0844
  613MPD2    H5 9090   2.153   2.506  16.673  0.0535 -0.2482 -0.5154
  613MPD2    N1 9091   2.341   3.019  16.544 -0.7554 -0.4314 -0.5188
  613MPD2    H7 9092   2.422   3.070  16.577 -0.7836  0.0300 -1.1588
  614TMC3    C1 9093   2.426   3.024  16.328  0.6704  0.2646  0.6209
  614TMC3    C2 9094   2.475   2.900  16.335  0.2741 -0.2385  0.7463
  614TMC3    C3 9095   2.524   2.841  16.222 -0.1768 -0.0166 -0.1330
  614TMC3    C4 9096   2.415   3.105  16.211 -0.5563  0.3153  0.1069
  614TMC3    C5 9097   2.458   3.033  16.100 -0.9503  0.2445  0.1168
  614TMC3    C6 9098   2.523   2.910  16.108  0.1119  0.2781  0.0188
  614TMC3     C 9099   2.308   3.025  16.413  0.3239  0.2528  0.2230
  614TMC3     O 9100   2.195   3.005  16.367  0.0457  0.2254  0.7513
  614TMC3     H 9101   2.464   2.850  16.431  0.6802 -0.3177  0.7512
  614TMC3    H1 9102   2.334   3.176  16.205 -0.5131  0.3517 -0.0677
  614TMC3    H2 9103   2.570   2.873  16.017 -1.0982 -1.1728 -0.0094
  614TMC3    C7 9104   2.435   3.094  15.974  0.0992  0.0707  0.3136
  614TMC3    C8 9105   2.516   2.701  16.226  0.7566 -0.4592  0.0882
  614TMC3    O1 9106   2.437   3.219  15.971 -0.1614  0.0598 -0.4975
  614TMC3    O2 9107   2.443   2.663  16.316 -0.3284  0.1365 -0.0427
  615MPD2     C 9108   1.836   4.217  16.020  0.1687  0.6268 -0.0067
  615MPD2    C1 9109   1.729   4.305  16.039 -0.6757  0.1228  0.2358
  615MPD2    C2 9110   1.601   4.258  16.017  0.0298 -0.2577  0.0413
  615MPD2    C3 9111   1.581   4.128  15.962  0.2436  0.2465  0.1522
  615MPD2    C4 9112   1.692   4.057  15.931 -0.5120  0.0875 -0.4747
  615MPD2    C5 9113   1.814   4.098  15.960  0.5688 -0.1635 -0.3927
  615MPD2     H 9114   1.516   4.323  16.036 -0.4423 -0.7668 -0.3680
  615MPD2    H1 9115   1.667   3.958  15.893  1.3615 -0.1043 -1.2302
  615MPD2    H2 9116   1.939   4.247  16.035  0.1986  2.2218 -3.3930
  615MPD2    H3 9117   1.896   4.028  15.951  0.3722 -0.7558  2.5085
  615MPD2     N 9118   1.456   4.089  15.913  0.2298  0.6307  0.1212
  615MPD2    H5 9119   1.465   4.026  15.834 -1.4874  0.5807 -0.0291
  615MPD2    N1 9120   1.739   4.443  16.078 -0.3061  0.2961 -0.1849
  615MPD2    H7 9121   1.649   4.488  16.091  0.1300  0.2818  2.8362
  616TMC3    C1 9122   1.838   4.650  16.111 -0.1194 -0.7420  0.1333
  616TMC3    C2 9123   1.922   0.011  16.047  0.2637  0.2743  0.5347
  616TMC3    C3 9124   1.897   0.142  16.066 -0.1919  0.6377 -0.7312
  616TMC3    C4 9125   1.728   4.686  16.183 -0.4161 -0.3753 -0.3693
  616TMC3    C5 9126   1.702   0.101  16.187 -0.2376  0.2244  0.0949
  616TMC3    C6 9127   1.785   0.194  16.126  1.2486 -0.6049 -0.4149
  616TMC3     C 9128   1.861   4.512  16.082  0.4077 -0.2906 -0.3702
  616TMC3     O 9129   1.964   4.473  16.035  0.2782 -0.0284 -0.8992
  616TMC3     H 9130   2.019   4.708  16.006 -1.2469 -2.7923 -1.0348
  616TMC3    H1 9131   1.656   4.620  16.230 -1.3641 -0.0587 -1.3718
  616TMC3    H2 9132   1.773   0.301  16.131  3.8778 -0.2891 -0.7356
  616TMC3    C7 9133   1.575   0.145  16.242  0.2163 -0.3855 -0.2016
  616TMC3    C8 9134   1.965   0.239  15.987  0.0377 -0.4680  0.4391
  616TMC3    O1 9135   1.525   0.071  16.326  0.0380  0.1306 -0.6140
  616TMC3    O2 9136   1.900   0.324  15.929  0.0896 -0.6210  0.3636
  617MPD2     C 9137   0.235   2.542  13.888  0.3255  0.2937 -0.3686
  617MPD2    C1 9138   0.263   2.442  13.973  0.3889  0.4643 -0.2035
  617MPD2    C2 9139   0.176   2.403  14.076  1.1275  0.9029  0.0555
  617MPD2    C3 9140   0.045   2.449  14.067  0.5440  0.1060 -0.3092
  617MPD2    C4 9141   0.015   2.546  13.979  0.3261 -0.2199 -0.0444
  617MPD2    C5 9142   0.103   2.589  13.885 -0.0105 -0.7097 -0.2643
  617MPD2     H 9143   0.209   2.331  14.150 -0.2294  0.6146  0.3801
  617MPD2    H1 9144   4.641   2.593  13.979  1.0578  1.3128 -0.3273
  617MPD2    H2 9145   0.308   2.575  13.814 -0.0134  4.3409  1.1341
  617MPD2    H3 9146   0.070   2.664  13.814  0.8621 -1.5522 -1.5722
  617MPD2     N 9147   4.657   2.394  14.137  0.0109  0.0513 -0.3453
  617MPD2    H5 9148   4.571   2.444  14.117 -0.1594 -0.3307 -0.5605
  617MPD2    N1 9149   0.391   2.385  13.961 -0.9672 -0.3812 -0.4789
  617MPD2    H7 9150   0.445   2.423  13.885 -0.3187 -1.0592 -0.3637
  618TMC3    C1 9151   0.566   2.236  13.974 -0.2617  0.3960 -0.3416
  618TMC3    C2 9152   0.557   2.203  13.845 -0.0351 -0.1690 -0.3779
  618TMC3    C3 9153   0.656   2.133  13.791  0.1803 -0.3250 -0.2674
  618TMC3    C4 9154   0.667   2.191  14.051 -0.6067 -0.2722 -1.3600
  618TMC3    C5 9155   0.781   2.132  13.992 -0.0625  0.1946  0.1840
  618TMC3    C6 9156   0.768   2.090  13.864 -0.0513 -0.0274  0.7340
  618TMC3     C 9157   0.450   2.291  14.039 -0.8407 -0.4818 -0.2622
  618TMC3     O 9158   0.425   2.261  14.155 -0.1563  0.4582  0.5420
  618TMC3     H 9159   0.472   2.230  13.782 -0.3666 -2.7304 -1.0388
  618TMC3    H1 9160   0.662   2.198  14.159 -2.0959 -1.6691 -1.3558
  618TMC3    H2 9161   0.853   2.038  13.821  0.8289  0.3556  1.9930
  618TMC3    C7 9162   0.885   2.080  14.077 -0.1456 -0.0676  0.5830
  618TMC3    C8 9163   0.670   2.153  13.650 -0.5632 -0.3540 -0.2324
  618TMC3    O1 9164   0.842   2.035  14.183  0.1495  0.2155 -0.1753
  618TMC3    O2 9165   0.588   2.217  13.589  0.1783 -0.3196  0.2606
  619MPD2     C 9166   1.063   3.499  13.766  0.4753  0.3212 -0.3643
  619MPD2    C1 9167   0.962   3.543  13.686 -0.3711  0.6272 -0.1648
  619MPD2    C2 9168   0.830   3.559  13.727 -0.6999 -0.5499 -0.3136
  619MPD2    C3 9169   0.804   3.536  13.861  0.1905 -0.4376 -0.4227
  619MPD2    C4 9170   0.907   3.492  13.941  0.6376  0.0721 -0.4691
  619MPD2    C5 9171   1.033   3.478  13.896 -0.5235 -0.0435 -0.2815
  619MPD2     H 9172   0.760   3.597  13.654  0.0799  0.8891 -0.3129
  619MPD2    H1 9173   0.893   3.444  14.037 -0.1624 -0.3826 -0.8054
  619MPD2    H2 9174   1.164   3.474  13.733  0.3011 -1.7293  0.6182
  619MPD2    H3 9175   1.107   3.425  13.956 -1.6709 -0.5364  0.7100
  619MPD2     N 9176   0.676   3.551  13.912 -0.1108 -0.7757 -0.3318
  619MPD2    H5 9177   0.669   3.551  14.013  0.5189  0.0033 -0.2872
  619MPD2    N1 9178   0.976   3.572  13.549 -0.0191 -0.2814 -0.0356
  619MPD2    H7 9179   0.895   3.591  13.492  0.9699  1.6628 -0.7983
  620TMC3    C1 9180   1.089   3.592  13.348 -0.3268 -0.3941 -0.1138
  620TMC3    C2 9181   0.966   3.614  13.297 -0.4543  0.1899 -0.0902
  620TMC3    C3 9182   0.951   3.705  13.195  0.0177 -0.0823  0.9727
  620TMC3    C4 9183   1.193   3.668  13.307  0.2137 -0.1759  0.0830
  620TMC3    C5 9184   1.179   3.765  13.209  0.6499  0.3134 -0.5157
  620TMC3    C6 9185   1.061   3.765  13.137  0.1218  0.8058  0.0083
  620TMC3     C 9186   1.095   3.566  13.486  0.0962 -0.2269  0.9322
  620TMC3     O 9187   1.203   3.566  13.534  0.1358  0.3860 -0.8387
  620TMC3     H 9188   0.876   3.572  13.341  0.3214 -1.8652 -0.4364
  620TMC3    H1 9189   1.291   3.631  13.335  1.2412  0.2812 -2.8715
  620TMC3    H2 9190   1.047   3.839  13.059  0.2480  1.6503  0.7805
  620TMC3    C7 9191   1.203   3.889  13.279  0.0959  0.3569  0.2244
  620TMC3    C8 9192   0.828   3.775  13.191  0.1224  0.1934 -0.7167
  620TMC3    O1 9193   1.298   3.881  13.356  0.3088  1.0176  0.2448
  620TMC3    O2 9194   0.759   3.758  13.292  0.1284 -0.0867 -0.2189
  621MPD2     C 9195   1.818   3.198  10.306 -0.6815  0.3858  0.0938
  621MPD2    C1 9196   1.784   3.186  10.167 -0.2186 -0.3611 -0.4022
  621MPD2    C2 9197   1.844   3.276  10.082  0.5549 -0.6563  0.1038
  621MPD2    C3 9198   1.928   3.383  10.124 -0.1773 -0.0904  0.2864
  621MPD2    C4 9199   1.945   3.397  10.258  0.1851 -0.2418 -0.1259
  621MPD2    C5 9200   1.898   3.303  10.344 -0.0699  0.3226  0.6236
  621MPD2     H 9201   1.833   3.249   9.978  0.6530 -1.4633  0.3022
  621MPD2    H1 9202   1.991   3.488  10.298  1.6781 -1.5812  1.2297
  621MPD2    H2 9203   1.779   3.128  10.379  0.9564 -1.4616 -0.7928
  621MPD2    H3 9204   1.921   3.322  10.449  0.9916  3.6063 -0.2134
  621MPD2     N 9205   1.974   3.465  10.023 -0.0309  0.0784  0.0255
  621MPD2    H5 9206   1.940   3.449   9.928 -1.0758  1.2507  0.2112
  621MPD2    N1 9207   1.704   3.080  10.117 -0.3994 -0.0034 -0.0048
  621MPD2    H7 9208   1.680   3.076  10.018  0.5970 -1.6961 -0.1876
  622TMC3    C1 9209   1.577   2.880  10.111  0.2662 -0.1621 -0.1978
  622TMC3    C2 9210   1.479   2.799  10.174 -0.4832 -0.0400 -0.2825
  622TMC3    C3 9211   1.401   2.723  10.093  0.1381 -0.1192  0.0399
  622TMC3    C4 9212   1.602   2.882   9.977  0.2081  0.6470 -0.3033
  622TMC3    C5 9213   1.515   2.799   9.900 -0.4481  0.0324 -0.6267
  622TMC3    C6 9214   1.417   2.726   9.955 -0.0872  0.0864  0.2057
  622TMC3     C 9215   1.643   2.980  10.195  0.7156 -0.4825 -0.5762
  622TMC3     O 9216   1.643   2.953  10.315 -0.3753 -0.9670  0.1424
  622TMC3     H 9217   1.460   2.801  10.281 -1.4493  1.6113 -0.4839
  622TMC3    H1 9218   1.689   2.927   9.931  0.7206  1.0693  1.0689
  622TMC3    H2 9219   1.356   2.662   9.891  0.1810  2.3769 -2.3424
  622TMC3    C7 9220   1.581   2.736   9.788  0.4675  0.2476 -0.2901
  622TMC3    C8 9221   1.299   2.637  10.152 -0.5864  0.2705  0.3018
  622TMC3    O1 9222   1.696   2.703   9.815  0.2264 -0.0883 -0.3101
  622TMC3    O2 9223   1.270   2.536  10.087 -0.5327  0.4262 -0.0885
  623MPD2     C 9224   0.193   0.071  15.712 -0.4338 -0.0255  0.2230
  623MPD2    C1 9225   0.171   4.684  15.795  0.1717  0.6042  0.6082
  623MPD2    C2 9226   0.230   4.680  15.921 -0.0622  0.4755 -0.3771
  623MPD2    C3 9227   0.316   0.057  15.966  0.6914 -0.4244  0.5236
  623MPD2    C4 9228   0.344   0.162  15.884 -0.4511 -0.1769  0.7190
  623MPD2    C5 9229   0.282   0.162  15.765 -0.4341  0.1552 -0.2852
  623MPD2     H 9230   0.214   4.597  15.989 -0.1134  1.0580  0.3278
  623MPD2    H1 9231   0.409   0.244  15.914 -1.4819  0.5564  0.9526
  623MPD2    H2 9232   0.149   0.093  15.616 -1.0122  0.2231  0.5389
  623MPD2    H3 9233   0.313   0.247  15.706 -1.2367 -0.4419 -1.5693
  623MPD2     N 9234   0.360   0.048  16.101  0.0260 -0.5917 -0.2896
  623MPD2    H5 9235   0.313   4.696  16.152 -0.5204 -1.4490 -2.0584
  623MPD2    N1 9236   0.074   4.589  15.757 -0.0828 -0.5041  0.3348
  623MPD2    H7 9237   0.021   4.606  15.673 -0.7177  0.7415  0.9921
  624TMC3    C1 9238   0.603   0.089  16.502  0.5070 -0.4914 -0.1549
  624TMC3    C2 9239   0.505   0.017  16.567  0.8331 -0.3017  0.2043
  624TMC3    C3 9240   0.384   4.706  16.511 -0.1442 -0.0066 -0.1454
  624TMC3    C4 9241   0.569   0.145  16.379  0.4428  0.2467  0.0762
  624TMC3    C5 9242   0.458   0.092  16.317  0.9216  0.2155  0.4628
  624TMC3    C6 9243   0.360   0.012  16.378  0.7656  0.2171  0.7087
  624TMC3     C 9244   0.741   0.058  16.530  0.3995  0.3430 -0.7984
  624TMC3     O 9245   0.782   0.021  16.640 -0.1368 -0.2794  0.0955
  624TMC3     H 9246   0.534   4.704  16.665  1.5258  0.8799  0.4397
  624TMC3    H1 9247   0.646   0.200  16.327  1.4301  0.8080  2.1448
  624TMC3    H2 9248   0.265   4.708  16.334 -0.2043  2.4215  1.4368
  624TMC3    C7 9249   0.440   0.134  16.180  0.4952  0.1744  0.1972
  624TMC3    C8 9250   0.281   4.641  16.591 -0.0378  0.4654  0.8908
  624TMC3    O1 9251   0.499   0.235  16.140 -0.3605 -0.2609 -0.3749
  624TMC3    O2 9252   0.209   4.573  16.516  0.2207  0.2331  0.9752
  625MPD2     C 9253   1.125   0.647   0.711 -0.5038 -0.4662  0.5091
  625MPD2    C1 9254   1.209   0.754   0.703  0.2371  0.0746 -0.3430
  625MPD2    C2 9255   1.338   0.732   0.717 -0.3594 -0.0924 -1.0715
  625MPD2    C3 9256   1.393   0.606   0.762 -0.3954  0.1975  0.6253
  625MPD2    C4 9257   1.304   0.503   0.787  0.2258  0.3213 -0.4707
  625MPD2    C5 9258   1.171   0.526   0.762  0.4905  0.5519 -0.1330
  625MPD2     H 9259   1.395   0.823   0.704 -0.1087 -0.0236  0.4964
  625MPD2    H1 9260   1.325   0.405   0.828  0.1923 -0.5240 -2.4645
  625MPD2    H2 9261   1.019   0.657   0.691 -0.6888 -1.3858  1.0338
  625MPD2    H3 9262   1.103   0.444   0.780  0.7102  0.0209 -1.7395
  625MPD2     N 9263   1.525   0.586   0.782 -0.0488  0.9546  1.0916
  625MPD2    H5 9264   1.587   0.665   0.767 -1.3903  1.3069 -2.6671
  625MPD2    N1 9265   1.177   0.888   0.668  0.5096  0.9161  0.8715
  625MPD2    H7 9266   1.242   0.964   0.687 -1.3305  2.3458  1.4479
  626TMC3    C1 9267   1.030   1.072   0.631 -0.3044 -0.8188 -0.2406
  626TMC3    C2 9268   0.949   1.126   0.543  0.2247  0.2293  0.3780
  626TMC3    C3 9269   0.932   1.262   0.552 -0.1012  0.1620  0.3840
  626TMC3    C4 9270   1.092   1.143   0.733 -0.7844 -0.4990  0.1272
  626TMC3    C5 9271   1.061   1.278   0.743  0.2350  0.9939  0.0590
  626TMC3    C6 9272   0.978   1.345   0.653  0.6817 -0.4695 -0.2476
  626TMC3     C 9273   1.053   0.926   0.617  0.4180  0.1862 -0.6175
  626TMC3     O 9274   0.959   0.857   0.581 -0.4859  0.4397 -0.3606
  626TMC3     H 9275   0.917   1.068   0.457 -2.0975  1.3476  0.4754
  626TMC3    H1 9276   1.162   1.104   0.806 -1.1691  0.1035  0.8126
  626TMC3    H2 9277   0.965   1.453   0.656 -0.5462 -0.6136 -0.0540
  626TMC3    C7 9278   1.130   1.354   0.851  0.6634  0.2016 -0.5507
  626TMC3    C8 9279   0.847   1.314   0.450  0.0100 -0.3027  1.1979
  626TMC3    O1 9280   1.227   1.300   0.905 -0.1358  0.0452  0.2653
  626TMC3    O2 9281   0.841   1.256   0.341 -0.0245  0.2949 -0.1196
  627MPD2     C 9282   4.581   1.191  14.158 -0.1284 -0.1649 -0.0532
  627MPD2    C1 9283   4.533   1.157  14.289  0.3347 -0.2712 -0.4914
  627MPD2    C2 9284   4.413   1.092  14.292 -0.0703 -0.1672 -0.2506
  627MPD2    C3 9285   4.355   1.050  14.173 -0.3199  0.2838  0.1062
  627MPD2    C4 9286   4.409   1.072  14.048 -0.1162 -0.5022 -0.6852
  627MPD2    C5 9287   4.523   1.150  14.046  0.2300 -0.0763  0.4519
  627MPD2     H 9288   4.368   1.063  14.386 -1.2943 -1.0951 -1.1214
  627MPD2    H1 9289   4.359   1.045  13.955 -0.8414 -0.5815 -0.2700
  627MPD2    H2 9290   4.662   1.262  14.140  0.7547 -1.6673 -2.0474
  627MPD2    H3 9291   4.563   1.169  13.947  0.4798 -1.6083  0.2572
  627MPD2     N 9292   4.240   0.966  14.188  0.3593  0.1836  0.5822
  627MPD2    H5 9293   4.203   0.958  14.282 -2.7161  0.2001 -0.6350
  627MPD2    N1 9294   4.593   1.207  14.409  0.4285 -0.5132  0.2915
  627MPD2    H7 9295   4.534   1.221  14.491 -0.9872 -3.3262 -0.2574
  628TMC3    C1 9296   0.022   1.314  14.547  0.2127 -0.9334 -0.0191
  628TMC3    C2 9297   0.133   1.267  14.612 -0.4456 -0.2850  0.1074
  628TMC3    C3 9298   0.139   1.301  14.742 -0.0107 -0.3009  0.9612
  628TMC3    C4 9299   4.644   1.381  14.603 -0.6122 -0.8187  1.0622
  628TMC3    C5 9300   4.654   1.394  14.742 -0.1494  0.1692  0.1371
  628TMC3    C6 9301   0.038   1.358  14.813  0.4610  0.0633  0.0139
  628TMC3     C 9302   4.720   1.251  14.418 -0.8387 -0.6938 -0.7599
  628TMC3     O 9303   0.086   1.230  14.339 -0.3657 -0.5906  0.8900
  628TMC3     H 9304   0.200   1.194  14.569 -0.7039 -0.2926 -0.2793
  628TMC3    H1 9305   4.556   1.412  14.548  1.0741 -0.2692 -1.3303
  628TMC3    H2 9306   0.053   1.400  14.912 -0.6124  1.3392 -0.3629
  628TMC3    C7 9307   4.573   1.500  14.808  0.1539  0.5543 -0.3315
  628TMC3    C8 9308   0.255   1.261  14.818 -0.4413 -0.1456  0.2613
  628TMC3    O1 9309   4.543   1.495  14.925  0.3090 -0.0042 -0.0599
  628TMC3    O2 9310   0.352   1.223  14.755 -0.7192  0.1989  0.1905
  629MPD2     C 9311   2.393   0.502  15.873  0.2689  0.0758  0.1252
  629MPD2    C1 9312   2.426   0.400  15.960 -0.0619 -0.2130  0.1440
  629MPD2    C2 9313   2.326   0.312  15.997 -0.0395 -0.2745 -0.6609
  629MPD2    C3 9314   2.201   0.328  15.951 -0.1207 -0.0708 -0.6615
  629MPD2    C4 9315   2.170   0.433  15.867  0.1884  0.5171  0.2523
  629MPD2    C5 9316   2.265   0.524  15.832 -0.7003  0.1785  0.5095
  629MPD2     H 9317   2.354   0.235  16.068  2.6605  0.0562 -1.3751
  629MPD2    H1 9318   2.068   0.450  15.835  0.5278  1.0818 -0.5272
  629MPD2    H2 9319   2.458   0.579  15.835 -1.7936  1.2676 -1.0196
  629MPD2    H3 9320   2.255   0.612  15.769  0.1463  1.1710  1.7603
  629MPD2     N 9321   2.103   0.242  16.004 -0.4947  0.2006 -0.1386
  629MPD2    H5 9322   2.135   0.175  16.074 -2.0531  0.9351  1.2622
  629MPD2    N1 9323   2.556   0.399  16.004 -0.6357  0.3506  0.5762
  629MPD2    H7 9324   2.608   0.484  15.986 -0.3728  0.1554  0.4106
  630TMC3    C1 9325   2.752   0.309  16.091  0.0509 -0.1857 -0.2890
  630TMC3    C2 9326   2.822   0.414  16.033  0.1726  0.8893 -0.6929
  630TMC3    C3 9327   2.957   0.410  16.059 -0.3776  0.1378  0.0624
  630TMC3    C4 9328   2.812   0.207  16.157 -0.2448  0.1006  0.0028
  630TMC3    C5 9329   2.940   0.222  16.190 -0.1130  0.5679 -0.1543
  630TMC3    C6 9330   3.019   0.325  16.144 -0.1132  0.4628 -0.1221
  630TMC3     C 9331   2.615   0.294  16.062  0.0345 -0.2274  0.1268
  630TMC3     O 9332   2.574   0.175  16.076  0.1538 -0.5651  0.0198
  630TMC3     H 9333   2.777   0.488  15.968 -0.1676 -0.4921 -2.0352
  630TMC3    H1 9334   2.751   0.132  16.206 -0.6866 -1.1789 -2.4935
  630TMC3    H2 9335   3.127   0.322  16.159 -0.2174 -0.6269  0.3635
  630TMC3    C7 9336   2.965   0.200  16.327 -0.0527  0.0975  0.7981
  630TMC3    C8 9337   3.034   0.530  16.031 -0.3748 -0.1048 -0.0668
  630TMC3    O1 9338   2.910   0.104  16.382 -0.5829 -0.0725 -0.1477
  630TMC3    O2 9339   3.131   0.537  16.102  0.4126  0.1146  0.4818
  631MPD2     C 9340   0.453   4.492  15.664  0.5058  0.0029 -0.2702
  631MPD2    C1 9341   0.545   4.499  15.561 -0.4476  0.4441 -0.1842
  631MPD2    C2 9342   0.666   4.432  15.567  0.2666  0.3151 -0.2316
  631MPD2    C3 9343   0.693   4.370  15.685  0.0737  0.5483  0.0063
  631MPD2    C4 9344   0.601   4.365  15.789 -0.3316 -0.6417  0.1326
  631MPD2    C5 9345   0.483   4.426  15.780  0.3064 -0.5229  0.3835
  631MPD2     H 9346   0.737   4.413  15.488 -0.3248  2.7036 -1.3343
  631MPD2    H1 9347   0.620   4.296  15.870 -3.8619  0.6633  2.0655
  631MPD2    H2 9348   0.365   4.556  15.666  0.8504  0.4274  2.1488
  631MPD2    H3 9349   0.417   4.413  15.865 -1.3144 -0.9079 -0.9379
  631MPD2     N 9350   0.820   4.299  15.681 -0.6089 -0.5850 -0.1221
  631MPD2    H5 9351   0.866   4.291  15.591 -2.3962  0.7395 -1.1608
  631MPD2    N1 9352   0.507   4.577  15.450  0.0007 -0.6214  0.3197
  631MPD2    H7 9353   0.411   4.606  15.468  0.8323  0.7950  2.4846
  632TMC3    C1 9354   0.501   4.680  15.236  0.1984 -0.2680 -0.5630
  632TMC3    C2 9355   0.370   4.718  15.261  0.1270  0.3418 -0.4316
  632TMC3    C3 9356   0.293   0.023  15.156 -0.7061  0.1667 -0.4726
  632TMC3    C4 9357   0.557   4.693  15.113 -0.3364  0.1804 -0.3759
  632TMC3    C5 9358   0.473   0.001  15.006  0.7795  0.1455 -0.0098
  632TMC3    C6 9359   0.342   0.032  15.027  0.3983 -0.5492  0.4568
  632TMC3     C 9360   0.575   4.609  15.333  0.2364  0.7155 -0.0748
  632TMC3     O 9361   0.680   4.562  15.295 -0.0098 -0.3959 -0.3521
  632TMC3     H 9362   0.313   4.695  15.350  2.4886  1.4093  1.3834
  632TMC3    H1 9363   0.664   4.685  15.096 -0.2147  0.6323  0.2094
  632TMC3    H2 9364   0.279   0.052  14.941  0.7315 -0.2879  0.2737
  632TMC3    C7 9365   0.511   4.677  14.874  0.3693 -0.1829 -0.1970
  632TMC3    C8 9366   0.174   0.090  15.195 -0.4990  0.0975  0.2520
  632TMC3    O1 9367   0.445   4.706  14.773 -0.5393  0.3107 -0.7133
  632TMC3    O2 9368   0.178   0.146  15.305  0.0863 -0.5865  0.2508
  633MPD2     C 9369   0.592   2.771  17.517  0.1917 -0.3736 -0.2929
  633MPD2    C1 9370   0.618   2.738  17.386 -0.2853  0.1591  0.4576
  633MPD2    C2 9371   0.715   2.644  17.349 -0.2504 -0.7415  0.9572
  633MPD2    C3 9372   0.808   2.602  17.445 -0.1720 -0.4164  0.4763
  633MPD2    C4 9373   0.797   2.656  17.573  0.3520 -0.4684  0.2984
  633MPD2    C5 9374   0.683   2.726  17.613  0.3173  0.2403 -1.0220
  633MPD2     H 9375   0.732   2.617  17.245  0.1819  1.0322  0.5689
  633MPD2    H1 9376   0.866   2.627  17.652 -0.2914 -1.5616  0.4512
  633MPD2    H2 9377   0.498   2.820  17.540  0.4823  0.3551 -0.6684
  633MPD2    H3 9378   0.655   2.751   0.020  2.1721 -0.3050 -0.3758
  633MPD2     N 9379   0.903   2.501  17.412 -0.5393  0.1322  0.3418
  633MPD2    H5 9380   0.899   2.456  17.321  2.0506 -0.4882  0.5268
  633MPD2    N1 9381   0.541   2.792  17.276  0.6613 -0.8724  0.4592
  633MPD2    H7 9382   0.547   2.746  17.186 -2.6599  1.4825 -0.9617
  634TMC3    C1 9383   0.376   2.897  17.154 -0.0962 -0.8127  0.0050
  634TMC3    C2 9384   0.336   2.781  17.098 -0.0107  0.0433 -0.6219
  634TMC3    C3 9385   0.280   2.788  16.972 -0.3276 -0.1394 -0.3599
  634TMC3    C4 9386   0.367   3.022  17.096  0.6202 -0.5672 -0.4991
  634TMC3    C5 9387   0.306   3.021  16.972  0.8807  0.2107 -0.3447
  634TMC3    C6 9388   0.254   2.909  16.913 -0.1575 -0.7897 -0.7860
  634TMC3     C 9389   0.436   2.881  17.287  0.6822 -0.4853  0.6193
  634TMC3     O 9390   0.418   2.965  17.367 -0.0296 -0.1713 -0.6089
  634TMC3     H 9391   0.373   2.685  17.131 -0.8909 -1.3176 -3.5985
  634TMC3    H1 9392   0.400   3.117  17.136 -2.1936  0.5542 -0.8248
  634TMC3    H2 9393   0.205   2.920  16.817 -0.0077  1.8439 -0.5575
  634TMC3    C7 9394   0.311   3.141  16.893  0.1879 -0.3367 -0.2623
  634TMC3    C8 9395   0.292   2.675  16.885  0.8236  0.4971  0.0894
  634TMC3    O1 9396   0.321   3.131  16.770 -0.4746  0.6465  0.7195
  634TMC3    O2 9397   0.309   2.569  16.942 -0.7609 -0.1424 -0.2297
  635TMC3    C1 9398   0.543   3.790   0.440 -0.5265 -0.0141  0.1616
  635TMC3    C2 9399   0.512   3.718   0.327 -0.1569 -0.8046 -0.0643
  635TMC3    C3 9400   0.499   3.584   0.335 -0.6271  0.6188 -0.1541
  635TMC3    C4 9401   0.543   3.731   0.564 -0.0056 -0.6417 -0.5116
  635TMC3    C5 9402   0.533   3.591   0.572 -0.7063 -0.3371  0.6596
  635TMC3    C6 9403   0.517   3.519   0.456  0.5822  0.0167  0.2316
  635TMC3     C 9404   0.556   3.936   0.434 -0.4558  0.6478  0.1911
  635TMC3     O 9405   0.625   3.988   0.519  0.3003 -0.4511 -0.3023
  635TMC3     H 9406   0.522   3.763   0.229 -2.0006 -0.7435 -0.2287
  635TMC3    H1 9407   0.568   3.796   0.648 -0.1633  1.4941 -2.1185
  635TMC3    H2 9408   0.539   3.413   0.465  0.8964  0.0269 -0.4159
  635TMC3    C7 9409   0.530   3.531   0.698 -0.6752 -0.0071 -0.5820
  635TMC3    C8 9410   0.524   3.510   0.212  0.4346  0.2574 -0.3513
  635TMC3    O1 9411   0.608   3.582   0.780  0.5066  0.3530 -0.4052
  635TMC3    O2 9412   0.535   3.579   0.104  0.5225  0.1213 -0.1561
  636MPD2     C 9413   1.992   2.810  15.745 -0.0419 -0.6917  0.3434
  636MPD2    C1 9414   1.983   2.859  15.872 -0.3610  0.3108  0.2087
  636MPD2    C2 9415   1.999   2.770  15.980 -0.6158 -0.6672  0.2227
  636MPD2    C3 9416   2.015   2.636  15.960  0.8396  0.9687  0.1530
  636MPD2    C4 9417   2.019   2.582  15.830  0.3127  0.1615 -0.3095
  636MPD2    C5 9418   2.001   2.674  15.721  0.0024 -0.0012 -0.0943
  636MPD2     H 9419   1.995   2.810  16.081  0.8857  2.2392 -0.8439
  636MPD2    H1 9420   2.024   2.475  15.813 -1.2541 -0.0256  0.3181
  636MPD2    H2 9421   1.990   2.872  15.657  0.4339  0.1396  0.9184
  636MPD2    H3 9422   2.001   2.636  15.619 -1.7071 -1.6477  0.5278
  636MPD2     N 9423   2.026   2.557  16.076 -0.3299  0.1953  0.0634
  636MPD2    H5 9424   2.003   2.602  16.165  0.8311 -0.5769  0.7443
  636MPD2    N1 9425   1.960   2.993  15.909 -0.1699  0.4340  0.0442
  636MPD2    H7 9426   1.951   3.018  16.007  1.3700 -0.2716  0.3621
  637TMC3    C1 9427   2.091   2.383  16.223  0.2419 -0.7801 -1.3916
  637TMC3    C2 9428   2.026   2.450  16.323  0.3068 -0.6723  0.1611
  637TMC3    C3 9429   2.085   2.442  16.444 -0.8657 -0.4285  0.3412
  637TMC3    C4 9430   2.199   2.300  16.246  0.1193 -0.1161  0.3593
  637TMC3    C5 9431   2.265   2.312  16.364  0.0884  0.8558 -0.1743
  637TMC3    C6 9432   2.203   2.380  16.467  0.2631  0.1082 -0.3380
  637TMC3     C 9433   2.078   2.434  16.085  0.8613 -0.8093 -0.6048
  637TMC3     O 9434   2.122   2.362  15.996  0.0532 -0.3532  0.6520
  637TMC3     H 9435   1.929   2.494  16.301  0.2238 -0.3871  1.1025
  637TMC3    H1 9436   2.243   2.253  16.159 -0.7033 -1.7948  0.8608
  637TMC3    H2 9437   2.252   2.381  16.564 -3.9040 -1.1614  1.8095
  637TMC3    C7 9438   2.362   2.211  16.398 -0.4557 -0.1901  0.2431
  637TMC3    C8 9439   2.068   2.581  16.504 -0.4687 -0.2200 -0.2817
  637TMC3    O1 9440   2.353   2.174  16.512 -0.0503 -0.3576  0.0927
  637TMC3    O2 9441   2.014   2.671  16.437 -0.0144 -0.1813 -0.0451
  638MPD2     C 9442   1.439   1.775  14.975 -0.5521 -0.8259 -0.3460
  638MPD2    C1 9443   1.403   1.679  14.884 -0.3124 -0.3666  0.3675
  638MPD2    C2 9444   1.338   1.566  14.937  0.4198 -0.6681  0.1274
  638MPD2    C3 9445   1.305   1.563  15.074 -0.1142  0.1552 -0.0191
  638MPD2    C4 9446   1.340   1.657  15.158  0.3516 -0.7940  0.3200
  638MPD2    C5 9447   1.401   1.771  15.109 -0.5614  0.1096 -0.0226
  638MPD2     H 9448   1.301   1.486  14.874 -0.5369  0.0012 -0.1560
  638MPD2    H1 9449   1.328   1.644  15.265 -1.3503  1.5193  0.4106
  638MPD2    H2 9450   1.488   1.864  14.937  1.3779 -1.8840 -0.3262
  638MPD2    H3 9451   1.443   1.843  15.178  0.5924 -1.5269  0.9943
  638MPD2     N 9452   1.256   1.437  15.123 -0.7848  0.0557 -0.0911
  638MPD2    H5 9453   1.280   1.415  15.219  1.4200 -0.2355 -0.7074
  638MPD2    N1 9454   1.446   1.687  14.745 -0.7523 -0.2195 -0.1579
  638MPD2    H7 9455   1.497   1.772  14.724  0.0017 -0.8557 -0.8852
  639TMC3    C1 9456   1.195   1.212  15.100 -0.2187  0.3448  0.3628
  639TMC3    C2 9457   1.096   1.127  15.043  0.0799 -0.4503  0.2926
  639TMC3    C3 9458   1.121   0.990  15.054  0.0449 -0.1793 -0.1608
  639TMC3    C4 9459   1.321   1.166  15.132  0.2748  0.0088  0.3913
  639TMC3    C5 9460   1.339   1.031  15.140 -0.4555 -0.0748 -0.6369
  639TMC3    C6 9461   1.236   0.938  15.110 -0.4771 -0.1053  0.0573
  639TMC3     C 9462   1.190   1.346  15.043 -0.3315  0.1468  0.4671
  639TMC3     O 9463   1.145   1.359  14.928 -0.1936  0.1053 -0.4513
  639TMC3     H 9464   0.997   1.151  15.006  0.3932 -0.4274 -0.5411
  639TMC3    H1 9465   1.397   1.235  15.164 -0.8094  2.0500 -1.4489
  639TMC3    H2 9466   1.254   0.831  15.110  0.0008 -0.0241  2.4906
  639TMC3    C7 9467   1.454   0.976  15.211  0.3726 -0.2929  0.1059
  639TMC3    C8 9468   1.073   0.918  14.945  0.6843 -0.0691 -0.5371
  639TMC3    O1 9469   1.433   0.860  15.251 -0.1674  0.0565 -0.6691
  639TMC3    O2 9470   1.158   0.881  14.867  0.0396  0.7789  0.2834
  640MPD2     C 9471   2.047   4.203   9.525  0.6682  0.4648 -0.1164
  640MPD2    C1 9472   2.084   4.337   9.535 -0.2441 -0.2841 -0.3271
  640MPD2    C2 9473   1.985   4.423   9.587 -0.6120  0.3942 -0.2491
  640MPD2    C3 9474   1.859   4.368   9.627 -0.4384  0.4836 -0.2431
  640MPD2    C4 9475   1.836   4.234   9.619 -0.0639  0.1567 -0.3487
  640MPD2    C5 9476   1.936   4.147   9.574 -0.1964  0.0930  0.0467
  640MPD2     H 9477   2.014   4.526   9.605 -2.0070  0.7131  0.1025
  640MPD2    H1 9478   1.751   4.203   9.678  0.9954  0.5085  1.3842
  640MPD2    H2 9479   2.120   4.132   9.488  0.9705  1.8733 -2.1919
  640MPD2    H3 9480   1.934   4.039   9.574 -2.6116  0.1296 -0.8199
  640MPD2     N 9481   1.757   4.456   9.673  0.1002  0.3141  0.3534
  640MPD2    H5 9482   1.677   4.414   9.719  0.6553 -0.4427  0.6107
  640MPD2    N1 9483   2.214   4.376   9.507  0.2800  0.5422  0.0823
  640MPD2    H7 9484   2.271   4.306   9.461 -4.1689 -2.3743 -0.9991
  641TMC3    C1 9485   2.408   4.516   9.481  0.2558 -0.3337 -0.5333
  641TMC3    C2 9486   2.460   4.411   9.422  0.0038 -0.1781  0.1909
  641TMC3    C3 9487   2.574   4.427   9.348 -0.3131  0.1024 -0.3897
  641TMC3    C4 9488   2.460   4.643   9.465 -0.0318 -0.3957 -0.0651
  641TMC3    C5 9489   2.571   4.652   9.391 -0.3217 -0.0325  0.3088
  641TMC3    C6 9490   2.630   4.548   9.320  0.1907  0.0121  1.3470
  641TMC3     C 9491   2.269   4.499   9.531 -0.2259  0.4762 -0.2259
  641TMC3     O 9492   2.224   4.597   9.591 -0.6462  0.2654 -1.0149
  641TMC3     H 9493   2.427   4.308   9.425 -0.0188 -0.1937 -0.8329
  641TMC3    H1 9494   2.399   0.007   9.488  1.2341  0.2179  0.9511
  641TMC3    H2 9495   2.733   4.556   9.290 -0.5512  0.6266 -1.0462
  641TMC3    C7 9496   2.644   0.055   9.375 -0.5478 -0.8255  1.0234
  641TMC3    C8 9497   2.623   4.311   9.273  1.2783  0.0871  0.1109
  641TMC3    O1 9498   2.752   0.050   9.328 -0.1168 -0.0347 -0.6866
  641TMC3    O2 9499   2.545   4.222   9.256  0.0922 -0.3874 -0.4528
  642TMC3    C1 9500   3.015   1.321  12.288  0.0818  0.2667  0.3890
  642TMC3    C2 9501   3.038   1.316  12.423  0.6278  0.9515 -0.6234
  642TMC3    C3 9502   3.015   1.194  12.483 -0.6595 -0.7697  0.4201
  642TMC3    C4 9503   3.004   1.213  12.208 -0.4091 -0.0942  0.6133
  642TMC3    C5 9504   2.997   1.094  12.272  0.4124 -0.5379  0.2674
  642TMC3    C6 9505   2.984   1.088  12.406 -0.5473 -0.1691  0.5141
  642TMC3     C 9506   2.955   1.447  12.235 -0.0044 -0.9818 -0.5001
  642TMC3     O 9507   2.951   1.470  12.115 -0.2282 -0.0087  0.4373
  642TMC3     H 9508   3.059   1.403  12.484 -0.5785  1.2584 -0.6494
  642TMC3    H1 9509   2.999   1.224  12.100  1.4626  1.2111  0.6620
  642TMC3    H2 9510   2.971   0.988  12.445  0.2031  0.2776  1.8812
  642TMC3    C7 9511   2.916   1.002  12.202 -0.0539 -0.3550  0.0913
  642TMC3    C8 9512   2.953   1.202  12.614  0.2761 -0.1704 -0.5559
  642TMC3    O1 9513   2.923   1.010  12.081 -0.1598 -0.1103 -0.3615
  642TMC3    O2 9514   2.918   1.316  12.641  0.1892  0.0556 -0.0204
  643TMC3    C1 9515   2.289   0.939  17.679 -0.1666  0.8524 -0.2891
  643TMC3    C2 9516   2.230   1.016  17.585  0.3939 -0.4750  0.4525
  643TMC3    C3 9517   2.291   1.038  17.471 -0.1100  0.1507 -0.4913
  643TMC3    C4 9518   2.406   0.874  17.653 -0.0977 -0.1629 -0.3568
  643TMC3    C5 9519   2.462   0.882  17.522 -0.9397  0.7973  0.4606
  643TMC3    C6 9520   2.405   0.976  17.442 -0.6441  0.1038 -0.3873
  643TMC3     C 9521   2.212   0.916   0.104 -0.3748 -0.6002 -0.8572
  643TMC3     O 9522   2.108   0.968   0.125 -0.3947 -0.9407  0.2732
  643TMC3     H 9523   2.140   1.069  17.616  1.1888  0.9192  0.4067
  643TMC3    H1 9524   2.443   0.791   0.017  1.7872 -1.2358 -3.0567
  643TMC3    H2 9525   2.455   0.993  17.347  1.2383  0.6912  0.7136
  643TMC3    C7 9526   2.602   0.883  17.506 -0.0526 -0.1845  0.3237
  643TMC3    C8 9527   2.244   1.133  17.377 -0.0919 -0.5736  0.5680
  643TMC3    O1 9528   2.643   0.863  17.391  0.1356  0.0037  0.0213
  643TMC3    O2 9529   2.277   1.125  17.262 -0.1870  0.1625 -0.1486
  644MPD2     C 9530   3.216   1.106   9.524 -0.9294  0.5608 -0.0040
  644MPD2    C1 9531   3.127   1.050   9.607 -0.1794  0.1701 -0.3334
  644MPD2    C2 9532   3.021   1.128   9.650  0.2241 -0.6694 -0.7540
  644MPD2    C3 9533   3.006   1.258   9.623  0.2036 -0.4362  0.8304
  644MPD2    C4 9534   3.109   1.319   9.542 -0.8709 -0.3185  0.8901
  644MPD2    C5 9535   3.211   1.239   9.502  0.3322 -0.7259  1.3155
  644MPD2     H 9536   2.945   1.078   9.709 -0.2286 -0.9191 -1.5494
  644MPD2    H1 9537   3.115   1.424   9.519  0.0091 -0.5016  0.3216
  644MPD2    H2 9538   3.301   1.045   9.495 -0.5748 -0.0891  2.3698
  644MPD2    H3 9539   3.283   1.292   9.441  0.3082  0.6280  2.4382
  644MPD2     N 9540   2.911   1.332   9.687  0.3598 -0.0757  0.6593
  644MPD2    H5 9541   2.855   1.279   9.753 -0.2189 -0.9475 -0.5311
  644MPD2    N1 9542   3.142   0.915   9.638 -0.1936 -0.6826 -0.3563
  644MPD2    H7 9543   3.226   0.869   9.607  0.7796  1.8289 -1.4479
  645TMC3    C1 9544   2.802   1.508   9.777 -0.8939  0.3682  0.5008
  645TMC3    C2 9545   2.707   1.422   9.826 -0.6346 -0.1667 -0.5974
  645TMC3    C3 9546   2.609   1.480   9.899 -0.4991 -0.4405  0.5649
  645TMC3    C4 9547   2.813   1.642   9.810  0.0766 -0.3090  0.3116
  645TMC3    C5 9548   2.720   1.692   9.895 -0.1274  0.5456 -0.3388
  645TMC3    C6 9549   2.611   1.612   9.933 -0.6892  0.5683  0.6922
  645TMC3     C 9550   2.894   1.468   9.677  0.0865 -0.5963  0.1157
  645TMC3     O 9551   2.942   1.557   9.606 -0.6533  0.0485  0.1917
  645TMC3     H 9552   2.693   1.320   9.792 -1.1501  0.0635 -1.0875
  645TMC3    H1 9553   2.898   1.695   9.768 -1.6153  0.7517 -1.7187
  645TMC3    H2 9554   2.539   1.646  10.006  1.5027  0.9111  2.7146
  645TMC3    C7 9555   2.767   1.795   9.980  0.4840 -1.1153 -0.8442
  645TMC3    C8 9556   2.483   1.405   9.928  0.2919 -0.0150  0.2551
  645TMC3    O1 9557   2.876   1.848   9.949 -0.0365  0.1867  0.2667
  645TMC3    O2 9558   2.413   1.452  10.019 -0.0344  0.4103 -0.1944
  646MPD2     C 9559   1.596   0.170  14.572 -0.1400 -0.2144  0.0214
  646MPD2    C1 9560   1.493   0.213  14.653 -0.1290 -1.0489  0.3939
  646MPD2    C2 9561   1.381   0.280  14.599  0.2738  0.1837  0.4622
  646MPD2    C3 9562   1.385   0.306  14.456  0.1662  0.8109 -0.3293
  646MPD2    C4 9563   1.497   0.264  14.380  0.2309  0.2436  0.7494
  646MPD2    C5 9564   1.599   0.195  14.437  0.2654 -0.1649 -0.0380
  646MPD2     H 9565   1.301   0.317  14.662 -0.5963  1.9519 -1.7001
  646MPD2    H1 9566   1.497   0.263  14.272 -1.4105  0.0414  0.7580
  646MPD2    H2 9567   1.680   0.122  14.620  2.2415  1.3088 -2.6316
  646MPD2    H3 9568   1.669   0.143  14.373 -1.6030 -2.0991 -0.5250
  646MPD2     N 9569   1.278   0.378  14.392  0.7879 -0.5630 -0.2811
  646MPD2    H5 9570   1.193   0.387  14.447  0.7319  0.7908 -0.5750
  646MPD2    N1 9571   1.509   0.185  14.784 -0.0934 -0.2152 -0.4893
  646MPD2    H7 9572   1.599   0.163  14.824  0.5160 -1.8012 -2.7364
  647TMC3    C1 9573   1.466   0.172  15.017  0.0364  0.2757 -0.6315
  647TMC3    C2 9574   1.388   0.103  15.107 -0.1280  0.2783  0.2386
  647TMC3    C3 9575   1.434   0.080  15.231 -0.1221 -0.7898  0.1287
  647TMC3    C4 9576   1.585   0.221  15.050  0.3428  0.3290 -0.4378
  647TMC3    C5 9577   1.627   0.198  15.178  0.9362  0.1304  0.1642
  647TMC3    C6 9578   1.559   0.124  15.267  0.3183 -0.3270  0.1843
  647TMC3     C 9579   1.415   0.186  14.883 -0.4432  0.2277 -0.3310
  647TMC3     O 9580   1.294   0.197  14.879 -0.3279  0.5904  0.2845
  647TMC3     H 9581   1.294   0.062  15.071  0.5847 -1.8684  0.7642
  647TMC3    H1 9582   1.643   0.278  14.979  0.5229  1.1110  0.3373
  647TMC3    H2 9583   1.602   0.111  15.365  0.3915  1.9582  0.4552
  647TMC3    C7 9584   1.769   0.212  15.211  0.4342 -0.4101 -0.5459
  647TMC3    C8 9585   1.413   4.668  15.271 -0.4331 -0.4745 -1.2690
  647TMC3    O1 9586   1.818   0.126  15.286 -0.4237 -0.4342 -0.1070
  647TMC3    O2 9587   1.426   4.583  15.185  0.2704  0.4035  0.4026
  648TMC3    C1 9588   0.880   2.663  16.016 -0.5470 -0.0154 -0.5136
  648TMC3    C2 9589   0.922   2.565  15.928 -0.1601  0.6059  0.5877
  648TMC3    C3 9590   0.924   2.598  15.794  0.3385  1.5501  0.0326
  648TMC3    C4 9591   0.837   2.783  15.977 -0.1747  0.4654 -0.1699
  648TMC3    C5 9592   0.821   2.811  15.846 -0.4908  0.2914  0.3186
  648TMC3    C6 9593   0.866   2.722  15.753 -0.3880 -0.3670 -0.2768
  648TMC3     C 9594   0.843   2.609  16.145  0.2683 -0.3975 -0.5056
  648TMC3     O 9595   0.837   2.486  16.149  0.0029  0.4037 -0.7440
  648TMC3     H 9596   0.966   2.475  15.969  0.8488  0.6351 -0.4204
  648TMC3    H1 9597   0.814   2.862  16.047 -2.8273  0.6164 -1.2163
  648TMC3    H2 9598   0.857   2.738  15.646  1.6105 -0.9116 -0.5362
  648TMC3    C7 9599   0.784   2.951  15.801 -0.1617 -0.0240 -1.1287
  648TMC3    C8 9600   0.954   2.505  15.689 -0.3327 -0.2273  0.4118
  648TMC3    O1 9601   0.768   2.958  15.678  0.7236 -0.4572  0.3309
  648TMC3    O2 9602   0.883   2.526  15.594  0.0278  0.1117  0.2203
  649TMC3    C1 9603   4.586   3.907  12.673 -0.1812 -0.7096 -0.1686
  649TMC3    C2 9604   4.698   3.876  12.601 -0.3697  0.3797  0.0957
  649TMC3    C3 9605   0.050   3.771  12.646 -0.1086 -0.0042  0.4683
  649TMC3    C4 9606   4.545   3.836  12.777  0.0412 -0.9131  0.2488
  649TMC3    C5 9607   4.619   3.724  12.816 -0.1413 -0.1208 -0.9569
  649TMC3    C6 9608   0.016   3.695  12.756 -0.2206 -0.0105  0.1959
  649TMC3     C 9609   4.476   3.974  12.605  0.1682 -0.9625 -0.6087
  649TMC3     O 9610   4.384   4.006  12.684 -0.4937  0.3718  0.2143
  649TMC3     H 9611   0.015   3.950  12.532  1.3872 -0.1102  0.6019
  649TMC3    H1 9612   4.452   3.863  12.826  0.5158  3.2329 -1.1867
  649TMC3    H2 9613   0.084   3.628  12.808  0.3036 -0.2467 -0.7998
  649TMC3    C7 9614   4.558   3.642  12.919  0.0424 -0.0762 -0.1579
  649TMC3    C8 9615   0.174   3.734  12.572  1.0690 -0.0898  0.1966
  649TMC3    O1 9616   4.460   3.681  12.978 -0.3197 -0.6497 -0.1051
  649TMC3    O2 9617   0.232   3.640  12.621  0.4513  0.3130  0.2297
  650TMC3    C1 9618   2.503   0.624  12.768 -0.0450  0.0708 -0.4289
  650TMC3    C2 9619   2.476   0.734  12.846  0.0461 -0.0254 -0.6952
  650TMC3    C3 9620   2.367   0.811  12.817 -0.2320 -0.6494  0.4649
  650TMC3    C4 9621   2.421   0.593  12.666 -0.4421 -0.3835 -0.8743
  650TMC3    C5 9622   2.327   0.682  12.624  0.8689 -0.5697 -0.4041
  650TMC3    C6 9623   2.290   0.793  12.701  0.7202 -0.2249  0.3431
  650TMC3     C 9624   2.622   0.541  12.789 -0.8405 -0.6381  0.3519
  650TMC3     O 9625   2.700   0.595  12.872  0.3591  0.0553  0.5481
  650TMC3     H 9626   2.533   0.757  12.935 -0.8869  2.1074 -0.6543
  650TMC3    H1 9627   2.431   0.506  12.603 -0.2630 -1.3900  0.5574
  650TMC3    H2 9628   2.201   0.854  12.692  0.3080 -0.7265  1.0270
  650TMC3    C7 9629   2.261   0.658  12.498 -0.4011 -0.4757 -0.5347
  650TMC3    C8 9630   2.375   0.948  12.858  0.4656  0.2649  0.6407
  650TMC3    O1 9631   2.292   0.568  12.423  0.4512 -0.1635 -0.8447
  650TMC3    O2 9632   2.373   1.028  12.764 -0.5327  0.4663  0.3658
  651MPD2     C 9633   1.325   2.281  10.251  0.8408  0.1482  0.6904
  651MPD2    C1 9634   1.370   2.341  10.370 -0.4806 -0.0944 -0.3051
  651MPD2    C2 9635   1.493   2.400  10.365 -0.1857  0.7932  0.4567
  651MPD2    C3 9636   1.572   2.395  10.250  0.1337 -0.0561 -0.0391
  651MPD2    C4 9637   1.537   2.320  10.143  0.2243 -0.0685  0.2166
  651MPD2    C5 9638   1.415   2.256  10.142 -0.2026 -0.4950  0.1760
  651MPD2     H 9639   1.531   2.461  10.445  0.8789  0.3801  0.2628
  651MPD2    H1 9640   1.603   2.298  10.060 -0.4874  1.0099 -0.6398
  651MPD2    H2 9641   1.222   2.251  10.239 -0.3058  3.6714  1.6618
  651MPD2    H3 9642   1.392   2.189  10.060 -0.9062  0.0802 -0.0870
  651MPD2     N 9643   1.690   2.459  10.251  0.3331 -0.2428  0.1739
  651MPD2    H5 9644   1.706   2.511  10.337  1.6730  1.5760 -1.1644
  651MPD2    N1 9645   1.283   2.356  10.481 -0.0830 -0.2528 -0.2681
  651MPD2    H7 9646   1.296   2.433  10.545 -0.6344  0.2158 -0.7163
  652TMC3    C1 9647   2.051   2.645  10.298 -0.4131  0.0675  0.1880
  652TMC3    C2 9648   1.940   2.561  10.283  0.6260 -0.9659  0.4305
  652TMC3    C3 9649   1.882   2.562  10.160  0.1247  0.0167  0.5011
  652TMC3    C4 9650   2.088   2.733  10.195  0.3749  0.5414  0.2115
  652TMC3    C5 9651   2.022   2.735  10.078 -0.0745  0.2158  0.3051
  652TMC3    C6 9652   1.919   2.645  10.061  0.2366 -0.3388 -0.0639
  652TMC3     C 9653   2.140   2.625  10.405 -0.3121  0.4653  0.9470
  652TMC3     O 9654   2.097   2.564  10.502 -0.0507  0.6592 -0.0513
  652TMC3     H 9655   1.919   2.476  10.347  0.1228  0.2677  1.8785
  652TMC3    H1 9656   2.162   2.811  10.209  0.2268  0.7115  0.0548
  652TMC3    H2 9657   1.864   2.645   9.968  0.7336  0.4676 -0.3671
  652TMC3    C7 9658   2.040   2.855  10.000  0.7647  0.1158 -0.0258
  652TMC3    C8 9659   1.760   2.489  10.134 -0.4817  0.0553 -0.7796
  652TMC3    O1 9660   2.149   2.907   9.997  0.0200  0.3397 -0.3868
  652TMC3    O2 9661   1.741   2.456  10.019 -0.3353  0.2699 -0.2623
  653MPD2     C 9662   0.239   2.880   0.002  0.3642 -0.2345 -0.7673
  653MPD2    C1 9663   0.199   2.971  17.601 -0.1234  0.1413 -0.1178
  653MPD2    C2 9664   0.148   2.924  17.484 -0.0180 -0.0063  0.1035
  653MPD2    C3 9665   0.135   2.787  17.452 -0.1103  0.8338 -0.2478
  653MPD2    C4 9666   0.186   2.701  17.554 -0.4076 -0.7587  0.5060
  653MPD2    C5 9667   0.229   2.744  17.678  0.0096 -0.6229 -0.5545
  653MPD2     H 9668   0.103   2.995  17.414  1.5470  0.1741 -0.7095
  653MPD2    H1 9669   0.182   2.593  17.541 -3.2378 -0.6397  0.4940
  653MPD2    H2 9670   0.272   2.912   0.100  0.6447 -3.7384  0.2863
  653MPD2    H3 9671   0.243   2.675   0.065 -3.1649 -1.0536 -0.3498
  653MPD2     N 9672   0.075   2.744  17.331  0.2688 -0.0776  0.1924
  653MPD2    H5 9673   0.023   2.812  17.277  2.1144  2.0444  1.1086
  653MPD2    N1 9674   0.188   3.114  17.627  0.5952 -0.0907 -0.0125
  653MPD2    H7 9675   0.183   3.175  17.546 -2.2981 -1.2141 -0.6779
  654TMC3    C1 9676   0.004   2.576  17.171  0.0915 -0.0239  0.2499
  654TMC3    C2 9677   4.637   2.664  17.117  0.5153  0.1150 -0.8464
  654TMC3    C3 9678   4.533   2.605  17.048  0.2477  0.1100  0.3316
  654TMC3    C4 9679   4.720   2.447  17.152 -0.3387  0.5396 -0.6575
  654TMC3    C5 9680   4.618   2.392  17.083 -0.0687 -0.1541 -0.6562
  654TMC3    C6 9681   4.512   2.469  17.037  0.2126  0.4994  0.3556
  654TMC3     C 9682   0.094   2.617  17.278 -0.2640  0.5845 -0.1098
  654TMC3     O 9683   0.170   2.532  17.319 -0.3095 -0.2810 -0.3506
  654TMC3     H 9684   4.643   2.772  17.113 -0.0196  0.1100 -1.9026
  654TMC3    H1 9685   0.076   2.381  17.184 -1.3771  0.5192  1.8287
  654TMC3    H2 9686   4.421   2.434  16.990 -0.2732 -0.2886  1.8991
  654TMC3    C7 9687   4.589   2.248  17.078 -0.2049 -0.4081 -0.1345
  654TMC3    C8 9688   4.467   2.691  16.948  0.1289 -0.0145  0.7281
  654TMC3    O1 9689   4.501   2.214  16.996  0.4543  0.0705  0.3574
  654TMC3    O2 9690   4.464   2.813  16.967 -0.2992  0.1524  0.1352
  655MPD2     C 9691   1.579   3.021  16.047  0.0604  0.2447  0.9432
  655MPD2    C1 9692   1.544   3.090  15.936  0.0808 -0.5047 -0.2653
  655MPD2    C2 9693   1.548   3.026  15.810  0.4087 -0.1767  0.4371
  655MPD2    C3 9694   1.588   2.890  15.801  0.8657  0.5183 -0.5509
  655MPD2    C4 9695   1.615   2.824  15.916  0.1457 -0.5797 -0.2345
  655MPD2    C5 9696   1.604   2.889  16.037 -0.3758 -0.4778 -0.1160
  655MPD2     H 9697   1.511   3.072  15.719  0.4099  0.7180  0.8865
  655MPD2    H1 9698   1.639   2.718  15.924 -0.4799 -0.6892  0.2107
  655MPD2    H2 9699   1.562   3.065  16.145  0.9961  1.6575  0.4602
  655MPD2    H3 9700   1.626   2.833  16.127  1.6919  0.0295 -0.3012
  655MPD2     N 9701   1.599   2.821  15.677 -0.2506 -0.3644 -0.5978
  655MPD2    H5 9702   1.608   2.720  15.683  0.3398 -0.2593  0.3916
  655MPD2    N1 9703   1.486   3.223  15.941 -0.4828  0.1677  0.1818
  655MPD2    H7 9704   1.418   3.248  15.870  0.2499 -1.5683 -1.1348
  656TMC3    C1 9705   1.342   3.377  16.052 -0.2100 -0.6147  0.7700
  656TMC3    C2 9706   1.291   3.424  16.172 -0.8671 -0.4891 -0.3020
  656TMC3    C3 9707   1.169   3.477  16.172 -0.1633 -0.4930 -0.3829
  656TMC3    C4 9708   1.287   3.405  15.930  0.0444  0.1601 -0.2844
  656TMC3    C5 9709   1.157   3.466  15.926 -0.3342 -0.5916  0.1063
  656TMC3    C6 9710   1.099   3.494  16.052  0.1736 -1.0360  0.2552
  656TMC3     C 9711   1.462   3.288  16.061 -0.4794 -0.0295 -0.3281
  656TMC3     O 9712   1.512   3.284  16.173 -0.2418  0.2101 -0.3837
  656TMC3     H 9713   1.322   3.364  16.256 -1.3052 -0.8896 -0.4320
  656TMC3    H1 9714   1.331   3.373  15.836  2.1655 -0.9014  1.0976
  656TMC3    H2 9715   1.004   3.545  16.062  0.3037 -0.7148 -0.1403
  656TMC3    C7 9716   1.114   3.525  15.803  0.0595  0.4699 -0.0625
  656TMC3    C8 9717   1.085   3.462  16.287  0.5418  0.5350 -0.6074
  656TMC3    O1 9718   1.141   3.459  15.700 -0.5313 -0.0954 -0.1063
  656TMC3    O2 9719   1.128   3.504  16.396 -0.1628 -0.1664  0.5829
  657TMC3    C1 9720   0.134   2.362  15.609 -0.3304 -0.3166  0.0473
  657TMC3    C2 9721   0.051   2.439  15.691 -0.0481 -0.3324  0.0352
  657TMC3    C3 9722   0.063   2.576  15.678 -0.6548  0.1597 -0.1346
  657TMC3    C4 9723   0.187   2.418  15.498  1.0670 -0.2394 -0.3065
  657TMC3    C5 9724   0.171   2.557  15.480 -0.3660 -0.0374  0.0544
  657TMC3    C6 9725   0.123   2.639  15.577 -0.7455 -0.2372  0.7463
  657TMC3     C 9726   0.117   2.220  15.624 -0.1801  0.2905 -0.0205
  657TMC3     O 9727   0.013   2.181  15.669 -0.1049  0.0293  0.6029
  657TMC3     H 9728   4.713   2.397  15.770 -0.5265 -2.5983 -1.5449
  657TMC3    H1 9729   0.249   2.367  15.425 -1.4672 -3.1205 -0.4584
  657TMC3    H2 9730   0.143   2.745  15.578 -0.0169 -0.3752  1.0375
  657TMC3    C7 9731   0.242   2.619  15.370  0.1250 -1.0765 -0.0472
  657TMC3    C8 9732   0.006   2.658  15.783 -0.1063 -0.9001 -0.1962
  657TMC3    O1 9733   0.315   2.559  15.296 -0.3865  0.3204 -0.3236
  657TMC3    O2 9734   4.640   2.604  15.847 -0.3112  0.1561 -0.9310
  658MPD2     C 9735   1.733   2.591  14.803  0.2459  0.1329  0.4443
  658MPD2    C1 9736   1.659   2.679  14.875 -0.1003  0.5947  0.2208
  658MPD2    C2 9737   1.590   2.780  14.809  0.2534 -0.3762 -0.8654
  658MPD2    C3 9738   1.594   2.797  14.672 -0.1687  0.4163 -0.0430
  658MPD2    C4 9739   1.672   2.708  14.596 -0.4047  0.7016  0.2960
  658MPD2    C5 9740   1.738   2.601  14.663 -1.0361  0.1188  0.0463
  658MPD2     H 9741   1.530   2.850  14.866  1.3781  3.5957 -4.6608
  658MPD2    H1 9742   1.689   2.724  14.490 -0.9923 -0.2670  0.0529
  658MPD2    H2 9743   1.780   2.507  14.854  1.7036  0.1370 -0.8635
  658MPD2    H3 9744   1.803   2.539  14.602 -1.9656 -1.8028  1.0114
  658MPD2     N 9745   1.515   2.899  14.619 -0.0850 -0.0586  0.4304
  658MPD2    H5 9746   1.457   2.939  14.691  0.0922 -1.7859  1.5389
  658MPD2    N1 9747   1.648   2.665  15.014 -0.4656 -0.3740  0.4428
  658MPD2    H7 9748   1.695   2.583  15.052 -1.6202 -0.8101  0.9162
  659TMC3    C1 9749   1.603   2.716  15.231 -0.4236  0.0052 -0.5331
  659TMC3    C2 9750   1.632   2.811  15.329 -0.9969 -0.3461 -0.0755
  659TMC3    C3 9751   1.576   2.788  15.449 -0.0068  0.1798  0.3590
  659TMC3    C4 9752   1.535   2.600  15.255 -0.0313 -0.3089  0.1123
  659TMC3    C5 9753   1.468   2.594  15.380  0.0010 -0.0291 -0.2569
  659TMC3    C6 9754   1.499   2.679  15.484  0.1821 -0.3801 -0.4532
  659TMC3     C 9755   1.610   2.766  15.096 -0.2713 -0.0062 -0.3861
  659TMC3     O 9756   1.564   2.881  15.072  0.2786  0.1538 -0.6212
  659TMC3     H 9757   1.702   2.891  15.308 -0.2109 -0.7571  1.0027
  659TMC3    H1 9758   1.498   2.542  15.171  1.3066  0.2230 -0.8366
  659TMC3    H2 9759   1.443   2.669  15.576  2.0295 -0.4149  0.6573
  659TMC3    C7 9760   1.328   2.548  15.381  0.4770 -0.1500 -0.2167
  659TMC3    C8 9761   1.600   2.885  15.553  0.1667  0.1072  0.0474
  659TMC3    O1 9762   1.255   2.615  15.455 -0.0446 -0.0247  0.0741
  659TMC3    O2 9763   1.646   2.993  15.527  0.0056  0.7567 -0.4486
  660MPD2     C 9764   4.399   1.588  12.472  0.1791 -0.2185  0.2615
  660MPD2    C1 9765   4.266   1.603  12.493  0.6182  0.4238 -0.1668
  660MPD2    C2 9766   4.215   1.529  12.604 -0.1679 -0.8063 -0.1717
  660MPD2    C3 9767   4.287   1.450  12.692 -0.1747  0.0909  0.0927
  660MPD2    C4 9768   4.420   1.453  12.668  0.4246  0.0600  0.4773
  660MPD2    C5 9769   4.475   1.521  12.566  0.4619 -0.4475 -0.1798
  660MPD2     H 9770   4.111   1.540  12.632 -0.1845 -0.0060 -0.5417
  660MPD2    H1 9771   4.490   1.387  12.719 -1.2121 -2.1667 -0.1354
  660MPD2    H2 9772   4.454   1.636  12.392 -0.6552  1.1935  0.5365
  660MPD2    H3 9773   4.582   1.509  12.554  0.7217  0.5391  1.1138
  660MPD2     N 9774   4.240   1.384  12.806  0.2590 -0.3608 -0.0675
  660MPD2    H5 9775   4.308   1.337  12.866 -0.3405 -1.1456 -0.0089
  660MPD2    N1 9776   4.192   1.680  12.406 -0.2716  0.3883  0.8881
  660MPD2    H7 9777   4.243   1.710  12.324  1.6086 -1.3771  1.4295
  661TMC3    C1 9778   3.997   1.782  12.310 -0.4081  0.2594 -0.0175
  661TMC3    C2 9779   4.051   1.791  12.182  0.0975  0.2064  0.1588
  661TMC3    C3 9780   3.967   1.832  12.084 -0.0188  0.0914 -0.2916
  661TMC3    C4 9781   3.865   1.823  12.342  0.1444 -0.0660  0.4965
  661TMC3    C5 9782   3.791   1.858  12.233 -0.0228  0.8497 -0.1570
  661TMC3    C6 9783   3.834   1.856  12.105  0.3472  0.3672  0.1892
  661TMC3     C 9784   4.060   1.716  12.423  0.1184  0.0521  0.0491
  661TMC3     O 9785   3.988   1.696  12.517 -0.3017  0.7844 -1.0234
  661TMC3     H 9786   4.149   1.754  12.155 -0.1381  0.3798 -0.9416
  661TMC3    H1 9787   3.812   1.821  12.436 -0.6090 -0.2746  0.0673
  661TMC3    H2 9788   3.767   1.896  12.029  1.2312  1.1861 -0.1610
  661TMC3    C7 9789   3.655   1.810  12.246  0.5006  0.5359 -0.0861
  661TMC3    C8 9790   4.025   1.857  11.950  1.7300  0.1712  0.1869
  661TMC3    O1 9791   3.596   1.847  12.346  0.2190  0.2071 -0.1997
  661TMC3    O2 9792   4.140   1.827  11.935  0.2165  0.0041 -0.1095
  662MPD2     C 9793   4.537   1.708  17.461 -0.1370 -0.7179  0.4578
  662MPD2    C1 9794   4.488   1.655  17.579 -0.9920 -0.7167  0.1628
  662MPD2    C2 9795   4.389   1.718  17.649  0.0411 -0.2333 -0.0611
  662MPD2    C3 9796   4.357   1.848  17.609  0.4451 -0.5213  0.0124
  662MPD2    C4 9797   4.410   1.902  17.496 -0.2157  0.0921  1.1898
  662MPD2    C5 9798   4.502   1.831  17.422 -0.3683  0.1818  0.5247
  662MPD2     H 9799   4.366   1.678   0.052 -1.8101  0.5328 -0.1839
  662MPD2    H1 9800   4.359   1.982  17.446  1.7438  0.3096 -0.4579
  662MPD2    H2 9801   4.620   1.662  17.408  0.9370  0.4636  1.0948
  662MPD2    H3 9802   4.531   1.871  17.325  2.0719 -1.1141  0.7489
  662MPD2     N 9803   4.268   1.929  17.677 -0.0307  0.0509  0.7364
  662MPD2    H5 9804   4.239   2.017  17.635 -1.7736 -0.7642  0.2549
  662MPD2    N1 9805   4.545   1.535  17.632 -0.3362  0.4424  0.2170
  662MPD2    H7 9806   4.502   1.497   0.021  2.1543 -0.8212  0.9190
  663TMC3    C1 9807   4.662   1.322  17.626  0.2525 -0.1249  0.2116
  663TMC3    C2 9808   0.042   1.250  17.575 -0.1175 -0.1691 -0.0980
  663TMC3    C3 9809   0.053   1.119  17.604 -0.5497  0.3847 -0.2589
  663TMC3    C4 9810   4.557   1.264   0.005  0.2363  0.5424 -0.0081
  663TMC3    C5 9811   4.559   1.130   0.012  0.3670 -0.7518  0.3553
  663TMC3    C6 9812   4.666   1.056  17.657  0.1549  0.5220  0.7214
  663TMC3     C 9813   4.646   1.454  17.568 -0.0713  0.3857  0.2093
  663TMC3     O 9814   0.008   1.483  17.482 -0.0820  0.4696 -0.0690
  663TMC3     H 9815   0.127   1.303  17.536  0.1398  0.8610  1.8365
  663TMC3    H1 9816   4.470   1.316   0.043 -0.2444  0.3180 -0.8006
  663TMC3    H2 9817   4.685   0.959   0.005 -1.7845  0.0483  0.4992
  663TMC3    C7 9818   4.432   1.062   0.030 -0.1711 -0.6241 -0.1395
  663TMC3    C8 9819   0.179   1.101  17.686  0.6376  0.2631  1.1573
  663TMC3    O1 9820   4.346   1.119   0.095  0.9996  0.0607 -0.0247
  663TMC3    O2 9821   0.172   1.047   0.100 -0.4543  0.4858  0.2721
  664MPD2     C 9822   2.425   4.666  17.472  0.3703  0.2197  0.4789
  664MPD2    C1 9823   2.563   4.642  17.475 -0.2977  0.7352  0.1323
  664MPD2    C2 9824   2.608   4.565  17.578 -0.9812  0.3024  0.1384
  664MPD2    C3 9825   2.524   4.514  17.673  0.3546 -1.0655 -0.0986
  664MPD2    C4 9826   2.389   4.520  17.657  0.1721 -1.0155 -0.8914
  664MPD2    C5 9827   2.347   4.587  17.552 -0.5944 -0.1754 -0.3277
  664MPD2     H 9828   2.714   4.551  17.593 -0.8409  1.6728  0.4222
  664MPD2    H1 9829   2.319   4.466   0.025 -1.2432 -0.2623 -1.8255
  664MPD2    H2 9830   2.371   0.001  17.398  2.8180  3.0570  0.8839
  664MPD2    H3 9831   2.240   4.594  17.535 -0.8932  2.6298  2.5909
  664MPD2     N 9832   2.586   4.446   0.084 -0.0259 -0.1445 -0.1355
  664MPD2    H5 9833   2.685   4.428   0.073 -0.8474 -2.7720 -3.1395
  664MPD2    N1 9834   2.652   4.689  17.385 -0.1492 -0.1789 -0.4419
  664MPD2    H7 9835   2.747   4.670  17.417  0.4203  2.0423 -0.8393
  665TMC3    C1 9836   2.636   4.363   0.297 -0.3193 -0.3863 -0.1612
  665TMC3    C2 9837   2.589   4.308   0.407  0.1447  0.1056  0.1483
  665TMC3    C3 9838   2.671   4.303   0.517  0.2527 -0.6070  0.1589
  665TMC3    C4 9839   2.759   4.429   0.289 -0.3841  0.0961 -0.2119
  665TMC3    C5 9840   2.832   4.432   0.399  0.0094 -0.6735  0.0623
  665TMC3    C6 9841   2.788   4.375   0.517  0.1902  0.0976  0.0099
  665TMC3     C 9842   2.531   4.392   0.194  0.0166  0.3366  0.2163
  665TMC3     O 9843   2.409   4.379   0.226  0.1631  0.1899 -0.7500
  665TMC3     H 9844   2.496   4.253   0.411 -0.1092  0.5286  0.0693
  665TMC3    H1 9845   2.801   4.459   0.194  1.0575  1.7290  0.9545
  665TMC3    H2 9846   2.844   4.383   0.610  1.1133  1.8079 -0.6778
  665TMC3    C7 9847   2.943   4.519   0.393 -0.2761 -0.4835 -0.1221
  665TMC3    C8 9848   2.613   4.256   0.640 -0.0565  0.4379 -0.2085
  665TMC3    O1 9849   2.955   4.585   0.289  0.6236 -0.2035  0.1600
  665TMC3    O2 9850   2.489   4.243   0.639 -0.6319 -0.0151  0.4280
  666TMC3    C1 9851   2.065   3.660   9.930  0.6799  0.0240  0.8014
  666TMC3    C2 9852   2.041   3.599   9.810 -0.5763  0.0385  0.0643
  666TMC3    C3 9853   1.977   3.671   9.718 -0.4504 -0.1290 -0.1108
  666TMC3    C4 9854   2.053   3.796   9.953  0.2969  0.2182  0.0014
  666TMC3    C5 9855   2.001   3.869   9.854  0.0124  0.5210 -0.1505
  666TMC3    C6 9856   1.954   3.806   9.738  0.0818 -0.0499  0.3572
  666TMC3     C 9857   2.038   3.583  10.051 -1.2236  0.2932  0.2687
  666TMC3     O 9858   2.085   3.637  10.152  0.2378  0.2403 -0.6254
  666TMC3     H 9859   2.048   3.494   9.787  0.3095 -0.0368  0.6593
  666TMC3    H1 9860   2.061   3.829  10.056 -0.8673  2.3429 -0.5860
  666TMC3    H2 9861   1.920   3.873   9.660 -0.8697 -0.1860  0.6437
  666TMC3    C7 9862   1.950   4.000   9.877 -0.0578  0.1057  0.1591
  666TMC3    C8 9863   1.895   3.603   9.616 -0.2643 -0.1664 -0.1210
  666TMC3    O1 9864   1.834   4.020   9.840 -0.2872  0.0934 -0.3861
  666TMC3    O2 9865   1.942   3.495   9.582 -0.4620  0.1808 -0.4635
  667MPD2     C 9866   3.472   4.488  14.273 -0.2601 -0.9388 -0.2027
  667MPD2    C1 9867   3.379   4.521  14.377 -0.7081  0.2496 -0.1236
  667MPD2    C2 9868   3.249   4.476  14.383 -0.6083  0.6146 -0.4304
  667MPD2    C3 9869   3.202   4.388  14.283  0.5367  0.0042  0.1754
  667MPD2    C4 9870   3.293   4.357  14.185  1.0920  0.0630  0.1946
  667MPD2    C5 9871   3.418   4.411  14.172 -0.4571  0.0775  0.1474
  667MPD2     H 9872   3.187   4.505  14.467  1.0620  1.4284  0.5263
  667MPD2    H1 9873   3.268   4.279  14.114  1.2058  0.9018 -0.7831
  667MPD2    H2 9874   3.578   4.510  14.271 -0.1454 -1.2990  3.4162
  667MPD2    H3 9875   3.475   4.388  14.082 -1.0882 -1.9796  0.2739
  667MPD2     N 9876   3.071   4.347  14.269 -0.3007 -0.0795 -0.0146
  667MPD2    H5 9877   3.056   4.279  14.195 -0.0386  0.3895 -0.4969
  667MPD2    N1 9878   3.414   4.607  14.486 -0.4499 -0.7246  0.2838
  667MPD2    H7 9879   3.340   4.629  14.553 -0.7179 -1.1979  0.1425
  668TMC3    C1 9880   3.551   0.009  14.631 -0.6787 -0.1407 -0.0080
  668TMC3    C2 9881   3.641   0.102  14.641 -0.8866  0.0033 -0.5083
  668TMC3    C3 9882   3.658   0.175  14.758 -0.1631 -0.9086 -0.2467
  668TMC3    C4 9883   3.469   4.692  14.732  0.0122  0.0164  1.3863
  668TMC3    C5 9884   3.480   0.041  14.847  0.2141 -0.8785  0.4315
  668TMC3    C6 9885   3.578   0.135  14.866 -0.1666  0.7738 -0.4768
  668TMC3     C 9886   3.529   4.674  14.494  0.3025 -0.5477  0.2513
  668TMC3     O 9887   3.625   4.688  14.415 -0.0600  0.0890 -0.2423
  668TMC3     H 9888   3.713   0.116  14.561  0.4417  1.3408  0.9237
  668TMC3    H1 9889   3.389   4.620  14.720  1.9972 -1.8619 -0.6230
  668TMC3    H2 9890   3.579   0.190  14.959 -1.7179  0.5096 -0.3100
  668TMC3    C7 9891   3.432   4.718  14.968 -0.1420  0.2356  0.4642
  668TMC3    C8 9892   3.747   0.286  14.778  0.3107  0.2263 -0.8008
  668TMC3    O1 9893   3.506   4.715  15.063 -0.9218  0.2594  0.1519
  668TMC3    O2 9894   3.731   0.372  14.862  0.2169  0.1100 -0.0777
  669TMC3    C1 9895   1.592   4.033  14.201  0.7628  0.6879  1.1489
  669TMC3    C2 9896   1.466   4.061  14.150  0.0885 -0.6020  0.4809
  669TMC3    C3 9897   1.455   4.142  14.048  0.1115  0.1768  0.3596
  669TMC3    C4 9898   1.704   4.084  14.147  0.8425 -0.6314 -0.1769
  669TMC3    C5 9899   1.697   4.150  14.031 -0.2543  0.5755 -0.8161
  669TMC3    C6 9900   1.572   4.184  13.988 -0.9836 -0.1073 -0.2864
  669TMC3     C 9901   1.589   3.963  14.326  0.1611 -0.5259 -0.3610
  669TMC3     O 9902   1.489   3.981  14.393 -0.0634 -0.1735  0.2154
  669TMC3     H 9903   1.381   4.016  14.200 -0.9734 -0.2926 -1.0513
  669TMC3    H1 9904   1.801   4.054  14.185  0.8137 -0.0162  0.3741
  669TMC3    H2 9905   1.575   4.227  13.889  0.8080  0.2792 -0.0803
  669TMC3    C7 9906   1.812   4.210  13.972  0.1366 -0.7996 -0.0855
  669TMC3    C8 9907   1.326   4.187  14.009  0.1849 -0.4555 -0.8978
  669TMC3    O1 9908   1.899   4.246  14.048 -0.3910  0.0985  0.5339
  669TMC3    O2 9909   1.229   4.130  14.064  0.1321 -0.1976 -0.2978
  670MPD2     C 9910   0.248   2.555  13.455 -0.6189 -0.3738 -0.3651
  670MPD2    C1 9911   0.335   2.461  13.512  0.7447 -0.2855 -0.6174
  670MPD2    C2 9912   0.279   2.365  13.591 -0.7687  0.0309 -0.3368
  670MPD2    C3 9913   0.145   2.346  13.615 -0.0881 -1.0482 -0.0821
  670MPD2    C4 9914   0.065   2.445  13.568  0.5963 -0.0848 -0.1880
  670MPD2    C5 9915   0.114   2.550  13.497  0.9339  0.2755  0.0888
  670MPD2     H 9916   0.349   2.290  13.626 -1.1197  0.6545  1.7074
  670MPD2    H1 9917   4.684   2.458  13.595  0.5935  3.0301 -1.7374
  670MPD2    H2 9918   0.284   2.639  13.397 -1.3620  0.2217  0.0461
  670MPD2    H3 9919   0.051   2.629  13.460  2.2455  0.6533 -1.3410
  670MPD2     N 9920   0.104   2.243  13.699 -0.0195 -0.1981  0.0479
  670MPD2    H5 9921   0.180   2.182  13.727  0.7886 -0.3328 -2.4515
  670MPD2    N1 9922   0.476   2.464  13.489 -0.3198 -0.1058  0.2999
  670MPD2    H7 9923   0.522   2.387  13.535  1.0412  0.3711 -0.2551
  671TMC3    C1 9924   4.707   2.133  13.872 -0.4324  0.8451  0.2557
  671TMC3    C2 9925   0.100   2.113  13.944 -0.3435  0.4653  0.3507
  671TMC3    C3 9926   0.092   2.015  14.040 -0.0869  0.0300 -0.0168
  671TMC3    C4 9927   4.589   2.063  13.905  0.2236  0.1710 -0.4346
  671TMC3    C5 9928   4.588   1.972  14.005  0.2981 -0.0889 -0.1146
  671TMC3    C6 9929   4.703   1.944  14.071 -0.7375  0.4645  0.5070
  671TMC3     C 9930   4.704   2.229  13.759  0.2287  0.1384 -0.1971
  671TMC3     O 9931   4.590   2.274  13.733  0.1897  0.0092 -0.4147
  671TMC3     H 9932   0.191   2.170  13.926 -0.1382 -0.0146 -0.1447
  671TMC3    H1 9933   4.499   2.086  13.848  0.6958 -0.8065 -1.5555
  671TMC3    H2 9934   4.704   1.870  14.151  1.9348  2.1448  2.0071
  671TMC3    C7 9935   4.490   1.871  13.990 -1.2815 -0.0112 -0.0074
  671TMC3    C8 9936   0.220   1.960  14.079 -0.5827  0.0523  0.9828
  671TMC3    O1 9937   4.441   1.857  13.880  0.4782  0.0320  0.1228
  671TMC3    O2 9938   0.298   1.961  13.985  0.0005 -0.3543  0.4580
  672MPD2     C 9939   0.192   2.628   0.907  0.0714  0.4768 -0.1222
  672MPD2    C1 9940   0.310   2.560   0.884  0.5958 -0.8999 -0.1012
  672MPD2    C2 9941   0.430   2.603   0.937  0.5809  0.8612 -0.0656
  672MPD2    C3 9942   0.435   2.713   1.021 -0.4734 -0.9910  0.0491
  672MPD2    C4 9943   0.316   2.771   1.056  0.1019  0.4063 -0.4519
  672MPD2    C5 9944   0.196   2.732   0.998  0.1025  0.4331 -0.7549
  672MPD2     H 9945   0.522   2.557   0.904  1.1926  1.6284  0.5684
  672MPD2    H1 9946   0.308   2.854   1.125  0.7211 -1.8264  2.2930
  672MPD2    H2 9947   0.102   2.592   0.859 -1.0300  1.0269  1.5695
  672MPD2    H3 9948   0.108   2.785   1.033 -0.5309 -0.1260 -1.4896
  672MPD2     N 9949   0.556   2.762   1.082 -0.6358  0.3301  0.3519
  672MPD2    H5 9950   0.538   2.828   1.158 -0.5240 -0.5951  1.1843
  672MPD2    N1 9951   0.309   2.468   0.776 -0.0981  0.8754  0.0963
  672MPD2    H7 9952   0.216   2.454   0.739 -0.5770 -2.7696  2.6564
  673TMC3    C1 9953   0.373   2.316   0.608  0.4071  0.7409 -0.7797
  673TMC3    C2 9954   0.444   2.203   0.581 -0.8303  0.3042 -0.4980
  673TMC3    C3 9955   0.451   2.155   0.455  0.2098  0.1873  0.4611
  673TMC3    C4 9956   0.305   2.389   0.514 -0.3638 -0.1069 -0.0839
  673TMC3    C5 9957   0.302   2.330   0.391 -0.5129  0.4987  0.1395
  673TMC3    C6 9958   0.375   2.219   0.359  0.0738  0.2378  0.4018
  673TMC3     C 9959   0.410   2.389   0.733 -0.1157 -0.1248 -0.4799
  673TMC3     O 9960   0.525   2.378   0.776  0.0183 -0.5746 -0.1639
  673TMC3     H 9961   0.512   2.167   0.657  1.0675  2.9425 -0.9061
  673TMC3    H1 9962   0.253   2.481   0.534  1.1898  0.3669  1.7591
  673TMC3    H2 9963   0.352   2.171   0.265 -0.9379  0.5719  0.4790
  673TMC3    C7 9964   0.206   2.370   0.286  0.1910 -0.6648 -0.3874
  673TMC3    C8 9965   0.512   2.023   0.423  0.1710 -0.2898  0.7748
  673TMC3    O1 9966   0.166   2.282   0.212  0.3934  0.4155  0.1655
  673TMC3    O2 9967   0.485   1.970   0.314 -0.1941  0.2695 -0.1958
  674MPD2     C 9968   4.471   2.282  17.493  0.0762 -0.1769  0.0963
  674MPD2    C1 9969   4.477   2.264  17.630  0.3477  0.5221 -0.3873
  674MPD2    C2 9970   4.397   2.333   0.027  0.3496 -0.1855 -0.0465
  674MPD2    C3 9971   4.306   2.430  17.669  0.0081 -0.9739 -0.1090
  674MPD2    C4 9972   4.293   2.438  17.538  0.4794  0.2412 -0.2650
  674MPD2    C5 9973   4.376   2.371  17.454 -0.2817  0.4916  0.1458
  674MPD2     H 9974   4.412   2.321   0.134  0.3676  0.4639  0.0235
  674MPD2    H1 9975   4.215   2.502  17.498  1.9685  0.8510 -2.2069
  674MPD2    H2 9976   4.536   2.235  17.420  1.0903 -1.2410  1.6671
  674MPD2    H3 9977   4.357   2.374  17.348 -1.4418  0.6019  0.3605
  674MPD2     N 9978   4.228   2.523   0.058 -0.2577 -0.2929 -0.3985
  674MPD2    H5 9979   4.254   2.530   0.156  1.7465  0.8351 -1.0050
  674MPD2    N1 9980   4.562   2.162  17.672 -0.2373 -0.2010  0.5875
  674MPD2    H7 9981   4.616   2.113  17.601  0.5774  2.0095 -0.3010
  675TMC3    C1 9982   4.669   2.001   0.091  0.0874 -0.0206 -0.6857
  675TMC3    C2 9983   4.679   1.938   0.215 -0.0993  0.0215  0.6512
  675TMC3    C3 9984   0.080   1.894   0.252 -0.0511  0.2612 -0.2712
  675TMC3    C4 9985   0.064   2.020   0.013  0.1190 -0.1018  0.1619
  675TMC3    C5 9986   0.191   1.976   0.068 -0.3556 -0.5535 -0.1444
  675TMC3    C6 9987   0.201   1.916   0.188 -0.1265  0.1081  0.0935
  675TMC3     C 9988   4.566   2.098   0.098  0.9040  0.1860  0.4423
  675TMC3     O 9989   4.491   2.120   0.193 -0.4319 -0.0575 -0.5268
  675TMC3     H 9990   4.591   1.935   0.278 -0.6002  0.9775  0.0038
  675TMC3    H1 9991   0.063   2.047  17.603 -0.3429 -1.2438 -0.1350
  675TMC3    H2 9992   0.296   1.884   0.229  0.1870 -0.6731 -1.2156
  675TMC3    C7 9993   0.299   1.946  17.665  0.0269 -0.0110  0.2995
  675TMC3    C8 9994   0.080   1.844   0.386 -0.7837 -1.0160 -0.2291
  675TMC3    O1 9995   0.267   1.933  17.548  0.5891  0.1397 -0.3054
  675TMC3    O2 9996   4.709   1.772   0.419  0.0624  0.6942 -0.4140
  676MPD2     C 9997   2.330   0.422  10.911 -0.3480  0.0590  0.2033
  676MPD2    C1 9998   2.258   0.331  10.990  0.3687  0.4921 -0.1549
  676MPD2    C2 9999   2.253   0.192  10.959 -0.0783  0.0211 -0.1490
  676MPD2    C310000   2.339   0.134  10.868 -0.4176 -0.2377  0.4323
  676MPD2    C410001   2.402   0.223  10.780 -0.4475  0.5620 -0.2474
  676MPD2    C510002   2.389   0.361  10.800 -0.0524 -0.1430 -0.1797
  676MPD2     H10003   2.202   0.124  11.026 -1.3587  0.3137 -0.8247
  676MPD2    H110004   2.450   0.182  10.691 -0.7308  1.9439 -1.0343
  676MPD2    H210005   2.333   0.528  10.930 -0.3128  0.1390 -0.2696
  676MPD2    H310006   2.422   0.435  10.728 -1.0632 -1.6626 -2.2172
  676MPD2     N10007   2.367   4.718  10.845  0.5779  0.1683  0.2251
  676MPD2    H510008   2.424   4.704  10.761 -0.2010 -1.3723 -0.0409
  676MPD2    N110009   2.167   0.372  11.084 -0.0972 -0.5017 -0.3625
  676MPD2    H710010   2.141   0.299  11.150 -0.6477 -1.2768 -1.4269
  677TMC3    C110011   2.056   0.525  11.226  0.0259 -0.3225  0.0575
  677TMC3    C210012   1.943   0.445  11.231 -0.7456 -0.1299 -0.1915
  677TMC3    C310013   1.841   0.487  11.312 -0.5694 -0.6257  0.6799
  677TMC3    C410014   2.076   0.632  11.311 -0.0120 -0.2674 -0.2905
  677TMC3    C510015   1.977   0.666  11.402  0.1350  0.4262  0.4617
  677TMC3    C610016   1.863   0.592  11.405  0.4235  0.0430  0.0473
  677TMC3     C10017   2.145   0.505  11.118  0.2694  1.1296  0.3352
  677TMC3     O10018   2.218   0.604  11.104 -0.2054  0.0753 -0.0524
  677TMC3     H10019   1.924   0.371  11.153  2.0488 -0.8633 -0.1695
  677TMC3    H110020   2.172   0.682  11.307 -1.8833  3.1797 -1.4179
  677TMC3    H210021   1.777   0.639  11.450 -1.6663 -2.2561 -1.5372
  677TMC3    C710022   2.008   0.742  11.516  0.6765 -0.0017 -0.4021
  677TMC3    C810023   1.743   0.385  11.326  0.1456  0.4016 -0.0909
  677TMC3    O110024   1.920   0.735  11.599 -0.5760  0.0664  0.5155
  677TMC3    O210025   1.659   0.381  11.238  0.6601  0.1118  0.2879
  678MPD2     C10026   4.313   0.654   1.256  0.4667  0.0100  0.2609
  678MPD2    C110027   4.314   0.534   1.189  0.3396  0.4522  0.4414
  678MPD2    C210028   4.187   0.479   1.156 -0.7006 -0.5635  1.2319
  678MPD2    C310029   4.069   0.547   1.175  0.2711 -0.7003 -0.1938
  678MPD2    C410030   4.075   0.670   1.237 -0.1357 -0.7552 -0.1358
  678MPD2    C510031   4.197   0.716   1.278  0.1473  0.4213  0.2681
  678MPD2     H10032   4.185   0.379   1.114  0.6909 -0.1941  0.2732
  678MPD2    H110033   3.984   0.724   1.259  0.0742 -1.0453  1.4410
  678MPD2    H210034   4.398   0.700   1.304  1.4426 -1.1165 -0.3996
  678MPD2    H310035   4.198   0.817   1.318 -0.8776  0.9824 -1.1396
  678MPD2     N10036   3.950   0.485   1.137 -0.2398  0.1352 -0.4509
  678MPD2    H510037   3.969   0.407   1.075  1.6453  1.8509 -2.0018
  678MPD2    N110038   4.436   0.471   1.155 -0.0976 -0.1192  0.0939
  678MPD2    H710039   4.426   0.395   1.088 -1.3883 -0.8220  1.0879
  679TMC3    C110040   0.018   0.230   1.024 -0.8377  0.8014  0.2268
  679TMC3    C210041   4.643   0.295   1.089 -0.2036  0.3611  0.1813
  679TMC3    C310042   4.669   0.420   1.146  0.4906 -0.2516  0.2301
  679TMC3    C410043   0.152   0.265   1.031  0.1206  0.6587  0.2600
  679TMC3    C510044   0.176   0.381   1.103  0.7088 -0.1341  0.0370
  679TMC3    C610045   0.076   0.463   1.154 -0.0411  0.2803 -1.1973
  679TMC3     C10046   4.718   0.106   0.959 -0.2067 -0.0876  0.3586
  679TMC3     O10047   0.089   0.029   0.951  0.3488 -0.0513  0.1615
  679TMC3     H10048   4.543   0.254   1.100  0.2090 -1.3438 -2.3917
  679TMC3    H110049   0.220   0.208   0.970  0.4975 -0.8184  2.0566
  679TMC3    H210050   0.098   0.561   1.194  0.6537  0.4262 -1.9116
  679TMC3    C710051   0.302   0.452   1.082  0.2757  0.9696  0.4953
  679TMC3    C810052   4.560   0.509   1.192  0.5443  0.7690  0.1638
  679TMC3    O110053   0.296   0.575   1.084 -0.3902 -0.3256 -0.3354
  679TMC3    O210054   4.588   0.618   1.235 -0.7316 -0.1483  0.1600
  680MPD2     C10055   3.926   3.941  13.530 -0.1764 -0.5586 -0.2369
  680MPD2    C110056   3.997   3.886  13.629 -0.0812 -0.3609 -0.4659
  680MPD2    C210057   4.047   3.962  13.732  0.0285 -0.1186 -0.0511
  680MPD2    C310058   4.019   4.092  13.744  0.1213 -0.6151 -0.3317
  680MPD2    C410059   3.943   4.151  13.652 -0.2720  0.6197  0.4682
  680MPD2    C510060   3.897   4.075  13.546  0.4364 -0.3926  0.1300
  680MPD2     H10061   4.111   3.907  13.800  1.5897  1.9023  0.1196
  680MPD2    H110062   3.912   4.255  13.659  1.4876  1.2167 -0.8206
  680MPD2    H210063   3.884   3.890  13.444 -1.4437  1.8854 -1.0916
  680MPD2    H310064   3.826   4.112  13.473  0.1399  1.1397  1.1965
  680MPD2     N10065   4.092   4.180  13.839 -0.3093  0.0065  0.5107
  680MPD2    H510066   4.099   4.279  13.817  3.9650 -0.3474  0.2996
  680MPD2    N110067   4.057   3.757  13.619 -0.6622 -0.1298  0.5592
  680MPD2    H710068   4.122   3.731  13.693 -1.0167 -3.0678 -0.1999
  681TMC3    C110069   4.087   3.532  13.561 -0.0710 -0.5200 -0.5841
  681TMC3    C210070   4.102   3.499  13.699  0.5308  0.2046  0.1825
  681TMC3    C310071   4.160   3.378  13.715  0.1605 -0.2796 -0.0665
  681TMC3    C410072   4.134   3.457  13.458  0.3598 -0.1188  0.0468
  681TMC3    C510073   4.203   3.342  13.494 -0.0322  0.1488 -0.7380
  681TMC3    C610074   4.215   3.294  13.621  0.3919  0.0304  0.2936
  681TMC3     C10075   4.024   3.661  13.526 -0.8710  0.3449 -0.1456
  681TMC3     O10076   3.965   3.678  13.420 -0.4715  0.1797 -0.9526
  681TMC3     H10077   4.057   3.555  13.780 -1.8830 -1.1217 -0.2711
  681TMC3    H110078   4.122   3.484  13.354 -3.5800 -1.0518  0.2721
  681TMC3    H210079   4.264   3.202  13.652  1.6311 -0.2580 -2.5364
  681TMC3    C710080   4.296   3.272  13.405 -0.0898 -0.4533 -0.2370
  681TMC3    C810081   4.169   3.326  13.853  0.2359  0.1999  0.4590
  681TMC3    O110082   4.343   3.164  13.442  0.3098  0.2740  0.2692
  681TMC3    O210083   4.158   3.205  13.865 -0.2237  0.0335  0.0561
  682MPD2     C10084   1.231   0.273  10.520  0.4281  0.2478 -0.3427
  682MPD2    C110085   1.254   0.154  10.581  0.2104  0.0762 -0.0142
  682MPD2    C210086   1.197   0.131  10.709  0.3896 -0.2930  0.2102
  682MPD2    C310087   1.116   0.225  10.767 -0.0817 -0.1668 -0.2800
  682MPD2    C410088   1.107   0.345  10.703 -0.6046  0.6105 -0.2394
  682MPD2    C510089   1.165   0.368  10.581  0.5117  0.6507  0.2375
  682MPD2     H10090   1.205   0.037  10.762 -0.2112 -0.4916 -0.0520
  682MPD2    H110091   1.053   0.421  10.760  1.4143  1.2347  0.8184
  682MPD2    H210092   1.285   0.298  10.429 -0.9609 -0.6645 -1.4083
  682MPD2    H310093   1.160   0.466  10.534 -0.6291  0.1813 -0.6193
  682MPD2     N10094   1.048   0.210  10.895  0.2950  0.1179 -0.2142
  682MPD2    H510095   0.987   0.282  10.933  0.4761 -1.3973  2.9162
  682MPD2    N110096   1.304   0.044  10.510 -0.4139  0.1486  0.5352
  682MPD2    H710097   1.309   4.679  10.560 -1.6362  0.2301  0.7867
  683TMC3    C110098   0.883   0.240  11.264  0.0112  0.3924  0.1273
  683TMC3    C210099   0.811   0.129  11.304  0.8568 -0.0270  0.2595
  683TMC3    C310100   0.841   0.004  11.256 -0.1407 -0.3485 -0.5073
  683TMC3    C410101   0.962   0.230  11.155 -0.4050  0.2760 -0.4791
  683TMC3    C510102   0.968   0.109  11.096 -0.2307 -0.1684 -0.5679
  683TMC3    C610103   0.910   4.715  11.143  0.4389 -0.1280  0.2174
  683TMC3     C10104   0.914   0.344  11.363  0.4794  0.3461  0.1721
  683TMC3     O10105   0.981   0.445  11.327  0.2995 -0.2592 -0.1098
  683TMC3     H10106   0.726   0.137  11.370  0.8620 -1.5968  0.4500
  683TMC3    H110107   1.024   0.317  11.132 -0.0778  0.4665  1.1572
  683TMC3    H210108   0.935   4.617  11.103  1.1635  0.7168 -1.4298
  683TMC3    C710109   1.046   0.092  10.969  0.6454 -0.3546  0.2590
  683TMC3    C810110   0.758   4.617  11.302  0.7716  0.2614 -0.8560
  683TMC3    O110111   1.079   4.703  10.939 -0.0356 -0.3660 -0.2717
  683TMC3    O210112   0.649   4.640  11.352  0.2703 -0.1111 -0.3674
  684MPD2     C10113   4.339   4.590  16.348  1.0369  0.1109 -0.6492
  684MPD2    C110114   4.365   4.642  16.220  0.2595  0.2143  0.5798
  684MPD2    C210115   4.375   0.052  16.224  0.2133  1.2175  0.2258
  684MPD2    C310116   4.364   0.129  16.341 -0.4952 -0.3831 -0.2819
  684MPD2    C410117   4.345   0.075  16.464  0.1830 -1.0560  0.7583
  684MPD2    C510118   4.328   4.661  16.463 -0.4426 -0.7996  0.0541
  684MPD2     H10119   4.402   0.112  16.138  0.7444 -1.9958 -1.8542
  684MPD2    H110120   4.357   0.130  16.557 -2.3161  0.1692  0.3487
  684MPD2    H210121   4.329   4.483  16.360  0.4366  0.1339 -0.9702
  684MPD2    H310122   4.319   4.608  16.557  1.2572 -1.7809 -0.3315
  684MPD2     N10123   4.395   0.267  16.343  0.2033  0.8660 -0.6882
  684MPD2    H510124   4.387   0.313  16.433  0.0754 -0.6544  0.0875
  684MPD2    N110125   4.395   4.577  16.096 -0.1264  0.2362 -0.3403
  684MPD2    H710126   4.405   4.633  16.013 -1.0285  2.3391  0.9533
  685TMC3    C110127   4.455   4.400  15.950  0.4442  0.3584 -0.1837
  685TMC3    C210128   4.377   4.459  15.857 -0.4402  0.1578  0.1070
  685TMC3    C310129   4.434   4.502  15.743 -0.3275  0.0348 -0.2458
  685TMC3    C410130   4.587   4.375  15.927  0.9134 -0.5666  0.2690
  685TMC3    C510131   4.636   4.425  15.815 -0.1667  0.6793 -0.3593
  685TMC3    C610132   4.565   4.491  15.719  0.4327  0.4645  0.6503
  685TMC3     C10133   4.428   4.445  16.087  0.5036 -0.0951  0.3568
  685TMC3     O10134   4.425   4.360  16.176 -0.0684  0.0137  0.5553
  685TMC3     H10135   4.272   4.466  15.879 -0.5408 -0.3410 -0.2129
  685TMC3    H110136   4.646   4.338  16.011  2.4831  0.4722 -0.3640
  685TMC3    H210137   4.601   4.526  15.623  0.1896 -1.0442  0.0071
  685TMC3    C710138   0.048   4.475  15.833  0.0038  0.1668 -0.0794
  685TMC3    C810139   4.347   4.578  15.656  0.5318  1.0425  0.2413
  685TMC3    O110140   0.119   4.401  15.904 -0.0922 -0.7873 -0.3075
  685TMC3    O210141   4.377   4.587  15.536 -0.3347 -0.0967  0.4548
  686MPD2     C10142   1.013   4.560  15.330  0.2669  0.0712 -0.1436
  686MPD2    C110143   1.072   4.536  15.450 -0.0328 -0.1502 -0.3813
  686MPD2    C210144   1.139   4.414  15.455 -0.0321 -0.1131 -0.6362
  686MPD2    C310145   1.139   4.318  15.351 -0.7791 -0.0208 -0.2105
  686MPD2    C410146   1.085   4.349  15.229  0.4916 -0.6886  0.3526
  686MPD2    C510147   1.027   4.475  15.221  0.2202 -0.4910 -0.1754
  686MPD2     H10148   1.188   4.394  15.550 -2.3561 -0.5187  0.4836
  686MPD2    H110149   1.086   4.279  15.146  1.4586 -0.8747  0.5284
  686MPD2    H210150   0.973   4.658  15.310  0.4875  0.1350 -0.2726
  686MPD2    H310151   0.975   4.505  15.130  1.5388  1.6454 -0.2281
  686MPD2     N10152   1.198   4.189  15.362  0.4248  0.0512  0.3249
  686MPD2    H510153   1.198   4.137  15.275  2.6590  1.1310 -0.3367
  686MPD2    N110154   1.029   4.620  15.557  0.1683 -0.3787 -0.6825
  686MPD2    H710155   0.959   4.688  15.531  1.3282  1.4967  1.0945
  687TMC3    C110156   1.178   4.141  15.606 -0.7453  0.1044  0.6356
  687TMC3    C210157   1.048   4.159  15.628  0.5915 -0.1339 -0.1726
  687TMC3    C310158   1.013   4.185  15.758 -0.2654  0.5738 -0.5407
  687TMC3    C410159   1.264   4.116  15.712 -0.0053  0.1508  0.4947
  687TMC3    C510160   1.225   4.125  15.839  0.2031 -0.5610 -0.2625
  687TMC3    C610161   1.099   4.175  15.868 -0.3788 -0.1661  0.2586
  687TMC3     C10162   1.224   4.113  15.473 -0.4390 -0.8901  0.3902
  687TMC3     O10163   1.259   3.997  15.462  0.1925  0.4011  0.0587
  687TMC3     H10164   0.985   4.170  15.540 -2.2727 -1.7991  1.6713
  687TMC3    H110165   1.363   4.092  15.676 -0.9998 -1.1354 -1.3656
  687TMC3    H210166   1.066   4.181  15.971  0.4620  0.7227  0.4787
  687TMC3    C710167   1.332   4.148  15.944  0.4774  0.1398 -0.0529
  687TMC3    C810168   0.885   4.247  15.788  0.7372 -0.4107 -0.4603
  687TMC3    O110169   1.300   4.220  16.043 -0.6007 -0.4317 -0.4640
  687TMC3    O210170   0.855   4.249  15.908  0.4108  0.3204 -0.7022
  688MPD2     C10171   0.488   3.711  17.350  0.0771 -0.2906 -0.1832
  688MPD2    C110172   0.460   3.574  17.354  0.0583  0.5432 -0.1244
  688MPD2    C210173   0.534   3.483  17.283  0.1544  0.6747 -0.5404
  688MPD2    C310174   0.633   3.528  17.194 -0.1412 -0.0178  0.5189
  688MPD2    C410175   0.660   3.659  17.189 -0.6501  0.4154  0.2877
  688MPD2    C510176   0.582   3.749  17.260  0.5615 -0.6597 -0.2762
  688MPD2     H10177   0.509   3.378  17.291 -0.5806  0.8993  0.1211
  688MPD2    H110178   0.733   3.709  17.126 -1.6770  0.8406 -0.5806
  688MPD2    H210179   0.436   3.787  17.407 -1.2760  0.6153 -2.6318
  688MPD2    H310180   0.595   3.854  17.241  2.3991 -1.0494 -1.1467
  688MPD2     N10181   0.692   3.451  17.098  0.3886 -0.0390  0.0687
  688MPD2    H510182   0.739   3.499  17.022 -2.3128 -0.1881 -1.6734
  688MPD2    N110183   0.360   3.524  17.452 -0.0928 -0.2024 -0.7411
  688MPD2    H710184   0.365   3.423  17.455  0.3446 -0.1797 -0.6752
  689TMC3    C110185   0.221   3.516  17.637 -0.1238  1.4219 -0.1576
  689TMC3    C210186   0.214   3.582   0.058  0.4831 -0.2716  0.2027
  689TMC3    C310187   0.179   3.509   0.165 -0.0802  0.3027  0.0530
  689TMC3    C410188   0.208   3.379  17.624  0.3938 -0.0911 -0.7181
  689TMC3    C510189   0.187   3.311   0.048 -0.5339  0.4525 -0.6306
  689TMC3    C610190   0.166   3.375   0.166 -0.1357 -0.0834 -0.2496
  689TMC3     C10191   0.268   3.595  17.532 -0.2932 -0.1826  0.1984
  689TMC3     O10192   0.251   3.717  17.535  0.1255 -0.0152 -0.1507
  689TMC3     H10193   0.251   3.684   0.057  0.7487 -0.3689 -0.2264
  689TMC3    H110194   0.222   3.325  17.531 -1.4328  1.2131 -1.7553
  689TMC3    H210195   0.163   3.318   0.259  1.7245  0.6613  0.2620
  689TMC3    C710196   0.205   3.172   0.054 -0.2976  0.0020  0.3902
  689TMC3    C810197   0.152   3.574   0.285  0.1451 -0.8528 -0.6052
  689TMC3    O110198   0.192   3.127   0.169 -0.4607 -0.5254 -0.5244
  689TMC3    O210199   0.116   3.507   0.381 -0.1332 -0.2968  0.1958
  690MPD2     C10200   1.988   0.628  15.591  0.3382 -0.2432 -0.0043
  690MPD2    C110201   2.043   0.513  15.551  0.4832  0.4646 -0.7669
  690MPD2    C210202   2.171   0.503  15.497 -0.4912 -0.1414 -0.2171
  690MPD2    C310203   2.252   0.617  15.497 -0.6602  0.7052 -0.0898
  690MPD2    C410204   2.197   0.739  15.537 -0.3267  0.2931 -0.0011
  690MPD2    C510205   2.066   0.740  15.583 -0.1473  0.2811  0.4040
  690MPD2     H10206   2.211   0.405  15.470 -0.7650 -0.2027 -0.4016
  690MPD2    H110207   2.261   0.827  15.534 -0.6363  0.6492  3.8912
  690MPD2    H210208   1.897   0.641  15.648  1.0074 -1.7111  1.4030
  690MPD2    H310209   2.026   0.831  15.626 -0.9990  0.1074 -0.0256
  690MPD2     N10210   2.383   0.610  15.436  0.0193 -1.1148  0.4888
  690MPD2    H510211   2.401   0.528  15.380 -1.3139 -0.3045 -1.1513
  690MPD2    N110212   1.972   0.393  15.560 -0.0453 -0.2355 -0.3997
  690MPD2    H710213   2.025   0.311  15.531 -0.5118 -1.0431  1.0433
  691TMC3    C110214   1.805   0.243  15.640 -0.3667  0.3066  0.4403
  691TMC3    C210215   1.694   0.229  15.718  0.6494 -0.4274 -0.6598
  691TMC3    C310216   1.647   0.108  15.753  0.3762  0.2238 -0.5387
  691TMC3    C410217   1.846   0.131  15.570 -0.8426  0.4325  0.0794
  691TMC3    C510218   1.799   0.014  15.616 -0.2462 -0.6876  0.7600
  691TMC3    C610219   1.708   4.721  15.717  0.2554  0.0744  0.0047
  691TMC3     C10220   1.844   0.379  15.611  0.2541 -0.3231  0.3758
  691TMC3     O10221   1.758   0.465  15.634  0.4574 -0.5698  0.1863
  691TMC3     H10222   1.671   0.312  15.783  2.3958  0.4542 -1.1703
  691TMC3    H110223   1.922   0.138  15.492  0.7710  1.8412  1.7837
  691TMC3    H210224   1.678   4.621  15.747 -0.6790  0.6294  0.9176
  691TMC3    C710225   1.834   4.621  15.557 -0.3208  0.3203  0.2037
  691TMC3    C810226   1.528   0.107  15.838  0.4839 -0.1718 -0.4227
  691TMC3    O110227   1.836   4.529  15.638  0.1477 -0.0472 -0.1653
  691TMC3    O210228   1.509   4.723  15.896  0.4793  0.4587 -0.0628
  692TMC3    C110229   4.043   1.551  16.121  1.1543 -0.8599 -0.1822
  692TMC3    C210230   4.142   1.557  16.208 -0.3345  0.1875 -0.1540
  692TMC3    C310231   4.273   1.514  16.174  0.3861 -0.1752 -1.1111
  692TMC3    C410232   4.067   1.518  15.992 -0.1975  0.4589  1.0407
  692TMC3    C510233   4.197   1.473  15.958  0.0661 -0.1045 -0.4424
  692TMC3    C610234   4.302   1.489  16.045 -0.1453  0.3228 -0.1005
  692TMC3     C10235   3.924   1.634  16.151  0.3879  0.4212 -0.1431
  692TMC3     O10236   3.825   1.608  16.083  0.8206  0.0866 -0.2115
  692TMC3     H10237   4.108   1.561  16.311  3.1810  1.6680  0.9550
  692TMC3    H110238   3.980   1.501  15.929  1.6047 -1.7087 -0.8848
  692TMC3    H210239   4.390   1.429  16.024  0.9751  1.8296  0.2741
  692TMC3    C710240   4.200   1.361  15.866 -0.0325  0.3437 -0.0132
  692TMC3    C810241   4.313   1.401  16.255 -0.1068 -0.3194 -0.0198
  692TMC3    O110242   4.145   1.357  15.755 -0.0849 -0.0543 -0.4536
  692TMC3    O210243   4.345   1.296  16.208 -0.3314 -0.0823 -0.4431
  693MPD2     C10244   3.176   3.979  11.712  0.0417  0.8861 -0.5982
  693MPD2    C110245   3.161   3.945  11.582 -0.2655  0.1002  0.0264
  693MPD2    C210246   3.276   3.972  11.506  0.3766 -0.4659  0.2154
  693MPD2    C310247   3.393   4.013  11.570  0.1797 -0.0959 -0.9169
  693MPD2    C410248   3.397   4.040  11.709  0.3578  0.3095  0.2541
  693MPD2    C510249   3.287   4.022  11.778  0.1908  0.4903 -0.2689
  693MPD2     H10250   3.283   3.949  11.400 -1.3423 -3.2515  0.7178
  693MPD2    H110251   3.487   4.065  11.764  0.5901 -0.5178  0.2484
  693MPD2    H210252   3.097   3.951  11.781  0.7431  1.4454  0.4337
  693MPD2    H310253   3.280   4.047  11.883  1.1084 -0.8162  0.1052
  693MPD2     N10254   3.510   4.042  11.508  0.3304 -0.1079 -0.2118
  693MPD2    H510255   3.583   4.071  11.572  0.9213  0.2545 -1.0513
  693MPD2    N110256   3.037   3.882  11.550 -0.3282  0.4813 -0.4147
  693MPD2    H710257   2.972   3.866  11.627  2.5793 -2.8181  1.3837
  694TMC3    C110258   2.884   3.761  11.407  0.1552 -0.6430 -0.9885
  694TMC3    C210259   2.840   3.730  11.282  0.4196  0.1164  0.2735
  694TMC3    C310260   2.754   3.626  11.266 -0.0348  0.4392 -0.1899
  694TMC3    C410261   2.856   3.678  11.514  1.1588 -0.3761 -0.0145
  694TMC3    C510262   2.781   3.562  11.491  0.0115  0.4085 -0.2741
  694TMC3    C610263   2.723   3.544  11.369  0.5355 -0.0963 -0.3301
  694TMC3     C10264   3.001   3.851  11.422 -1.3291 -0.8321 -0.5446
  694TMC3     O10265   3.061   3.884  11.317 -0.4222  0.0537  0.5349
  694TMC3     H10266   2.894   3.777  11.200 -0.8674 -0.7779 -1.0839
  694TMC3    H110267   2.890   3.707  11.612 -1.7102  1.1491  0.5168
  694TMC3    H210268   2.675   3.448  11.356 -0.0129 -0.1986  2.5287
  694TMC3    C710269   2.741   3.481  11.609  0.4055  0.0403 -0.0137
  694TMC3    C810270   2.702   3.583  11.138 -0.1448 -0.3792 -0.0167
  694TMC3    O110271   2.805   3.509  11.707  0.9039 -1.0009 -0.1559
  694TMC3    O210272   2.640   3.477  11.125 -0.0769 -0.2966 -0.7511
  695MPD2     C10273   0.014   1.291  13.340 -0.8600  0.7993  0.2050
  695MPD2    C110274   0.015   1.343  13.465  0.6741  0.5438 -1.1472
  695MPD2    C210275   4.618   1.391  13.520  0.7757  0.3289 -0.6921
  695MPD2    C310276   4.501   1.383  13.448  0.7701 -1.0395 -0.0601
  695MPD2    C410277   4.503   1.320  13.323 -0.1634 -0.3276  0.1545
  695MPD2    C510278   4.624   1.279  13.271  0.0209  0.5695  0.2762
  695MPD2     H10279   4.628   1.457  13.606 -0.8908  1.4854 -1.3966
  695MPD2    H110280   4.420   1.307  13.254  0.7188 -0.8625 -0.8153
  695MPD2    H210281   0.106   1.260  13.293 -0.9391 -1.6982  1.6594
  695MPD2    H310282   4.628   1.236  13.172  1.3603  0.2618  0.4665
  695MPD2     N10283   4.383   1.447  13.497  0.0655 -0.2184 -0.3606
  695MPD2    H510284   4.384   1.461  13.597 -1.2469  0.7755 -0.4808
  695MPD2    N110285   0.136   1.360  13.532 -0.1624  1.0002 -0.8603
  695MPD2    H710286   0.140   1.418  13.616 -1.9052 -2.5236  1.6398
  696TMC3    C110287   4.164   1.529  13.503 -0.1040 -0.5220  0.1297
  696TMC3    C210288   4.140   1.492  13.636  0.1444  0.2854 -0.8610
  696TMC3    C310289   4.031   1.547  13.704 -0.1599 -0.3173 -0.0732
  696TMC3    C410290   4.088   1.618  13.434 -0.6314 -0.1478 -0.1977
  696TMC3    C510291   3.984   1.679  13.503 -0.1768 -1.4373 -0.5674
  696TMC3    C610292   3.951   1.641  13.632 -0.4780 -0.3259  0.3016
  696TMC3     C10293   4.268   1.476  13.428  0.2640 -0.4717  0.1207
  696TMC3     O10294   4.253   1.463  13.308  0.1500  0.2823  0.4521
  696TMC3     H10295   4.212   1.432  13.689  0.3712  0.1272 -1.3446
  696TMC3    H110296   4.117   1.644  13.333 -3.9337 -1.7801 -1.5638
  696TMC3    H210297   3.867   1.686  13.683 -1.2508 -0.0743 -1.2104
  696TMC3    C710298   4.012   1.821  13.491  0.7604 -0.1563 -0.2063
  696TMC3    C810299   4.057   1.587  13.839 -0.8907  0.2841 -0.0123
  696TMC3    O110300   4.008   1.864  13.376  0.2396 -0.0702  0.4567
  696TMC3    O210301   4.054   1.707  13.869  0.1536 -0.2464  0.0793
  697MPD2     C10302   3.614   3.319  15.680  0.8147 -0.6397  0.0794
  697MPD2    C110303   3.595   3.255  15.556  0.3111  0.8756  0.2567
  697MPD2    C210304   3.627   3.324  15.439  0.1858  0.0769  0.3534
  697MPD2    C310305   3.665   3.457  15.447 -0.0128  0.1575 -0.5893
  697MPD2    C410306   3.662   3.524  15.566  0.7080 -0.1091 -0.5151
  697MPD2    C510307   3.633   3.455  15.680 -0.2019 -0.3041  0.2593
  697MPD2     H10308   3.614   3.269  15.346  0.6561  0.0641  0.2959
  697MPD2    H110309   3.660   3.632  15.574 -2.8526 -0.3381  1.7683
  697MPD2    H210310   3.594   3.273  15.777 -2.5631  3.7506  1.4430
  697MPD2    H310311   3.644   3.503  15.776 -3.1307  3.0439 -1.0897
  697MPD2     N10312   3.695   3.518  15.325  0.0928  0.6674 -0.3728
  697MPD2    H510313   3.694   3.458  15.243  3.2084  2.0712 -1.4178
  697MPD2    N110314   3.551   3.118  15.544 -0.7264  0.1094 -0.3141
  697MPD2    H710315   3.545   3.080  15.450 -0.6019 -1.0120  0.1338
  698TMC3    C110316   3.748   3.697  15.177  1.1621 -0.1931 -0.5039
  698TMC3    C210317   3.792   3.829  15.165 -0.4675  0.3331 -0.5313
  698TMC3    C310318   3.776   3.888  15.044 -0.4218  0.1506 -0.2700
  698TMC3    C410319   3.691   3.630  15.075  0.5722 -1.2348 -0.1805
  698TMC3    C510320   3.683   3.690  14.952 -0.6311 -0.0072  0.8896
  698TMC3    C610321   3.719   3.823  14.939  0.1589  0.1874  0.6983
  698TMC3     C10322   3.735   3.652  15.312  0.2597 -0.0511  0.3637
  698TMC3     O10323   3.722   3.743  15.393 -0.3302  0.0894 -0.0620
  698TMC3     H10324   3.835   3.885  15.247 -2.2562  1.9553 -0.6932
  698TMC3    H110325   3.643   3.534  15.090  0.4803 -1.0196  0.9059
  698TMC3    H210326   3.694   3.871  14.845  0.7091 -0.3926  0.2587
  698TMC3    C710327   3.707   3.616  14.831  0.0165 -0.9101 -0.4924
  698TMC3    C810328   3.827   4.025  15.032  0.1835  0.5916 -0.4888
  698TMC3    O110329   3.657   3.659  14.727 -0.3007 -0.4777  0.2724
  698TMC3    O210330   3.775   4.098  14.951 -0.4692 -0.2111 -0.0937
  699TMC3    C110331   4.104   1.319  12.972  0.2617  0.6846  0.5481
  699TMC3    C210332   4.177   1.209  13.004  0.2452 -0.1739 -0.0875
  699TMC3    C310333   4.151   1.143  13.120  0.0393 -0.3571 -0.3586
  699TMC3    C410334   3.993   1.352  13.050  0.2370 -0.2625  0.0324
  699TMC3    C510335   3.969   1.284  13.166  0.6679 -0.2088  0.3273
  699TMC3    C610336   4.051   1.177  13.200 -0.9025  0.0281  0.3790
  699TMC3     C10337   4.118   1.384  12.847  0.6577 -0.3964 -0.0423
  699TMC3     O10338   4.023   1.445  12.804 -0.8071  0.0548 -0.4733
  699TMC3     H10339   4.259   1.177  12.941  0.9072  2.1022 -0.3819
  699TMC3    H110340   3.940   1.445  13.034  2.0416  0.9340  1.0182
  699TMC3    H210341   4.023   1.111  13.282  2.1481 -1.5473  0.1694
  699TMC3    C710342   3.871   1.333  13.258  0.5597 -0.3058  0.2399
  699TMC3    C810343   4.235   1.032  13.165  0.4908 -0.4130 -0.2994
  699TMC3    O110344   3.807   1.430  13.224 -0.3294  0.0588  0.5672
  699TMC3    O210345   4.264   1.032  13.282  0.2509  0.4040 -0.0964
  700TMC3    C110346   2.873   3.943  16.780  0.5072  0.1563  0.1264
  700TMC3    C210347   2.880   3.815  16.742  0.2228  0.8253 -0.5995
  700TMC3    C310348   2.974   3.741  16.808  0.2962  0.0153  0.5402
  700TMC3    C410349   2.959   3.996  16.881  0.8620 -0.1732 -0.4971
  700TMC3    C510350   3.063   3.924  16.922 -0.1620 -0.3971  0.7445
  700TMC3    C610351   3.072   3.794  16.890 -0.5092  0.0562 -0.2190
  700TMC3     C10352   2.810   4.045  16.686 -0.1971 -0.0838 -0.4632
  700TMC3     O10353   2.696   4.033  16.646  1.0388  0.5793  0.4599
  700TMC3     H10354   2.811   3.773  16.670 -0.9145 -1.7810  1.9965
  700TMC3    H110355   2.931   4.093  16.921 -1.6003 -0.6444 -1.0653
  700TMC3    H210356   3.155   3.729  16.913  0.1057  1.3496  1.2019
  700TMC3    C710357   3.162   3.987  17.015  0.8690 -0.1006  0.2303
  700TMC3    C810358   2.973   3.603  16.765  0.4115  0.1030 -0.0648
  700TMC3    O110359   3.153   4.111  17.019 -0.4686 -0.1299 -0.2078
  700TMC3    O210360   2.866   3.542  16.761  0.4095  0.1482  0.0606
  701TMC3    C110361   2.629   2.937  15.440  0.7324  0.2359 -0.2177
  701TMC3    C210362   2.600   2.911  15.312  1.2957  0.0953 -0.6943
  701TMC3    C310363   2.618   3.006  15.216  0.3475  0.8141  0.1103
  701TMC3    C410364   2.679   3.059  15.475 -0.3848 -0.3645  0.3147
  701TMC3    C510365   2.697   3.153  15.375 -0.4228  0.2503 -0.6183
  701TMC3    C610366   2.666   3.127  15.245  0.4779 -0.3140  0.0333
  701TMC3     C10367   2.682   2.839  15.522 -0.0880 -0.3123 -0.2926
  701TMC3     O10368   2.744   2.883  15.622  0.2524 -0.2288  0.0266
  701TMC3     H10369   2.577   2.810  15.279  0.0858  0.6318 -1.4831
  701TMC3    H110370   2.685   3.089  15.579  1.0996 -1.1003  0.4401
  701TMC3    H210371   2.704   3.197  15.172 -1.3775 -0.5466 -1.1375
  701TMC3    C710372   2.799   3.247  15.393  0.9774  0.5034 -0.1158
  701TMC3    C810373   2.562   2.995  15.085 -0.0510 -0.1160  0.9500
  701TMC3    O110374   2.790   3.344  15.318  0.1610  0.1308  0.0593
  701TMC3    O210375   2.528   3.099  15.034  0.3215 -0.2719  0.2503
  702MPD2     C10376   2.694   4.371  10.325 -0.6218  0.4202 -0.0504
  702MPD2    C110377   2.621   4.477  10.378 -0.8182 -0.0285  0.2839
  702MPD2    C210378   2.655   4.602  10.332  0.2782 -0.4366 -0.2414
  702MPD2    C310379   2.741   4.621  10.226 -0.1745  0.6988  0.0463
  702MPD2    C410380   2.818   4.517  10.188  0.5035  0.5156 -0.0084
  702MPD2    C510381   2.795   4.394  10.238  0.0026 -0.9275  0.3431
  702MPD2     H10382   2.603   4.683  10.383  0.3334 -1.3762  1.3106
  702MPD2    H110383   2.896   4.524  10.113 -1.0559 -0.7470 -1.7322
  702MPD2    H210384   2.685   4.270  10.365 -1.2525  0.5398  0.1142
  702MPD2    H310385   2.848   4.308  10.198 -1.0995 -1.0507 -0.8384
  702MPD2     N10386   2.744   0.029  10.168  0.2853  0.4675  0.2292
  702MPD2    H510387   2.808   0.044  10.091  1.0042  1.8542  1.0920
  702MPD2    N110388   2.526   4.459  10.479  0.7656  0.1957 -0.7148
  702MPD2    H710389   2.487   4.542  10.523  1.3517  0.1579 -0.1021
  703TMC3    C110390   2.666   0.253  10.145  0.0767  0.0367 -0.1185
  703TMC3    C210391   2.597   0.338  10.226  0.4338 -0.8134  0.4433
  703TMC3    C310392   2.647   0.470  10.247 -0.0029  1.3329  0.7984
  703TMC3    C410393   2.779   0.291  10.088 -0.7672  0.4945 -0.6229
  703TMC3    C510394   2.829   0.419  10.109  0.1363 -0.6139 -0.5344
  703TMC3    C610395   2.760   0.511  10.178  0.0263  0.2187  0.3407
  703TMC3     C10396   2.632   0.114  10.177  0.2105 -0.6478  0.2386
  703TMC3     O10397   2.517   0.084  10.207  0.1542 -0.2886  0.5581
  703TMC3     H10398   2.512   0.295  10.278  0.8317 -2.2161 -0.0489
  703TMC3    H110399   2.829   0.217  10.026  0.0426  1.1819 -0.7912
  703TMC3    H210400   2.801   0.608  10.203  1.3199 -0.7497  1.9444
  703TMC3    C710401   2.975   0.446  10.099  0.0591  0.3915 -0.0124
  703TMC3    C810402   2.584   0.558  10.339  0.7377 -0.0691 -0.0765
  703TMC3    O110403   3.020   0.537  10.162 -0.5635  0.3417  0.2124
  703TMC3    O210404   2.663   0.641  10.384  0.3554 -0.2226  0.6941
  704TMC3    C110405   0.293   2.930  12.453  0.0211 -0.3496 -0.2340
  704TMC3    C210406   0.416   2.959  12.411 -0.3697  0.8062  0.6042
  704TMC3    C310407   0.518   2.892  12.476 -0.2928 -0.9512  0.2674
  704TMC3    C410408   0.266   2.853  12.560  0.2517 -0.2690 -0.0565
  704TMC3    C510409   0.372   2.776  12.610  0.1747 -0.1594  0.2998
  704TMC3    C610410   0.498   2.805  12.576 -0.1996  0.0840  0.5084
  704TMC3     C10411   0.187   2.997  12.378  0.1119  0.1323 -0.1420
  704TMC3     O10412   0.078   3.002  12.431 -0.5936  0.6888 -0.1929
  704TMC3     H10413   0.431   3.027  12.328  1.0547 -1.5214 -1.0536
  704TMC3    H110414   0.163   2.833  12.584  0.5892 -1.6477  0.2844
  704TMC3    H210415   0.574   2.735  12.609 -1.0617 -0.7205  0.7958
  704TMC3    C710416   0.340   2.636  12.592  0.9021 -0.8394 -0.7928
  704TMC3    C810417   0.627   2.857  12.385 -0.0827  0.4488  0.3288
  704TMC3    O110418   0.437   2.559  12.563 -0.2437  0.0523  0.3960
  704TMC3    O210419   0.599   2.862  12.262  0.1768 -0.5614  0.1917
  705MPD2     C10420   4.468   1.396  17.127 -0.3956  0.5356 -0.7299
  705MPD2    C110421   4.444   1.481  17.024  0.1959  0.6752  0.3464
  705MPD2    C210422   4.360   1.585  17.054 -0.3217 -0.3796 -0.0866
  705MPD2    C310423   4.315   1.610  17.186  0.1958 -0.0607 -0.7514
  705MPD2    C410424   4.341   1.517  17.281  0.4312  0.8327 -0.1054
  705MPD2    C510425   4.410   1.405  17.251 -0.2670  0.8116  0.7684
  705MPD2     H10426   4.317   1.642  16.973  1.5541 -0.2863 -1.0222
  705MPD2    H110427   4.311   1.546  17.381 -0.8163 -0.5668 -0.0767
  705MPD2    H210428   4.534   1.310  17.116 -0.0552  0.8303 -1.0231
  705MPD2    H310429   4.438   1.331  17.325 -1.8327  0.1771  0.7202
  705MPD2     N10430   4.223   1.719  17.217  0.3960 -0.1488  0.1867
  705MPD2    H510431   4.168   1.711  17.302 -3.5946  0.0224 -2.3853
  705MPD2    N110432   4.499   1.474  16.899 -0.1291 -0.7928  0.1422
  705MPD2    H710433   4.508   1.563  16.850 -0.4490 -0.9688 -0.2401
  706TMC3    C110434   4.707   1.273  16.538  0.4636  0.0130 -0.0305
  706TMC3    C210435   4.684   1.378  16.453  0.2764  0.8588  0.0970
  706TMC3    C310436   4.634   1.495  16.505 -0.5841  0.1074 -0.4398
  706TMC3    C410437   4.686   1.273  16.670 -0.2402 -0.5594 -0.2163
  706TMC3    C510438   4.623   1.391  16.712 -0.0577  0.8519 -0.0806
  706TMC3    C610439   4.593   1.500  16.631  0.1198  0.7362 -0.3836
  706TMC3     C10440   0.089   1.181  16.509 -0.0097 -0.2898  0.3036
  706TMC3     O10441   0.154   1.146  16.602 -0.2177  0.1415 -0.3506
  706TMC3     H10442   4.706   1.364  16.348  2.0434  0.3304  0.5475
  706TMC3    H110443   4.694   1.180  16.725 -1.2120  0.8854  2.3409
  706TMC3    H210444   4.545   1.584  16.681  1.0118 -0.7751  3.0339
  706TMC3    C710445   4.568   1.370  16.841 -0.5599 -0.6737  0.5506
  706TMC3    C810446   4.604   1.607  16.423 -0.3407  0.0597 -0.1918
  706TMC3    O110447   4.589   1.256  16.888  0.2722 -0.1777  0.0840
  706TMC3    O210448   4.576   1.583  16.306 -0.0441 -0.3889 -0.4160
  707TMC3    C110449   2.188   3.846   1.725  1.2593  0.1501 -0.9459
  707TMC3    C210450   2.272   3.739   1.751  0.5644 -0.0313 -0.1365
  707TMC3    C310451   2.225   3.637   1.832 -0.3061 -0.0052  0.4644
  707TMC3    C410452   2.050   3.833   1.763  1.1882  0.3250  0.1452
  707TMC3    C510453   2.009   3.719   1.832  0.3215  0.2139  1.1072
  707TMC3    C610454   2.098   3.620   1.872 -0.8636 -0.8514  0.4256
  707TMC3     C10455   2.236   3.961   1.646 -0.0343  0.1005  0.4465
  707TMC3     O10456   2.356   3.962   1.635 -0.2655  0.0107 -0.2808
  707TMC3     H10457   2.377   3.739   1.724 -0.3558 -1.6781 -3.7029
  707TMC3    H110458   1.975   3.908   1.738  1.6438  0.9304  0.6170
  707TMC3    H210459   2.066   3.539   1.937 -1.3071 -2.1004 -1.3555
  707TMC3    C710460   1.869   3.711   1.880 -0.3103 -0.5132  0.1480
  707TMC3    C810461   2.316   3.521   1.841 -0.0380 -0.2076  0.2124
  707TMC3    O110462   1.827   3.827   1.901  0.1620  0.4468 -0.4061
  707TMC3    O210463   2.318   3.457   1.944 -0.1887 -0.1026 -0.5911
  708MPD2     C10464   2.932   0.013  13.412  0.8427 -0.1446  0.7765
  708MPD2    C110465   2.832   4.706  13.505  0.3008  0.0175  0.3865
  708MPD2    C210466   2.865   4.692  13.640 -0.4239  0.3607 -0.1621
  708MPD2    C310467   2.998   4.694  13.677 -0.0392  0.3236  0.3120
  708MPD2    C410468   3.089   4.707  13.575  0.1177  0.2335 -0.7232
  708MPD2    C510469   3.060   0.010  13.451 -0.1762 -0.3754  0.0727
  708MPD2     H10470   2.794   4.680  13.721 -0.1648 -2.5920 -0.3875
  708MPD2    H110471   3.196   4.692  13.590 -0.1075 -0.8198 -0.1198
  708MPD2    H210472   2.910   0.020  13.306  2.8004 -0.4376  0.3516
  708MPD2    H310473   3.134   0.026  13.373 -0.2787  0.3437  0.1258
  708MPD2     N10474   3.027   4.675  13.817 -0.1309 -0.2172  0.2276
  708MPD2    H510475   2.942   4.648  13.864  2.0744 -3.2551  2.5079
  708MPD2    N110476   2.697   4.697  13.462  0.0307  0.5392 -0.1116
  708MPD2    H710477   2.668   4.715  13.367  0.3049 -1.8997 -0.6493
  709TMC3    C110478   2.465   4.680  13.485 -0.1543  0.8455  0.0404
  709TMC3    C210479   2.476   4.576  13.395 -0.2201 -0.2537 -0.4470
  709TMC3    C310480   2.395   4.468  13.421 -0.6177  0.0589  0.0310
  709TMC3    C410481   2.371   4.670  13.588 -0.1729 -0.6187 -0.3510
  709TMC3    C510482   2.304   4.556  13.617 -0.3244 -0.0900  0.3706
  709TMC3    C610483   2.301   4.452  13.527  0.7506 -0.1548 -0.1169
  709TMC3     C10484   2.591   0.004  13.548  0.1759  0.1989  0.0139
  709TMC3     O10485   2.592   0.029  13.665  0.5525  0.2989  0.1485
  709TMC3     H10486   2.546   4.565  13.313  0.4401 -0.4750  0.1540
  709TMC3    H110487   2.358   0.034  13.651  0.9292  0.0358 -1.0259
  709TMC3    H210488   2.267   4.351  13.548 -0.3990  0.5056  1.1451
  709TMC3    C710489   2.316   4.515  13.755 -0.7853  0.1481 -0.1249
  709TMC3    C810490   2.401   4.343  13.339 -0.2871  0.8518 -0.2832
  709TMC3    O110491   2.268   4.407  13.786 -0.2535 -0.3186  0.0400
  709TMC3    O210492   2.323   4.256  13.367  0.1582  0.5723 -0.4118
  710TMC3    C110493   0.583   1.132   0.686 -0.1066 -0.2453 -0.4704
  710TMC3    C210494   0.573   1.134   0.550  0.1999 -0.0939  0.3150
  710TMC3    C310495   0.611   1.015   0.494  0.8811  0.4009  0.2336
  710TMC3    C410496   0.610   1.018   0.763 -0.7592  0.5613 -0.1150
  710TMC3    C510497   0.639   0.903   0.698 -0.3147 -0.3917 -0.0164
  710TMC3    C610498   0.638   0.899   0.564  0.0428 -0.6931  0.5509
  710TMC3     C10499   0.548   1.247   0.762  0.0347 -0.2703 -0.0544
  710TMC3     O10500   0.605   1.272   0.869  0.2581  0.4673  0.1709
  710TMC3     H10501   0.534   1.217   0.492  0.1494 -0.1734  0.2354
  710TMC3    H110502   0.585   1.034   0.868 -0.6104 -1.6019  0.2567
  710TMC3    H210503   0.644   0.807   0.508 -1.7731 -1.9689  2.4874
  710TMC3    C710504   0.595   0.791   0.774  0.5373  0.6741  0.8931
  710TMC3    C810505   0.565   0.999   0.359  0.1169 -0.4565 -0.5442
  710TMC3    O110506   0.536   0.813   0.884  0.2334  0.4462  0.7153
  710TMC3    O210507   0.480   0.916   0.330  0.3161  0.5666  0.2184
  711TMC3    C110508   3.391   1.791  15.126 -0.4077  0.1697  0.6062
  711TMC3    C210509   3.386   1.816  15.258  0.3429 -1.2513  0.4034
  711TMC3    C310510   3.488   1.877  15.325  0.1110  0.4129  1.0654
  711TMC3    C410511   3.507   1.796  15.055 -0.6710 -0.0902  0.6087
  711TMC3    C510512   3.608   1.858  15.121 -0.8048 -0.4841  0.8914
  711TMC3    C610513   3.600   1.908  15.250 -0.7779 -0.9023  0.4708
  711TMC3     C10514   3.260   1.787  15.056 -0.3356  0.1406 -0.4886
  711TMC3     O10515   3.249   1.715  14.960  0.0394 -0.0968 -0.0729
  711TMC3     H10516   3.291   1.798  15.306 -0.6852  0.9796 -0.8008
  711TMC3    H110517   3.523   1.758  14.955 -1.7863 -2.1718  1.2129
  711TMC3    H210518   3.681   1.969  15.287 -1.3928  1.8049 -2.7276
  711TMC3    C710519   3.728   1.897  15.050 -0.3313 -0.3745 -0.4853
  711TMC3    C810520   3.513   1.847  15.463  1.1828  0.0582  0.0097
  711TMC3    O110521   3.812   1.963  15.108  0.5586 -0.3091  0.1898
  711TMC3    O210522   3.441   1.755  15.509  0.3227 -0.5028 -0.4269
  712MPD2     C10523   0.506   2.978  14.487  0.1446 -0.6019 -0.1046
  712MPD2    C110524   0.377   3.000  14.436  0.2748  0.5012  0.1546
  712MPD2    C210525   0.343   3.114  14.362 -0.1751 -0.1214  0.4036
  712MPD2    C310526   0.446   3.207  14.336  0.0035 -0.3181  0.5668
  712MPD2    C410527   0.570   3.181  14.389 -0.1123  0.1674 -0.1175
  712MPD2    C510528   0.602   3.067  14.464 -0.4212  0.4242 -0.1050
  712MPD2     H10529   0.243   3.130  14.324 -0.4691 -0.3815  1.0747
  712MPD2    H110530   0.658   3.244  14.382  0.0315  0.0132  0.2733
  712MPD2    H210531   0.534   2.906  14.562  0.1151 -1.1982 -0.6668
  712MPD2    H310532   0.695   3.053  14.519 -1.3386 -1.7140  0.8810
  712MPD2     N10533   0.430   3.315  14.254 -0.2466  0.3902  0.1577
  712MPD2    H510534   0.512   3.372  14.237  0.8865 -1.1645  0.3232
  712MPD2    N110535   0.276   2.908  14.461  1.0293  0.2001 -0.1906
  712MPD2    H710536   0.182   2.930  14.428  1.4634 -1.5750 -2.6129
  713TMC3    C110537   0.332   3.462  14.099  0.6782  0.4020 -0.4614
  713TMC3    C210538   0.454   3.481  14.037 -0.0444 -0.3735  0.7815
  713TMC3    C310539   0.443   3.569  13.929 -0.6456 -0.2902  0.7933
  713TMC3    C410540   0.218   3.521  14.062 -0.4866  0.6043 -0.0514
  713TMC3    C510541   0.222   3.622  13.969  0.2709 -0.1316  0.5509
  713TMC3    C610542   0.333   3.643  13.896  0.2033 -0.4363  0.4551
  713TMC3     C10543   0.313   3.360  14.199 -0.1577 -0.0504  0.9839
  713TMC3     O10544   0.197   3.318  14.215 -0.5054 -0.2618 -0.1005
  713TMC3     H10545   0.522   3.397  14.038  2.5848  1.7260  0.4759
  713TMC3    H110546   0.124   3.506  14.114 -0.7433 -1.9892 -1.2712
  713TMC3    H210547   0.334   3.713  13.813 -1.0771  1.9717  2.4830
  713TMC3    C710548   0.108   3.702  13.935 -0.4185  0.2987  0.0341
  713TMC3    C810549   0.559   3.575  13.845  0.5338  0.6283  0.5506
  713TMC3    O110550   4.717   3.662  13.942  0.2705  0.0724 -0.1248
  713TMC3    O210551   0.543   3.613  13.730  0.2748 -0.3252 -0.2800
  714MPD2     C10552   2.546   1.957   1.813  0.1380 -0.6374 -0.3968
  714MPD2    C110553   2.534   1.875   1.704  0.5653  0.3296  0.4874
  714MPD2    C210554   2.462   1.923   1.596 -0.5825  0.2766  0.2693
  714MPD2    C310555   2.415   2.052   1.588  0.4507  0.8599 -1.0303
  714MPD2    C410556   2.431   2.131   1.699  0.0498 -0.9136 -0.2458
  714MPD2    C510557   2.488   2.079   1.812  0.6308 -1.1427  0.8101
  714MPD2     H10558   2.443   1.860   1.509 -2.4706  1.6424 -0.3100
  714MPD2    H110559   2.409   2.237   1.700 -0.5506 -1.0342 -0.7604
  714MPD2    H210560   2.603   1.929   1.900  2.4704 -1.7819 -2.2878
  714MPD2    H310561   2.497   2.144   1.898 -1.5581 -0.9013  0.8549
  714MPD2     N10562   2.352   2.097   1.469  0.1332 -0.0560  0.0208
  714MPD2    H510563   2.337   2.030   1.394  1.3877  1.6359 -1.7533
  714MPD2    N110564   2.595   1.751   1.711 -0.1509 -0.0214 -0.1960
  714MPD2    H710565   2.656   1.739   1.792 -1.0317  1.6743  0.7120
  715TMC3    C110566   2.706   1.570   1.600  0.5444 -0.8650  0.3043
  715TMC3    C210567   2.686   1.441   1.556 -0.4465  0.0903 -0.0614
  715TMC3    C310568   2.797   1.368   1.538 -0.4943 -0.0792  0.1380
  715TMC3    C410569   2.833   1.618   1.634  0.2114 -0.0875 -0.0510
  715TMC3    C510570   2.936   1.530   1.626  0.4294  0.8405 -0.9549
  715TMC3    C610571   2.923   1.407   1.570  0.1895  0.6155 -0.7660
  715TMC3     C10572   2.591   1.655   1.602 -0.2155 -0.5310  0.7148
  715TMC3     O10573   2.513   1.642   1.512  0.0036 -0.2962 -0.1105
  715TMC3     H10574   2.588   1.408   1.522 -0.9297  0.2418  1.2151
  715TMC3    H110575   2.838   1.721   1.669  1.9893  1.4349 -4.8163
  715TMC3    H210576   3.012   1.348   1.554 -0.4799 -0.2456 -1.2687
  715TMC3    C710577   3.045   1.586   1.546  0.8807 -0.0368  0.3493
  715TMC3    C810578   2.785   1.258   1.441 -0.0996  0.0444 -0.0233
  715TMC3    O110579   3.031   1.570   1.424 -0.1783 -0.3403  0.4316
  715TMC3    O210580   2.683   1.200   1.450  0.1077 -0.0309  0.3224
  716MPD2     C10581   2.914   4.278   9.055 -0.3765 -0.2435 -0.1694
  716MPD2    C110582   2.810   4.240   9.134 -0.8518 -0.2153  0.3808
  716MPD2    C210583   2.786   4.109   9.152 -0.7258 -0.2028  0.2554
  716MPD2    C310584   2.862   4.016   9.079 -0.4615 -0.0016  0.5994
  716MPD2    C410585   2.966   4.052   9.002  0.8446 -0.4466 -0.5203
  716MPD2    C510586   2.982   4.187   8.983 -0.5139 -0.4955 -0.7643
  716MPD2     H10587   2.711   4.075   9.222 -0.9865 -0.9756 -0.3943
  716MPD2    H110588   3.015   3.973   8.946  0.4863  0.7371 -2.5312
  716MPD2    H210589   2.941   4.383   9.048 -1.1486 -0.0553 -0.3852
  716MPD2    H310590   3.065   4.232   8.930  0.0015 -1.0227 -0.4200
  716MPD2     N10591   2.813   3.885   9.093 -0.1153 -0.1182  0.4318
  716MPD2    H510592   2.723   3.867   9.135  0.9820 -0.7073  2.5026
  716MPD2    N110593   2.744   4.335   9.212 -0.2322  0.1659 -0.0515
  716MPD2    H710594   2.796   4.422   9.214  0.8675 -0.5284  1.9781
  717TMC3    C110595   2.756   3.680   9.003 -0.7339 -0.7356 -0.4481
  717TMC3    C210596   2.643   3.755   8.979 -0.0742 -0.0303  0.2024
  717TMC3    C310597   2.524   3.680   8.980  0.1618 -0.1504  0.2329
  717TMC3    C410598   2.753   3.560   9.068  0.2391 -0.9302 -0.2315
  717TMC3    C510599   2.632   3.498   9.083 -0.0174  0.0428 -0.0116
  717TMC3    C610600   2.511   3.558   9.046  0.4184 -0.7160  0.2349
  717TMC3     C10601   2.867   3.771   9.040 -0.4194  0.3220 -0.3452
  717TMC3     O10602   2.978   3.751   8.991 -0.0375 -0.4338 -0.4209
  717TMC3     H10603   2.647   3.842   8.915  2.1530 -0.5078 -0.3121
  717TMC3    H110604   2.844   3.524   9.114  0.6788  0.7814  0.2436
  717TMC3    H210605   2.413   3.525   9.080  1.0705 -0.0462  2.7353
  717TMC3    C710606   2.624   3.396   9.183 -0.3272 -0.4663  0.1053
  717TMC3    C810607   2.411   3.768   8.982 -0.1256 -0.0242  0.5281
  717TMC3    O110608   2.518   3.384   9.246  0.4971  0.0671 -0.2410
  717TMC3    O210609   2.421   3.874   9.041  0.3407  0.9849  0.1092
  718MPD2     C10610   1.967   3.160  13.029 -0.3917  0.2033 -0.1588
  718MPD2    C110611   1.882   3.266  12.992  0.4564  0.2798 -0.6817
  718MPD2    C210612   1.757   3.272  13.042  0.6878  0.6207 -0.0880
  718MPD2    C310613   1.707   3.177  13.130 -0.3819  0.7750 -0.0882
  718MPD2    C410614   1.787   3.070  13.162  0.0424 -0.0655  0.6678
  718MPD2    C510615   1.913   3.068  13.122  0.1055 -0.4339  0.2727
  718MPD2     H10616   1.689   3.343  12.997  0.0767 -0.3321 -0.6680
  718MPD2    H110617   1.751   2.993  13.229 -1.0232  1.0608  1.3730
  718MPD2    H210618   2.071   3.165  12.998 -0.4076 -0.4784 -0.3143
  718MPD2    H310619   1.988   3.003  13.165  0.2538 -0.7590 -0.4868
  718MPD2     N10620   1.582   3.208  13.181  0.6898  0.5609  0.4401
  718MPD2    H510621   1.549   3.303  13.164 -0.7174  0.3168  1.7241
  718MPD2    N110622   1.924   3.376  12.916 -0.2278  0.4303 -0.1172
  718MPD2    H710623   1.864   3.457  12.923 -2.3983 -1.0747 -1.1466
  719TMC3    C110624   2.050   3.544  12.812  0.1475 -0.4331 -0.2360
  719TMC3    C210625   1.946   3.611  12.871 -0.3601  0.2059  0.1048
  719TMC3    C310626   1.857   3.675  12.790  0.4734 -0.1494 -0.5720
  719TMC3    C410627   2.086   3.574  12.684 -0.0907  0.1099 -0.2461
  719TMC3    C510628   2.001   3.655  12.609  0.8772  0.0874  0.4303
  719TMC3    C610629   1.884   3.696  12.659  0.1490  0.8326 -0.5473
  719TMC3     C10630   2.043   3.402  12.847  0.1657  0.1791 -0.2607
  719TMC3     O10631   2.123   3.325  12.801 -0.3791 -0.2311  0.3155
  719TMC3     H10632   1.931   3.625  12.977  1.2610  0.1938  0.3340
  719TMC3    H110633   2.177   3.542  12.636  0.5460  3.1666 -1.1158
  719TMC3    H210634   1.805   3.731  12.593  0.5992 -1.8611 -2.5320
  719TMC3    C710635   2.082   3.760  12.549 -0.1067  0.5890  0.6569
  719TMC3    C810636   1.725   3.639  12.834 -0.1017  0.2380 -0.3155
  719TMC3    O110637   2.184   3.727  12.489 -0.6150 -0.4326 -0.2823
  719TMC3    O210638   1.716   3.573  12.935 -0.0697  0.1939 -0.5154
  720MPD2     C10639   0.224   0.353  13.746  0.5624 -0.0046  0.3244
  720MPD2    C110640   0.335   0.331  13.661 -0.4631 -0.1577 -0.0003
  720MPD2    C210641   0.436   0.250  13.697  0.3946  0.4685  0.2108
  720MPD2    C310642   0.432   0.201  13.827 -0.6017  0.3608  0.2635
  720MPD2    C410643   0.334   0.229  13.919  0.1592 -0.0053 -0.2529
  720MPD2    C510644   0.224   0.293  13.873 -0.4060 -0.3617 -0.5912
  720MPD2     H10645   0.524   0.235  13.636 -0.3831  2.8773 -1.5237
  720MPD2    H110646   0.337   0.194  14.021  0.6736 -0.7582 -0.5250
  720MPD2    H210647   0.141   0.416  13.717  1.2936 -0.4553 -2.7828
  720MPD2    H310648   0.146   0.313  13.946  1.0652 -2.1817  1.4608
  720MPD2     N10649   0.559   0.146  13.869 -0.5989 -0.2990  0.3660
  720MPD2    H510650   0.630   0.123  13.801  1.1112 -1.0740  2.3836
  720MPD2    N110651   0.345   0.393  13.536 -0.2817 -0.2406 -0.0074
  720MPD2    H710652   0.427   0.384  13.476 -1.7121  2.4514 -2.3818
  721TMC3    C110653   0.728   0.053  14.009 -0.1663 -0.5258  0.7211
  721TMC3    C210654   0.732   4.713  14.131  0.6321 -0.4826 -0.1672
  721TMC3    C310655   0.856   4.716  14.202 -0.3563  0.0054  0.3953
  721TMC3    C410656   0.845   0.099  13.947 -0.6070 -0.2138 -0.4381
  721TMC3    C510657   0.955   0.107  14.027 -0.4200 -0.9216 -0.0194
  721TMC3    C610658   0.969   0.048  14.151  0.5470 -0.5344  0.9574
  721TMC3     C10659   0.597   0.116  13.994  0.0604  0.5284  0.7132
  721TMC3     O10660   0.541   0.128  14.102  0.0302  0.1132 -0.1671
  721TMC3     H10661   0.643   4.665  14.169  0.1602  0.9543  0.5416
  721TMC3    H110662   0.851   0.142  13.847  0.3893  0.1353 -0.2321
  721TMC3    H210663   1.055   0.067  14.215 -0.4980 -2.7215  3.0040
  721TMC3    C710664   1.079   0.156  13.965  0.2799 -0.2673  0.5058
  721TMC3    C810665   0.884   4.642  14.324  0.4965  0.3082 -0.3262
  721TMC3    O110666   1.078   0.256  13.893 -0.8800  0.7017 -0.3509
  721TMC3    O210667   0.996   4.593  14.329 -0.2260 -0.6466 -0.5302
  722MPD2     C10668   4.181   3.673  13.144  0.3811 -0.0060 -0.3826
  722MPD2    C110669   4.101   3.778  13.159  0.3456 -0.2388 -0.0061
  722MPD2    C210670   3.986   3.773  13.084 -0.1503 -0.1791 -0.2768
  722MPD2    C310671   3.953   3.675  12.989  0.0201 -0.2721 -0.0526
  722MPD2    C410672   4.043   3.574  12.973 -0.2300  0.7064 -0.0802
  722MPD2    C510673   4.150   3.573  13.051  0.1222 -0.6072 -0.1677
  722MPD2     H10674   3.919   3.857  13.101 -1.3177 -1.1918  0.1313
  722MPD2    H110675   4.040   3.499  12.895 -0.2171  0.6407 -0.0179
  722MPD2    H210676   4.274   3.675  13.200 -0.6752 -0.4928  1.3993
  722MPD2    H310677   4.233   3.505  13.032 -0.6636 -1.7807  0.6451
  722MPD2     N10678   3.851   3.686  12.890 -0.0858 -0.0954 -0.2917
  722MPD2    H510679   3.801   3.773  12.901  0.7015  0.4986 -1.3442
  722MPD2    N110680   4.122   3.885  13.254  0.0644  0.0430  0.3067
  722MPD2    H710681   4.061   3.965  13.245  2.4409  2.0168  1.7156
  723TMC3    C110682   3.705   3.654  12.717 -0.9944  1.0073  0.0009
  723TMC3    C210683   3.605   3.559  12.691 -0.4586 -0.2799 -0.1590
  723TMC3    C310684   3.479   3.602  12.666  0.2168 -0.0937  0.2104
  723TMC3    C410685   3.677   3.788  12.707  1.0906 -0.6478 -0.8160
  723TMC3    C510686   3.557   3.830  12.662  0.4214 -0.6325 -0.0462
  723TMC3    C610687   3.451   3.740  12.650  0.0451 -0.2892 -0.2877
  723TMC3     C10688   3.814   3.597  12.787  0.4737 -0.4058 -0.1722
  723TMC3     O10689   3.863   3.495  12.742  0.1515  0.4347  0.1368
  723TMC3     H10690   3.621   3.458  12.728 -0.5083 -0.5273 -0.8177
  723TMC3    H110691   3.753   3.858  12.741  1.6203 -1.4067 -0.4224
  723TMC3    H210692   3.350   3.774  12.631  0.8550  1.4894 -1.4224
  723TMC3    C710693   3.538   3.980  12.643  0.2625 -0.0181 -0.6841
  723TMC3    C810694   3.363   3.521  12.695  0.0168 -1.4478 -0.6006
  723TMC3    O110695   3.630   4.043  12.689  0.1349  0.2809 -0.0749
  723TMC3    O210696   3.254   3.572  12.702  0.4164  0.3618  0.4583
  724TMC3    C110697   3.476   1.493   9.667  0.2835  0.1467  0.7224
  724TMC3    C210698   3.415   1.610   9.706 -0.3156  0.4162 -1.3886
  724TMC3    C310699   3.449   1.715   9.624  0.0915  0.2409  0.4798
  724TMC3    C410700   3.564   1.474   9.562 -0.4484 -0.7806  0.5839
  724TMC3    C510701   3.575   1.585   9.481  0.4418  0.1779 -0.3253
  724TMC3    C610702   3.515   1.703   9.510  0.4854 -0.7880 -0.2537
  724TMC3     C10703   3.442   1.370   9.742 -0.1733  0.2853 -0.4066
  724TMC3     O10704   3.494   1.264   9.710  0.0954  0.5319  0.3387
  724TMC3     H10705   3.388   1.628   9.810 -0.6754 -4.0318 -0.7077
  724TMC3    H110706   3.625   1.385   9.553  2.7836  1.3816  1.2295
  724TMC3    H210707   3.524   1.782   9.436 -1.2475 -0.4612 -0.1044
  724TMC3    C710708   3.681   1.585   9.385 -0.5136  0.4807 -0.0964
  724TMC3    C810709   3.404   1.852   9.659 -1.0327 -0.1822  0.2196
  724TMC3    O110710   3.723   1.696   9.355  0.5494  0.2303  1.2386
  724TMC3    O210711   3.334   1.866   9.758  0.0739 -1.0637 -0.1807
  725TMC3    C110712   0.968   0.616  12.308  0.2046 -0.1740  0.0731
  725TMC3    C210713   0.892   0.625  12.191  0.0998  0.2528  0.4244
  725TMC3    C310714   0.785   0.548  12.182  0.5613 -0.4032 -0.7149
  725TMC3    C410715   0.932   0.542  12.417  0.6038  0.8289  0.3557
  725TMC3    C510716   0.819   0.462  12.409 -0.0242 -0.3778 -0.4255
  725TMC3    C610717   0.748   0.465  12.283 -0.4735 -0.0054  0.3698
  725TMC3     C10718   1.098   0.686  12.316 -0.0663  0.2096 -0.6616
  725TMC3     O10719   1.130   0.746  12.416 -0.5236  0.3359  0.2650
  725TMC3     H10720   0.925   0.702  12.122  0.6950 -0.9327 -0.6170
  725TMC3    H110721   1.002   0.546  12.499  1.5446  0.3605 -0.4268
  725TMC3    H210722   0.666   0.394  12.270 -2.5261  2.2423  1.2089
  725TMC3    C710723   0.838   0.326  12.459  1.2048 -0.2115 -0.6369
  725TMC3    C810724   0.718   0.532  12.052  0.4198  0.5111  0.4387
  725TMC3    O110725   0.776   0.245  12.395 -0.0812  0.9369 -0.0200
  725TMC3    O210726   0.638   0.444  12.034  0.6196 -0.3374  0.1241
  726MPD2     C10727   3.589   2.117  10.714  0.3283  0.2255 -0.0371
  726MPD2    C110728   3.496   2.104  10.620 -0.4828  0.1573  0.5101
  726MPD2    C210729   3.384   2.029  10.644 -0.0949  0.5187 -0.2625
  726MPD2    C310730   3.358   1.972  10.768 -0.4648  0.3589 -0.3125
  726MPD2    C410731   3.455   1.987  10.864  0.2499  0.1770 -0.2159
  726MPD2    C510732   3.566   2.058  10.831  0.5885 -0.2549  1.1828
  726MPD2     H10733   3.301   2.017  10.576  0.3701 -0.7642 -0.6085
  726MPD2    H110734   3.440   1.950  10.965  0.8007 -0.8272 -0.4964
  726MPD2    H210735   3.676   2.179  10.699 -0.8667  1.9742  0.2911
  726MPD2    H310736   3.645   2.077  10.903  1.6104 -0.5065  0.1296
  726MPD2     N10737   3.246   1.902  10.811 -0.1310 -0.0080  0.5451
  726MPD2    H510738   3.249   1.865  10.906 -1.1582  2.6462  1.6200
  726MPD2    N110739   3.501   2.170  10.498 -0.0939 -0.4136  0.6469
  726MPD2    H710740   3.419   2.155  10.440  0.9118 -0.4157 -0.7923
  727TMC3    C110741   3.565   2.302  10.315 -0.7112  0.2526 -0.2881
  727TMC3    C210742   3.612   2.433  10.291  0.1272  0.1532  0.7624
  727TMC3    C310743   3.547   2.512  10.199 -0.0052  0.2942  0.4092
  727TMC3    C410744   3.448   2.264  10.250  0.1243 -0.5486 -0.3293
  727TMC3    C510745   3.377   2.354  10.177  0.1067 -1.0181  0.2843
  727TMC3    C610746   3.420   2.489  10.150 -0.4682  0.2172 -0.7025
  727TMC3     C10747   3.600   2.249  10.447 -0.0213  0.0381 -0.5771
  727TMC3     O10748   3.702   2.299  10.491 -0.0591 -0.4754  0.0510
  727TMC3     H10749   3.700   2.474  10.339  0.2142  1.1147 -0.2127
  727TMC3    H110750   3.415   2.160  10.252 -0.4829 -0.3702 -1.2257
  727TMC3    H210751   3.377   2.547  10.069 -3.1371  1.4237  1.5937
  727TMC3    C710752   3.248   2.302  10.126  0.5014  0.5560 -0.7161
  727TMC3    C810753   3.610   2.642  10.175  0.0811 -0.5023  0.7899
  727TMC3    O110754   3.214   2.188  10.149  0.1213  0.2799  0.7653
  727TMC3    O210755   3.729   2.655  10.201  0.2466 -0.3849 -0.4144
  728TMC3    C110756   2.565   0.724  15.341  0.0834  0.5001  0.1416
  728TMC3    C210757   2.689   0.777  15.368 -0.2329  0.4645 -0.0381
  728TMC3    C310758   2.770   0.822  15.270  0.8394  0.1066 -0.2099
  728TMC3    C410759   2.517   0.723  15.214 -0.1142 -0.7534  0.5975
  728TMC3    C510760   2.603   0.770  15.120  0.1840  0.0076 -0.2338
  728TMC3    C610761   2.732   0.822  15.138  0.2608  0.3257 -0.0224
  728TMC3     C10762   2.473   0.712  15.454 -0.1309  0.6041  0.8181
  728TMC3     O10763   2.493   0.804  15.532  0.0562  0.5716 -0.5412
  728TMC3     H10764   2.730   0.767  15.467  0.5386 -0.6526 -0.4744
  728TMC3    H110765   2.415   0.700  15.186 -0.5316 -1.9196  3.0385
  728TMC3    H210766   2.805   0.830  15.059  0.4366  1.0220  0.2183
  728TMC3    C710767   2.541   0.799  14.988  0.2934 -0.2309  0.4503
  728TMC3    C810768   2.910   0.855  15.300 -0.3664 -0.0054 -0.4396
  728TMC3    O110769   2.445   0.735  14.951  0.4147  0.2876  0.5716
  728TMC3    O210770   2.954   0.817  15.406 -0.0459  0.0156  0.0910
  729MPD2     C10771   0.381   2.057  17.160  0.0601 -0.0309  0.3089
  729MPD2    C110772   0.479   2.020  17.071 -0.1975  0.2887  0.8505
  729MPD2    C210773   0.614   2.050  17.105  0.7988  0.2734 -0.3469
  729MPD2    C310774   0.648   2.111  17.220 -0.1232  0.3419  0.3958
  729MPD2    C410775   0.551   2.143  17.313 -0.3785  0.0234  0.4314
  729MPD2    C510776   0.415   2.122  17.278  0.5595 -0.0219 -0.3431
  729MPD2     H10777   0.699   2.009  17.053 -0.1187 -0.6044 -1.1706
  729MPD2    H110778   0.576   2.191  17.407 -0.9131  1.4249 -0.1430
  729MPD2    H210779   0.277   2.041  17.131 -0.3007  2.7757  0.1096
  729MPD2    H310780   0.335   2.144  17.347  1.0561 -0.9364  0.5318
  729MPD2     N10781   0.783   2.142  17.262  0.6001 -0.1084  0.3024
  729MPD2    H510782   0.793   2.180  17.356 -0.5317 -2.2141  1.2905
  729MPD2    N110783   0.433   1.959  16.958  0.1247 -0.1586 -0.7391
  729MPD2    H710784   0.333   1.950  16.941  0.1194  1.2668 -1.4672
  730TMC3    C110785   1.012   2.193  17.263 -0.5426 -0.1725 -0.0447
  730TMC3    C210786   1.116   2.228  17.181 -0.0254 -0.8241 -0.2713
  730TMC3    C310787   1.196   2.331  17.211 -0.3540 -0.2565 -0.1852
  730TMC3    C410788   0.996   2.256  17.384  0.0162 -0.3767 -0.7814
  730TMC3    C510789   1.081   2.352  17.417  0.2201  0.0151  0.5790
  730TMC3    C610790   1.175   2.399  17.329  0.4272  0.2572 -0.2006
  730TMC3     C10791   0.906   2.121  17.200  0.1189  0.4217 -0.5225
  730TMC3     O10792   0.926   2.063  17.095  0.1252 -0.3039 -0.3187
  730TMC3     H10793   1.119   2.192  17.079 -1.1488  0.2646 -0.6891
  730TMC3    H110794   0.913   2.231  17.449  0.2578 -0.2746 -0.4324
  730TMC3    H210795   1.240   2.483  17.353  1.7086 -1.3941  2.0090
  730TMC3    C710796   1.011   2.463  17.487  0.0245  0.0489 -0.1670
  730TMC3    C810797   1.274   2.391  17.103 -0.4264  0.4568 -0.5465
  730TMC3    O110798   1.074   2.538  17.562 -0.6510 -0.4272  1.2085
  730TMC3    O210799   1.291   2.320  17.003 -0.3634 -0.1128 -0.1711
  731MPD2     C10800   0.028   0.359  12.060 -0.0302  0.4674 -0.1255
  731MPD2    C110801   0.110   0.248  12.045  0.3981 -0.5788 -0.2959
  731MPD2    C210802   0.094   0.141  12.134  0.0932  0.0050 -0.7381
  731MPD2    C310803   4.721   0.151  12.234 -0.4257  0.2495 -0.0971
  731MPD2    C410804   4.647   0.267  12.244 -0.1777  0.0801 -0.0752
  731MPD2    C510805   4.644   0.361  12.152  0.7137 -0.6608  0.2900
  731MPD2     H10806   0.170   0.064  12.132  0.5272  0.5178 -4.6633
  731MPD2    H110807   4.581   0.285  12.328  0.0483 -1.5045  0.4432
  731MPD2    H210808   0.031   0.448  11.997 -0.9765  0.7144  0.1768
  731MPD2    H310809   4.580   0.448  12.164  0.4910 -0.8501  0.4721
  731MPD2     N10810   4.714   0.055  12.333  0.0272  0.2921 -0.0664
  731MPD2    H510811   0.050   4.696  12.325 -0.2683 -0.1575  2.1213
  731MPD2    N110812   0.218   0.255  11.949 -0.4663  0.1899 -0.1263
  731MPD2    H710813   0.214   0.341  11.896  2.3779  0.4916  0.1774
  732TMC3    C110814   0.412   0.197  11.822 -0.6375  0.5711  0.1483
  732TMC3    C210815   0.367   0.249  11.706 -0.2253  0.1358  0.2025
  732TMC3    C310816   0.425   0.227  11.584  0.2770  0.3067 -1.0748
  732TMC3    C410817   0.510   0.099  11.816  0.7188 -0.6336 -0.0419
  732TMC3    C510818   0.550   0.064  11.693  0.0037  0.3964  0.0785
  732TMC3    C610819   0.521   0.134  11.577 -0.5338 -0.1236 -0.4251
  732TMC3     C10820   0.325   0.165  11.932  0.1817 -0.1457  0.2364
  732TMC3     O10821   0.337   0.056  11.987  0.4671 -0.0438 -0.3629
  732TMC3     H10822   0.283   0.318  11.713 -2.0388 -1.8192 -2.2245
  732TMC3    H110823   0.541   0.047  11.905 -2.1182 -0.8764  0.8095
  732TMC3    H210824   0.559   0.101  11.481 -0.3903  0.6876 -0.6544
  732TMC3    C710825   0.674   4.713  11.676  0.1545  0.0553  0.5250
  732TMC3    C810826   0.327   0.215  11.478  0.8821  0.3956 -0.6294
  732TMC3    O110827   0.753   0.048  11.602  0.0109  0.2022 -0.1346
  732TMC3    O210828   0.310   0.319  11.416  0.2236 -0.0837  0.7360
  733TMC3    C110829   1.144   3.075  13.218 -0.1000 -0.6055  0.2772
  733TMC3    C210830   1.275   3.055  13.264 -0.0584 -0.1692 -0.0668
  733TMC3    C310831   1.363   3.161  13.256 -0.1689 -0.2667  0.3208
  733TMC3    C410832   1.102   3.186  13.173  0.2247 -0.3939  0.1366
  733TMC3    C510833   1.190   3.295  13.169 -0.3978  0.2001  0.8230
  733TMC3    C610834   1.321   3.281  13.205 -0.4327  0.1501 -0.1448
  733TMC3     C10835   1.038   2.979  13.244  0.1518  0.6195  0.5014
  733TMC3     O10836   0.930   2.985  13.180 -0.4339  0.3576  0.6655
  733TMC3     H10837   1.316   2.961  13.299  0.2613 -0.0253 -0.0522
  733TMC3    H110838   0.999   3.202  13.145  0.4667  1.2764  0.1538
  733TMC3    H210839   1.385   3.369  13.209  0.5558 -0.5923  0.1321
  733TMC3    C710840   1.164   3.385  13.064  0.0306  0.0884 -0.4395
  733TMC3    C810841   1.499   3.121  13.247  0.2473  0.0456 -0.0005
  733TMC3    O110842   1.047   3.419  13.046  0.4290 -0.1548  0.0134
  733TMC3    O210843   1.533   3.000  13.271 -0.0824 -0.4235  0.1387
  734MPD2     C10844   3.282   0.929  12.229 -0.3717 -0.3243 -0.2181
  734MPD2    C110845   3.296   0.811  12.152 -0.0292 -0.2576 -0.0214
  734MPD2    C210846   3.373   0.820  12.040 -0.1222  0.2675  0.1808
  734MPD2    C310847   3.428   0.938  11.999  0.3261  0.2155  1.1390
  734MPD2    C410848   3.414   1.049  12.078  0.5083 -0.4288  0.3332
  734MPD2    C510849   3.342   1.046  12.194 -0.4816 -0.6539  1.1244
  734MPD2     H10850   3.370   0.728  11.982 -1.7893  1.3773 -1.5240
  734MPD2    H110851   3.448   1.146  12.044 -2.0297  0.3001 -0.1267
  734MPD2    H210852   3.224   0.937  12.320 -1.0588  0.1591 -0.7021
  734MPD2    H310853   3.331   1.139  12.249 -0.3449 -0.0683  0.1615
  734MPD2     N10854   3.495   0.930  11.879  0.3100 -0.1981 -0.1136
  734MPD2    H510855   3.503   0.835  11.846  1.1978 -0.1561 -0.0229
  734MPD2    N110856   3.245   0.681  12.177  0.4262 -0.1760 -0.4907
  734MPD2    H710857   3.258   0.611  12.106 -1.0958 -0.9439  0.0011
  735TMC3    C110858   3.073   0.535  12.224  0.2659  0.5372  1.3208
  735TMC3    C210859   3.003   0.557  12.105 -0.0597 -0.7191  0.1484
  735TMC3    C310860   2.972   0.447  12.034  0.1820  0.4075  0.1606
  735TMC3    C410861   3.119   0.409  12.263 -0.0787  0.6612  0.1567
  735TMC3    C510862   3.085   0.307  12.177  0.3470 -0.1715 -0.4564
  735TMC3    C610863   3.009   0.326  12.067  0.3629  0.4188  0.0849
  735TMC3     C10864   3.144   0.653  12.266  0.9277 -0.4280  0.2735
  735TMC3     O10865   3.095   0.722  12.353  0.7374  0.3610 -0.1500
  735TMC3     H10866   2.987   0.655  12.062  2.1653  0.0502  1.0622
  735TMC3    H110867   3.176   0.392  12.354 -0.4252 -0.8908  0.0887
  735TMC3    H210868   2.981   0.247  11.998  1.7619 -0.1784  0.1931
  735TMC3    C710869   3.198   0.215  12.141 -0.3125  0.7479  0.1287
  735TMC3    C810870   2.951   0.465  11.895 -0.5645  0.9251  0.5826
  735TMC3    O110871   3.199   0.165  12.028  0.0180 -0.1566 -0.1839
  735TMC3    O210872   2.839   0.462  11.850 -0.4521 -0.4927  0.1308
  736MPD2     C10873   3.509   0.137  12.340  0.3588  0.0182 -0.4409
  736MPD2    C110874   3.423   0.142  12.231  0.2644 -0.1014  0.0453
  736MPD2    C210875   3.476   0.104  12.108 -0.1062 -0.1755  0.1775
  736MPD2    C310876   3.607   0.062  12.085 -1.0625  0.0644 -0.8586
  736MPD2    C410877   3.676   0.043  12.200  0.2104 -0.3067  0.7766
  736MPD2    C510878   3.629   0.087  12.323  0.2416 -0.1003  0.0228
  736MPD2     H10879   3.413   0.104  12.020 -2.5389 -0.3787  1.9063
  736MPD2    H110880   3.778   0.005  12.199  0.9202  1.6563 -0.3935
  736MPD2    H210881   3.470   0.169  12.436  1.2983 -0.4821  0.1088
  736MPD2    H310882   3.693   0.075  12.409 -0.4880  2.0126  0.8546
  736MPD2     N10883   3.669   0.034  11.963 -0.7403 -0.1644  0.2895
  736MPD2    H510884   3.765   0.001  11.959 -0.0043  1.6922  2.7895
  736MPD2    N110885   3.299   0.207  12.240 -0.5973 -0.4715 -0.0699
  736MPD2    H710886   3.277   0.231  12.336 -0.0638  2.5689 -0.7045
  737TMC3    C110887   3.704   4.722  11.746  0.1265  0.3038  0.3692
  737TMC3    C210888   3.691   0.051  11.620  0.2010  0.4920  0.5635
  737TMC3    C310889   3.807   0.062  11.546 -0.1166 -0.2101 -0.1198
  737TMC3    C410890   3.817   4.660  11.786  0.0123  0.5598  0.1339
  737TMC3    C510891   3.922   4.644  11.698  0.7073  0.1001  0.8224
  737TMC3    C610892   3.922   4.718  11.581 -0.0842  0.6430  0.1562
  737TMC3     C10893   3.613   0.047  11.842  0.5415 -0.5918  0.1429
  737TMC3     O10894   3.498   0.084  11.811  0.0648  0.3102  0.0544
  737TMC3     H10895   3.606   0.116  11.601 -0.1049  0.0243  0.3520
  737TMC3    H110896   3.812   4.594  11.872 -0.3179 -0.2085 -0.4774
  737TMC3    H210897   4.009   0.009  11.518 -0.8220  0.8261 -0.8090
  737TMC3    C710898   4.043   4.581  11.741  0.1652 -0.1512 -0.1945
  737TMC3    C810899   3.798   0.157  11.431  0.2859  1.1376 -0.3364
  737TMC3    O110900   4.051   4.550  11.859  0.3423 -0.7910 -0.1441
  737TMC3    O210901   3.706   0.235  11.430 -0.3078  1.1909  0.5579
  738MPD2     C10902   4.019   4.247  14.971  0.3568  0.4503  0.3110
  738MPD2    C110903   4.053   4.139  15.046 -0.3978  0.4643  0.3267
  738MPD2    C210904   4.184   4.119  15.096 -0.3801 -0.0477  0.0309
  738MPD2    C310905   4.278   4.217  15.062 -0.3950  0.0076 -0.2362
  738MPD2    C410906   4.240   4.327  14.983  0.3943  0.4449 -0.5673
  738MPD2    C510907   4.117   4.340  14.931 -0.3521  0.0712 -0.2383
  738MPD2     H10908   4.206   4.030  15.153  0.2538 -0.9241 -1.5764
  738MPD2    H110909   4.315   4.399  14.952 -0.0662  0.2976 -2.0015
  738MPD2    H210910   3.917   4.268  14.940  0.0761 -0.2968  0.7415
  738MPD2    H310911   4.092   4.422  14.865  0.2925 -1.1937 -2.0423
  738MPD2     N10912   4.418   4.206  15.081  0.2149  0.4558  0.7377
  738MPD2    H510913   4.467   4.284  15.038 -1.2636  1.3822  0.7484
  738MPD2    N110914   3.953   4.034  15.081  0.3951  0.7703  0.7671
  738MPD2    H710915   3.994   3.956  15.131 -1.7051  0.3097  1.7296
  739TMC3    C110916   4.616   4.082  15.083  0.2950 -0.2018  0.4462
  739TMC3    C210917   4.651   4.164  14.979 -0.4437 -0.0227  0.2980
  739TMC3    C310918   0.016   4.110  14.895  0.3147  0.4860  0.4158
  739TMC3    C410919   4.675   3.966  15.116 -0.3333  0.4602  0.5897
  739TMC3    C510920   0.045   3.919  15.028 -0.3984 -0.9819 -0.6741
  739TMC3    C610921   0.082   3.994  14.921  0.0773 -0.4844 -0.0401
  739TMC3     C10922   4.478   4.091  15.124  0.0991 -0.3102 -0.4443
  739TMC3     O10923   4.436   3.999  15.196 -0.0755 -0.1432  0.0058
  739TMC3     H10924   4.615   4.263  14.955 -0.3309 -0.1034 -0.2026
  739TMC3    H110925   4.652   3.905  15.203 -1.2447 -0.5497 -0.3674
  739TMC3    H210926   0.157   3.963  14.849  1.7546 -0.3313  1.6512
  739TMC3    C710927   0.086   3.782  15.031 -0.0196  0.5115 -0.9406
  739TMC3    C810928   0.002   4.151  14.759  0.1156  0.1076  0.7166
  739TMC3    O110929   0.172   3.756  14.951 -0.2196  0.4920 -0.0041
  739TMC3    O210930   4.615   4.202  14.730  0.0153  0.3581 -0.0854
  740TMC3    C110931   0.444   0.552  14.065 -0.3281 -0.0985  0.2178
  740TMC3    C210932   0.503   0.478  14.162  0.0476 -0.6642 -0.2351
  740TMC3    C310933   0.632   0.434  14.143  0.0496 -0.4652  0.1105
  740TMC3    C410934   0.512   0.580  13.944 -0.4503 -0.3089  0.4579
  740TMC3    C510935   0.642   0.533  13.928 -0.2143  0.5989 -1.4335
  740TMC3    C610936   0.701   0.457  14.026  0.1694  0.1421  0.3648
  740TMC3     C10937   0.312   0.623  14.075  0.1885 -0.0252 -0.6813
  740TMC3     O10938   0.270   0.688  13.980  0.1486  0.2267  0.0717
  740TMC3     H10939   0.452   0.473  14.258 -0.7675  1.8748 -0.5253
  740TMC3    H110940   0.464   0.634  13.863  3.2576  0.8243 -0.9724
  740TMC3    H210941   0.800   0.420  14.006  0.1373 -0.6690  1.7692
  740TMC3    C710942   0.685   0.484  13.794  0.4120 -0.4094 -0.6221
  740TMC3    C810943   0.704   0.372  14.254 -0.1707  0.2750 -0.3885
  740TMC3    O110944   0.784   0.414  13.783 -0.1133 -0.3619  0.0403
  740TMC3    O210945   0.818   0.332  14.221  0.0530 -0.5097  0.2532
  741TMC3    C110946   0.147   4.575  14.478  0.1342 -0.0138 -0.7997
  741TMC3    C210947   0.014   4.563  14.445 -0.3060  0.5706  0.4939
  741TMC3    C310948   4.646   4.538  14.547 -0.1664  0.5699 -0.2425
  741TMC3    C410949   0.189   4.561  14.603 -0.1647  0.1101  0.2330
  741TMC3    C510950   0.089   4.534  14.694 -0.0320 -0.4552  0.2282
  741TMC3    C610951   4.681   4.523  14.676 -0.3415  0.0473  0.0808
  741TMC3     C10952   0.253   4.581  14.379 -0.4156  0.4729  0.2824
  741TMC3     O10953   0.371   4.583  14.412 -0.0714  0.3423  0.6547
  741TMC3     H10954   4.701   4.551  14.343 -0.5715 -0.4224  0.7090
  741TMC3    H110955   0.291   4.574  14.639  0.3076 -0.5322 -0.8508
  741TMC3    H210956   4.616   4.489  14.755 -1.7722 -0.9961 -1.5365
  741TMC3    C710957   0.125   4.530  14.833  0.3399 -0.1154 -0.1152
  741TMC3    C810958   4.515   4.488  14.512 -0.6904  0.5624  0.0568
  741TMC3    O110959   0.038   4.586  14.900  0.2864 -0.7457  0.0487
  741TMC3    O210960   4.455   4.557  14.427  0.3538  0.3562  0.2468
  742TMC3    C110961   4.344   3.118  15.649 -0.7639  0.0278 -0.2697
  742TMC3    C210962   4.294   3.024  15.567  0.0496 -0.4906  0.2272
  742TMC3    C310963   4.363   3.005  15.445 -0.1491  0.1831  1.2585
  742TMC3    C410964   4.477   3.147  15.640  0.4171 -0.1911 -0.1560
  742TMC3    C510965   4.549   3.108  15.532 -0.1012 -0.0266  0.0110
  742TMC3    C610966   4.489   3.041  15.429 -0.1173 -0.0518 -0.0885
  742TMC3     C10967   4.302   3.106  15.784 -0.2337 -0.5372  0.5739
  742TMC3     O10968   4.320   3.209  15.850 -0.1366 -0.3443 -0.3653
  742TMC3     H10969   4.188   3.003  15.570 -0.1477  0.1919 -2.1764
  742TMC3    H110970   4.522   3.205  15.720 -1.2665  2.3529 -1.0622
  742TMC3    H210971   4.554   3.008  15.349 -0.3090 -1.5540  0.3791
  742TMC3    C710972   4.687   3.070  15.558 -0.3025 -0.4371 -0.7916
  742TMC3    C810973   4.306   2.954  15.320  0.3714 -0.3688  0.5746
  742TMC3    O110974   0.002   2.960  15.514 -0.1160 -0.0657  1.0012
  742TMC3    O210975   4.384   2.932  15.224 -0.1447 -0.7526 -0.4263
  743MPD2     C10976   3.423   3.277   1.437  0.6786 -0.5125 -0.2139
  743MPD2    C110977   3.385   3.362   1.331 -0.3511 -0.0476 -0.2352
  743MPD2    C210978   3.468   3.357   1.223 -0.1531  0.5073 -0.1867
  743MPD2    C310979   3.582   3.277   1.216  0.4943  0.0949 -0.0241
  743MPD2    C410980   3.620   3.210   1.326 -0.5991  0.4132  0.6796
  743MPD2    C510981   3.544   3.212   1.436  0.0075  0.5065  0.7445
  743MPD2     H10982   3.445   3.397   1.125  1.4137  2.4858  0.2608
  743MPD2    H110983   3.706   3.143   1.322  0.6046  1.8643  2.4569
  743MPD2    H210984   3.364   3.265   1.527  0.1071  2.1612 -0.2597
  743MPD2    H310985   3.574   3.164   1.529 -1.0367  1.5188  1.6002
  743MPD2     N10986   3.660   3.274   1.095 -0.4127 -0.0639  0.1103
  743MPD2    H510987   3.625   3.322   1.013 -1.0646  0.3368  0.6134
  743MPD2    N110988   3.261   3.443   1.321  0.4921 -0.4462 -0.0367
  743MPD2    H710989   3.199   3.423   1.399  1.2220  1.1822  0.9690
  744TMC3    C110990   3.098   3.581   1.217 -0.1883  0.3168  0.3239
  744TMC3    C210991   3.015   3.527   1.309 -0.5798 -0.5330 -0.4972
  744TMC3    C310992   2.886   3.578   1.305  0.2608 -0.8522  0.4800
  744TMC3    C410993   3.073   3.685   1.138 -0.0298 -0.1467  0.6798
  744TMC3    C510994   2.948   3.738   1.148 -0.3536  0.3258 -0.3680
  744TMC3    C610995   2.851   3.685   1.226 -0.3295  0.1790 -0.1244
  744TMC3     C10996   3.234   3.533   1.216 -0.3400  0.2515  0.1435
  744TMC3     O10997   3.303   3.583   1.125  0.0559  0.3995 -0.7525
  744TMC3     H10998   3.031   3.435   1.362 -2.5690 -0.8311 -0.4297
  744TMC3    H110999   3.146   3.721   1.067 -0.6111  0.9206  0.6198
  744TMC3    H211000   2.759   3.740   1.243 -0.6004 -0.0536 -0.8404
  744TMC3    C711001   2.922   3.851   1.068  0.8889  0.8445 -0.0854
  744TMC3    C811002   2.780   3.528   1.380  0.6080 -0.3851  0.5007
  744TMC3    O111003   2.988   3.863   0.969 -0.0432  0.4670  0.2776
  744TMC3    O211004   2.671   3.563   1.340  0.2530  0.0436  0.2493
  745TMC3    C111005   0.159   2.725  14.525  0.5684 -0.4909 -0.2120
  745TMC3    C211006   0.094   2.723  14.646  0.3878  1.2832 -0.3527
  745TMC3    C311007   4.683   2.737  14.653  0.2891 -0.2723  0.2789
  745TMC3    C411008   0.099   2.753  14.409  0.4718  0.1553  0.9771
  745TMC3    C511009   4.687   2.749  14.412  0.4098 -0.1812  0.0615
  745TMC3    C611010   4.618   2.744  14.531  0.4730 -0.3994  1.0232
  745TMC3     C11011   0.283   2.790  14.537  0.4792 -0.7211 -0.2222
  745TMC3     O11012   0.363   2.756  14.627 -0.4220 -0.2231  0.2266
  745TMC3     H11013   0.147   2.704  14.739 -0.5298 -0.9834 -0.2848
  745TMC3    H111014   0.161   2.776  14.324 -0.6864 -1.8204 -0.3850
  745TMC3    H211015   4.516   2.781  14.528  0.6552  0.0673  0.4901
  745TMC3    C711016   4.607   2.787  14.292 -0.4061  0.1065 -0.0289
  745TMC3    C811017   4.631   2.842  14.745 -0.3396 -0.2383 -0.5362
  745TMC3    O111018   4.487   2.791  14.306  0.2218 -0.2568  0.4910
  745TMC3    O211019   4.513   2.871  14.754 -0.2952  0.5344 -0.4356
  746TMC3    C111020   2.328   4.477  10.843  0.0577  0.0033  0.4039
  746TMC3    C211021   2.398   4.469  10.725 -0.1816  0.0692 -0.7775
  746TMC3    C311022   2.379   4.365  10.637  0.6859  0.2570  1.5931
  746TMC3    C411023   2.240   4.382  10.883 -0.6184  0.8564 -0.2016
  746TMC3    C511024   2.221   4.283  10.792  0.3491 -0.8111  0.3445
  746TMC3    C611025   2.291   4.262  10.672 -0.2893 -0.2696  0.3433
  746TMC3     C11026   2.312   4.608  10.907 -0.1955 -0.1658  0.5130
  746TMC3     O11027   2.247   4.613  11.009 -0.0927 -0.1595  0.1445
  746TMC3     H11028   2.476   4.543  10.709  0.5191 -1.2058 -3.2344
  746TMC3    H111029   2.171   4.409  10.963 -2.0901 -2.2239 -0.4544
  746TMC3    H211030   2.273   4.172  10.614 -1.5767  0.2104  0.0195
  746TMC3    C711031   2.108   4.194  10.806 -0.6171 -0.2861 -0.1978
  746TMC3    C811032   2.478   4.345  10.529 -1.0620  0.2948  0.2616
  746TMC3    O111033   2.056   4.147  10.701  0.5981  0.2491  0.3157
  746TMC3    O211034   2.504   4.234  10.485 -0.5131  0.6656 -0.1128
  747TMC3    C111035   0.102   4.325  11.194  0.5903  0.1138  1.1213
  747TMC3    C211036   4.696   4.327  11.234 -0.2053  0.3275  0.5673
  747TMC3    C311037   4.627   4.445  11.229  0.1457  0.1189 -0.2193
  747TMC3    C411038   0.168   4.436  11.143  0.1298  0.3914  0.7342
  747TMC3    C511039   0.094   4.556  11.141 -1.3943  0.0626  0.7103
  747TMC3    C611040   4.690   4.563  11.187 -0.0458 -0.3858 -0.1684
  747TMC3     C11041   0.169   4.198  11.167 -1.0180 -0.7856  0.0224
  747TMC3     O11042   0.290   4.200  11.162  0.2893  0.0015 -0.9080
  747TMC3     H11043   4.651   4.231  11.259  2.5195 -1.1532 -0.1397
  747TMC3    H111044   0.273   4.428  11.121  0.1111  3.8377 -0.6721
  747TMC3    H211045   4.638   4.656  11.206  0.6431  0.1067 -0.6925
  747TMC3    C711046   0.160   4.679  11.102  0.2999  0.0129  0.0214
  747TMC3    C811047   4.509   4.458  11.308 -0.3024  0.2668  0.0173
  747TMC3    O111048   0.096   0.059  11.095 -0.3999 -0.4648 -0.0948
  747TMC3    O211049   4.426   4.545  11.272  0.3268 -0.0939  0.0226
  748MPD2     C11050   1.853   4.184   1.893 -0.2678  0.0861 -0.3419
  748MPD2    C111051   1.979   4.159   1.940  0.2264  0.4593  0.3367
  748MPD2    C211052   2.081   4.248   1.922 -0.0192  0.0499  0.0413
  748MPD2    C311053   2.054   4.351   1.838 -0.3601 -0.1095 -0.5537
  748MPD2    C411054   1.925   4.374   1.789 -0.3029 -0.4088 -0.5264
  748MPD2    C511055   1.825   4.292   1.822 -0.0988  0.2151  0.0539
  748MPD2     H11056   2.185   4.228   1.948 -0.3472 -2.3027 -0.3990
  748MPD2    H111057   1.904   4.464   1.733  2.6006 -0.4814 -1.7486
  748MPD2    H211058   1.771   4.116   1.915  0.6139 -0.9073 -0.1213
  748MPD2    H311059   1.727   4.318   1.783  1.5266  4.3770 -1.1857
  748MPD2     N11060   2.163   4.432   1.798  0.7301  0.3141 -0.0686
  748MPD2    H511061   2.255   4.409   1.837  0.6083 -0.5781 -0.2932
  748MPD2    N111062   1.995   4.045   2.017 -0.3877 -0.6206  0.6257
  748MPD2    H711063   1.919   3.977   2.017 -2.1430  1.3324 -1.1903
  749TMC3    C111064   2.295   4.589   1.692  0.3822  0.0995  0.3002
  749TMC3    C211065   2.408   4.510   1.707  0.3564  0.5883 -0.8614
  749TMC3    C311066   2.533   4.564   1.684 -0.6264  0.0861  0.0964
  749TMC3    C411067   2.304   4.719   1.654  0.1637  0.4888  0.1235
  749TMC3    C511068   2.428   0.045   1.629 -0.1474  0.4907  0.0657
  749TMC3    C611069   2.540   4.693   1.643  0.7817  0.3339 -0.0520
  749TMC3     C11070   2.162   4.541   1.712  0.1842 -0.1003 -0.4851
  749TMC3     O11071   2.068   4.614   1.676 -0.0735  0.0287  0.0084
  749TMC3     H11072   2.404   4.404   1.727 -3.0732  0.8868  0.0529
  749TMC3    H111073   2.218   0.062   1.652 -0.5688 -0.4358  1.4380
  749TMC3    H211074   2.637   0.017   1.651  0.0102  2.2063 -1.7033
  749TMC3    C711075   2.437   0.188   1.605 -0.7160  0.2007  0.4527
  749TMC3    C811076   2.657   4.487   1.708 -0.1344 -0.4996  0.3021
  749TMC3    O111077   2.334   0.255   1.616  0.0655  0.4345 -0.0872
  749TMC3    O211078   2.648   4.399   1.787 -0.0743 -0.1060  0.3833
  750MPD2     C11079   2.511   1.660  11.628  0.2709  0.0187  0.7721
  750MPD2    C111080   2.428   1.662  11.523 -0.3624  0.8557 -0.5147
  750MPD2    C211081   2.397   1.539  11.457  0.0481  0.1771 -0.1291
  750MPD2    C311082   2.455   1.419  11.494  0.2691 -0.6529  0.7921
  750MPD2    C411083   2.549   1.423  11.591 -0.0628  0.3016 -0.2434
  750MPD2    C511084   2.572   1.547  11.653  0.3475  0.2469 -0.2376
  750MPD2     H11085   2.332   1.534  11.370  1.1931 -2.7504 -0.8216
  750MPD2    H111086   2.603   1.335  11.624 -0.2272  0.2194 -0.1901
  750MPD2    H211087   2.553   1.745  11.681 -0.4365  0.7606  0.1442
  750MPD2    H311088   2.648   1.543  11.730 -1.8098 -0.3345  1.8658
  750MPD2     N11089   2.420   1.292  11.433 -0.0633 -0.4642  0.1212
  750MPD2    H511090   2.480   1.213  11.453 -0.9037 -1.1460 -0.0636
  750MPD2    N111091   2.364   1.780  11.487 -0.4364  0.3315  0.2603
  750MPD2    H711092   2.397   1.872  11.514 -0.2578 -0.1168  1.5804
  751TMC3    C111093   2.303   1.141  11.297  0.6409 -0.4715  0.5600
  751TMC3    C211094   2.179   1.093  11.260 -0.4778  0.5112 -0.0340
  751TMC3    C311095   2.179   0.987  11.173 -0.2788 -0.4586  0.1441
  751TMC3    C411096   2.419   1.078  11.261  0.1188 -0.8097  0.4647
  751TMC3    C511097   2.406   0.964  11.180 -0.5382 -0.9466 -0.0568
  751TMC3    C611098   2.283   0.912  11.137  0.4311 -0.8556 -0.7680
  751TMC3     C11099   2.309   1.273  11.362  0.3651 -0.1964  0.0040
  751TMC3     O11100   2.209   1.341  11.345  0.3511 -0.4619  0.0485
  751TMC3     H11101   2.092   1.157  11.249  1.3584  3.1188  0.4717
  751TMC3    H111102   2.517   1.114  11.291  0.1434 -0.9828  0.5957
  751TMC3    H211103   2.269   0.817  11.087 -0.0085 -1.4635  0.5142
  751TMC3    C711104   2.527   0.924  11.107  0.4292 -0.0755 -0.4691
  751TMC3    C811105   2.060   0.944  11.115  0.8746 -0.1040  0.8043
  751TMC3    O111106   2.607   1.011  11.086  0.2700 -0.3358  0.3091
  751TMC3    O211107   2.061   0.910  10.999  0.3616 -0.5196 -0.0748
  752TMC3    C111108   1.153   1.737  17.142  0.0200  0.6976 -0.0306
  752TMC3    C211109   1.113   1.701  17.270  0.9974 -0.4334  0.2657
  752TMC3    C311110   1.179   1.753  17.378 -0.0397 -0.8167 -0.2751
  752TMC3    C411111   1.258   1.817  17.128 -0.3603  0.1415 -0.1241
  752TMC3    C511112   1.306   1.879  17.235  0.4941 -0.6833 -0.2992
  752TMC3    C611113   1.280   1.846  17.360  0.1902 -0.6211 -0.0133
  752TMC3     C11114   1.082   1.686  17.025 -0.1593  0.1492 -0.4754
  752TMC3     O11115   0.967   1.660  17.046 -0.2389 -0.4269 -0.0202
  752TMC3     H11116   1.031   1.631  17.281 -1.1649  2.1143  0.2894
  752TMC3    H111117   1.280   1.853  17.028 -0.9764  1.5976  0.2686
  752TMC3    H211118   1.346   1.871  17.442 -0.2107 -0.5459  0.2860
  752TMC3    C711119   1.415   1.974  17.217  0.0715 -0.5002 -0.4875
  752TMC3    C811120   1.144   1.698  17.512  0.3140  0.6913  0.0607
  752TMC3    O111121   1.481   1.957  17.114  0.7243  0.2405 -0.2424
  752TMC3    O211122   1.091   1.587  17.514  0.3422 -0.3584 -0.7887
  753TMC3    C111123   3.189   2.614  13.350 -0.2017  0.4733 -0.5422
  753TMC3    C211124   3.269   2.592  13.461 -0.1228  0.3358 -0.3551
  753TMC3    C311125   3.210   2.515  13.558 -0.1231 -0.1922 -0.7610
  753TMC3    C411126   3.061   2.571  13.336  0.2974 -1.0000  0.3630
  753TMC3    C511127   3.010   2.487  13.423 -0.5075 -0.6586  0.1363
  753TMC3    C611128   3.092   2.450  13.533  0.6190  0.7656 -0.3587
  753TMC3     C11129   3.222   2.743  13.286 -0.2432  0.1180 -0.3445
  753TMC3     O11130   3.129   2.818  13.261  0.3520  0.0253 -0.0310
  753TMC3     H11131   3.369   2.633  13.470 -0.6724  1.6741 -0.2724
  753TMC3    H111132   3.006   2.619  13.256  0.0925 -0.9269  0.5459
  753TMC3    H211133   3.047   2.388  13.610  1.1894 -1.7838 -2.0692
  753TMC3    C711134   2.862   2.474  13.425 -0.6020  0.3474 -0.1758
  753TMC3    C811135   3.261   2.522  13.692 -0.0307 -0.8575  0.4867
  753TMC3    O111136   2.799   2.556  13.359 -0.4239 -0.0144 -0.0158
  753TMC3    O211137   3.223   2.431  13.760 -0.4398  0.3004 -0.6912
  754MPD2     C11138   1.952   1.060  13.167 -0.3370  0.4586 -0.1162
  754MPD2    C111139   1.895   1.181  13.119  0.7631  0.3631  0.2322
  754MPD2    C211140   1.884   1.197  12.985 -0.2151 -0.2920 -0.4938
  754MPD2    C311141   1.914   1.088  12.897 -0.6230 -0.5501  0.1495
  754MPD2    C411142   1.980   0.980  12.942 -0.6919  0.4983 -0.5664
  754MPD2    C511143   1.991   0.969  13.078 -0.0349 -0.7329 -0.0137
  754MPD2     H11144   1.839   1.286  12.942 -0.7805 -0.1839  0.3137
  754MPD2    H111145   2.012   0.901  12.876  2.3101  0.9883  0.2928
  754MPD2    H211146   1.964   1.056  13.275  0.0583  4.0570 -0.0314
  754MPD2    H311147   2.047   0.882  13.111  1.8742  0.4115 -0.1923
  754MPD2     N11148   1.886   1.110  12.766 -0.2533 -0.3261 -0.1248
  754MPD2    H511149   1.837   1.195  12.738  0.6873  1.5361  3.8242
  754MPD2    N111150   1.857   1.277  13.215 -0.6073 -0.0809 -0.6981
  754MPD2    H711151   1.855   1.253  13.314 -0.4289  0.9220 -0.4507
  755MPD2     C11152   1.290   1.725  12.643  0.1846 -0.7764  0.3097
  755MPD2    C111153   1.363   1.644  12.732  0.1309  0.5346 -0.8143
  755MPD2    C211154   1.452   1.549  12.683 -0.4593  0.9049 -0.1663
  755MPD2    C311155   1.462   1.532  12.543 -0.4934  0.3965  0.5051
  755MPD2    C411156   1.386   1.608  12.458 -0.3120 -0.4207 -0.4273
  755MPD2    C511157   1.312   1.714  12.505  0.1917  0.6475  0.6183
  755MPD2     H11158   1.515   1.501  12.756 -2.4323 -1.3006  0.0771
  755MPD2    H111159   1.406   1.596  12.352 -0.8307  0.8842 -0.6696
  755MPD2    H211160   1.233   1.811  12.675  0.1741 -0.7255  0.1541
  755MPD2    H311161   1.269   1.787  12.437 -1.2673 -0.0176  0.8277
  755MPD2     N11162   1.550   1.440  12.488 -0.2233 -0.5178 -0.5077
  755MPD2    H511163   1.544   1.439  12.387  1.0056  0.6970 -0.5934
  755MPD2    N111164   1.358   1.654  12.876 -0.0809 -0.4676  0.6593
  755MPD2    H711165   1.420   1.591  12.927 -0.6008  0.7596  2.8302
  756MPD2     C11166   2.491   2.050   9.879 -0.1304  0.4534  0.1291
  756MPD2    C111167   2.407   1.985   9.966  0.1624  0.9043  0.6620
  756MPD2    C211168   2.360   1.859   9.944 -0.4038  0.3405  0.6067
  756MPD2    C311169   2.380   1.798   9.821  0.3522  0.2316 -0.8349
  756MPD2    C411170   2.449   1.867   9.722  0.1989  0.1295 -0.4588
  756MPD2    C511171   2.508   1.990   9.756  0.2015  0.1797 -0.0933
  756MPD2     H11172   2.290   1.811  10.011  1.2047 -3.4607 -0.4161
  756MPD2    H111173   2.457   1.828   9.622  1.8930  1.0904 -0.7142
  756MPD2    H211174   2.515   2.154   9.900  0.6001  0.1555  0.7685
  756MPD2    H311175   2.551   2.050   9.677 -1.7856  0.5090 -0.9398
  756MPD2     N11176   2.325   1.668   9.796 -0.3372 -0.6668  0.0733
  756MPD2    H511177   2.267   1.627   9.869  0.6621 -3.7724 -0.9095
  756MPD2    N111178   2.366   2.037  10.091 -0.0653  0.2154 -0.0533
  756MPD2    H711179   2.287   1.991  10.135 -0.5255  1.5732  0.5389
  757MPD2     C11180   1.697   0.980  10.113 -0.4303 -0.2030 -0.7370
  757MPD2    C111181   1.672   0.960   9.976  0.5498 -0.7959  0.0450
  757MPD2    C211182   1.747   1.027   9.879  0.0709 -0.1816 -1.0567
  757MPD2    C311183   1.843   1.116   9.921  0.4736  0.3228  0.1986
  757MPD2    C411184   1.872   1.131  10.052 -0.4393  0.2155 -0.4795
  757MPD2    C511185   1.795   1.067  10.149 -0.5076  0.3582  0.6088
  757MPD2     H11186   1.731   1.002   9.775  0.5006 -3.3197 -0.3718
  757MPD2    H111187   1.949   1.188  10.104 -0.4073  0.8350 -1.2151
  757MPD2    H211188   1.656   0.914  10.189  0.6420  0.1334  0.1427
  757MPD2    H311189   1.829   1.069  10.252  2.0861 -0.6979 -0.2214
  757MPD2     N11190   1.926   1.189   9.826 -0.7727 -0.1899 -0.4214
  757MPD2    H511191   1.936   1.165   9.727 -0.0339 -2.1837  0.1222
  757MPD2    N111192   1.561   0.879   9.948  0.5312 -0.2923  0.1883
  757MPD2    H711193   1.516   0.844  10.032 -0.8590  1.3467  0.1308
  758MPD2     C11194   2.516   1.463  15.849  0.0071  0.1031 -0.2504
  758MPD2    C111195   2.577   1.492  15.972 -0.0172 -0.1923 -0.1892
  758MPD2    C211196   2.491   1.496  16.085 -0.0447 -0.4210 -0.4546
  758MPD2    C311197   2.363   1.456  16.074  0.2730  0.1034  0.5178
  758MPD2    C411198   2.311   1.416  15.952 -0.0279  0.5926 -0.1989
  758MPD2    C511199   2.381   1.433  15.837 -0.5741  0.2229 -0.1929
  758MPD2     H11200   2.522   1.524  16.185  1.7523  0.9519 -1.3898
  758MPD2    H111201   2.204   1.397  15.941 -0.1198  1.0037  0.0056
  758MPD2    H211202   2.586   1.456  15.766  0.8141 -1.4571  0.5610
  758MPD2    H311203   2.338   1.406  15.741 -0.8160 -3.2393  0.8901
  758MPD2     N11204   2.293   1.433  16.196  0.9487 -0.3934  0.1664
  758MPD2    H511205   2.337   1.464  16.282  1.0619  1.1214 -0.4472
  758MPD2    N111206   2.717   1.513  15.975  0.5286 -0.2639 -0.1068
  758MPD2    H711207   2.768   1.511  15.887  1.8897  2.4675  0.6228
  759MPD2     C11208   0.661   3.746  10.421  0.0868 -0.2012  0.7174
  759MPD2    C111209   0.690   3.669  10.310 -0.2172  0.2882 -0.2283
  759MPD2    C211210   0.723   3.733  10.194  0.3107  0.7455 -0.1186
  759MPD2    C311211   0.729   3.872  10.186  0.2638 -0.3663  0.8335
  759MPD2    C411212   0.715   3.943  10.305  0.4451 -0.3874 -0.0889
  759MPD2    C511213   0.665   3.879  10.413 -0.2613 -0.6419 -0.1551
  759MPD2     H11214   0.740   3.672  10.106  2.2587 -0.4608  1.0779
  759MPD2    H111215   0.727   4.050  10.308  0.0591 -0.3828  0.9071
  759MPD2    H211216   0.639   3.707  10.520 -0.1633 -0.9155  0.3752
  759MPD2    H311217   0.632   3.933  10.501 -3.0036 -0.2538 -1.4361
  759MPD2     N11218   0.765   3.932  10.065 -0.0451 -0.1301  0.6664
  759MPD2    H511219   0.803   3.864  10.000 -2.9611 -1.8107  0.7133
  759MPD2    N111220   0.687   3.524  10.307  0.2720 -0.1320  0.9408
  759MPD2    H711221   0.689   3.479  10.216 -1.7223  1.3996  0.1209
  760MPD2     C11222   0.535   1.643  11.690 -0.2542  0.5081 -0.2785
  760MPD2    C111223   0.637   1.677  11.595  0.2309 -0.3312  0.6456
  760MPD2    C211224   0.714   1.579  11.539 -0.0333 -0.1553 -0.7391
  760MPD2    C311225   0.688   1.448  11.575 -0.4908 -0.2837  0.6193
  760MPD2    C411226   0.596   1.421  11.669  0.3036  0.3500  0.3077
  760MPD2    C511227   0.521   1.516  11.734  0.1351  0.0661 -0.4034
  760MPD2     H11228   0.787   1.607  11.464 -0.8345  0.5285 -1.2570
  760MPD2    H111229   0.591   1.315  11.692 -1.5827  0.4069  0.2162
  760MPD2    H211230   0.476   1.718  11.740 -0.7924 -1.1073  1.4765
  760MPD2    H311231   0.461   1.504  11.823  0.5822  2.5437  0.2264
  760MPD2     N11232   0.761   1.336  11.528 -0.2310  0.7327 -0.5951
  760MPD2    H511233   0.743   1.243  11.564 -0.3720  1.5522  1.4342
  760MPD2    N111234   0.666   1.814  11.574  0.3118 -0.4294 -0.0505
  760MPD2    H711235   0.734   1.821  11.499  2.2926 -0.5826  1.7457
  761MPD2     C11236   1.598   0.738  11.156 -0.6898  0.3434  0.2424
  761MPD2    C111237   1.696   0.716  11.066  0.4017  0.1354  0.0888
  761MPD2    C211238   1.815   0.784  11.085 -0.5612  0.0785 -0.0557
  761MPD2    C311239   1.834   0.881  11.183 -0.1647  0.1539 -0.1020
  761MPD2    C411240   1.733   0.902  11.268  0.0092  0.1206  0.1679
  761MPD2    C511241   1.616   0.831  11.253 -0.5902  0.2245 -0.7102
  761MPD2     H11242   1.903   0.754  11.030  1.1860  1.6105  1.9154
  761MPD2    H111243   1.734   0.976  11.347  0.7335  1.0206 -0.6863
  761MPD2    H211244   1.503   0.690  11.135 -0.5471  0.1405  0.0612
  761MPD2    H311245   1.537   0.850  11.323  0.5565 -0.2793  0.7166
  761MPD2     N11246   1.960   0.948  11.207 -0.4134 -0.5536  0.1800
  761MPD2    H511247   1.972   1.002  11.292  0.5977 -0.1258 -0.2352
  761MPD2    N111248   1.669   0.619  10.966  0.4228 -0.0862 -0.4292
  761MPD2    H711249   1.591   0.554  10.967  0.9692 -0.7446 -0.6602
  762MPD2     C11250   2.232   0.639  10.690  0.5756 -0.3223  0.6496
  762MPD2    C111251   2.181   0.555  10.600 -0.1872  0.4861 -0.2267
  762MPD2    C211252   2.257   0.524  10.485 -0.3947  0.3548 -0.0811
  762MPD2    C311253   2.385   0.575  10.468  0.0737 -0.1405  0.3005
  762MPD2    C411254   2.439   0.642  10.576 -0.0878 -0.4587  0.3275
  762MPD2    C511255   2.361   0.688  10.682 -0.4345 -0.3612  0.5090
  762MPD2     H11256   2.222   0.455  10.411 -0.6381 -1.7445  1.9956
  762MPD2    H111257   2.540   0.680  10.569 -1.1682  2.7099  2.2444
  762MPD2    H211258   2.168   0.667  10.772 -2.2179 -0.2064 -1.5653
  762MPD2    H311259   2.407   0.752  10.757 -0.3988  2.6271 -2.0277
  762MPD2     N11260   2.455   0.519  10.363 -0.0520 -0.2236 -0.1883
  762MPD2    H511261   2.404   0.451  10.308 -0.6938 -0.6535  0.9285
  762MPD2    N111262   2.062   0.491  10.636  0.3213 -0.0215  0.2172
  762MPD2    H711263   2.009   0.541  10.708 -1.6436 -0.3451 -1.0221
  763MPD2     C11264   3.976   1.052  16.123 -0.6119  0.2391  0.3203
  763MPD2    C111265   3.908   1.173  16.092 -0.1131  0.6460  0.8294
  763MPD2    C211266   3.897   1.271  16.186  0.0757 -0.0663 -0.0812
  763MPD2    C311267   3.953   1.246  16.308  0.8805 -0.3189 -0.2628
  763MPD2    C411268   4.019   1.133  16.336  0.0482 -0.0406 -0.2551
  763MPD2    C511269   4.027   1.028  16.254 -0.0706  0.4774 -0.3141
  763MPD2     H11270   3.855   1.369  16.166  1.9183  0.7020 -0.1673
  763MPD2    H111271   4.063   1.120  16.434  0.8505 -1.1018 -0.7474
  763MPD2    H211272   4.006   0.992  16.038  2.1190 -0.1632  1.5600
  763MPD2    H311273   4.091   0.946  16.282 -0.5573  0.7667  1.6271
  763MPD2     N11274   3.940   1.331  16.422  0.7577 -0.5568 -0.1109
  763MPD2    H511275   4.003   1.314  16.499 -1.4909 -2.8450  1.1998
  763MPD2    N111276   3.866   1.194  15.952 -0.1047  0.2573  0.2393
  763MPD2    H711277   3.834   1.289  15.936 -1.2018 -0.3492 -1.2023
  764MPD2     C11278   1.887   3.724   0.125 -0.3825  0.5037 -0.0750
  764MPD2    C111279   1.942   3.622   0.046 -0.3589  0.3415 -0.3838
  764MPD2    C211280   1.940   3.497   0.107 -0.2007 -1.0041  0.4365
  764MPD2    C311281   1.888   3.468   0.234  0.6922 -0.2409 -0.0314
  764MPD2    C411282   1.833   3.568   0.304  0.5369 -0.3529  0.9241
  764MPD2    C511283   1.839   3.697   0.253  0.4989  0.9289 -0.1353
  764MPD2     H11284   1.980   3.419   0.043 -2.4960 -1.9201  0.1207
  764MPD2    H111285   1.781   3.560   0.399  1.6566 -0.5719  1.5159
  764MPD2    H211286   1.879   3.827   0.092  2.4786  0.5373 -0.6840
  764MPD2    H311287   1.807   3.774   0.321 -3.3192 -1.1585  0.4362
  764MPD2     N11288   1.879   3.338   0.285  0.0295  0.1973  0.0100
  764MPD2    H511289   1.883   3.263   0.216  0.9063  0.3615 -0.1264
  764MPD2    N111290   1.992   3.637  17.612 -0.1532 -0.1844  0.0150
  764MPD2    H711291   2.014   3.552  17.562 -1.6132 -0.2109 -0.5837
  765MPD2     C11292   1.079   0.349  15.953  0.8404  0.6013 -0.1407
  765MPD2    C111293   1.159   0.435  15.879  0.0574  0.4532  0.3003
  765MPD2    C211294   1.289   0.388  15.855  0.5973  0.3315 -0.5251
  765MPD2    C311295   1.324   0.257  15.872  0.4389 -0.3033  0.0287
  765MPD2    C411296   1.240   0.171  15.937 -0.4029  0.6791  0.3135
  765MPD2    C511297   1.121   0.219  15.988 -0.6077 -0.0356  0.4309
  765MPD2     H11298   1.366   0.455  15.817  1.4537  0.0723  0.7747
  765MPD2    H111299   1.282   0.077  15.969 -0.2337  0.9928  1.0150
  765MPD2    H211300   0.988   0.387  15.997  0.9182  1.4208 -0.6902
  765MPD2    H311301   1.053   0.155  16.043  0.3227 -0.7611  0.7298
  765MPD2     N11302   1.455   0.221  15.825  0.3514 -0.0249  0.4152
  765MPD2    H511303   1.485   0.277  15.746 -1.1528 -1.9085 -1.5290
  765MPD2    N111304   1.105   0.556  15.840  0.5346  0.4579  0.1212
  765MPD2    H711305   1.003   0.562  15.840  0.3653 -2.2520 -0.1417
  766MPD2     C11306   0.858   0.621  15.185 -0.7211  0.1194 -0.0709
  766MPD2    C111307   0.980   0.641  15.233  0.8161 -1.0969 -0.7411
  766MPD2    C211308   1.091   0.619  15.160  0.2377 -0.2692 -0.2316
  766MPD2    C311309   1.080   0.561  15.036  0.0043  0.3990 -0.1272
  766MPD2    C411310   0.957   0.545  14.983 -0.6201 -0.1858 -0.6239
  766MPD2    C511311   0.845   0.567  15.057  0.1775  0.3985 -0.0202
  766MPD2     H11312   1.185   0.645  15.208  0.7659 -2.0323 -0.2978
  766MPD2    H111313   0.947   0.484  14.894  2.4901 -0.2969 -0.9111
  766MPD2    H211314   0.772   0.631  15.249 -2.0862 -2.0214 -1.5658
  766MPD2    H311315   0.750   0.551  15.007  0.1544  1.4831 -0.3307
  766MPD2     N11316   1.190   0.538  14.949  0.0736  0.2492 -0.4053
  766MPD2    H511317   1.165   0.522  14.852  0.4512  2.3770 -0.8434
  766MPD2    N111318   1.005   0.690  15.362 -0.2414  0.5083  0.0394
  766MPD2    H711319   1.105   0.698  15.379  0.2311  0.8048 -2.8621
  767MPD2     C11320   0.728   0.836  14.858  0.1670 -0.4380 -0.1941
  767MPD2    C111321   0.864   0.843  14.845 -0.1002  0.0741  0.7424
  767MPD2    C211322   0.916   0.787  14.729 -0.5083 -0.3980 -0.0826
  767MPD2    C311323   0.840   0.745  14.621 -0.0203  0.6979  0.7784
  767MPD2    C411324   0.699   0.742  14.632  0.6593 -0.1928  0.2491
  767MPD2    C511325   0.653   0.783  14.755  0.0565 -0.5480  0.0371
  767MPD2     H11326   1.024   0.783  14.719 -0.3304  1.9471  0.8816
  767MPD2    H111327   0.631   0.720  14.550  0.8983  1.7960 -0.4978
  767MPD2    H211328   0.690   0.870  14.953  2.3392 -1.4571  1.0236
  767MPD2    H311329   0.545   0.785  14.767  0.0529  0.4680 -0.0865
  767MPD2     N11330   0.914   0.702  14.505  0.0531 -0.7993 -0.7083
  767MPD2    H511331   1.014   0.693  14.512 -0.1130 -1.2415  1.0567
  767MPD2    N111332   0.938   0.905  14.949 -0.3168  0.6890  0.0435
  767MPD2    H711333   0.891   0.958  15.021  2.0166  1.7398  0.7961
  768MPD2     C11334   2.046   3.777  10.432 -1.2643 -0.1874  1.3673
  768MPD2    C111335   2.023   3.739  10.560 -0.6139  0.0723 -0.5497
  768MPD2    C211336   2.114   3.782  10.657 -0.1724  0.6795 -0.1685
  768MPD2    C311337   2.225   3.861  10.628  0.1518  0.3923 -0.0945
  768MPD2    C411338   2.237   3.903  10.506 -0.0659 -1.0094  0.6847
  768MPD2    C511339   2.155   3.859  10.401 -0.6677  0.4608  0.0572
  768MPD2     H11340   2.089   3.761  10.760 -0.2930 -1.2040 -0.5813
  768MPD2    H111341   2.321   3.965  10.477  0.0703 -1.9883 -1.0010
  768MPD2    H211342   1.990   3.747  10.344 -1.9188  2.1557  0.9782
  768MPD2    H311343   2.173   3.900  10.302  0.6295  1.4145  0.6789
  768MPD2     N11344   2.324   3.895  10.726 -0.1703  0.0588  0.7110
  768MPD2    H511345   2.406   3.946  10.694 -0.7657 -0.3903 -1.5188
  768MPD2    N111346   1.924   3.651  10.604  0.1723  0.0717 -0.3129
  768MPD2    H711347   1.923   3.639  10.704 -1.4692  0.5647 -0.2679
  769MPD2     C11348   2.424   2.758  14.649  0.2415  0.6708 -0.0185
  769MPD2    C111349   2.479   2.667  14.731 -0.6046 -0.3972 -0.2467
  769MPD2    C211350   2.523   2.704  14.858 -0.3709 -0.7820  0.3580
  769MPD2    C311351   2.518   2.833  14.901  0.3349 -0.2172 -0.9701
  769MPD2    C411352   2.488   2.925  14.801 -0.3625  0.0568 -0.2239
  769MPD2    C511353   2.429   2.887  14.686  0.4595 -0.3124  0.8945
  769MPD2     H11354   2.556   2.629  14.928 -2.9500 -1.3262  0.9779
  769MPD2    H111355   2.481   3.030  14.824 -0.9486  0.3330 -1.6879
  769MPD2    H211356   2.375   2.738  14.555 -1.0813 -0.4221  0.8933
  769MPD2    H311357   2.383   2.968  14.632 -1.7420 -2.4048 -0.3657
  769MPD2     N11358   2.555   2.869  15.029 -0.5293  0.4459 -0.0057
  769MPD2    H511359   2.609   2.798  15.078 -0.0073  0.7832 -0.0898
  769MPD2    N111360   2.476   2.529  14.709 -0.2239  0.8341  0.1218
  769MPD2    H711361   2.527   2.467  14.771 -1.6456 -1.0169 -0.5344
  770MPD2     C11362   2.532   1.725  15.244  0.4758  0.3761 -0.4105
  770MPD2    C111363   2.466   1.672  15.134  0.0285  0.1958 -0.2660
  770MPD2    C211364   2.427   1.756  15.033  0.2719  0.1652 -0.1527
  770MPD2    C311365   2.453   1.894  15.039 -0.2927 -0.2676  1.0949
  770MPD2    C411366   2.530   1.940  15.149 -0.0810  0.2728 -0.2544
  770MPD2    C511367   2.553   1.860  15.259 -0.6522  0.1784  0.2500
  770MPD2     H11368   2.379   1.711  14.947 -1.5763 -0.7387  1.3718
  770MPD2    H111369   2.566   2.042  15.150  0.6876  0.0145 -1.4013
  770MPD2    H211370   2.564   1.662  15.326 -2.9931 -0.6058  0.1669
  770MPD2    H311371   2.607   1.900  15.344  0.8196  2.1364 -1.6168
  770MPD2     N11372   2.412   1.968  14.926  0.4340  0.2713  0.0521
  770MPD2    H511373   2.355   1.920  14.857 -0.7033  0.1841  1.0541
  770MPD2    N111374   2.439   1.534  15.128 -0.0851 -0.1048 -0.1634
  770MPD2    H711375   2.482   1.485  15.205  0.9181 -1.5388 -1.6385
  771MPD2     C11376   3.758   4.640  13.618 -0.5004  0.2741 -0.3117
  771MPD2    C111377   3.706   0.037  13.596 -0.3931 -0.7021  0.2559
  771MPD2    C211378   3.599   0.052  13.516  1.0333  0.5620 -0.2937
  771MPD2    C311379   3.551   4.672  13.430  0.3241 -0.0647  0.3998
  771MPD2    C411380   3.608   4.550  13.453  0.3592 -0.0592  0.0441
  771MPD2    C511381   3.705   4.538  13.545  0.5394 -0.1903 -0.2782
  771MPD2     H11382   3.558   0.152  13.512  0.5273  0.3193 -1.3933
  771MPD2    H111383   3.587   4.465  13.388 -1.2552  1.3608 -1.3029
  771MPD2    H211384   3.839   4.621  13.687 -1.9915  0.8380  1.6192
  771MPD2    H311385   3.751   4.440  13.550  2.2170  0.7329  2.6739
  771MPD2     N11386   3.472   4.709  13.315  0.1370 -0.1572 -0.4185
  771MPD2    H511387   3.446   0.083  13.306  1.3225  0.2691  0.7015
  771MPD2    N111388   3.780   0.149  13.641  0.0464 -0.7184  0.4364
  771MPD2    H711389   3.741   0.240  13.616 -1.2403 -1.1425  0.9078
  772MPD2     C11390   3.692   0.852  13.798 -0.4507  0.1129 -0.7013
  772MPD2    C111391   3.644   0.732  13.743 -0.4751 -0.1081  0.9940
  772MPD2    C211392   3.508   0.724  13.724  0.6442 -0.0884 -0.2877
  772MPD2    C311393   3.429   0.837  13.753 -0.2684  0.5243  0.2845
  772MPD2    C411394   3.487   0.955  13.797  0.0113 -0.4936 -0.0748
  772MPD2    C511395   3.618   0.960  13.827 -0.3335  0.1727  0.3646
  772MPD2     H11396   3.467   0.633  13.682 -1.3428  1.1658 -1.0954
  772MPD2    H111397   3.424   1.042  13.815  0.4367 -0.5821  1.9124
  772MPD2    H211398   3.796   0.877  13.819  0.1570 -1.6856 -1.5230
  772MPD2    H311399   3.666   1.055  13.850  0.7221 -0.8891  2.5303
  772MPD2     N11400   3.284   0.838  13.732 -0.6808  0.3521 -0.4102
  772MPD2    H511401   3.236   0.920  13.767  0.8635  0.9067  0.4142
  772MPD2    N111402   3.725   0.630  13.710  0.0734 -0.2559 -0.3191
  772MPD2    H711403   3.684   0.542  13.680 -0.9078  0.3126 -0.6181
  773MPD2     C11404   2.498   1.798   0.348 -0.4205 -0.0848  0.3485
  773MPD2    C111405   2.377   1.731   0.351 -0.0885 -0.7110  0.2999
  773MPD2    C211406   2.373   1.602   0.405  0.8678  0.0625  0.4619
  773MPD2    C311407   2.486   1.543   0.455 -0.6758  0.0807  0.7932
  773MPD2    C411408   2.606   1.611   0.445  0.1403  0.4134 -0.7365
  773MPD2    C511409   2.608   1.740   0.399 -0.2207  0.2813  0.0932
  773MPD2     H11410   2.280   1.546   0.412  1.1250 -0.6345 -1.9076
  773MPD2    H111411   2.696   1.572   0.490  0.4029  1.4101 -0.3879
  773MPD2    H211412   2.510   1.899   0.309  2.7598  0.3099  2.3152
  773MPD2    H311413   2.705   1.788   0.403  0.0365  0.0119 -3.0804
  773MPD2     N11414   2.488   1.417   0.512  0.0517  0.0223 -0.6924
  773MPD2    H511415   2.569   1.384   0.564 -0.6911  1.4628  1.3734
  773MPD2    N111416   2.257   1.801   0.315 -0.1168  0.7516  0.2575
  773MPD2    H711417   2.280   1.883   0.259 -0.1395 -0.6763 -1.8253
  774MPD2     C11418   1.387   0.838  13.571 -0.6600 -0.3469  0.5814
  774MPD2    C111419   1.515   0.863  13.613 -0.0148 -0.4200 -0.0356
  774MPD2    C211420   1.558   0.995  13.616 -0.3784  0.3566 -0.0693
  774MPD2    C311421   1.474   1.102  13.580 -0.8765 -0.0454 -0.2466
  774MPD2    C411422   1.350   1.071  13.526  0.2516  0.3748  0.7837
  774MPD2    C511423   1.304   0.942  13.520  0.0600 -0.2555  0.5332
  774MPD2     H11424   1.653   1.025  13.659 -1.0333  0.8174  1.0821
  774MPD2    H111425   1.285   1.145  13.481 -1.5388 -0.8101  1.4221
  774MPD2    H211426   1.358   0.734  13.566 -0.7510 -0.2628 -0.7456
  774MPD2    H311427   1.205   0.914  13.484  0.1312 -0.4421  0.4847
  774MPD2     N11428   1.543   1.222  13.572  0.2234  0.4295 -0.4905
  774MPD2    H511429   1.639   1.217  13.605  0.2361 -1.1876 -0.7625
  774MPD2    N111430   1.598   0.755  13.658  0.3239  0.2506  0.0225
  774MPD2    H711431   1.559   0.662  13.655  0.1844  0.3214 -0.3950
  775MPD2     C11432   3.017   2.234  15.901 -0.0653 -0.4169  0.1429
  775MPD2    C111433   3.052   2.343  15.977 -0.3736  0.1260  0.1892
  775MPD2    C211434   3.141   2.437  15.924  0.2148 -0.6345  0.6843
  775MPD2    C311435   3.188   2.423  15.795 -0.1404  0.2068 -1.2397
  775MPD2    C411436   3.152   2.315  15.720 -0.0824  0.0005  0.3443
  775MPD2    C511437   3.066   2.229  15.779 -0.0480  0.5174 -0.5415
  775MPD2     H11438   3.159   2.530  15.976  1.5224 -1.0950  1.0321
  775MPD2    H111439   3.178   2.295  15.617  2.6370  1.8396  0.6982
  775MPD2    H211440   2.960   2.157  15.952  0.1326 -1.3587 -1.0598
  775MPD2    H311441   3.038   2.145  15.716  0.5713 -1.4323  1.7495
  775MPD2     N11442   3.278   2.509  15.734 -0.5355  0.3636  0.2876
  775MPD2    H511443   3.307   2.485  15.640  0.2571 -1.0477  0.8968
  775MPD2    N111444   2.984   2.350  16.101  0.0626  0.1609 -0.9087
  775MPD2    H711445   2.921   2.275  16.127 -1.0456  1.2358 -0.4676
  776MPD2     C11446   2.469   2.237  11.822  0.2461  0.7472 -0.0718
  776MPD2    C111447   2.426   2.299  11.708  0.1678  0.3719  0.3164
  776MPD2    C211448   2.456   2.432  11.689  0.3314 -0.0916  0.2933
  776MPD2    C311449   2.531   2.502  11.780 -0.2636 -0.3720  0.1446
  776MPD2    C411450   2.584   2.442  11.889 -0.0332 -0.1281  0.2165
  776MPD2    C511451   2.552   2.309  11.906  0.7403 -0.4583  0.4200
  776MPD2     H11452   2.424   2.489  11.603  1.1534  0.1545  0.1509
  776MPD2    H111453   2.648   2.492  11.961 -4.4942  1.2285  3.2214
  776MPD2    H211454   2.437   2.138  11.853 -0.4098  0.7735 -0.6565
  776MPD2    H311455   2.593   2.258  11.992 -1.5740 -2.9241  0.0676
  776MPD2     N11456   2.564   2.639  11.761  0.5231  0.3465 -0.2097
  776MPD2    H511457   2.640   2.668  11.822 -0.3208 -0.5484  1.2638
  776MPD2    N111458   2.343   2.219  11.626 -0.3183  0.2377  0.1553
  776MPD2    H711459   2.322   2.127  11.661 -1.9703  1.4117  2.2181
  777MPD2     C11460   3.371   0.016   0.567  0.0218 -0.4318  0.1814
  777MPD2    C111461   3.332   4.635   0.645 -0.5023  0.4863  0.0761
  777MPD2    C211462   3.219   4.559   0.614  0.6031  0.7338 -0.2943
  777MPD2    C311463   3.145   4.586   0.501 -0.2823  0.2599 -0.0465
  777MPD2    C411464   3.182   4.693   0.420 -0.5196  0.9031 -0.4129
  777MPD2    C511465   3.296   0.046   0.451  0.5658  0.1402 -0.4958
  777MPD2     H11466   3.182   4.490   0.689  0.4860  1.2284  0.1061
  777MPD2    H111467   3.127   4.712   0.328 -0.4253  0.2406 -0.6115
  777MPD2    H211468   3.457   0.075   0.599  0.1281 -0.4632 -0.0449
  777MPD2    H311469   3.313   0.124   0.378  3.7281 -1.1092 -1.1024
  777MPD2     N11470   3.030   4.507   0.495 -0.6281 -0.0388 -1.0995
  777MPD2    H511471   3.014   4.443   0.573 -0.7328  0.1188 -0.9924
  777MPD2    N111472   3.392   4.620   0.776 -0.2447  0.2268 -0.7916
  777MPD2    H711473   3.449   4.696   0.811 -1.1857  0.5988 -0.0596
  778MPD2     C11474   3.869   0.515  14.649 -0.1254  0.4345  0.3615
  778MPD2    C111475   3.902   0.385  14.621  0.2860  0.1345  0.3578
  778MPD2    C211476   3.997   0.363  14.518 -0.4554  0.4738 -0.3303
  778MPD2    C311477   4.050   0.467  14.445  0.2979 -0.0086 -0.3673
  778MPD2    C411478   4.010   0.592  14.478 -0.3158 -0.3399  0.8183
  778MPD2    C511479   3.924   0.614  14.573 -0.2726 -0.1690 -0.0968
  778MPD2     H11480   4.034   0.264  14.497  0.3842  0.6178  0.4631
  778MPD2    H111481   4.028   0.675  14.410 -1.8730 -1.3678 -0.8236
  778MPD2    H211482   3.803   0.532  14.733  0.2299  1.0226  0.5222
  778MPD2    H311483   3.896   0.718  14.583 -2.1999 -0.8467  1.5438
  778MPD2     N11484   4.153   0.435  14.352  0.0419  0.4734  0.4093
  778MPD2    H511485   4.163   0.337  14.325  0.2145  0.8855 -0.9822
  778MPD2    N111486   3.836   0.278  14.676  0.3075  0.5316  0.3014
  778MPD2    H711487   3.844   0.189  14.628 -2.0545  1.7542 -2.3752
  779MPD2     C11488   3.703   3.705  13.821 -0.3256  0.3060  0.1374
  779MPD2    C111489   3.783   3.695  13.932 -0.2369  0.6048 -0.2173
  779MPD2    C211490   3.803   3.816  14.004 -0.3745 -0.6359 -0.3066
  779MPD2    C311491   3.761   3.945  13.962  0.2620  0.1461  0.5130
  779MPD2    C411492   3.692   3.949  13.842  0.4714 -0.1174 -0.0654
  779MPD2    C511493   3.662   3.831  13.773 -0.4343 -0.4734  0.1887
  779MPD2     H11494   3.857   3.815  14.098 -1.0298 -0.4937  0.0705
  779MPD2    H111495   3.665   4.043  13.794  0.6743 -0.2048 -0.3486
  779MPD2    H211496   3.671   3.613  13.773 -0.3413  0.2923  0.1739
  779MPD2    H311497   3.612   3.833  13.676 -0.8171  1.2239  0.4179
  779MPD2     N11498   3.805   4.063  14.027 -0.2125 -0.5324  0.4121
  779MPD2    H511499   3.882   4.059  14.093 -2.6146  0.7756  3.3122
  779MPD2    N111500   3.828   3.575  13.991  0.5085 -0.0414 -0.3683
  779MPD2    H711501   3.834   3.577  14.092  1.9548 -0.8757 -0.4475
  780MPD2     C11502   3.306   3.648   0.457 -0.4969 -0.4115  0.1704
  780MPD2    C111503   3.177   3.672   0.420  0.1333 -0.2212 -0.7808
  780MPD2    C211504   3.149   3.743   0.300  0.6907 -0.4569 -0.3951
  780MPD2    C311505   3.252   3.804   0.228  0.1062 -0.1330 -0.4720
  780MPD2    C411506   3.382   3.792   0.279  0.7834  0.0338 -0.3025
  780MPD2    C511507   3.403   3.723   0.395  0.7021  0.0218  0.3486
  780MPD2     H11508   3.046   3.755   0.270  0.7688 -4.4460 -2.2701
  780MPD2    H111509   3.465   3.846   0.236  1.6378 -1.6430 -0.7543
  780MPD2    H211510   3.325   3.595   0.550  0.9892 -1.0906 -0.5086
  780MPD2    H311511   3.504   3.711   0.433  1.2865  0.3286 -1.1066
  780MPD2     N11512   3.224   3.879   0.111  0.2361 -0.2431 -0.3148
  780MPD2    H511513   3.127   3.885   0.080  0.2068 -0.9489 -0.3513
  780MPD2    N111514   3.077   3.626   0.516 -0.3034  0.6988  0.3074
  780MPD2    H711515   3.104   3.590   0.607  1.0054 -1.2906 -0.8629
  781MPD2     C11516   4.664   0.544  11.776  0.1217 -0.7719 -0.1478
  781MPD2    C111517   0.014   0.663  11.780 -0.0634  0.2920 -0.2473
  781MPD2    C211518   0.119   0.679  11.688  0.7946 -1.1947  0.6109
  781MPD2    C311519   0.161   0.579  11.599 -0.1237  0.7058  0.3383
  781MPD2    C411520   0.079   0.468  11.595 -0.1021  0.2572 -0.1623
  781MPD2    C511521   4.699   0.451  11.682 -0.9693  0.1709 -0.0568
  781MPD2     H11522   0.166   0.776  11.685 -2.2589  0.2648 -0.5210
  781MPD2    H111523   0.088   0.387  11.523  2.9186  0.7739 -0.3451
  781MPD2    H211524   4.577   0.513  11.832 -0.0154 -0.1506 -0.0236
  781MPD2    H311525   4.644   0.357  11.680 -1.0085  0.1835  0.4576
  781MPD2     N11526   0.264   0.593  11.503 -0.6511  0.2866  0.6075
  781MPD2    H511527   0.270   0.523  11.430 -0.8974  0.1109  0.7572
  781MPD2    N111528   4.710   0.760  11.884 -0.2948  0.5000  0.2966
  781MPD2    H711529   0.046   0.841  11.896 -0.6345  0.8212 -0.2198
  782MPD2     C11530   2.674   1.270  10.285 -0.2681  0.3689 -0.5496
  782MPD2    C111531   2.798   1.258  10.346  0.3981  0.1500  0.5438
  782MPD2    C211532   2.834   1.353  10.443 -0.2470 -0.5807  0.1132
  782MPD2    C311533   2.761   1.463  10.461  0.4595 -0.3044 -0.1028
  782MPD2    C411534   2.647   1.478  10.389  0.5051 -0.4643  0.4275
  782MPD2    C511535   2.599   1.381  10.306  0.6530  0.0616  0.2959
  782MPD2     H11536   2.926   1.344  10.498 -0.5762 -1.1936  0.5709
  782MPD2    H111537   2.582   1.564  10.403  1.0196  0.1764 -1.1032
  782MPD2    H211538   2.640   1.202  10.207  4.1168 -0.9135 -1.3600
  782MPD2    H311539   2.505   1.389  10.252  0.7241  1.5270  0.3820
  782MPD2     N11540   2.797   1.552  10.561  0.3415  0.1564 -0.0579
  782MPD2    H511541   2.763   1.648  10.559  1.2904  0.5211  1.6511
  782MPD2    N111542   2.866   1.133  10.336  0.5007 -0.1627  0.2593
  782MPD2    H711543   2.822   1.051  10.297  2.0041 -1.6201  1.6603
  783MPD2     C11544   2.592   0.597  10.967 -0.1590  0.8099 -0.2395
  783MPD2    C111545   2.593   0.732  10.965 -0.8593  0.4126 -0.4273
  783MPD2    C211546   2.681   0.799  10.882 -0.2204 -0.2239  0.6703
  783MPD2    C311547   2.778   0.732  10.813  0.1048 -0.5431  0.2052
  783MPD2    C411548   2.795   0.594  10.841  0.3519 -0.1860  0.0349
  783MPD2    C511549   2.698   0.531  10.909  0.2153  0.0012 -0.1441
  783MPD2     H11550   2.680   0.905  10.860  1.4646 -0.3535 -0.0598
  783MPD2    H111551   2.878   0.540  10.798  1.6544  0.7090  1.4321
  783MPD2    H211552   2.512   0.551  11.024  0.5421  0.6135  0.5847
  783MPD2    H311553   2.715   0.426  10.929 -0.2026 -0.0508 -0.0500
  783MPD2     N11554   2.870   0.801  10.718  0.2133 -0.0951  0.2229
  783MPD2    H511555   2.851   0.891  10.675 -0.1874 -1.6719 -2.8663
  783MPD2    N111556   2.504   0.801  11.050 -0.3827  0.5392  0.0847
  783MPD2    H711557   2.424   0.752  11.088 -0.9360  0.5201 -1.1188
  784MPD2     C11558   0.921   1.724   0.489  0.4290  0.7653  0.7637
  784MPD2    C111559   0.913   1.820   0.590 -0.3053  0.0798  0.0311
  784MPD2    C211560   0.797   1.893   0.600  0.1323  0.0663  0.4912
  784MPD2    C311561   0.697   1.882   0.507  0.7822  0.6679  0.4983
  784MPD2    C411562   0.716   1.805   0.393 -0.5809 -0.1464 -0.3797
  784MPD2    C511563   0.825   1.727   0.391 -0.4370 -0.4563  0.0037
  784MPD2     H11564   0.791   1.963   0.682 -0.2624  0.0602  0.4710
  784MPD2    H111565   0.653   1.803   0.305  0.0967 -0.4793 -0.8624
  784MPD2    H211566   1.006   1.661   0.468  0.6895  1.5170 -0.4188
  784MPD2    H311567   0.837   1.656   0.310 -0.6229 -0.1663 -0.2803
  784MPD2     N11568   0.596   1.986   0.522  0.3620  0.0679 -0.5426
  784MPD2    H511569   0.583   2.026   0.614  1.2428  0.3002 -0.5148
  784MPD2    N111570   0.998   1.831   0.704  0.2310  0.4450 -0.0062
  784MPD2    H711571   0.978   1.896   0.779 -0.7455 -1.3622  1.3022
  785MPD2     C11572   0.501   4.018  10.890  0.0799 -0.6515  0.2274
  785MPD2    C111573   0.388   4.067  10.831 -0.5067 -0.2248 -0.3857
  785MPD2    C211574   0.319   3.980  10.751 -0.0667  0.1687 -0.5641
  785MPD2    C311575   0.363   3.850  10.721  0.3546 -0.0598  0.3036
  785MPD2    C411576   0.485   3.803  10.775 -0.3550 -0.2447  0.1307
  785MPD2    C511577   0.550   3.888  10.862  0.2399  0.2187  0.4523
  785MPD2     H11578   0.229   4.006  10.696 -0.2660 -2.0179 -1.2680
  785MPD2    H111579   0.525   3.704  10.754  0.2855  0.6831 -2.9594
  785MPD2    H211580   0.554   4.074  10.966 -4.9313  1.2014  2.3336
  785MPD2    H311581   0.645   3.857  10.903 -1.0040 -2.3993  1.3463
  785MPD2     N11582   0.284   3.781  10.627  0.5065 -0.1409  0.1431
  785MPD2    H511583   0.204   3.830  10.589  1.1156  0.1653 -0.7261
  785MPD2    N111584   0.359   4.200  10.851 -0.4928 -0.1324  0.2284
  785MPD2    H711585   0.415   4.249  10.920  1.1627 -0.0733 -1.1693
  786MPD2     C11586   3.930   2.772  15.019 -0.0103  0.4262  0.5731
  786MPD2    C111587   4.066   2.768  15.001 -0.2584 -0.4835 -0.0333
  786MPD2    C211588   4.143   2.829  15.094  0.4748 -0.4200  0.0072
  786MPD2    C311589   4.093   2.886  15.210  0.0421 -0.2512  0.1409
  786MPD2    C411590   3.958   2.873  15.227  0.1184  0.6038  0.2436
  786MPD2    C511591   3.874   2.818  15.138  0.7962  0.4871 -0.1832
  786MPD2     H11592   4.251   2.821  15.085  0.3838 -2.6029  0.7534
  786MPD2    H111593   3.898   2.899  15.313 -1.0665  1.8901 -0.9649
  786MPD2    H211594   3.853   2.730  14.955 -0.3210 -0.0946  1.3010
  786MPD2    H311595   3.771   2.799  15.166  0.7407 -1.4558 -1.6862
  786MPD2     N11596   4.166   2.944  15.320 -0.4321  0.2794 -0.5247
  786MPD2    H511597   4.116   2.972  15.404 -1.2963  2.1116 -1.6524
  786MPD2    N111598   4.122   2.690  14.906 -0.6312  0.1123  0.5645
  786MPD2    H711599   4.223   2.688  14.903 -0.5879 -0.1679  1.8373
  787MPD2     C11600   4.490   2.131  14.936 -0.4996  0.9286  0.2892
  787MPD2    C111601   4.527   2.190  14.819  0.6792 -0.2064  0.0647
  787MPD2    C211602   4.621   2.132  14.739 -0.6494 -0.1697 -1.1403
  787MPD2    C311603   4.707   2.037  14.785  0.0893 -0.1678  0.2991
  787MPD2    C411604   4.679   1.987  14.913 -0.0014 -0.4248 -0.0423
  787MPD2    C511605   4.572   2.033  14.991  0.8222 -0.9375  0.0420
  787MPD2     H11606   4.639   2.170  14.639  1.2101  0.4164 -0.5740
  787MPD2    H111607   0.007   1.898  14.948  1.2346  0.2021 -0.2949
  787MPD2    H211608   4.408   2.165  14.998 -1.5028  0.1941 -0.6313
  787MPD2    H311609   4.559   1.986  15.087 -0.4886 -1.6478 -0.4813
  787MPD2     N11610   0.089   1.986  14.699 -0.1821 -0.0433 -0.5088
  787MPD2    H511611   0.100   2.041  14.615 -0.1244  1.2380  0.3473
  787MPD2    N111612   4.443   2.297  14.788  0.2092  0.6912  0.2588
  787MPD2    H711613   4.368   2.321  14.853 -0.2159 -1.6512  0.6215
  788MPD2     C11614   2.087   0.980   0.748 -0.6322 -0.0400 -0.7649
  788MPD2    C111615   1.959   0.942   0.776  0.8239 -0.1833 -0.0767
  788MPD2    C211616   1.861   1.021   0.724 -0.4825 -0.1647 -0.2484
  788MPD2    C311617   1.887   1.125   0.637  0.1761 -0.0241  0.5258
  788MPD2    C411618   2.018   1.159   0.614 -0.3191 -0.1204  0.4807
  788MPD2    C511619   2.116   1.086   0.672  0.0693 -0.3091 -0.1444
  788MPD2     H11620   1.766   0.974   0.743 -0.0791 -1.7075 -2.0099
  788MPD2    H111621   2.045   1.248   0.559  0.2344  0.1212  1.1471
  788MPD2    H211622   2.175   0.924   0.778 -1.4205 -1.8217 -1.7724
  788MPD2    H311623   2.219   1.107   0.644  0.8771 -3.3020  0.5362
  788MPD2     N11624   1.786   1.197   0.566 -0.1064 -1.0641 -0.2272
  788MPD2    H511625   1.820   1.265   0.499 -0.6916 -2.6038 -2.0943
  788MPD2    N111626   1.921   0.827   0.848  0.4164 -0.1781 -0.0819
  788MPD2    H711627   1.820   0.811   0.854  0.2346  1.4775  1.0912
  789MPD2     C11628   1.513   0.806  16.276  0.2764 -0.5576 -0.4096
  789MPD2    C111629   1.446   0.779  16.397  0.1622 -0.5624 -0.1348
  789MPD2    C211630   1.373   0.881  16.460 -0.5408 -0.5161 -0.0182
  789MPD2    C311631   1.372   1.005  16.403 -0.3222  0.2469  0.1051
  789MPD2    C411632   1.427   1.030  16.281  0.5397  0.1775  0.1542
  789MPD2    C511633   1.495   0.929  16.213 -0.1272  0.5027 -0.5594
  789MPD2     H11634   1.327   0.856  16.555  0.7864 -0.7743  0.5622
  789MPD2    H111635   1.412   1.124  16.229  3.5693 -0.9475 -2.8241
  789MPD2    H211636   1.573   0.734  16.221  0.5168 -0.1080 -0.7329
  789MPD2    H311637   1.537   0.945  16.114  2.0737 -1.0682  0.1087
  789MPD2     N11638   1.309   1.108  16.474 -0.2742  0.2585  0.3990
  789MPD2    H511639   1.290   1.194  16.423 -0.3321  0.6684  1.0993
  789MPD2    N111640   1.461   0.656  16.470  0.3256  0.2375  0.1570
  789MPD2    H711641   1.415   0.650  16.560  0.3650 -2.2908  0.0191
  790MPD2     C11642   2.667   3.064  13.636  0.4324 -0.5272 -0.3730
  790MPD2    C111643   2.743   2.950  13.626  0.4827  0.3231  0.3934
  790MPD2    C211644   2.692   2.854  13.542 -0.2201  0.0792 -0.1057
  790MPD2    C311645   2.577   2.874  13.464 -0.2338 -0.4955  0.0672
  790MPD2    C411646   2.518   2.993  13.462 -0.5387  0.8193 -0.2254
  790MPD2    C511647   2.561   3.084  13.557 -0.0925 -0.3632 -0.1312
  790MPD2     H11648   2.732   2.754  13.525 -1.5492 -0.5184  0.2721
  790MPD2    H111649   2.432   3.020  13.401 -0.3795  0.5279 -0.5795
  790MPD2    H211650   2.700   3.141  13.705  3.0208  0.4718 -2.6970
  790MPD2    H311651   2.510   3.180  13.563  0.2848 -0.0550 -1.5763
  790MPD2     N11652   2.542   2.773  13.368 -0.4752  0.0097  0.5546
  790MPD2    H511653   2.604   2.693  13.366 -0.6865 -0.1108 -0.7994
  790MPD2    N111654   2.854   2.930  13.717  0.1898  0.1987 -0.3183
  790MPD2    H711655   2.873   3.009  13.777 -2.4228  0.9767 -0.5094
  791MPD2     C11656   1.886   2.691  12.923 -0.4461 -0.0275  0.1524
  791MPD2    C111657   1.941   2.568  12.935  0.2864  0.3702 -0.3068
  791MPD2    C211658   1.878   2.452  12.887 -0.0488 -0.3214  0.1958
  791MPD2    C311659   1.758   2.465  12.824  0.4424 -0.3348  0.2617
  791MPD2    C411660   1.709   2.594  12.792  0.4611 -0.0729 -0.0273
  791MPD2    C511661   1.768   2.705  12.850  0.2638  0.9659  0.1105
  791MPD2     H11662   1.924   2.354  12.902 -1.2853 -0.8256  0.6576
  791MPD2    H111663   1.624   2.607  12.726  0.0061  0.7564  0.7214
  791MPD2    H211664   1.939   2.777  12.963  0.0120 -1.0722  1.8011
  791MPD2    H311665   1.719   2.800  12.835  1.1962  1.3232 -0.7292
  791MPD2     N11666   1.696   2.350  12.772  0.3366 -0.0605 -0.0631
  791MPD2    H511667   1.746   2.262  12.775 -0.0601 -0.3729 -2.0866
  791MPD2    N111668   2.055   2.564  13.028 -0.1900  0.1937 -0.5051
  791MPD2    H711669   2.102   2.654  13.038 -0.7755  0.6062 -1.5192
  792MPD2     C11670   2.700   1.989  11.362 -0.4569  0.7653  0.2595
  792MPD2    C111671   2.596   2.006  11.287 -0.1812  0.0995 -0.9356
  792MPD2    C211672   2.549   1.901  11.208 -0.0681 -0.2805 -0.6200
  792MPD2    C311673   2.604   1.778  11.222 -0.7692  0.3696  0.3605
  792MPD2    C411674   2.713   1.757  11.295 -0.6034  0.3252 -0.0167
  792MPD2    C511675   2.764   1.870  11.360 -0.0325 -0.1494  0.0690
  792MPD2     H11676   2.463   1.921  11.146 -1.6073 -1.5887  1.0946
  792MPD2    H111677   2.760   1.662  11.318  1.2563  0.7596 -2.0042
  792MPD2    H211678   2.748   2.076  11.407  0.5049 -0.9588  2.5206
  792MPD2    H311679   2.860   1.871  11.412 -0.3653  0.0860  0.6729
  792MPD2     N11680   2.537   1.666  11.159 -0.2225 -0.5514 -0.3643
  792MPD2    H511681   2.592   1.581  11.164 -0.2422 -0.5766 -0.5629
  792MPD2    N111682   2.553   2.136  11.264 -0.4919 -0.0412  0.1685
  792MPD2    H711683   2.611   2.213  11.298  0.5690 -0.9512  0.4248
  793MPD2     C11684   1.904   1.803  10.607  0.0321 -0.1706  0.3752
  793MPD2    C111685   2.027   1.846  10.668 -0.1301  0.1966 -1.1386
  793MPD2    C211686   2.059   1.772  10.781 -0.0753  0.1764 -0.4924
  793MPD2    C311687   1.997   1.652  10.822  0.4375  0.0591 -0.9759
  793MPD2    C411688   1.887   1.605  10.759 -0.1886 -0.7166 -0.1533
  793MPD2    C511689   1.845   1.687  10.657  0.7463 -0.2083 -1.2641
  793MPD2     H11690   2.151   1.804  10.829  0.2486  0.1058 -1.0621
  793MPD2    H111691   1.833   1.518  10.792  1.0441 -1.6273 -0.5268
  793MPD2    H211692   1.856   1.868  10.534  0.6282  0.6892  0.7539
  793MPD2    H311693   1.756   1.651  10.607  0.7960 -3.2436  0.8532
  793MPD2     N11694   2.060   1.586  10.927 -0.2594  0.6454  0.2242
  793MPD2    H511695   2.140   1.637  10.962 -0.9613  2.5608 -0.9957
  793MPD2    N111696   2.120   1.946  10.629  0.6063  0.8698 -0.8332
  793MPD2    H711697   2.198   1.950  10.694 -0.1885  0.4696  0.1487
  794MPD2     C11698   1.937   2.458   0.058 -0.4513  0.4909 -0.2080
  794MPD2    C111699   1.982   2.373  17.652 -0.3896 -0.1242 -0.2074
  794MPD2    C211700   1.988   2.409  17.518 -0.2821  0.1319 -0.3652
  794MPD2    C311701   1.947   2.539  17.482 -0.5518  0.0860 -0.2873
  794MPD2    C411702   1.900   2.621  17.583  0.0252  1.1224  0.4255
  794MPD2    C511703   1.899   2.582   0.019  0.0365  0.3033 -0.2454
  794MPD2     H11704   2.016   2.337  17.442 -1.9875 -0.5827 -0.3250
  794MPD2    H111705   1.869   2.724  17.571 -0.4203  1.0070  0.5770
  794MPD2    H211706   1.937   2.426   0.161 -0.8052 -0.6391 -0.5586
  794MPD2    H311707   1.870   2.655   0.094  0.9887  0.7860 -0.3358
  794MPD2     N11708   1.953   2.588  17.347 -0.0950 -0.1437  0.1864
  794MPD2    H511709   1.925   2.685  17.335  0.8165 -0.1857 -2.2944
  794MPD2    N111710   2.018   2.236  17.681 -0.1466 -0.0163 -0.5797
  794MPD2    H711711   2.046   2.180  17.601 -2.5596 -1.4346 -0.4325
  795MPD2     C11712   4.649   4.174  13.863 -0.7753 -0.2606  0.1432
  795MPD2    C111713   4.601   4.064  13.801  1.1682 -0.4051  0.7631
  795MPD2    C211714   4.683   3.946  13.812  0.6768  0.3813  0.1844
  795MPD2    C311715   0.076   3.946  13.880 -0.4200 -0.4423  0.7711
  795MPD2    C411716   0.131   4.064  13.914 -0.6784 -0.5201 -0.0054
  795MPD2    C511717   0.052   4.181  13.919 -0.3026 -0.1682  0.3624
  795MPD2     H11718   4.641   3.853  13.775 -1.3518  0.3593  2.5612
  795MPD2    H111719   0.224   4.070  13.970 -0.8089  0.9893  0.0419
  795MPD2    H211720   4.592   4.266  13.850  0.3314  0.7338  2.3025
  795MPD2    H311721   0.092   4.271  13.965  1.0566 -1.5541  1.9039
  795MPD2     N11722   0.150   3.830  13.915  0.3885 -0.2201 -0.2353
  795MPD2    H511723   0.249   3.843  13.933  0.4897  1.2331 -1.7643
  795MPD2    N111724   4.483   4.062  13.719 -0.7114  0.1725  0.3549
  795MPD2    H711725   4.478   3.983  13.655 -2.3416 -0.0036  0.6860
  796MPD2     C11726   4.288   0.855  15.839  0.1952 -0.3194 -0.2623
  796MPD2    C111727   4.328   0.901  15.959 -0.1914 -0.4497  0.3064
  796MPD2    C211728   4.321   1.034  15.981  0.3488 -0.2856  0.3195
  796MPD2    C311729   4.273   1.126  15.887 -0.2805 -0.5230 -0.0479
  796MPD2    C411730   4.226   1.077  15.768 -0.1862 -0.7479  0.0326
  796MPD2    C511731   4.239   0.942  15.748 -0.0402 -0.2469 -0.3459
  796MPD2     H11732   4.360   1.072  16.075 -0.1017  2.8238 -0.7359
  796MPD2    H111733   4.188   1.145  15.693 -0.8141  1.5184  2.4142
  796MPD2    H211734   4.296   0.752  15.808  0.5367  0.1585 -1.7649
  796MPD2    H311735   4.216   0.905  15.649  0.7562 -1.6209 -0.0252
  796MPD2     N11736   4.268   1.259  15.926 -0.2886  0.1845  0.0123
  796MPD2    H511737   4.296   1.282  16.021 -0.4964 -0.0802  0.1376
  796MPD2    N111738   4.369   0.806  16.056 -0.1536 -0.3224 -0.2064
  796MPD2    H711739   4.375   0.711  16.019 -1.7630 -0.4392 -0.1743
  797MPD2     C11740   0.746   0.570   0.048 -0.5102  0.3128  0.0272
  797MPD2    C111741   0.812   0.654  17.649 -0.1246  0.3640  0.1951
  797MPD2    C211742   0.733   0.721  17.557 -0.2093 -0.2897 -0.4735
  797MPD2    C311743   0.594   0.717  17.569 -0.4470  0.9188  0.2119
  797MPD2    C411744   0.538   0.641  17.659  0.4345  0.2732 -0.4013
  797MPD2    C511745   0.609   0.565   0.058  0.3144  0.0593 -0.2833
  797MPD2     H11746   0.776   0.765  17.467  1.5292 -0.8335  0.0826
  797MPD2    H111747   0.429   0.638  17.662  0.4673  0.7318  1.3053
  797MPD2    H211748   0.799   0.519   0.127  1.9514  1.1562 -1.0576
  797MPD2    H311749   0.562   0.496   0.127 -3.1570  0.4896 -2.2337
  797MPD2     N11750   0.512   0.792  17.482 -0.1425  1.4569 -0.3228
  797MPD2    H511751   0.412   0.775  17.490  0.5049 -0.9469  2.3539
  797MPD2    N111752   0.956   0.666  17.650 -0.4291  0.2460 -0.3939
  797MPD2    H711753   1.012   0.593  17.692 -0.6862  1.4553  2.0718
  798MPD2     C11754   0.915   1.021  16.947  0.0898 -0.2147 -0.2751
  798MPD2    C111755   0.863   1.016  17.073 -0.3139  0.8970  0.1122
  798MPD2    C211756   0.944   0.985  17.177 -0.2640  0.0953  0.8359
  798MPD2    C311757   1.069   0.930  17.151 -0.6419 -0.5027  0.0121
  798MPD2    C411758   1.122   0.953  17.029  0.5057  0.9804  0.2361
  798MPD2    C511759   1.044   1.002  16.925  0.1515 -0.0759  0.2366
  798MPD2     H11760   0.910   0.962  17.278 -1.0033 -1.0657  0.3203
  798MPD2    H111761   1.222   0.922  17.002  0.2151  0.2634 -0.0123
  798MPD2    H211762   0.854   1.034  16.858  1.4448  0.4130 -1.1145
  798MPD2    H311763   1.080   1.018  16.825 -1.5473  1.2295 -0.1567
  798MPD2     N11764   1.147   0.876  17.259 -0.0369 -0.1326  0.3949
  798MPD2    H511765   1.105   0.883  17.351 -1.6788  1.3297 -0.4826
  798MPD2    N111766   0.726   1.020  17.103 -0.8532  0.0646  0.4234
  798MPD2    H711767   0.711   0.993  17.199  1.4448  0.4716  0.8817
  799MPD2     C11768   4.387   1.738  14.859 -0.1468  0.6045  0.7595
  799MPD2    C111769   4.449   1.704  14.737 -0.8210 -0.7833 -0.1883
  799MPD2    C211770   4.428   1.788  14.630 -0.1047  0.0123  0.2409
  799MPD2    C311771   4.339   1.894  14.640 -0.1218  0.2887 -0.3314
  799MPD2    C411772   4.271   1.915  14.756  0.2790 -0.5791  0.1623
  799MPD2    C511773   4.298   1.838  14.868 -1.0123 -0.3313 -0.1864
  799MPD2     H11774   4.470   1.767  14.532 -0.6333 -1.1816  0.2708
  799MPD2    H111775   4.197   1.992  14.773  2.2951  1.6701 -1.3136
  799MPD2    H211776   4.391   1.680  14.950  2.6649  0.1795  0.3702
  799MPD2    H311777   4.249   1.846  14.965 -1.2942 -1.4500 -0.2456
  799MPD2     N11778   4.315   1.984  14.537  0.0279  0.7041  0.3387
  799MPD2    H511779   4.260   2.065  14.561  3.9800  3.5884 -0.3732
  799MPD2    N111780   4.529   1.590  14.718  0.2645  0.1686  0.2020
  799MPD2    H711781   4.579   1.596  14.630  2.1055 -1.0251  1.1572
  800MPD2     C11782   0.035   3.314  14.854 -0.1190 -0.1577  0.7784
  800MPD2    C111783   0.152   3.245  14.821  0.1555  0.3522 -0.2612
  800MPD2    C211784   0.150   3.109  14.803  0.9232 -0.1338  0.0497
  800MPD2    C311785   0.033   3.043  14.825 -0.3926 -0.6090  0.1330
  800MPD2    C411786   4.643   3.110  14.876 -0.9520 -0.2805 -0.2490
  800MPD2    C511787   4.650   3.246  14.897 -0.5873 -0.0502  0.0007
  800MPD2     H11788   0.235   3.056  14.762  0.3462  0.0751 -1.4207
  800MPD2    H111789   4.552   3.055  14.898 -0.1292 -0.9313  1.4815
  800MPD2    H211790   0.030   3.421  14.874  0.7116 -0.3812  2.1297
  800MPD2    H311791   4.573   3.312  14.936 -0.1340  0.7014 -0.3627
  800MPD2     N11792   0.024   2.909  14.783 -0.1992 -0.3442  0.0913
  800MPD2    H511793   0.110   2.860  14.762  0.0589  0.5309 -0.9130
  800MPD2    N111794   0.265   3.326  14.796  0.3038  0.2113  0.3159
  800MPD2    H711795   0.253   3.426  14.782  1.2041  0.3241  0.3741
  801MPD2     C11796   0.263   3.802  14.279 -0.8105 -0.0021 -0.1019
  801MPD2    C111797   0.236   3.733  14.390  0.4899 -0.2645 -0.4439
  801MPD2    C211798   0.111   3.754  14.445 -0.2600 -0.1927 -1.1099
  801MPD2    C311799   0.016   3.836  14.387  0.3606  0.2168 -0.3481
  801MPD2    C411800   0.039   3.899  14.273 -0.1707 -0.3344  0.1138
  801MPD2    C511801   0.166   3.887  14.226  0.8518 -0.3536 -0.0064
  801MPD2     H11802   0.095   3.697  14.536 -1.2494 -2.3119 -2.6087
  801MPD2    H111803   4.697   3.976  14.233  1.4960 -0.1869 -2.3597
  801MPD2    H211804   0.359   3.810  14.228  0.1161 -0.1342  1.6312
  801MPD2    H311805   0.203   3.934  14.135  0.3554 -0.3974 -0.2309
  801MPD2     N11806   4.613   3.867  14.449 -0.4247  0.3394  0.2051
  801MPD2    H511807   4.560   3.943  14.408  0.4941 -0.0512 -1.6710
  801MPD2    N111808   0.331   3.661  14.474 -0.1079  0.3503 -0.5392
  801MPD2    H711809   0.290   3.623  14.559 -0.4732  1.0712 -0.3906
  802MPD2     C11810   4.152   4.409   0.517 -1.1392  1.0274 -0.4942
  802MPD2    C111811   4.035   4.405   0.440  0.3709 -0.2070  0.1152
  802MPD2    C211812   4.014   4.298   0.356  0.6581 -0.0986  0.3158
  802MPD2    C311813   4.113   4.201   0.345  0.7751 -1.2437  0.1184
  802MPD2    C411814   4.221   4.192   0.434 -0.0631 -0.7242  0.0683
  802MPD2    C511815   4.239   4.294   0.526 -0.2530 -0.0533  0.1118
  802MPD2     H11816   3.929   4.296   0.288  2.4620 -1.1946 -1.8718
  802MPD2    H111817   4.300   4.117   0.427  0.8318  0.1608  0.6650
  802MPD2    H211818   4.175   4.493   0.582  1.5158 -0.3904  0.3905
  802MPD2    H311819   4.321   4.291   0.598 -0.4801  0.4181  0.3909
  802MPD2     N11820   4.109   4.112   0.235 -0.4510  0.5392 -0.6574
  802MPD2    H511821   4.047   4.135   0.158  0.5278 -0.6450 -1.7903
  802MPD2    N111822   3.947   4.515   0.443  0.0954 -0.0398  0.1580
  802MPD2    H711823   3.861   4.501   0.392 -1.1584 -0.6552  2.4334
  803MPD2     C11824   0.554   2.368  11.598 -0.4710 -0.2528 -0.0561
  803MPD2    C111825   0.618   2.406  11.713 -0.5204  0.1816  0.2878
  803MPD2    C211826   0.583   2.343  11.834  0.2573 -0.6769  0.4803
  803MPD2    C311827   0.478   2.254  11.831 -0.2718  0.1853  0.6280
  803MPD2    C411828   0.404   2.232  11.716 -0.4374  0.2644 -0.4323
  803MPD2    C511829   0.445   2.290  11.600  0.0216  0.3768 -0.2492
  803MPD2     H11830   0.624   2.380  11.927  0.0247  2.4736 -0.6460
  803MPD2    H111831   0.327   2.155  11.708  1.0709 -1.2403 -0.4878
  803MPD2    H211832   0.576   2.412  11.501 -1.1789  1.1368  0.4243
  803MPD2    H311833   0.383   2.285  11.511 -1.2266  1.5939  0.5316
  803MPD2     N11834   0.438   2.191  11.954 -0.1383 -0.3164 -0.1335
  803MPD2    H511835   0.343   2.157  11.964 -0.5900  1.1443  0.6965
  803MPD2    N111836   0.723   2.498  11.723 -0.2098  0.1640 -0.3635
  803MPD2    H711837   0.759   2.524  11.815 -0.4334  0.3305 -0.3251
  804MPD2     C11838   0.179   3.950  16.734 -0.3238  0.3709  0.1723
  804MPD2    C111839   0.145   3.946  16.864  0.1396 -0.7212  0.1461
  804MPD2    C211840   0.198   4.043  16.949 -0.5357 -0.8063 -0.8063
  804MPD2    C311841   0.265   4.150  16.894  0.4994 -0.5409 -0.6593
  804MPD2    C411842   0.275   4.166  16.757 -0.3495 -0.6608 -0.3127
  804MPD2    C511843   0.229   4.065  16.677 -0.2157  0.3583  0.4708
  804MPD2     H11844   0.189   4.042  17.057  0.8471  0.5646 -0.6714
  804MPD2    H111845   0.323   4.248  16.705 -1.7386  1.5210  1.8674
  804MPD2    H211846   0.147   3.874  16.665 -0.4233  0.5993 -0.0337
  804MPD2    H311847   0.238   4.082  16.570 -1.3084 -0.9616  0.1783
  804MPD2     N11848   0.317   4.245  16.982  0.2751 -0.0309 -0.6337
  804MPD2    H511849   0.288   4.230  17.078  1.8365 -0.8402 -0.2944
  804MPD2    N111850   0.073   3.840  16.927 -0.0438  0.1360 -0.2677
  804MPD2    H711851   0.046   3.850  17.025  2.4001 -1.7925  0.5958
  805MPD2     C11852   3.637   1.781  15.718 -0.1214 -0.3427 -0.0509
  805MPD2    C111853   3.670   1.897  15.649  0.2473 -0.8322 -0.4270
  805MPD2    C211854   3.776   1.976  15.689 -0.2499 -0.6081 -0.0602
  805MPD2    C311855   3.847   1.952  15.805  0.0638 -0.5673  0.3891
  805MPD2    C411856   3.809   1.838  15.874  0.8948  1.0287 -0.2035
  805MPD2    C511857   3.706   1.759  15.833 -0.2171  0.0847 -0.2853
  805MPD2     H11858   3.792   2.063  15.626  1.5016 -0.0936  1.1172
  805MPD2    H111859   3.859   1.824  15.969 -2.6677  0.1569  1.5294
  805MPD2    H211860   3.569   1.703  15.690 -3.1006  2.0001  0.6840
  805MPD2    H311861   3.686   1.677  15.901  1.2752 -0.7961 -0.9145
  805MPD2     N11862   3.950   2.038  15.836 -0.4533 -0.3043 -0.3483
  805MPD2    H511863   3.955   2.119  15.774  2.1458 -1.0189 -1.0705
  805MPD2    N111864   3.615   1.924  15.528  0.0486 -0.0349 -0.5044
  805MPD2    H711865   3.655   2.001  15.477  1.2914 -0.4750 -0.1936
  806MPD2     C11866   0.082   2.094   0.825 -0.3866  0.1760 -0.8399
  806MPD2    C111867   0.210   2.051   0.796  0.0142  0.0833  0.2962
  806MPD2    C211868   0.238   1.977   0.680  0.0964 -0.7260 -0.7629
  806MPD2    C311869   0.133   1.952   0.599  0.2784 -1.1491 -0.2744
  806MPD2    C411870   0.005   1.996   0.626  0.5874 -0.0727  0.3142
  806MPD2    C511871   4.703   2.061   0.739  0.5655  0.1627  0.5512
  806MPD2     H11872   0.334   1.936   0.654 -0.0348 -1.6796  0.2584
  806MPD2    H111873   4.642   1.980   0.563  1.0347 -1.2187 -0.0043
  806MPD2    H211874   0.053   2.158   0.907  1.5376 -0.7012  0.5222
  806MPD2    H311875   4.605   2.087   0.776 -0.0104  0.0654 -0.9137
  806MPD2     N11876   0.168   1.902   0.469 -0.4230  0.6693  0.2977
  806MPD2    H511877   0.266   1.904   0.441 -0.0489 -0.8744  1.5352
  806MPD2    N111878   0.310   2.070   0.894 -0.8580 -0.3934 -0.1572
  806MPD2    H711879   0.274   2.112   0.979  0.6803 -0.5183  0.5704
  807MPD2     C11880   0.289   1.577   1.458  0.4143 -0.4531  0.6523
  807MPD2    C111881   0.404   1.554   1.386  0.5102  0.1162 -0.4703
  807MPD2    C211882   0.449   1.423   1.367  0.2181  1.0516  0.1605
  807MPD2    C311883   0.397   1.314   1.433  0.3678  0.0850 -0.3261
  807MPD2    C411884   0.287   1.344   1.515 -0.8885 -0.6405 -0.7635
  807MPD2    C511885   0.240   1.476   1.536  0.5261  0.1540  0.0226
  807MPD2     H11886   0.537   1.412   1.305  0.4692 -0.5795  0.8100
  807MPD2    H111887   0.216   1.278   1.564  1.3702  0.2817  3.7909
  807MPD2    H211888   0.238   1.672   1.465 -0.2771 -1.0780  4.1841
  807MPD2    H311889   0.152   1.489   1.598  2.1679  0.0658  2.3746
  807MPD2     N11890   0.433   1.181   1.420  0.4954 -0.0204  0.0721
  807MPD2    H511891   0.519   1.168   1.369  1.5231 -0.5252  1.9315
  807MPD2    N111892   0.466   1.651   1.311 -0.4312 -0.1538  0.0555
  807MPD2    H711893   0.541   1.618   1.250 -1.4702  0.0216 -1.3037
  808MPD2     C11894   4.358   2.565   9.025  0.0134  1.1955  0.3300
  808MPD2    C111895   4.347   2.594   9.159 -0.0335  0.0110 -0.4777
  808MPD2    C211896   4.443   2.669   9.224 -0.0791  0.0173 -0.1570
  808MPD2    C311897   4.562   2.711   9.155 -0.1469 -0.0417  0.0209
  808MPD2    C411898   4.573   2.681   9.020 -0.3480 -0.1092 -0.8045
  808MPD2    C511899   4.470   2.616   8.956  0.0030 -0.0601  0.3841
  808MPD2     H11900   4.436   2.688   9.330 -3.7536  0.3612 -0.4528
  808MPD2    H111901   4.655   2.708   8.955 -0.2791 -1.9732 -1.4827
  808MPD2    H211902   4.293   2.493   8.976 -0.8448  3.2456 -1.5203
  808MPD2    H311903   4.483   2.599   8.849  1.6899  0.5574  0.4937
  808MPD2     N11904   4.669   2.780   9.216 -0.2213  0.1353  0.4405
  808MPD2    H511905   0.014   2.824   9.155  1.0236 -0.9158  1.0785
  808MPD2    N111906   4.241   2.576   9.242 -0.6032  0.1741 -0.3170
  808MPD2    H711907   4.246   2.620   9.333 -1.5731  0.3084 -0.3278
  809MPD2     C11908   0.696   2.697   8.830  0.1478 -0.4579  0.0359
  809MPD2    C111909   0.733   2.777   8.941 -1.0195  1.0879 -0.1026
  809MPD2    C211910   0.647   2.806   9.046  0.2773 -0.3489  0.0111
  809MPD2    C311911   0.522   2.763   9.044  0.1648 -0.1195  0.8109
  809MPD2    C411912   0.476   2.700   8.935  0.1375  0.0600  0.9497
  809MPD2    C511913   0.561   2.660   8.833 -0.3679  0.5619 -0.0639
  809MPD2     H11914   0.680   2.868   9.128 -0.3033  0.1307 -0.1165
  809MPD2    H111915   0.375   2.662   8.929  0.0555  0.4185  0.0478
  809MPD2    H211916   0.763   2.667   8.750  0.1228 -1.0534  0.2400
  809MPD2    H311917   0.517   2.614   8.746 -0.8347  1.2622 -0.2031
  809MPD2     N11918   0.427   2.799   9.145 -0.3876 -0.6627 -0.0090
  809MPD2    H511919   0.332   2.786   9.110 -0.8322  0.1445  0.8757
  809MPD2    N111920   0.868   2.810   8.961  0.2560 -0.4730 -0.6319
  809MPD2    H711921   0.896   2.855   9.047 -0.2207  0.0948 -0.7740
  810MPD2     C11922   4.288   2.599  10.523  0.4710 -0.5070  0.1495
  810MPD2    C111923   4.246   2.612  10.391 -0.6572 -0.1547 -0.1021
  810MPD2    C211924   4.236   2.737  10.340  0.2664 -0.0871  0.0072
  810MPD2    C311925   4.261   2.856  10.414 -0.0007  0.2477  0.2949
  810MPD2    C411926   4.302   2.841  10.546  0.0303 -0.2314  0.5066
  810MPD2    C511927   4.325   2.710  10.593  0.3879 -0.9031  0.5435
  810MPD2     H11928   4.213   2.738  10.234 -0.1932  1.6251  0.1225
  810MPD2    H111929   4.316   2.919  10.619  0.7557  0.4652 -0.3843
  810MPD2    H211930   4.297   2.506  10.578  0.2851 -0.9286 -0.5347
  810MPD2    H311931   4.369   2.685  10.689  0.0454 -0.0862  0.9123
  810MPD2     N11932   4.228   2.987  10.358  0.4508  0.2327  0.2823
  810MPD2    H511933   4.229   3.077  10.405 -0.5718  1.4092 -1.9097
  810MPD2    N111934   4.216   2.488  10.320  0.4975  0.1535 -0.2975
  810MPD2    H711935   4.215   2.399  10.367 -1.1792  0.1663 -0.3024
  811MPD2     C11936   3.611   2.238   9.879  0.3373  0.4220  0.1137
  811MPD2    C111937   3.732   2.299   9.862 -0.6070 -0.8890  0.1848
  811MPD2    C211938   3.726   2.430   9.815 -0.0372 -0.0473 -0.6880
  811MPD2    C311939   3.612   2.507   9.799 -0.0778 -0.4131 -0.3283
  811MPD2    C411940   3.495   2.446   9.830  0.2023  0.5642 -0.0712
  811MPD2    C511941   3.502   2.312   9.858  0.3462  0.0145 -0.5380
  811MPD2     H11942   3.818   2.485   9.799  1.7695 -2.2438  2.3633
  811MPD2    H111943   3.399   2.496   9.823  0.0824  0.1190 -1.6342
  811MPD2    H211944   3.606   2.133   9.905  0.5429 -0.6428 -4.0863
  811MPD2    H311945   3.413   2.251   9.871 -0.8783  1.7295 -0.7608
  811MPD2     N11946   3.623   2.649   9.767  0.1038  0.8059 -0.0190
  811MPD2    H511947   3.708   2.683   9.723  0.4289 -0.6059 -0.4847
  811MPD2    N111948   3.847   2.225   9.894 -0.6787  0.7340  0.1728
  811MPD2    H711949   3.840   2.152   9.964 -0.8864  0.4011 -0.1918
  812MPD2     C11950   3.257   2.473  12.514  0.3290  0.2233 -0.3525
  812MPD2    C111951   3.160   2.442  12.603 -0.5202  0.4865 -0.6483
  812MPD2    C211952   3.174   2.336  12.692  0.1279  0.7151  0.7170
  812MPD2    C311953   3.288   2.261  12.677 -0.6829 -0.0009 -0.7536
  812MPD2    C411954   3.383   2.287  12.584 -0.3440  0.0880 -0.3321
  812MPD2    C511955   3.369   2.397  12.504  0.4395 -0.0547 -0.4963
  812MPD2     H11956   3.093   2.320  12.762  0.8061  1.8675  1.7583
  812MPD2    H111957   3.474   2.230  12.570 -1.7994 -2.7449  1.6397
  812MPD2    H211958   3.237   2.557  12.449 -0.5057 -0.2313 -0.6836
  812MPD2    H311959   3.440   2.414  12.423  2.4491  0.3207  1.3311
  812MPD2     N11960   3.295   2.143  12.746 -1.0266  0.1031 -0.3674
  812MPD2    H511961   3.224   2.140  12.818  0.5118  1.6928  1.2183
  812MPD2    N111962   3.038   2.521  12.604  0.0823  0.0073 -0.2890
  812MPD2    H711963   3.037   2.607  12.550 -0.0388  0.8518  1.0708
  813MPD2     C11964   2.479   3.844  12.684  0.2277 -0.4146 -0.1580
  813MPD2    C111965   2.443   3.975  12.672  0.6961 -0.2912 -0.3823
  813MPD2    C211966   2.338   4.024  12.750 -0.1879  0.0563  1.0649
  813MPD2    C311967   2.268   3.942  12.837  0.4483 -0.7141 -0.3252
  813MPD2    C411968   2.302   3.811  12.835  0.0604 -0.0686  0.0095
  813MPD2    C511969   2.401   3.757  12.756 -0.4953  0.3087  0.2766
  813MPD2     H11970   2.310   4.128  12.751 -0.8696 -0.1151  0.1231
  813MPD2    H111971   2.245   3.736  12.890  0.6729 -0.6578 -0.1645
  813MPD2    H211972   2.566   3.806  12.631  1.6377  1.2799  0.9506
  813MPD2    H311973   2.422   3.652  12.771 -0.7435  0.3495  0.9059
  813MPD2     N11974   2.178   4.003  12.922 -0.3794  0.1849 -0.4524
  813MPD2    H511975   2.166   4.104  12.913  0.2797  0.2326 -0.7973
  813MPD2    N111976   2.522   4.065  12.594  0.1380 -0.0109  0.5305
  813MPD2    H711977   2.605   4.025  12.552 -0.4967 -0.5382 -0.2160
  814MPD2     C11978   2.456   0.782  12.160 -0.6230  0.2014  0.4982
  814MPD2    C111979   2.555   0.784  12.061  0.1331  0.3835  0.5261
  814MPD2    C211980   2.679   0.843  12.095  0.3271  0.5433  0.9913
  814MPD2    C311981   2.689   0.903  12.221 -0.0589  0.6554  0.4903
  814MPD2    C411982   2.579   0.913  12.305  0.0793 -0.1293  0.1181
  814MPD2    C511983   2.461   0.848  12.275  0.0767 -0.5826 -0.2926
  814MPD2     H11984   2.763   0.849  12.027 -0.8389 -1.0682 -0.6166
  814MPD2    H111985   2.590   0.953  12.405  1.1358 -0.3966  0.1138
  814MPD2    H211986   2.362   0.729  12.157  0.2263 -1.3491  1.6047
  814MPD2    H311987   2.374   0.864  12.339  0.5946  2.8112 -0.4328
  814MPD2     N11988   2.812   0.954  12.277 -0.0536  0.4754 -0.3290
  814MPD2    H511989   2.795   0.987  12.372  0.5536 -2.3127  0.7621
  814MPD2    N111990   2.544   0.715  11.933 -0.1274  0.1105 -0.2166
  814MPD2    H711991   2.627   0.715  11.874  0.9680 -2.7740  1.2737
  815MPD2     C11992   3.043   3.562  12.226 -0.5903  0.1002 -0.2706
  815MPD2    C111993   3.032   3.618  12.098 -0.4161  0.8562 -0.5083
  815MPD2    C211994   2.954   3.731  12.084 -0.2701 -0.0147  0.2310
  815MPD2    C311995   2.887   3.785  12.191 -0.4428 -0.4715 -0.1482
  815MPD2    C411996   2.908   3.737  12.319  0.3195 -0.4467  0.0989
  815MPD2    C511997   2.977   3.626  12.335  0.0035  0.6273 -0.2483
  815MPD2     H11998   2.937   3.774  11.986 -0.2778 -1.1536 -0.2679
  815MPD2    H111999   2.851   3.772  12.404  1.1566 -3.1256  1.7407
  815MPD2    H212000   3.090   3.466  12.245 -1.0259 -0.3621 -1.4848
  815MPD2    H312001   2.956   3.576  12.429 -0.4869  0.1251 -0.6315
  815MPD2     N12002   2.821   3.905  12.160 -0.8207 -0.5132  0.6864
  815MPD2    H512003   2.830   3.929  12.061  0.9542 -1.1201  0.6954
  815MPD2    N112004   3.103   3.558  11.998 -0.0584  0.1855  0.0058
  815MPD2    H712005   3.164   3.478  12.011 -1.0493 -0.3720  1.3061
  816MPD2     C12006   3.053   3.326  16.695  0.3355 -0.7087 -0.0371
  816MPD2    C112007   3.144   3.431  16.710  0.3040 -0.7164 -0.4049
  816MPD2    C212008   3.275   3.399  16.699  0.4391 -0.2004 -0.0546
  816MPD2    C312009   3.325   3.272  16.683 -0.0476 -0.0344 -0.0432
  816MPD2    C412010   3.233   3.167  16.670 -0.0630  0.5821 -0.0021
  816MPD2    C512011   3.097   3.194  16.671 -0.3566 -0.2277  0.6689
  816MPD2     H12012   3.349   3.473  16.725 -1.6269  2.1146 -0.7287
  816MPD2    H112013   3.258   3.063  16.658 -0.9176  0.4578 -0.7405
  816MPD2    H212014   2.945   3.334  16.687  0.3585 -1.3801 -1.1138
  816MPD2    H312015   3.021   3.117  16.674  1.3390 -2.0021 -1.8814
  816MPD2     N12016   3.463   3.259  16.691 -0.3199 -0.0716  0.4462
  816MPD2    H512017   3.518   3.344  16.692 -0.7335  0.1906  1.1032
  816MPD2    N112018   3.101   3.563  16.742  0.5156 -0.1485 -0.5591
  816MPD2    H712019   3.174   3.633  16.750  0.9548 -0.8481  1.5507
  817MPD2     C12020   2.773   4.604   9.652 -1.2143  0.3163  0.1527
  817MPD2    C112021   2.907   4.607   9.622 -0.3356 -0.0514 -0.4259
  817MPD2    C212022   2.978   0.000   9.634  0.3310  0.2336  0.0355
  817MPD2    C312023   2.912   0.119   9.666 -0.3510  0.3751 -0.4631
  817MPD2    C412024   2.780   0.114   9.701  0.1406  0.3256  0.2757
  817MPD2    C512025   2.712   4.719   9.696  0.0166 -0.0449 -0.0484
  817MPD2     H12026   3.082   0.003   9.604  0.7454 -0.8200  1.3916
  817MPD2    H112027   2.724   0.206   9.715 -3.0937 -1.7821  1.1240
  817MPD2    H212028   2.717   4.511   9.641  1.1049 -0.7890 -2.3380
  817MPD2    H312029   2.615   4.722   9.745  1.0690  1.8477  1.8974
  817MPD2     N12030   2.990   0.242   9.685 -0.6347  0.3527 -0.1016
  817MPD2    H512031   3.071   0.239   9.624 -0.6784  2.2180 -0.2463
  817MPD2    N112032   2.980   4.493   9.585 -0.2130 -0.1163  0.2936
  817MPD2    H712033   3.073   4.509   9.548  0.2319 -0.7126  1.1528
  818MPD2     C12034   1.978   4.487  10.030 -0.5939  0.4721  0.4246
  818MPD2    C112035   1.880   4.392  10.040 -0.4961  0.1494 -0.7805
  818MPD2    C212036   1.898   4.260   9.999  0.3241  0.0390  0.2072
  818MPD2    C312037   2.019   4.226   9.947 -0.6454  0.3416 -0.0707
  818MPD2    C412038   2.117   4.323   9.935 -0.5532  0.1389  0.9640
  818MPD2    C512039   2.097   4.447   9.978  0.0494 -0.7809  1.1648
  818MPD2     H12040   1.822   4.183  10.013  0.2016 -0.5870 -4.0865
  818MPD2    H112041   2.214   4.299   9.893 -1.4897  0.1863 -1.2167
  818MPD2    H212042   1.966   4.592  10.056 -0.1147  0.6851 -0.2105
  818MPD2    H312043   2.179   4.518   9.971  0.5175 -1.9233 -4.8127
  818MPD2     N12044   2.047   4.093   9.914 -0.1984 -0.2360  0.1863
  818MPD2    H512045   2.147   4.073   9.916 -0.4632 -1.4197  2.2377
  818MPD2    N112046   1.755   4.422  10.098 -0.3180 -1.0109  0.6895
  818MPD2    H712047   1.703   4.337  10.115 -0.9835 -0.7468 -0.0601
  819MPD2     C12048   4.486   1.857  15.736  0.1206  0.2175  0.2133
  819MPD2    C112049   4.484   1.720  15.739  0.3996 -0.6396 -0.7503
  819MPD2    C212050   4.551   1.658  15.843 -0.1785  0.2250 -0.6408
  819MPD2    C312051   4.617   1.729  15.942 -0.1068 -0.2887  0.1474
  819MPD2    C412052   4.601   1.865  15.943  0.5967  1.3895  0.1792
  819MPD2    C512053   4.538   1.923  15.844  0.3469 -0.3288  0.4035
  819MPD2     H12054   4.556   1.550  15.837 -2.1716  0.0882  0.1251
  819MPD2    H112055   4.646   1.933  16.013 -1.3324  1.0380  1.7612
  819MPD2    H212056   4.439   1.918  15.659  0.6488  1.0117  0.5173
  819MPD2    H312057   4.540   2.031  15.833 -1.9002 -0.6117 -2.8155
  819MPD2     N12058   4.700   1.654  16.030 -0.4806 -0.1501 -0.5598
  819MPD2    H512059   4.689   1.554  16.033  0.2207 -0.1311  2.8537
  819MPD2    N112060   4.428   1.655  15.629  0.0914  0.5212  0.4354
  819MPD2    H712061   4.390   1.719  15.560  0.3835 -1.7228 -1.8011
  820MPD2     C12062   3.853   1.661  14.802 -0.5274 -0.4673 -0.1158
  820MPD2    C112063   3.859   1.734  14.918 -0.0623 -0.4216 -0.3024
  820MPD2    C212064   3.964   1.707  15.008 -0.3077 -0.4161 -0.3069
  820MPD2    C312065   4.052   1.604  14.983  0.3885  0.2977 -0.6964
  820MPD2    C412066   4.041   1.526  14.872 -0.2907 -0.1630  0.1810
  820MPD2    C512067   3.938   1.558  14.788  0.0875 -1.0586  0.3313
  820MPD2     H12068   3.979   1.763  15.099  3.2524 -2.5093  0.3938
  820MPD2    H112069   4.101   1.438  14.852  0.1985 -0.0413  1.1219
  820MPD2    H212070   3.767   1.651  14.735  0.6056  2.0003 -1.9279
  820MPD2    H312071   3.913   1.488  14.709  0.4351  0.6412 -1.3171
  820MPD2     N12072   4.146   1.552  15.077 -0.0622  0.0718  0.2990
  820MPD2    H512073   4.177   1.456  15.063 -0.9006 -0.8480  4.7059
  820MPD2    N112074   3.749   1.816  14.939 -0.0267  0.4103  0.1245
  820MPD2    H712075   3.669   1.785  14.885  0.6951  1.0747 -1.3347
  821MPD2     C12076   4.507   2.942  14.049  0.1695 -0.0339  0.1958
  821MPD2    C112077   4.632   2.886  14.060 -0.0597 -0.8445  0.2156
  821MPD2    C212078   4.720   2.906  13.957  0.9630  0.5335 -0.2104
  821MPD2    C312079   4.683   2.967  13.835  0.2044  0.5051 -0.7479
  821MPD2    C412080   4.556   3.022  13.834 -0.5769  0.3701 -0.0217
  821MPD2    C512081   4.467   3.006  13.937 -0.7495 -0.2014  0.8782
  821MPD2     H12082   0.102   2.882  13.966  1.1967  2.0285  1.0497
  821MPD2    H112083   4.520   3.074  13.746 -1.2953 -0.8245 -0.4350
  821MPD2    H212084   4.431   2.928  14.125  1.1813  0.1808  1.2573
  821MPD2    H312085   4.368   3.048  13.928 -0.5398  0.2185  0.5101
  821MPD2     N12086   0.041   2.988  13.723  0.0230  0.0449  0.3263
  821MPD2    H512087   4.720   3.036  13.645  3.3499  2.0621 -0.3422
  821MPD2    N112088   4.680   2.824  14.181  0.7264 -0.3161  0.1749
  821MPD2    H712089   0.055   2.797  14.182  1.0517  0.8799 -0.9358
  822MPD2     C12090   0.786   3.243  15.760 -0.1507 -0.2813  0.6447
  822MPD2    C112091   0.727   3.179  15.867  0.0389  0.2417  0.0062
  822MPD2    C212092   0.667   3.258  15.963 -0.4289  0.4463 -0.1165
  822MPD2    C312093   0.675   3.398  15.955  0.5011 -0.7861  0.2527
  822MPD2    C412094   0.741   3.459  15.855  0.9045 -0.3187 -0.4858
  822MPD2    C512095   0.794   3.381  15.756  0.8842 -0.1764 -0.7027
  822MPD2     H12096   0.636   3.213  16.057 -0.4301  0.0655 -0.2989
  822MPD2    H112097   0.751   3.564  15.829 -3.9457  0.0771 -0.6049
  822MPD2    H212098   0.835   3.195  15.675 -1.4819  0.3116 -0.4617
  822MPD2    H312099   0.848   3.417  15.670  0.4593  1.9196 -0.1136
  822MPD2     N12100   0.632   3.469  16.068  0.3761  0.3669  0.0830
  822MPD2    H512101   0.571   3.422  16.133 -1.4690  1.7542 -0.6551
  822MPD2    N112102   0.745   3.044  15.893 -0.4252 -0.6245  0.1245
  822MPD2    H712103   0.728   3.007  15.986 -2.1825  2.8332  1.1837
  823MPD2     C12104   0.393   3.650  16.852 -0.0295  0.1673 -0.2183
  823MPD2    C112105   0.396   3.558  16.751 -0.2366  0.1921  0.4601
  823MPD2    C212106   0.371   3.423  16.780  0.5648 -0.3390 -0.0609
  823MPD2    C312107   0.327   3.386  16.907 -0.8932  0.2227  0.7689
  823MPD2    C412108   0.320   3.482  17.002 -0.1129 -0.2106  0.5417
  823MPD2    C512109   0.365   3.611  16.978  0.1704 -0.0802  0.0377
  823MPD2     H12110   0.364   3.345  16.705  0.7391 -2.4403  2.1343
  823MPD2    H112111   0.297   3.460  17.105 -1.2079  2.0200  0.7577
  823MPD2    H212112   0.415   3.755  16.841 -1.9255  0.6791  0.8226
  823MPD2    H312113   0.363   3.683  17.059 -1.1129 -1.3814  1.1515
  823MPD2     N12114   0.306   3.258  16.961  0.3564  0.4409 -0.3835
  823MPD2    H512115   0.297   3.252  17.061  1.5983 -2.3392 -0.4271
  823MPD2    N112116   0.437   3.613  16.628  0.3961 -0.0328  0.8261
  823MPD2    H712117   0.476   3.706  16.625 -1.3198  0.6799  0.9339
  824MPD2     C12118   0.992   2.275  15.501 -0.2825 -0.2909 -0.3272
  824MPD2    C112119   1.055   2.289  15.622 -0.3603 -0.0744 -0.6902
  824MPD2    C212120   1.146   2.190  15.660  0.9180 -0.0215  0.1059
  824MPD2    C312121   1.186   2.085  15.573  0.1836  0.3361 -0.3593
  824MPD2    C412122   1.130   2.081  15.444 -0.2082 -0.0146 -0.0832
  824MPD2    C512123   1.028   2.170  15.416  0.6248 -0.2266 -0.7138
  824MPD2     H12124   1.196   2.201  15.756  1.2001  0.7693 -0.1245
  824MPD2    H112125   1.169   2.030  15.357 -1.2742  0.5281 -0.8868
  824MPD2    H212126   0.909   2.338  15.475  1.0960  1.7109  0.1325
  824MPD2    H312127   0.970   2.178  15.324 -0.7838  0.8291  0.2777
  824MPD2     N12128   1.301   2.022  15.611 -0.2381  0.4590  0.4358
  824MPD2    H512129   1.339   2.037  15.704 -2.0757  1.3012  1.0590
  824MPD2    N112130   1.032   2.398  15.715  0.0180  0.7072 -0.2176
  824MPD2    H712131   1.085   2.397  15.802 -1.6531  0.8706  0.7963
  825MPD2     C12132   2.081   1.907  15.351 -0.3758  0.4374  0.3831
  825MPD2    C112133   1.997   1.998  15.414  0.2035  0.2962 -0.0407
  825MPD2    C212134   2.017   2.140  15.391  0.6827  0.3706 -0.5117
  825MPD2    C312135   2.137   2.179  15.323 -0.1948 -1.0273  0.6517
  825MPD2    C412136   2.219   2.085  15.276  0.3414 -0.1840 -0.3985
  825MPD2    C512137   2.195   1.948  15.283  0.2715  0.7216 -0.8464
  825MPD2     H12138   1.946   2.215  15.421  1.6404  1.1702 -0.2546
  825MPD2    H112139   2.304   2.124  15.222  0.5589 -1.3707 -0.9184
  825MPD2    H212140   2.070   1.800  15.364 -0.1123  0.3852  0.1890
  825MPD2    H312141   2.258   1.871  15.242  1.1374  0.7901  0.3578
  825MPD2     N12142   2.174   2.319  15.297  0.6399 -0.2438  0.5408
  825MPD2    H512143   2.266   2.327  15.255 -0.8746  0.7916 -2.5656
  825MPD2    N112144   1.883   1.949  15.488 -0.5435 -0.3340 -0.2242
  825MPD2    H712145   1.878   1.848  15.486 -1.6619 -0.2848  0.3082
  826MPD2     C12146   1.343   2.248  14.185 -0.8283 -0.9138 -0.4127
  826MPD2    C112147   1.286   2.344  14.108 -0.2453  0.5528  0.1258
  826MPD2    C212148   1.155   2.388  14.140  0.2488  0.5532  0.4315
  826MPD2    C312149   1.086   2.324  14.238 -0.0322  0.8386 -0.0024
  826MPD2    C412150   1.151   2.237  14.318 -0.1231  0.1118 -0.0401
  826MPD2    C512151   1.277   2.208  14.296 -0.0252 -0.3072 -1.1016
  826MPD2     H12152   1.107   2.467  14.084  0.6460 -1.4997 -2.8339
  826MPD2    H112153   1.095   2.205  14.405  0.8756 -2.6904 -0.4341
  826MPD2    H212154   1.447   2.217  14.177 -1.2654 -1.8392 -2.5016
  826MPD2    H312155   1.330   2.144  14.366 -0.1223  2.9690  1.9776
  826MPD2     N12156   0.946   2.344  14.261 -0.3253  0.1044  0.3682
  826MPD2    H512157   0.909   2.292  14.340  0.7861 -3.1697 -1.2946
  826MPD2    N112158   1.359   2.400  13.997 -0.0195 -0.3048 -0.0070
  826MPD2    H712159   1.444   2.351  13.969  0.8798  1.7606 -0.9035
  827MPD2     C12160   2.300   3.421  10.066 -0.3836  0.0020 -0.1307
  827MPD2    C112161   2.297   3.303  10.133  0.0996 -0.0176 -0.5402
  827MPD2    C212162   2.298   3.188  10.053 -0.8103 -0.3745  0.0258
  827MPD2    C312163   2.314   3.193   9.916  0.4312  0.3832  0.0832
  827MPD2    C412164   2.322   3.313   9.859  0.7488  0.1781 -0.0310
  827MPD2    C512165   2.318   3.425   9.934  0.1631 -0.3835 -0.0229
  827MPD2     H12166   2.288   3.092  10.103  1.8531 -0.8514 -0.3562
  827MPD2    H112167   2.330   3.335   9.753 -1.9201 -0.8402 -0.4514
  827MPD2    H212168   2.299   3.510  10.128  0.5114 -0.8145  1.0614
  827MPD2    H312169   2.326   3.517   9.877  0.0153 -0.5821 -0.3664
  827MPD2     N12170   2.320   3.070   9.841 -0.2778 -0.1901  0.0873
  827MPD2    H512171   2.286   2.985   9.886  2.3548 -1.5597 -0.4948
  827MPD2    N112172   2.272   3.299  10.269 -0.2004  0.0237  0.0874
  827MPD2    H712173   2.257   3.389  10.315 -0.0572 -0.5192  1.2052
  828MPD2     C12174   0.917   3.239  12.418 -0.3005 -0.5737 -0.2068
  828MPD2    C112175   0.848   3.192  12.308 -0.9798  0.3388  0.7542
  828MPD2    C212176   0.917   3.143  12.201 -0.6704  0.0033  0.5598
  828MPD2    C312177   1.054   3.137  12.195  0.2181 -0.6176  0.4814
  828MPD2    C412178   1.114   3.160  12.318 -0.1314 -0.1605 -0.0222
  828MPD2    C512179   1.047   3.207  12.430  0.1825  0.1017 -0.6319
  828MPD2     H12180   0.847   3.119  12.121 -1.6269 -1.6189  1.8762
  828MPD2    H112181   1.221   3.147  12.327 -0.4160 -2.8149 -0.4935
  828MPD2    H212182   0.866   3.293  12.497 -0.4027 -0.2075 -0.5256
  828MPD2    H312183   1.103   3.223  12.522  0.2669  1.3977 -0.9119
  828MPD2     N12184   1.135   3.090  12.088  0.8989  0.8109  0.4942
  828MPD2    H512185   1.236   3.088  12.088  0.8092 -2.2963 -2.7540
  828MPD2    N112186   0.708   3.207  12.288  0.8592  0.1598 -0.1655
  828MPD2    H712187   0.679   3.161  12.203  0.7758 -1.6607  0.8333
  829MPD2     C12188   0.512   3.234  11.441  0.4655 -0.0625  0.7581
  829MPD2    C112189   0.392   3.288  11.488 -0.5017  0.6249 -0.3230
  829MPD2    C212190   0.371   3.295  11.628 -0.1918 -0.0365 -0.1941
  829MPD2    C312191   0.474   3.265  11.717  0.1679  0.4112  1.0829
  829MPD2    C412192   0.594   3.223  11.664  0.1279  0.0260  0.0338
  829MPD2    C512193   0.619   3.202  11.525 -0.1983 -0.3527  0.3172
  829MPD2     H12194   0.270   3.312  11.663 -0.1813  0.8078 -0.5851
  829MPD2    H112195   0.672   3.186  11.729 -0.8322 -0.1787  1.0671
  829MPD2    H212196   0.538   3.217  11.337 -1.3838  1.2679  0.0910
  829MPD2    H312197   0.709   3.158  11.485 -1.0862 -0.1616 -1.9141
  829MPD2     N12198   0.472   3.275  11.862  0.0903 -0.2151 -0.3197
  829MPD2    H512199   0.547   3.235  11.918  0.1091  0.3506  0.0602
  829MPD2    N112200   0.284   3.309  11.396 -0.0570 -0.1819 -0.4040
  829MPD2    H712201   0.305   3.275  11.303 -1.3386 -0.8493 -0.4424
  830MPD2     C12202   0.684   1.240  16.191  0.8792 -0.2617  0.2583
  830MPD2    C112203   0.587   1.307  16.118 -0.4717  0.5814 -0.2277
  830MPD2    C212204   0.619   1.366  15.999 -0.9942 -0.1224 -1.0711
  830MPD2    C312205   0.748   1.361  15.948 -0.4646 -0.3853  0.3256
  830MPD2    C412206   0.850   1.307  16.023  0.3979  0.1214  0.0799
  830MPD2    C512207   0.815   1.256  16.146 -0.4181  0.7100 -0.3854
  830MPD2     H12208   0.540   1.417  15.944 -1.3549  0.0643 -0.3801
  830MPD2    H112209   0.954   1.325  16.003  0.6830 -1.9390 -0.3151
  830MPD2    H212210   0.673   1.196  16.289 -0.1024 -1.0600 -0.2052
  830MPD2    H312211   0.897   1.230  16.212 -0.6453  1.4713  0.1964
  830MPD2     N12212   0.784   1.425  15.833 -0.2819 -0.4818 -0.3078
  830MPD2    H512213   0.877   1.402  15.798  0.8046  2.7180  0.4399
  830MPD2    N112214   0.455   1.316  16.180  0.4026 -0.4161  0.2193
  830MPD2    H712215   0.454   1.279  16.274  1.9340 -2.5056 -0.5758
  831MPD2     C12216   0.846   3.418  16.472 -0.0538  0.2641 -0.6514
  831MPD2    C112217   0.871   3.351  16.346 -0.8387 -0.0288 -0.6430
  831MPD2    C212218   0.789   3.243  16.310 -0.0049 -0.2583 -0.5413
  831MPD2    C312219   0.685   3.204  16.392 -0.3126 -0.5333  0.2149
  831MPD2    C412220   0.653   3.283  16.506 -0.4092  0.5461  0.9661
  831MPD2    C512221   0.734   3.389  16.538 -0.3889  0.0933 -0.4123
  831MPD2     H12222   0.809   3.194  16.215  1.8269  1.9045 -1.2634
  831MPD2    H112223   0.569   3.259  16.570  0.1252  0.4883  1.6441
  831MPD2    H212224   0.901   3.507  16.499  0.0015  0.6934 -2.1887
  831MPD2    H312225   0.707   3.448  16.625 -0.1628 -2.1586  1.1849
  831MPD2     N12226   0.596   3.096  16.359  0.4650 -0.3838 -0.2868
  831MPD2    H512227   0.519   3.074  16.421  0.2379 -0.2497 -0.5198
  831MPD2    N112228   0.968   3.391  16.254 -0.4695  0.1382  0.8184
  831MPD2    H712229   0.972   3.340  16.166 -0.1568  0.4455  0.6532
  832MPD2     C12230   3.855   4.491  17.108  0.1650 -0.0078 -0.1106
  832MPD2    C112231   3.848   4.629  17.111 -0.5970 -0.1019 -0.6117
  832MPD2    C212232   3.749   4.693  17.036 -0.2394 -0.3484  0.7179
  832MPD2    C312233   3.649   4.622  16.972  0.7830 -0.4722 -0.4904
  832MPD2    C412234   3.647   4.490  16.992  0.6193  0.0952 -0.4379
  832MPD2    C512235   3.749   4.426  17.052  0.3678 -0.2842  0.1745
  832MPD2     H12236   3.748   0.078  17.032 -1.3111 -0.4106 -0.7038
  832MPD2    H112237   3.575   4.424  16.945 -1.0524  0.1940  1.9516
  832MPD2    H212238   3.929   4.425  17.151  0.5277  1.2921  1.2516
  832MPD2    H312239   3.756   4.319  17.063  1.2541 -0.0236  2.1768
  832MPD2     N12240   3.538   4.684  16.905 -0.0937  0.5932 -0.0149
  832MPD2    H512241   3.448   4.637  16.900  0.6921 -0.9179  0.0480
  832MPD2    N112242   3.953   4.695  17.175 -0.2316 -0.0187  0.2940
  832MPD2    H712243   4.023   4.634  17.217 -0.6030  0.2495  1.3099
  833MPD2     C12244   1.166   1.344  12.420 -0.2448  0.2004  0.2692
  833MPD2    C112245   1.173   1.388  12.294 -0.1223 -0.0467 -0.2822
  833MPD2    C212246   1.230   1.304  12.198 -0.5311  0.0755 -0.6097
  833MPD2    C312247   1.261   1.170  12.227  0.3965  0.4458  0.2233
  833MPD2    C412248   1.237   1.119  12.355 -0.6891 -0.0294  0.0680
  833MPD2    C512249   1.201   1.209  12.453 -0.2054 -0.4105 -0.1744
  833MPD2     H12250   1.226   1.332  12.094 -2.5809  1.7802 -0.0608
  833MPD2    H112251   1.255   1.016  12.380  1.6936  0.4238  0.1728
  833MPD2    H212252   1.137   1.410  12.502 -0.9797  1.5696 -1.0895
  833MPD2    H312253   1.187   1.166  12.552 -2.6499  0.1621 -0.2529
  833MPD2     N12254   1.309   1.080  12.123 -0.2668  0.0558  0.6301
  833MPD2    H512255   1.301   0.980  12.139  1.5545  0.0589  1.5604
  833MPD2    N112256   1.104   1.507  12.258  0.4356 -0.6509  0.1246
  833MPD2    H712257   1.042   1.546  12.327  1.6392  0.5285  0.5344
  834MPD2     C12258   0.913   0.299  11.723 -0.1431  0.0623  0.0288
  834MPD2    C112259   0.939   0.364  11.605 -0.1670 -0.9376 -0.4618
  834MPD2    C212260   1.016   0.484  11.601  0.1333  0.3561 -0.5045
  834MPD2    C312261   1.057   0.536  11.720 -0.8814 -0.5752  0.1845
  834MPD2    C412262   1.029   0.468  11.840 -0.1855  0.2437 -0.0599
  834MPD2    C512263   0.956   0.355  11.844 -0.1894  0.1800 -0.5379
  834MPD2     H12264   1.054   0.532  11.512  0.8789 -1.8421 -1.3740
  834MPD2    H112265   1.046   0.517  11.935 -0.9507 -0.0146  0.2073
  834MPD2    H212266   0.854   0.208  11.727  2.0840 -1.4332 -0.3999
  834MPD2    H312267   0.932   0.317  11.943 -0.6068  0.3929 -0.5567
  834MPD2     N12268   1.118   0.662  11.710  0.1813  0.7909  0.5584
  834MPD2    H512269   1.173   0.678  11.626 -1.7111 -3.1884 -1.4660
  834MPD2    N112270   0.891   0.300  11.492  0.1848 -0.7368  0.2111
  834MPD2    H712271   0.842   0.214  11.515 -0.9424  0.3535  1.8668
  835MPD2     C12272   1.319   3.253  11.620 -0.0278 -0.2509 -0.1057
  835MPD2    C112273   1.198   3.310  11.652 -0.0110  0.3263  0.6438
  835MPD2    C212274   1.170   3.349  11.783  0.1560  0.5644  0.7780
  835MPD2    C312275   1.264   3.340  11.884 -0.4056  0.6773 -0.5581
  835MPD2    C412276   1.387   3.291  11.848  0.4345  0.1445 -0.6765
  835MPD2    C512277   1.412   3.247  11.722 -0.2956  0.7259 -0.6377
  835MPD2     H12278   1.069   3.381  11.807 -0.0238  2.5132 -2.5385
  835MPD2    H112279   1.478   3.299  11.907  1.5030 -1.2343 -2.1121
  835MPD2    H212280   1.359   3.238  11.520 -1.4871  0.2740 -0.7683
  835MPD2    H312281   1.509   3.206  11.696 -0.0634 -0.7937  2.5593
  835MPD2     N12282   1.246   3.387  12.017  0.4207  0.0855  0.6145
  835MPD2    H512283   1.320   3.356  12.078  0.4577 -0.9204  0.0713
  835MPD2    N112284   1.103   3.330  11.549 -0.3394  0.3871  0.0664
  835MPD2    H712285   1.023   3.390  11.568 -0.1767 -0.7918  4.3273
  836MPD2     C12286   0.701   3.935  12.253  0.2748 -0.6160 -0.0935
  836MPD2    C112287   0.752   3.858  12.356  0.2118  0.4160  0.1524
  836MPD2    C212288   0.685   3.868  12.482 -0.0137 -0.0168  0.4876
  836MPD2    C312289   0.575   3.956  12.495 -0.1174  0.2888 -0.2402
  836MPD2    C412290   0.528   4.014  12.380 -0.0681  0.4410  0.2075
  836MPD2    C512291   0.594   4.010  12.264  0.4953  0.5096 -0.4286
  836MPD2     H12292   0.724   3.801  12.558  1.3742  0.0744 -0.1307
  836MPD2    H112293   0.433   4.066  12.379 -0.1506  0.2924  0.3990
  836MPD2    H212294   0.739   3.918  12.153 -0.3856 -2.3878 -0.0361
  836MPD2    H312295   0.558   4.064  12.177  0.6776 -0.1411 -0.9132
  836MPD2     N12296   0.487   3.951  12.603  0.4944  0.3523  0.4862
  836MPD2    H512297   0.403   4.008  12.598  0.4744  0.3218  0.4733
  836MPD2    N112298   0.861   3.774  12.328 -0.2987  0.7375  0.4778
  836MPD2    H712299   0.870   3.748  12.230 -3.9654  0.6020  0.1529
  837MPD2     C12300   3.703   3.172   9.174  0.7623 -0.3941 -0.3894
  837MPD2    C112301   3.714   3.230   9.299 -0.4268 -0.1073 -0.1609
  837MPD2    C212302   3.717   3.365   9.313 -0.1637  0.1309 -0.5216
  837MPD2    C312303   3.697   3.445   9.203  0.1600  0.0001 -0.0066
  837MPD2    C412304   3.686   3.391   9.079 -0.1938  0.4453  0.0543
  837MPD2    C512305   3.694   3.257   9.066  0.0596  0.0636  0.4489
  837MPD2     H12306   3.713   3.407   9.412 -1.2219 -1.4976  0.1337
  837MPD2    H112307   3.676   3.448   8.987 -2.3251 -0.4914 -0.3091
  837MPD2    H212308   3.706   3.064   9.163  1.8565 -0.1187 -2.8533
  837MPD2    H312309   3.710   3.209   8.970  3.1625  2.7412 -0.3749
  837MPD2     N12310   3.695   3.586   9.226 -0.2627 -0.1648  0.1110
  837MPD2    H512311   3.686   3.609   9.324  0.7499  2.7621 -0.4786
  837MPD2    N112312   3.696   3.158   9.424  0.2889  0.1623  0.5535
  837MPD2    H712313   3.715   3.208   9.510  0.9846 -0.3307  0.6875
  838MPD2     C12314   2.579   1.609  12.050  0.1665  0.6278  0.5449
  838MPD2    C112315   2.553   1.483  12.007  0.9558  0.2423  0.9050
  838MPD2    C212316   2.421   1.436  12.002  0.5692 -0.3622 -0.7834
  838MPD2    C312317   2.317   1.514  12.046 -0.4334 -0.9753  0.3795
  838MPD2    C412318   2.340   1.647  12.097 -0.0345 -0.5316  0.5349
  838MPD2    C512319   2.470   1.692  12.082 -0.1100  0.2629 -0.1298
  838MPD2     H12320   2.402   1.344  11.950 -0.7145 -1.0040  0.8113
  838MPD2    H112321   2.264   1.709  12.142  0.2965  0.1149  0.2020
  838MPD2    H212322   2.677   1.652  12.068  0.4522  0.0724  0.3293
  838MPD2    H312323   2.486   1.789  12.127  1.6886 -0.4154  0.7138
  838MPD2     N12324   2.192   1.450  12.040  0.0638  0.1335 -0.2657
  838MPD2    H512325   2.192   1.351  12.018  0.4471 -0.0443  0.5398
  838MPD2    N112326   2.665   1.408  11.955  0.5142 -0.1979  0.7367
  838MPD2    H712327   2.754   1.448  11.930  0.0590  0.8278  0.7379
  839MPD2     C12328   2.112   0.895  11.755  0.6043 -0.2299 -0.0085
  839MPD2    C112329   2.180   0.877  11.635 -0.1768  0.4116 -0.5139
  839MPD2    C212330   2.314   0.926  11.631  0.1759  0.0863 -0.3348
  839MPD2    C312331   2.370   0.989  11.738  0.0591 -0.3809  0.5852
  839MPD2    C412332   2.297   1.005  11.851  0.0365 -0.1228  0.3567
  839MPD2    C512333   2.171   0.952  11.864  0.9716  0.2611 -0.0331
  839MPD2     H12334   2.380   0.908  11.547 -2.6435 -1.4907 -2.2207
  839MPD2    H112335   2.331   1.058  11.940  0.9357 -0.1376  0.0191
  839MPD2    H212336   2.020   0.839  11.766  0.7225 -0.8113 -1.8526
  839MPD2    H312337   2.121   0.957  11.960 -2.1627 -1.2083 -1.5592
  839MPD2     N12338   2.504   1.039  11.744  0.0760 -0.5168  0.0631
  839MPD2    H512339   2.531   1.076  11.835 -0.4328  1.4429 -0.5833
  839MPD2    N112340   2.136   0.803  11.524 -0.3397 -0.3007 -0.2825
  839MPD2    H712341   2.196   0.802  11.442 -1.8078  0.8364 -1.3627
  840MPD2     C12342   2.588   3.683  10.655  0.3145 -1.0166  0.7289
  840MPD2    C112343   2.530   3.598  10.742 -0.0377 -0.6073 -0.3640
  840MPD2    C212344   2.585   3.595  10.871 -0.6433  0.3579 -0.1663
  840MPD2    C312345   2.697   3.674  10.908 -0.0079 -0.3003 -0.0681
  840MPD2    C412346   2.754   3.751  10.805 -0.5272  0.4249 -0.2101
  840MPD2    C512347   2.700   3.755  10.680  0.6061  0.2175  0.6123
  840MPD2     H12348   2.542   3.527  10.944 -0.6981  1.1591  0.5543
  840MPD2    H112349   2.840   3.814  10.821  0.8668 -1.5677  0.1734
  840MPD2    H212350   2.543   3.699  10.558  0.5161  0.7976  0.9310
  840MPD2    H312351   2.748   3.821  10.608  0.1892 -0.2069 -0.0558
  840MPD2     N12352   2.740   3.669  11.041  0.0109  0.4245 -0.4378
  840MPD2    H512353   2.812   3.733  11.074  0.9490 -1.1048  0.4629
  840MPD2    N112354   2.418   3.523  10.693  0.0959  0.1133 -0.1262
  840MPD2    H712355   2.405   3.521  10.593  1.6554 -0.4055 -0.3191
  841MPD2     C12356   2.121   4.173  14.690 -0.0724 -0.3026 -0.3283
  841MPD2    C112357   2.161   4.071  14.605  0.1650  1.4700  0.1940
  841MPD2    C212358   2.235   4.113  14.498  0.1742 -0.3288 -0.2742
  841MPD2    C312359   2.303   4.230  14.499 -0.1350  0.2577  0.7457
  841MPD2    C412360   2.251   4.332  14.579  0.3607  0.0625 -0.9469
  841MPD2    C512361   2.156   4.299  14.667 -0.0319 -0.5343 -0.2647
  841MPD2     H12362   2.271   4.041  14.425  0.9705  0.6856 -0.8778
  841MPD2    H112363   2.295   4.430  14.573 -1.0140  0.5540 -3.2793
  841MPD2    H212364   2.047   4.164  14.769 -0.6649 -1.2734 -1.0026
  841MPD2    H312365   2.109   4.374  14.730  0.4358 -1.3275  1.0282
  841MPD2     N12366   2.408   4.253  14.402  0.3078 -0.0258 -0.5073
  841MPD2    H512367   2.422   4.171  14.343  2.7081 -0.7211  1.0176
  841MPD2    N112368   2.125   3.933  14.627  0.0374  0.1372  0.1004
  841MPD2    H712369   2.159   3.863  14.562  0.4710  1.2128 -0.8087
  842MPD2     C12370   3.142   0.421  16.556  0.1835  0.2917 -0.1378
  842MPD2    C112371   3.055   0.323  16.518  0.4475  0.8804 -0.5875
  842MPD2    C212372   2.994   0.250  16.620  0.8921 -0.7093 -0.3268
  842MPD2    C312373   3.000   0.293  16.751 -0.2473 -0.0420 -0.0358
  842MPD2    C412374   3.089   0.397  16.782 -0.3226 -0.2672 -0.4350
  842MPD2    C512375   3.163   0.455  16.687  0.4678 -0.7266 -0.5201
  842MPD2     H12376   2.924   0.170  16.596  1.1947 -1.1905  0.3891
  842MPD2    H112377   3.120   0.418  16.884  0.0346 -0.8430 -0.4207
  842MPD2    H212378   3.192   0.472  16.475 -1.1578 -0.7274 -1.5979
  842MPD2    H312379   3.226   0.538  16.717 -1.4474  0.3616  0.5122
  842MPD2     N12380   2.956   0.222  16.869 -0.0012 -0.1957  0.5975
  842MPD2    H512381   2.996   0.256  16.956 -0.0108 -2.0660  1.3270
  842MPD2    N112382   3.037   0.301  16.381  0.2450  0.0220 -0.4787
  842MPD2    H712383   3.066   0.374  16.317 -0.0195 -0.7465 -1.4839
  843MPD2     C12384   0.708   4.565   0.833  0.2810 -0.1143  0.1182
  843MPD2    C112385   0.831   4.599   0.886  0.3935  0.7560  0.1829
  843MPD2    C212386   0.914   4.694   0.826 -0.5710  0.1092  0.0211
  843MPD2    C312387   0.868   0.032   0.713  0.3983  0.2835 -0.2454
  843MPD2    C412388   0.751   4.721   0.659  0.0928  0.3181 -0.1312
  843MPD2    C512389   0.673   4.615   0.707  0.4357  0.1786  0.0020
  843MPD2     H12390   1.014   4.722   0.860 -0.4346  1.3451 -1.4076
  843MPD2    H112391   0.709   0.056   0.578 -1.7231  0.6465  1.0536
  843MPD2    H212392   0.631   4.508   0.883  1.8490 -2.3885 -0.0323
  843MPD2    H312393   0.576   4.591   0.666  0.5991  1.6874 -1.2495
  843MPD2     N12394   0.950   0.122   0.638 -0.3277 -0.2085  0.6792
  843MPD2    H512395   0.904   0.163   0.558  1.6285  1.4308  0.3931
  843MPD2    N112396   0.858   4.532   1.005 -0.1843  0.4014 -0.4153
  843MPD2    H712397   0.788   4.463   1.028 -0.4796  0.4193 -1.2651
  844MPD2     C12398   3.603   4.432  16.470 -0.1193  0.3992 -0.1025
  844MPD2    C112399   3.690   4.331  16.494  0.4830  0.1901  0.3297
  844MPD2    C212400   3.791   4.358  16.585 -0.0123  0.0212 -0.5451
  844MPD2    C312401   3.805   4.485  16.641  0.0510 -0.4357 -0.0117
  844MPD2    C412402   3.712   4.578  16.622  0.0146 -0.3409 -0.7865
  844MPD2    C512403   3.611   4.551  16.538 -0.4355 -0.7718  0.5438
  844MPD2     H12404   3.867   4.283  16.602 -0.3018 -0.2400 -0.4023
  844MPD2    H112405   3.704   4.667  16.683  0.5883 -1.0676  0.3527
  844MPD2    H212406   3.524   4.426  16.396 -0.0390 -1.6229 -0.0362
  844MPD2    H312407   3.526   4.617  16.529 -1.2302 -1.5981  2.1351
  844MPD2     N12408   3.922   4.515  16.715  0.2806 -0.1313 -0.6737
  844MPD2    H512409   3.995   4.444  16.712 -0.4918 -0.9672  0.5255
  844MPD2    N112410   3.689   4.213  16.411 -0.1876 -0.0322  0.2502
  844MPD2    H712411   3.760   4.142  16.431  0.6507  0.9125  0.6093
  845MPD2     C12412   4.445   0.614  17.090  0.4937 -0.0996  0.0073
  845MPD2    C112413   4.309   0.596  17.093 -0.3234 -0.2429  0.2283
  845MPD2    C212414   4.257   0.481  17.032 -0.5668 -0.7701  0.2436
  845MPD2    C312415   4.337   0.381  16.979  0.0123  0.1838 -0.3444
  845MPD2    C412416   4.472   0.409  16.973 -0.0336 -1.2241 -0.2686
  845MPD2    C512417   4.525   0.521  17.029 -0.1160 -0.0263 -0.0186
  845MPD2     H12418   4.149   0.469  17.027 -0.4125 -0.9500 -2.5639
  845MPD2    H112419   4.543   0.331  16.945 -1.2920 -2.0447 -1.2020
  845MPD2    H212420   4.488   0.702  17.137 -0.0108  0.6013 -0.8648
  845MPD2    H312421   4.633   0.528  17.026 -0.0635 -0.2756  1.5416
  845MPD2     N12422   4.276   0.266  16.928 -0.1068  0.1253 -0.0664
  845MPD2    H512423   4.178   0.251  16.952  0.5451 -0.9179  1.9273
  845MPD2    N112424   4.233   0.704  17.145  0.2609  0.0741 -0.0477
  845MPD2    H712425   4.279   0.789  17.175  1.5881 -0.8089  0.4165
  846MPD2     C12426   0.699   0.558  13.290  0.4749 -0.2600 -0.2723
  846MPD2    C112427   0.618   0.647  13.346 -0.4036  0.6224 -0.2919
  846MPD2    C212428   0.586   0.645  13.478  0.1975 -0.2589 -0.3388
  846MPD2    C312429   0.628   0.543  13.558 -0.0409  0.8761  0.0153
  846MPD2    C412430   0.695   0.440  13.494  0.6436  0.0906  0.1585
  846MPD2    C512431   0.728   0.444  13.363  0.0612 -0.3013 -0.4716
  846MPD2     H12432   0.530   0.722  13.530  1.4473  0.1241  0.4513
  846MPD2    H112433   0.721   0.349  13.546  1.5745  1.2441  1.6984
  846MPD2    H212434   0.755   0.573  13.198  3.2889  0.0048  1.4758
  846MPD2    H312435   0.791   0.367  13.320 -0.6892 -0.9778 -0.3627
  846MPD2     N12436   0.617   0.550  13.696 -0.2416  0.1287  0.2288
  846MPD2    H512437   0.558   0.624  13.733  1.1623  0.7059  1.3142
  846MPD2    N112438   0.572   0.765  13.277 -0.5235 -0.5802  0.9778
  846MPD2    H712439   0.541   0.847  13.327  0.7525  1.3957 -1.5018
  847MPD2     C12440   0.110   1.650  15.426 -0.0926  0.5366  0.3111
  847MPD2    C112441   0.205   1.675  15.329  0.5675  0.4527 -0.1044
  847MPD2    C212442   0.307   1.582  15.315 -0.4738  0.3316  0.2273
  847MPD2    C312443   0.315   1.469  15.393 -0.6111 -0.2570 -0.3881
  847MPD2    C412444   0.221   1.448  15.494 -0.1455 -0.2550  0.2143
  847MPD2    C512445   0.120   1.543  15.505  0.1169 -0.0949  0.0121
  847MPD2     H12446   0.385   1.606  15.244  0.0585 -1.3490  0.2532
  847MPD2    H112447   0.209   1.355  15.549 -0.4896 -0.7977 -0.7789
  847MPD2    H212448   0.032   1.721  15.451 -0.5167 -0.1699  0.9812
  847MPD2    H312449   0.049   1.527  15.585 -0.7168 -0.7801 -0.8758
  847MPD2     N12450   0.425   1.377  15.377 -0.2226 -0.0559 -1.1346
  847MPD2    H512451   0.436   1.309  15.452 -1.8134  0.2116 -0.6600
  847MPD2    N112452   0.222   1.798  15.259 -0.0018  0.7234 -0.4192
  847MPD2    H712453   0.294   1.800  15.187  0.3611 -0.6011 -0.0960
  848MPD2     C12454   3.407   0.318  16.160  0.4086 -0.0255 -0.4912
  848MPD2    C112455   3.440   0.379  16.278  0.1295 -0.2729  0.6723
  848MPD2    C212456   3.492   0.503  16.285 -0.0968  0.5554 -0.1673
  848MPD2    C312457   3.511   0.577  16.172  0.3734  0.2566 -0.2065
  848MPD2    C412458   3.464   0.523  16.050 -0.3419  0.4783  0.1094
  848MPD2    C512459   3.425   0.392  16.049  0.0421 -0.1398  0.2406
  848MPD2     H12460   3.503   0.548  16.383 -2.7058 -1.1438  0.9146
  848MPD2    H112461   3.467   0.578  15.956 -1.9275 -2.2709 -1.5674
  848MPD2    H212462   3.376   0.215  16.149 -0.6170  0.3128 -0.7467
  848MPD2    H312463   3.412   0.349  15.950  0.7510  1.7999 -0.6846
  848MPD2     N12464   3.574   0.707  16.166  0.6789  0.3740  0.0275
  848MPD2    H512465   3.598   0.746  16.076  2.3401 -1.0414 -0.1357
  848MPD2    N112466   3.415   0.304  16.402  0.8534 -0.0610 -0.1212
  848MPD2    H712467   3.439   0.358  16.484 -2.8580 -0.4349  1.1826
  849MPD2     C12468   2.356   4.560  14.048  0.3631 -0.3862  0.1101
  849MPD2    C112469   2.446   4.593  13.952  0.3336  0.0585 -0.2943
  849MPD2    C212470   2.566   4.653  13.977 -0.2973  0.1904 -0.2449
  849MPD2    C312471   2.614   4.671  14.103  0.1257 -0.3375  0.0903
  849MPD2    C412472   2.527   4.634  14.208 -0.4211 -1.0677 -0.2843
  849MPD2    C512473   2.405   4.581  14.176 -0.2441  0.8455 -0.3087
  849MPD2     H12474   2.632   4.679  13.895  1.1049 -0.4685  0.6841
  849MPD2    H112475   2.546   4.661  14.311  2.2356 -0.2912 -0.9749
  849MPD2    H212476   2.259   4.523  14.017 -0.0034  0.4839  0.2108
  849MPD2    H312477   2.344   4.562  14.264 -1.6247  0.4538 -1.3422
  849MPD2     N12478   2.752   4.701  14.111 -0.0266 -0.9281  0.4728
  849MPD2    H512479   2.801   4.704  14.023  1.2873 -1.4015  1.1861
  849MPD2    N112480   2.416   4.587  13.815 -0.0505 -0.2515 -0.5188
  849MPD2    H712481   2.478   4.641  13.756 -0.9243  0.8649 -0.4109
  850MPD2     C12482   0.910   2.389  15.113  0.6549 -0.8201 -0.3698
  850MPD2    C112483   0.925   2.480  15.209 -0.0041  0.0135 -0.8544
  850MPD2    C212484   1.049   2.510  15.267  0.1085  0.1145 -0.0343
  850MPD2    C312485   1.166   2.445  15.227  0.2060  0.3514 -0.0697
  850MPD2    C412486   1.146   2.346  15.135  0.3657 -0.1755  0.0208
  850MPD2    C512487   1.024   2.323  15.081  0.3078 -0.3564  0.3946
  850MPD2     H12488   1.062   2.590  15.339  0.3300  0.3418 -0.3254
  850MPD2    H112489   1.231   2.284  15.105  0.7338 -1.8198  4.4624
  850MPD2    H212490   0.819   2.356  15.064  0.6934 -2.5742  0.7173
  850MPD2    H312491   1.027   2.238  15.014 -1.2386  0.0598 -0.2203
  850MPD2     N12492   1.293   2.475  15.271  0.6306 -0.3868  1.2778
  850MPD2    H512493   1.368   2.423  15.227  0.5190  0.3229  0.2553
  850MPD2    N112494   0.802   2.529  15.261  0.4998 -0.1003 -1.0866
  850MPD2    H712495   0.721   2.472  15.241  0.9342 -0.0865 -2.8958
  851MPD2     C12496   0.725   2.317  15.894 -0.3679  0.8703  0.5158
  851MPD2    C112497   0.663   2.293  15.775  0.2702 -0.3055  0.1742
  851MPD2    C212498   0.695   2.176  15.696 -0.0696 -0.6989  0.7934
  851MPD2    C312499   0.788   2.092  15.752 -0.2759 -0.2818 -0.2100
  851MPD2    C412500   0.843   2.117  15.876  0.5720 -0.1507 -0.3547
  851MPD2    C512501   0.813   2.228  15.945 -0.1240 -0.5890 -0.1987
  851MPD2     H12502   0.662   2.160  15.594 -2.3073 -1.1275  1.5689
  851MPD2    H112503   0.929   2.071  15.922 -0.5498 -0.5180  1.3983
  851MPD2    H212504   0.721   2.411  15.949 -0.0062  0.5699  1.0624
  851MPD2    H312505   0.868   2.253  16.034  0.3858 -0.9817 -0.4019
  851MPD2     N12506   0.824   1.975  15.675  0.2009 -0.3616  0.2234
  851MPD2    H512507   0.780   1.962  15.584 -2.8743 -0.5800  1.7742
  851MPD2    N112508   0.587   2.398  15.725  0.1125 -0.0826  0.1364
  851MPD2    H712509   0.602   2.494  15.755 -0.2251  0.7150 -2.2404
  852MPD2     C12510   0.442   3.779   9.872 -0.4589  0.1883  0.9914
  852MPD2    C112511   0.401   3.859   9.976  0.4048 -0.2742 -0.2339
  852MPD2    C212512   0.410   3.992   9.957  0.0858  0.0649 -0.1968
  852MPD2    C312513   0.471   4.054   9.847 -0.6811 -0.1825  0.2144
  852MPD2    C412514   0.512   3.966   9.746 -0.0789  0.0742 -0.3011
  852MPD2    C512515   0.500   3.830   9.761  0.7203 -0.2850  0.1215
  852MPD2     H12516   0.376   4.057  10.036 -1.2701  0.4871 -1.1245
  852MPD2    H112517   0.567   4.002   9.660 -1.8191 -0.7273 -1.7565
  852MPD2    H212518   0.427   3.671   9.869 -1.4915  0.3862 -0.9912
  852MPD2    H312519   0.541   3.759   9.691 -2.0232 -1.5445 -0.2133
  852MPD2     N12520   0.500   4.195   9.845 -0.0988  0.0251  0.2636
  852MPD2    H512521   0.470   4.247   9.927  0.1349  0.8376 -0.1672
  852MPD2    N112522   0.335   3.814  10.093  0.3521  0.1207 -0.0580
  852MPD2    H712523   0.303   3.880  10.163 -0.3122 -0.0857 -0.1617
  853MPD2     C12524   2.600   4.582  12.198  0.2835 -0.2877  0.0860
  853MPD2    C112525   2.510   4.689  12.184 -0.1181 -0.0654  0.1841
  853MPD2    C212526   2.461   4.716  12.058 -0.3974 -0.2496  0.9619
  853MPD2    C312527   2.501   4.638  11.948  0.6860 -0.1778  0.2553
  853MPD2    C412528   2.591   4.532  11.966 -0.3118 -1.1430 -0.3698
  853MPD2    C512529   2.649   4.503  12.091 -0.0171 -0.2735 -0.3504
  853MPD2     H12530   2.414   0.089  12.039 -0.6503 -0.9836 -2.0551
  853MPD2    H112531   2.623   4.476  11.880  0.4476  1.0548 -1.5058
  853MPD2    H212532   2.635   4.551  12.296 -1.3395  1.9845  1.4169
  853MPD2    H312533   2.722   4.423  12.099 -0.3238 -0.4151  1.0378
  853MPD2     N12534   2.461   4.667  11.813 -0.4853 -0.1337  0.8328
  853MPD2    H512535   2.510   4.610  11.744  0.1256  0.8691  0.4481
  853MPD2    N112536   2.461   0.026  12.295 -0.2994 -0.3858  0.5970
  853MPD2    H712537   2.515   0.016  12.381 -0.3020  0.5531  0.7039
  854MPD2     C12538   3.679   0.415  13.205 -0.0283 -0.1042 -0.3430
  854MPD2    C112539   3.749   0.416  13.089 -0.0242  0.3732  0.4988
  854MPD2    C212540   3.867   0.339  13.072  0.3779  0.1122  0.0873
  854MPD2    C312541   3.903   0.252  13.170 -0.4321 -0.4014  0.3108
  854MPD2    C412542   3.835   0.263  13.287 -0.0740  0.5734  0.5928
  854MPD2    C512543   3.730   0.343  13.308  0.0700 -0.5809  0.4983
  854MPD2     H12544   3.928   0.342  12.982 -1.0562  3.6335 -0.7967
  854MPD2    H112545   3.868   0.204  13.371  0.0441  0.7621  0.6781
  854MPD2    H212546   3.594   0.482  13.212  0.5451  0.5891 -0.0518
  854MPD2    H312547   3.688   0.351  13.408  0.3564 -2.9044  0.7928
  854MPD2     N12548   4.007   0.157  13.162  0.4370  0.5739 -0.4767
  854MPD2    H512549   4.026   0.109  13.249  0.1044  1.1146 -0.1032
  854MPD2    N112550   3.698   0.503  12.982  0.2159  0.1066 -0.1503
  854MPD2    H712551   3.615   0.557  13.008  0.2210 -0.0034  0.0907
  855MPD2     C12552   4.388   0.076  13.813  0.8401 -0.1023 -0.4125
  855MPD2    C112553   4.372   4.672  13.767  0.1618  0.3436  0.7834
  855MPD2    C212554   4.387   4.655  13.633 -0.3303 -0.2604  0.3872
  855MPD2    C312555   4.411   0.038  13.542  0.3863  0.3460 -0.5298
  855MPD2    C412556   4.428   0.163  13.592 -0.6607  0.0321  0.0338
  855MPD2    C512557   4.412   0.182  13.729 -0.4714  0.6019 -0.5474
  855MPD2     H12558   4.373   4.553  13.599  1.2418 -0.5337  0.5608
  855MPD2    H112559   4.438   0.247  13.524  1.3704 -1.8205 -1.9347
  855MPD2    H212560   4.383   0.106  13.917  1.1778 -2.5639  0.3116
  855MPD2    H312561   4.429   0.281  13.770  2.4173  0.1100 -0.5654
  855MPD2     N12562   4.394   0.033  13.403 -0.4428 -0.4449  0.0274
  855MPD2    H512563   4.391   0.123  13.357 -2.4034 -1.4286 -1.7703
  855MPD2    N112564   4.349   4.559  13.853  0.4100  0.6147 -0.1406
  855MPD2    H712565   4.339   4.471  13.803  2.2500 -0.2858  1.0496
  856MPD2     C12566   1.429   0.895  13.937 -0.2266 -0.6389 -0.4876
  856MPD2    C112567   1.527   0.993  13.949 -0.6343 -0.2614 -0.5448
  856MPD2    C212568   1.495   1.126  13.931  0.1152 -0.3572 -0.0087
  856MPD2    C312569   1.367   1.157  13.897  0.7389 -0.0241 -0.1901
  856MPD2    C412570   1.273   1.061  13.893  1.0944 -0.0252 -0.1751
  856MPD2    C512571   1.309   0.931  13.904 -0.4719  0.4014  1.2254
  856MPD2     H12572   1.573   1.202  13.928 -0.0766 -0.1013  2.0245
  856MPD2    H112573   1.166   1.075  13.877  1.0462  0.8035  0.8769
  856MPD2    H212574   1.450   0.790  13.954 -0.0157 -0.1874  1.9963
  856MPD2    H312575   1.240   0.849  13.889  0.1187  0.2289 -0.5192
  856MPD2     N12576   1.341   1.295  13.873  0.2797  0.3931 -0.5078
  856MPD2    H512577   1.420   1.359  13.871 -0.1817  0.9645 -0.3822
  856MPD2    N112578   1.661   0.963  13.969 -0.7952  0.5734  0.5280
  856MPD2    H712579   1.722   1.043  13.958 -1.6225  1.0874 -0.2512
  857MPD2     C12580   3.142   3.085  12.869  0.0701 -0.7377  0.1632
  857MPD2    C112581   3.269   3.056  12.830 -0.7969 -0.0282 -0.1433
  857MPD2    C212582   3.345   3.152  12.767  0.1568  0.1481 -0.0285
  857MPD2    C312583   3.305   3.285  12.775 -0.0386 -0.5870 -0.0835
  857MPD2    C412584   3.180   3.316  12.827 -0.4561  0.4806 -0.3385
  857MPD2    C512585   3.099   3.213  12.866  0.0193 -0.5889 -0.6364
  857MPD2     H12586   3.441   3.136  12.720  0.0193 -0.9748  0.0755
  857MPD2    H112587   3.140   3.417  12.826 -0.5807  0.4192 -2.5055
  857MPD2    H212588   3.061   3.023  12.906  2.0354 -1.3805  3.4348
  857MPD2    H312589   2.996   3.238  12.890 -0.0090 -0.2884 -1.0660
  857MPD2     N12590   3.393   3.385  12.722 -0.4237 -0.1467  0.2254
  857MPD2    H512591   3.476   3.356  12.673 -1.5258  1.3288 -2.4798
  857MPD2    N112592   3.294   2.910  12.828  0.2218 -0.3968  0.3018
  857MPD2    H712593   3.237   2.849  12.885 -0.6914 -0.9011 -1.1583
  858MPD2     C12594   3.589   2.017  16.605  0.4980  0.8240  0.1705
  858MPD2    C112595   3.719   1.999  16.645 -0.2340  0.4219  0.7010
  858MPD2    C212596   3.783   2.107  16.705  0.4361  0.3789  0.0622
  858MPD2    C312597   3.722   2.233  16.726  0.8179 -0.7086 -0.6117
  858MPD2    C412598   3.593   2.240  16.683 -0.3114 -0.3668 -0.2746
  858MPD2    C512599   3.529   2.135  16.624 -0.0319 -0.0372 -0.0496
  858MPD2     H12600   3.889   2.111  16.729  0.2408  3.9543  0.2913
  858MPD2    H112601   3.548   2.337  16.695  0.3105  0.1843 -2.5020
  858MPD2    H212602   3.537   1.934  16.560  1.5208 -0.9431  2.2467
  858MPD2    H312603   3.422   2.141  16.605  0.1304  0.0308 -0.9201
  858MPD2     N12604   3.777   2.344  16.792  0.2361  0.5049  0.1824
  858MPD2    H512605   3.707   2.410  16.825 -0.9220 -0.2514 -0.7284
  858MPD2    N112606   3.779   1.874  16.629  0.2238 -0.2263  0.3020
  858MPD2    H712607   3.721   1.803  16.585  0.9762  0.2630 -1.5080
  859MPD2     C12608   2.769   4.262  15.327  0.0178  0.7192 -0.0440
  859MPD2    C112609   2.689   4.322  15.238 -0.2536  0.0922  0.4746
  859MPD2    C212610   2.638   4.243  15.133  0.2610 -0.0893 -0.4317
  859MPD2    C312611   2.661   4.105  15.136  0.0303  0.2443 -0.7586
  859MPD2    C412612   2.744   4.044  15.231 -0.2986 -0.6208  0.2392
  859MPD2    C512613   2.802   4.125  15.322  0.4361 -0.1138  0.4046
  859MPD2     H12614   2.569   4.281  15.059 -0.8138 -0.9137  0.1419
  859MPD2    H112615   2.772   3.939  15.227 -0.2459 -0.4983 -2.2614
  859MPD2    H212616   2.823   4.322  15.399 -0.4388 -0.0746  0.9591
  859MPD2    H312617   2.875   4.087  15.392  0.2780 -0.6994  0.2471
  859MPD2     N12618   2.613   4.019  15.031 -0.8441 -0.6647  0.0487
  859MPD2    H512619   2.643   3.923  15.043 -1.3449 -0.9404 -0.9408
  859MPD2    N112620   2.671   4.458  15.264 -0.7388  0.1979  0.0627
  859MPD2    H712621   2.727   4.511  15.330 -0.0793 -0.5219  0.0851
  860MPD2     C12622   0.062   0.184  11.365  0.6755 -0.6067  0.1294
  860MPD2    C112623   0.101   0.113  11.472  0.6291  0.8024  0.2165
  860MPD2    C212624   0.008   0.055  11.551  0.2182 -0.1537 -0.6042
  860MPD2    C312625   4.598   0.074  11.529 -0.3104  0.7600  0.2968
  860MPD2    C412626   4.553   0.149  11.424  0.2942 -0.1001 -0.4074
  860MPD2    C512627   4.649   0.194  11.337  0.1684  0.3255 -0.4893
  860MPD2     H12628   0.055   0.001  11.632  0.7823 -1.7067 -1.9651
  860MPD2    H112629   4.449   0.169  11.404  0.1831 -0.8208 -0.5393
  860MPD2    H212630   0.128   0.231  11.293 -0.9414  2.4438  0.6603
  860MPD2    H312631   4.617   0.248  11.249 -1.7785  2.2554  1.3835
  860MPD2     N12632   4.501   0.038  11.627  0.3961 -0.6468  0.2353
  860MPD2    H512633   4.412   0.080  11.603  1.3661  2.0252  1.3392
  860MPD2    N112634   0.237   0.112  11.507  0.2909 -0.0825  0.6540
  860MPD2    H712635   0.267   0.033  11.564  0.5069 -0.8451 -0.5141
  861MPD2     C12636   3.588   2.696  11.042 -0.2716 -0.3885 -0.8800
  861MPD2    C112637   3.470   2.653  11.104  0.4678  0.0873  0.1718
  861MPD2    C212638   3.346   2.687  11.053  0.2948 -0.4673  0.6288
  861MPD2    C312639   3.341   2.754  10.931 -0.0563 -0.5396 -0.2409
  861MPD2    C412640   3.460   2.793  10.867 -0.6061  0.3817  0.9005
  861MPD2    C512641   3.580   2.761  10.924  0.1318  0.0975 -0.2707
  861MPD2     H12642   3.260   2.665  11.114 -0.2383  0.5172  0.2356
  861MPD2    H112643   3.452   2.867  10.788  1.3945 -1.4458 -1.0177
  861MPD2    H212644   3.685   2.672  11.085  0.0440  0.5173 -1.0867
  861MPD2    H312645   3.677   2.790  10.884  0.7853 -2.3057 -0.4285
  861MPD2     N12646   3.230   2.807  10.869  0.2334 -0.2659  0.1928
  861MPD2    H512647   3.246   2.858  10.783 -0.2602 -0.2066  0.1350
  861MPD2    N112648   3.467   2.589  11.228  0.7818 -0.1347 -0.4264
  861MPD2    H712649   3.377   2.571  11.270  0.2564  0.1517 -1.4275
  862MPD2     C12650   2.977   2.822  10.312 -0.3275 -0.0606 -0.3463
  862MPD2    C112651   3.088   2.844  10.392 -0.3332  0.0766 -0.2528
  862MPD2    C212652   3.168   2.739  10.434  0.0063 -0.6631  0.3361
  862MPD2    C312653   3.140   2.608  10.407  0.2775 -0.4828 -0.7336
  862MPD2    C412654   3.038   2.586  10.313  0.7140  0.4167 -0.0405
  862MPD2    C512655   2.950   2.688  10.280 -0.0327  0.2959  0.6536
  862MPD2     H12656   3.252   2.771  10.495  0.7249  0.8496 -1.4419
  862MPD2    H112657   3.011   2.488  10.277 -0.4942  0.9126 -0.4817
  862MPD2    H212658   2.898   2.892  10.287  1.4286  0.9692 -2.9407
  862MPD2    H312659   2.855   2.667  10.232  1.3436 -2.4427 -0.8894
  862MPD2     N12660   3.195   2.510  10.490 -0.3435  0.2102 -0.0577
  862MPD2    H512661   3.155   2.416  10.486  1.5275 -0.4881 -1.8942
  862MPD2    N112662   3.111   2.968  10.464  0.5848  0.2163  0.2564
  862MPD2    H712663   3.187   2.967  10.531  0.3052  1.0804  0.5896
  863MPD2     C12664   2.722   1.007  16.508 -0.6526 -0.5278 -0.4288
  863MPD2    C112665   2.641   1.097  16.577 -0.7188 -0.0721 -0.1659
  863MPD2    C212666   2.694   1.154  16.686 -0.1514 -0.0498  0.1273
  863MPD2    C312667   2.824   1.142  16.723  0.5854 -0.3990 -0.2542
  863MPD2    C412668   2.895   1.040  16.661  0.0680 -0.4828 -0.5022
  863MPD2    C512669   2.850   0.986  16.544 -0.3530  0.9449 -0.0420
  863MPD2     H12670   2.639   1.222  16.750  0.4492  0.6356 -0.0830
  863MPD2    H112671   2.989   1.007  16.703  0.1039  0.7953  0.4401
  863MPD2    H212672   2.681   0.967  16.416  1.2836  0.5246 -1.7391
  863MPD2    H312673   2.915   0.918  16.490  1.1653  1.2776  1.3661
  863MPD2     N12674   2.890   1.206  16.827 -0.0885  0.2193 -0.5039
  863MPD2    H512675   2.979   1.166  16.854  1.1045  2.2707 -1.3916
  863MPD2    N112676   2.511   1.120  16.527 -0.1558  0.1492 -0.5289
  863MPD2    H712677   2.498   1.085  16.433  1.4907 -0.0859 -0.6738
  864MPD2     C12678   2.369   2.410  17.477 -0.2854  0.4332  0.2534
  864MPD2    C112679   2.482   2.353  17.420  0.0665  0.4794 -0.6006
  864MPD2    C212680   2.559   2.425  17.326 -0.2981 -0.9000 -0.4791
  864MPD2    C312681   2.526   2.554  17.288  0.5146 -0.4537  0.1446
  864MPD2    C412682   2.407   2.608  17.343  0.0351 -0.3435 -0.1870
  864MPD2    C512683   2.336   2.537  17.437 -0.3877  0.2650 -0.7155
  864MPD2     H12684   2.647   2.377  17.284  0.0376  0.1257 -0.9605
  864MPD2    H112685   2.374   2.709  17.320  1.5186 -0.0208 -0.9229
  864MPD2    H212686   2.302   2.361  17.547 -1.1725  4.2318  2.0686
  864MPD2    H312687   2.245   2.583  17.473  1.8340  3.2591  1.1335
  864MPD2     N12688   2.602   2.631  17.192 -0.3592 -0.7730  0.0550
  864MPD2    H512689   2.566   2.726  17.181  2.6367  0.1843 -1.3975
  864MPD2    N112690   2.510   2.221  17.455  0.5329 -0.0137 -0.2181
  864MPD2    H712691   2.438   2.169  17.505 -0.5393  0.2840 -1.4517
  865MPD2     C12692   2.767   3.017  16.434  0.2226  1.3775 -0.2638
  865MPD2    C112693   2.725   2.914  16.522 -0.2195  0.1848  0.3371
  865MPD2    C212694   2.679   2.943  16.647  0.1986  0.1051  0.1298
  865MPD2    C312695   2.682   3.076  16.692  0.0812 -0.3821  0.3067
  865MPD2    C412696   2.706   3.173  16.601 -0.0393  0.3113  1.0920
  865MPD2    C512697   2.750   3.150  16.474 -0.2169  0.1453  0.1659
  865MPD2     H12698   2.644   2.867  16.716 -0.0230 -1.1451 -1.3760
  865MPD2    H112699   2.698   3.279  16.624 -0.7098  0.9278 -2.0073
  865MPD2    H212700   2.792   2.995  16.331  0.6863  0.1262  0.1161
  865MPD2    H312701   2.761   3.235  16.407  0.5594  0.0138  0.1346
  865MPD2     N12702   2.644   3.110  16.825  0.0515  0.1836 -0.7778
  865MPD2    H512703   2.598   3.200  16.832 -1.2024 -0.5258  0.0467
  865MPD2    N112704   2.749   2.788  16.472 -0.0327 -0.0739 -0.3492
  865MPD2    H712705   2.793   2.791  16.380 -1.0421  1.4305 -0.7687
  866MPD2     C12706   3.821   3.473  11.611  0.1994 -0.3108 -0.2598
  866MPD2    C112707   3.853   3.419  11.485 -0.3345 -0.0664  0.0231
  866MPD2    C212708   3.754   3.410  11.390  0.3840  0.7111 -0.0424
  866MPD2    C312709   3.624   3.461  11.419 -0.2080  0.2707  0.4274
  866MPD2    C412710   3.599   3.519  11.540 -0.4433  0.0674  0.0613
  866MPD2    C512711   3.699   3.518  11.627 -0.8861  0.5379  0.2577
  866MPD2     H12712   3.775   3.370  11.292  1.6009 -1.3973  1.0964
  866MPD2    H112713   3.512   3.580  11.562 -0.2514 -0.5045  2.4241
  866MPD2    H212714   3.886   3.491  11.696 -0.4804 -1.4899  0.5041
  866MPD2    H312715   3.685   3.559  11.726  2.8992 -0.7001  1.2920
  866MPD2     N12716   3.510   3.455  11.342  0.5625 -0.6120  0.2447
  866MPD2    H512717   3.426   3.493  11.384  0.6942 -1.4560  1.2624
  866MPD2    N112718   3.987   3.385  11.461 -0.5253  0.1794  0.3908
  866MPD2    H712719   4.013   3.364  11.365 -0.2002  1.6992  0.1484
  867MPD2     C12720   2.061   3.205  16.734 -0.0143  0.9718 -0.3737
  867MPD2    C112721   2.044   3.155  16.865  0.9031  0.5105 -0.2380
  867MPD2    C212722   2.056   3.247  16.971  0.1168  0.3672 -0.1685
  867MPD2    C312723   2.070   3.381  16.943  0.2197  0.0317 -0.1380
  867MPD2    C412724   2.091   3.426  16.815  0.2987 -0.0770  0.5721
  867MPD2    C512725   2.096   3.335  16.713  0.5443  0.0790 -0.7318
  867MPD2     H12726   2.062   3.212  17.073  1.5573  2.1831  0.3787
  867MPD2    H112727   2.105   3.531  16.793  2.1632 -1.0101 -2.7681
  867MPD2    H212728   2.063   3.144  16.645 -0.8014  1.8534 -0.9952
  867MPD2    H312729   2.105   3.376  16.614 -0.6375  0.2801 -0.7584
  867MPD2     N12730   2.105   3.485  17.031 -0.3462  0.3406 -0.4340
  867MPD2    H512731   2.129   3.569  16.980  2.1892 -0.1476 -0.0675
  867MPD2    N112732   2.027   3.016  16.889 -0.1765 -0.5560  0.1074
  867MPD2    H712733   2.033   2.954  16.809 -0.5268 -2.2691  1.4108
  868MPD2     C12734   3.864   1.263  13.621 -0.2277 -0.0458  0.5109
  868MPD2    C112735   3.814   1.313  13.499 -0.0498 -0.3866 -0.0187
  868MPD2    C212736   3.694   1.386  13.499 -0.2456 -0.3679  0.1430
  868MPD2    C312737   3.630   1.399  13.612  0.2877  0.0080  0.6084
  868MPD2    C412738   3.673   1.345  13.726  0.1230 -0.2457  0.3012
  868MPD2    C512739   3.795   1.279  13.735 -0.6197 -0.8730  0.7176
  868MPD2     H12740   3.650   1.434  13.411  1.8046  0.3707 -0.4827
  868MPD2    H112741   3.620   1.353  13.821 -0.1696  0.8918  0.0393
  868MPD2    H212742   3.943   1.190  13.634  0.4602  0.7260  0.6779
  868MPD2    H312743   3.821   1.242  13.834  0.6480  0.6731  0.9632
  868MPD2     N12744   3.505   1.468  13.601  0.0168 -0.5532  0.0107
  868MPD2    H512745   3.482   1.509  13.510  0.7384 -0.8046 -0.2819
  868MPD2    N112746   3.880   1.267  13.381 -0.7134  0.5069  0.0276
  868MPD2    H712747   3.959   1.204  13.394 -0.6147  0.6783  0.2540
  869MPD2     C12748   4.030   3.761   1.321 -0.5729 -0.4038  0.2032
  869MPD2    C112749   4.141   3.741   1.397  0.2424  0.2133  0.1519
  869MPD2    C212750   4.258   3.802   1.360 -0.2538 -0.0459  0.5303
  869MPD2    C312751   4.271   3.869   1.240 -0.6668 -0.0332  0.4145
  869MPD2    C412752   4.163   3.874   1.162  0.0741  0.5017  0.2408
  869MPD2    C512753   4.039   3.816   1.197 -0.2427  0.6289  0.4244
  869MPD2     H12754   4.354   3.778   1.406 -0.9348 -2.9883  0.4549
  869MPD2    H112755   4.162   3.924   1.066  2.1112  0.4619  0.2169
  869MPD2    H212756   3.931   3.728   1.348 -0.4509 -1.3643 -0.5054
  869MPD2    H312757   3.957   3.802   1.127  1.6119  1.0799 -1.8477
  869MPD2     N12758   4.393   3.917   1.194  0.4528  0.6757 -0.0771
  869MPD2    H512759   4.396   3.947   1.097  0.9050 -0.1611 -0.3213
  869MPD2    N112760   4.128   3.658   1.512  0.1068  0.5017 -0.3932
  869MPD2    H712761   4.035   3.622   1.530  0.7172 -0.1840  1.3612
  870MPD2     C12762   4.410   2.694   1.585 -0.0959 -0.1914  0.4146
  870MPD2    C112763   4.481   2.716   1.462  0.1296  0.0547  0.5684
  870MPD2    C212764   4.507   2.850   1.430  0.4023  0.7492 -0.1798
  870MPD2    C312765   4.464   2.956   1.510 -0.7797 -0.5479 -0.0077
  870MPD2    C412766   4.392   2.931   1.621 -0.1943  0.4556 -0.1468
  870MPD2    C512767   4.366   2.801   1.659  0.8307 -0.2998  0.5935
  870MPD2     H12768   4.574   2.873   1.348  1.3609  1.7466  0.8842
  870MPD2    H112769   4.355   3.008   1.687 -0.5807 -0.7331  1.0175
  870MPD2    H212770   4.377   2.596   1.619  0.2754 -0.2517  0.5952
  870MPD2    H312771   4.309   2.792   1.751  0.8392  0.4851  0.6759
  870MPD2     N12772   4.486   3.086   1.460  0.3460  0.3701 -0.0865
  870MPD2    H512773   4.541   3.082   1.374 -2.3195 -1.0585 -1.7153
  870MPD2    N112774   4.515   2.605   1.376 -0.2280 -0.1971 -0.1968
  870MPD2    H712775   4.485   2.511   1.401 -0.3576  0.2269  1.2476
  871MPD2     C12776   0.316   2.655  16.514  0.1442  0.5712 -0.1842
  871MPD2    C112777   0.323   2.608  16.642 -0.1363  0.3606 -0.0294
  871MPD2    C212778   0.321   2.472  16.662 -0.3717  0.3788  0.2719
  871MPD2    C312779   0.326   2.390  16.550 -0.0769  0.2336  0.3586
  871MPD2    C412780   0.317   2.437  16.425 -0.3162  0.0119 -0.6977
  871MPD2    C512781   0.301   2.569  16.409 -0.0659  0.7512  0.2033
  871MPD2     H12782   0.315   2.425  16.760 -0.5077 -0.2272 -0.0259
  871MPD2    H112783   0.315   2.377  16.335 -2.1036  1.7682 -1.8091
  871MPD2    H212784   0.312   2.761  16.492 -0.4826  0.2288 -1.6943
  871MPD2    H312785   0.294   2.599  16.305  0.0747  1.2124  0.3275
  871MPD2     N12786   0.351   2.256  16.579 -0.6733 -0.2600 -0.4442
  871MPD2    H512787   0.368   2.227  16.674 -0.3648 -2.2538 -1.1026
  871MPD2    N112788   0.311   2.705  16.751 -0.4302 -0.1017  0.0473
  871MPD2    H712789   0.313   2.802  16.720  0.7311  0.3256  1.4586
  872MPD2     C12790   1.599   0.119  14.013  0.0493 -0.2176 -0.1582
  872MPD2    C112791   1.528   0.188  13.911  0.2272  0.0697 -0.3944
  872MPD2    C212792   1.387   0.185  13.907  0.2241  0.3564  0.0387
  872MPD2    C312793   1.317   0.103  14.001 -0.1083 -0.1323  0.3903
  872MPD2    C412794   1.385   0.024  14.092  0.1591 -0.2530  0.3567
  872MPD2    C512795   1.524   0.032  14.095  0.2122  0.1970  1.1137
  872MPD2     H12796   1.325   0.251  13.847 -0.6665  0.1468  0.7215
  872MPD2    H112797   1.332   4.682  14.160 -0.3022 -2.3100 -2.0021
  872MPD2    H212798   1.707   0.126  14.022  0.1853 -2.5549  0.0316
  872MPD2    H312799   1.576   4.693  14.167 -0.5015 -0.6111  0.9304
  872MPD2     N12800   1.182   0.086  14.020  0.5916  0.6311  0.0581
  872MPD2    H512801   1.168   0.019  14.094  0.0438  0.1019 -0.5197
  872MPD2    N112802   1.599   0.269  13.815 -0.2752  0.6171  0.8428
  872MPD2    H712803   1.545   0.310  13.740 -1.3674 -0.5032  1.0104
  873MPD2     C12804   3.929   4.643   0.923  0.3450  0.1286 -0.6306
  873MPD2    C112805   3.814   4.695   0.874  1.1708  0.4269 -0.0033
  873MPD2    C212806   3.744   4.604   0.797 -0.4314  0.2337 -0.7570
  873MPD2    C312807   3.781   4.472   0.776 -0.6160 -0.7474 -0.2811
  873MPD2    C412808   3.892   4.419   0.838 -0.4807 -0.1728 -0.4612
  873MPD2    C512809   3.971   4.513   0.905  0.7079 -0.0907  0.1047
  873MPD2     H12810   3.651   4.640   0.756 -0.0832  1.9124 -0.0641
  873MPD2    H112811   3.929   4.320   0.814  0.3840  0.3313 -1.2354
  873MPD2    H212812   3.997   4.712   0.971  0.0364  0.9048 -1.2933
  873MPD2    H312813   4.067   4.483   0.945  1.2157  1.0865 -0.2566
  873MPD2     N12814   3.707   4.386   0.689  0.0081  0.0284 -0.2919
  873MPD2    H512815   3.707   4.284   0.697 -2.4953  0.2169  2.0024
  873MPD2    N112816   3.774   0.105   0.903  0.0264  0.2710  0.3520
  873MPD2    H712817   3.834   0.161   0.961  1.7175 -0.2682 -0.8827
  874MPD2     C12818   3.011   0.816  15.805  0.2323  0.0014 -0.1315
  874MPD2    C112819   3.059   0.732  15.899  0.4041  0.0594 -0.2929
  874MPD2    C212820   3.182   0.778  15.956  0.3501  0.2203  0.0143
  874MPD2    C312821   3.231   0.903  15.934  0.3442 -0.0190  0.0849
  874MPD2    C412822   3.175   0.987  15.839 -0.1067  0.0599 -0.2749
  874MPD2    C512823   3.067   0.934  15.774 -0.0529 -0.2246 -0.3320
  874MPD2     H12824   3.233   0.716  16.029  0.0392 -1.0335 -0.8408
  874MPD2    H112825   3.218   1.084  15.816  2.2109 -0.7423  0.6998
  874MPD2    H212826   2.926   0.786  15.745 -0.7728  1.2923  0.6526
  874MPD2    H312827   3.020   0.993  15.696 -4.6639 -1.0126  1.8337
  874MPD2     N12828   3.335   0.940  16.011 -0.2740  0.3533  0.1305
  874MPD2    H512829   3.375   0.872  16.076 -2.8486  1.5014  2.9415
  874MPD2    N112830   2.992   0.613  15.929 -0.0293  0.4770  0.1312
  874MPD2    H712831   2.909   0.597  15.872  2.0132 -0.9371 -2.4307
  875MPD2     C12832   3.961   3.234  14.581  0.7182  0.4024  0.3492
  875MPD2    C112833   3.873   3.333  14.531  0.3331 -0.4033 -0.3507
  875MPD2    C212834   3.831   3.432  14.617  0.1938 -0.3828  0.2987
  875MPD2    C312835   3.856   3.428  14.753  0.1750 -0.3878 -0.0673
  875MPD2    C412836   3.942   3.334  14.801 -0.2851  0.9757 -0.0949
  875MPD2    C512837   3.989   3.237  14.716 -0.4649 -0.3670  0.6864
  875MPD2     H12838   3.767   3.506  14.569 -1.6090 -3.0447 -1.4297
  875MPD2    H112839   3.965   3.337  14.906  1.0057  1.0323 -0.3749
  875MPD2    H212840   4.003   3.158  14.517  0.2593 -1.0413  1.7745
  875MPD2    H312841   4.063   3.165  14.750 -1.0239 -2.1397 -1.8461
  875MPD2     N12842   3.797   3.515  14.847  0.3967  0.0598 -0.3092
  875MPD2    H512843   3.828   3.497  14.942  0.1142 -1.7195 -0.5433
  875MPD2    N112844   3.833   3.334  14.399 -0.4501 -0.1715 -0.2772
  875MPD2    H712845   3.790   3.416  14.356  2.2037 -0.1271 -2.8364
  876MPD2     C12846   2.776   0.156  15.733 -0.3667  0.1542  0.5328
  876MPD2    C112847   2.904   0.180  15.770  0.0275 -0.3626  0.5006
  876MPD2    C212848   2.967   0.090  15.856 -0.1748 -0.1295  0.5267
  876MPD2    C312849   2.898   4.700  15.908 -0.0193 -0.3959  0.1671
  876MPD2    C412850   2.768   4.673  15.866  0.3176  0.0328  0.2474
  876MPD2    C512851   2.713   0.043  15.779 -0.6776  0.0893  0.5554
  876MPD2     H12852   3.069   0.113  15.886 -1.2542  0.5697  3.6139
  876MPD2    H112853   2.719   4.577  15.883 -0.7304  0.4762 -0.2538
  876MPD2    H212854   2.729   0.213  15.653 -2.2737 -1.0334  0.7967
  876MPD2    H312855   2.609   0.019  15.764 -0.8318 -0.2593  2.1962
  876MPD2     N12856   2.972   4.608  15.989  0.4886 -0.1801  0.4050
  876MPD2    H512857   3.062   4.639  16.023  0.0982  0.6901  0.6610
  876MPD2    N112858   2.973   0.286  15.709  0.5565  0.3165  0.1995
  876MPD2    H712859   2.931   0.334  15.630 -0.0912  1.0847  1.0107
  877MPD2     C12860   2.757   0.482  15.130  0.2169 -0.4017 -0.3806
  877MPD2    C112861   2.888   0.512  15.116 -0.1448  0.0161 -1.1548
  877MPD2    C212862   2.941   0.520  14.991  0.8184  0.2041 -0.7348
  877MPD2    C312863   2.859   0.499  14.879  0.7241  0.1614 -0.3646
  877MPD2    C412864   2.724   0.487  14.891 -0.6632 -0.4828  0.1386
  877MPD2    C512865   2.674   0.478  15.019  0.2166  0.8322 -0.0570
  877MPD2     H12866   3.049   0.516  14.989  0.8614 -0.1546  2.9284
  877MPD2    H112867   2.650   0.467  14.815  1.4138 -2.7234 -1.2799
  877MPD2    H212868   2.716   0.459  15.228 -0.4072 -1.1965 -0.8231
  877MPD2    H312869   2.569   0.453  15.032 -0.1537  2.3779 -0.0838
  877MPD2     N12870   2.913   0.493  14.751 -0.4076  0.3032 -0.2170
  877MPD2    H512871   2.840   0.488  14.681 -1.7127  1.2928  1.0630
  877MPD2    N112872   2.977   0.528  15.223 -0.4437  0.4295 -0.0281
  877MPD2    H712873   3.074   0.547  15.199 -0.4810 -1.0451 -1.2974
  878MPD2     C12874   2.611   4.038  12.972  0.3835  0.1181  0.3364
  878MPD2    C112875   2.689   4.143  12.987  0.0565 -0.4541 -0.5922
  878MPD2    C212876   2.638   4.244  13.070  0.9710 -0.8569 -0.3414
  878MPD2    C312877   2.531   4.235  13.146 -0.1233 -0.7602  0.2916
  878MPD2    C412878   2.451   4.126  13.126  0.0054 -0.3662  0.3312
  878MPD2    C512879   2.498   4.026  13.048  0.4159  0.3479  0.1049
  878MPD2     H12880   2.685   4.342  13.074 -1.8040  0.4807 -0.7943
  878MPD2    H112881   2.384   4.092  13.204 -0.7003  2.1630  0.8091
  878MPD2    H212882   2.649   3.946  12.927  1.1734  0.1616  0.9160
  878MPD2    H312883   2.459   3.925  13.045 -2.5354  1.4043  2.2281
  878MPD2     N12884   2.507   4.336  13.248 -0.3543  0.4457 -0.0365
  878MPD2    H512885   2.580   4.406  13.259  0.2024 -0.2785  0.8579
  878MPD2    N112886   2.793   4.150  12.892  0.4819 -0.3105  0.3699
  878MPD2    H712887   2.789   4.068  12.831 -0.2926  1.4165 -1.8910
  879MPD2     C12888   3.285   1.723  17.291 -0.0584  0.6313  0.5133
  879MPD2    C112889   3.276   1.597  17.361  0.6455 -0.4874 -0.5293
  879MPD2    C212890   3.309   1.476  17.299 -0.0368 -0.3222 -0.0362
  879MPD2    C312891   3.343   1.478  17.169  0.0850 -0.0666  0.3238
  879MPD2    C412892   3.348   1.594  17.098  1.0324  0.6057 -0.0920
  879MPD2    C512893   3.315   1.714  17.156  0.2941 -0.1112 -0.1110
  879MPD2     H12894   3.290   1.388  17.358  2.5440 -0.9178 -0.1037
  879MPD2    H112895   3.367   1.600  16.992  1.5838 -2.4473 -0.1865
  879MPD2    H212896   3.262   1.818  17.336 -1.3490  0.4994  0.1245
  879MPD2    H312897   3.309   1.810  17.106 -0.0281  0.5727  1.2333
  879MPD2     N12898   3.360   1.360  17.090  0.3194 -0.9099  0.2675
  879MPD2    H512899   3.365   1.377  16.990 -1.4369  1.2148  0.5478
  879MPD2    N112900   3.231   1.603  17.494 -0.0590  0.1153 -0.5101
  879MPD2    H712901   3.202   1.695  17.527 -1.2599 -0.1200 -0.8866
  880MPD2     C12902   4.620   2.699   0.069  0.0474 -0.4126 -0.0292
  880MPD2    C112903   4.667   2.757   0.189 -0.3402 -0.3594  0.1982
  880MPD2    C212904   0.029   2.683   0.263 -0.0421  1.0524  0.9081
  880MPD2    C312905   0.058   2.551   0.232 -0.0922  0.4770 -0.0733
  880MPD2    C412906   4.715   2.490   0.122 -0.3791 -0.4607  0.4988
  880MPD2    C512907   4.645   2.571   0.033 -0.4202 -0.6180  0.2926
  880MPD2     H12908   0.071   2.719   0.356 -1.3829  0.1495  1.8637
  880MPD2    H112909   0.011   2.387   0.098 -0.2484  0.3400 -2.8123
  880MPD2    H212910   4.567   2.765   0.001  1.0873  0.4269 -0.0272
  880MPD2    H312911   4.599   2.536  17.636  0.4621 -0.3745 -0.2374
  880MPD2     N12912   0.159   2.492   0.305  0.9137 -0.0999 -0.3998
  880MPD2    H512913   0.216   2.552   0.365 -1.3559  0.2246  1.4413
  880MPD2    N112914   4.625   2.890   0.213  0.7034 -0.6460 -0.6306
  880MPD2    H712915   4.570   2.934   0.141 -0.2551 -0.8637 -0.0292
  881MPD2     C12916   4.591   3.808  17.518 -0.4273  0.3142 -0.3973
  881MPD2    C112917   4.636   3.672  17.491  0.6174 -0.5050  0.3031
  881MPD2    C212918   4.612   3.573  17.585  0.8145  0.3890 -0.7479
  881MPD2    C312919   4.568   3.603   0.020 -0.0609  0.0770 -0.3878
  881MPD2    C412920   4.549   3.741   0.052 -0.0015  0.0512  0.3120
  881MPD2    C512921   4.565   3.838  17.649 -1.0031 -0.2245  0.1054
  881MPD2     H12922   4.625   3.470  17.555  0.3378  0.0901  0.0948
  881MPD2    H112923   4.530   3.774   0.154  0.7134 -2.3586  1.2254
  881MPD2    H212924   4.605   3.884  17.442 -0.9174 -0.2756 -1.0836
  881MPD2    H312925   4.541   3.940  17.677 -0.1390 -0.0915  0.3809
  881MPD2     N12926   4.550   3.498   0.119 -0.4288  0.6740  0.0688
  881MPD2    H512927   4.529   3.539   0.209  0.5548  0.7930  0.2454
  881MPD2    N112928   4.663   3.642  17.351  0.5975  0.0055 -0.3624
  881MPD2    H712929   4.642   3.718  17.288 -0.8412  0.7159  0.9404
  882MPD2     C12930   2.953   0.374  13.917  0.5609  0.5046  0.3155
  882MPD2    C112931   2.883   0.420  14.016  0.8152  0.0727  0.0875
  882MPD2    C212932   2.749   0.389  14.019  0.4414  0.0742  0.2869
  882MPD2    C312933   2.682   0.317  13.920 -0.1187  0.2647 -0.6861
  882MPD2    C412934   2.766   0.269  13.815 -0.8123  0.0049  0.2252
  882MPD2    C512935   2.902   0.297  13.814 -0.4167  0.5120 -0.2959
  882MPD2     H12936   2.695   0.430  14.104  0.4342 -0.6793  0.6487
  882MPD2    H112937   2.707   0.229  13.733  1.3268 -2.2421 -0.2224
  882MPD2    H212938   3.056   0.401  13.896  1.3361  0.3817  3.7974
  882MPD2    H312939   2.967   0.272  13.731 -1.0787 -0.3291 -0.5561
  882MPD2     N12940   2.545   0.285  13.921 -0.5858 -0.0191 -0.7784
  882MPD2    H512941   2.505   0.232  13.844 -0.3561 -0.4814 -0.5779
  882MPD2    N112942   2.945   0.489  14.128  0.1983 -0.7540 -0.5053
  882MPD2    H712943   3.043   0.508  14.112 -0.0192 -0.3872 -1.4199
  883MPD2     C12944   4.678   0.029  16.128  0.3872 -0.2038 -0.0572
  883MPD2    C112945   4.703   0.158  16.074  0.2549  0.0234  0.1815
  883MPD2    C212946   0.041   0.263  16.141 -0.1878 -0.5475 -0.4052
  883MPD2    C312947   0.088   0.239  16.271  0.1011 -0.2869  0.5411
  883MPD2    C412948   0.049   0.121  16.330  0.4222  0.1057  0.6116
  883MPD2    C512949   4.719   0.012  16.259  0.2475 -0.0960 -0.1993
  883MPD2     H12950   0.054   0.355  16.086  0.6751  0.6792  1.8379
  883MPD2    H112951   0.075   0.104  16.434 -1.5140  1.0372  1.2454
  883MPD2    H212952   4.634   4.669  16.075  2.2468 -2.0313  1.2254
  883MPD2    H312953   4.692   4.644  16.310  0.5442 -0.6235 -0.9834
  883MPD2     N12954   0.172   0.331  16.337  0.3498 -0.1013 -0.1316
  883MPD2    H512955   0.193   0.420  16.293  1.6649 -1.3664 -2.0639
  883MPD2    N112956   4.637   0.201  15.954  0.8045 -0.5788  0.2683
  883MPD2    H712957   4.655   0.295  15.918  0.8176 -0.9572 -0.7144
  884MPD2     C12958   1.937   0.916  15.310  0.1463  0.8408  0.1329
  884MPD2    C112959   1.934   1.045  15.251  0.7620 -0.2195 -0.1411
  884MPD2    C212960   1.809   1.088  15.208  0.2086  0.4646  0.5830
  884MPD2    C312961   1.696   1.013  15.246 -0.1251 -0.2814  0.0804
  884MPD2    C412962   1.710   0.897  15.325  0.2828  0.1023  0.2062
  884MPD2    C512963   1.831   0.843  15.355 -0.1351 -1.0159 -0.1292
  884MPD2     H12964   1.793   1.175  15.146 -0.2256 -0.0881 -0.0745
  884MPD2    H112965   1.625   0.839  15.356  0.2667 -0.0401 -0.1062
  884MPD2    H212966   2.033   0.868  15.328  0.0780  0.0886 -1.4628
  884MPD2    H312967   1.852   0.759  15.419  0.1521 -0.3767  0.6208
  884MPD2     N12968   1.566   1.049  15.203  0.0610  0.4912  0.4345
  884MPD2    H512969   1.559   1.136  15.151 -1.4621 -0.5420 -1.0662
  884MPD2    N112970   2.054   1.117  15.221 -0.6279 -0.7057 -0.5608
  884MPD2    H712971   2.044   1.187  15.148 -0.0894  0.6865  0.7177
  885MPD2     C12972   0.569   1.556   0.534 -0.4522  0.1559 -0.5603
  885MPD2    C112973   0.649   1.475   0.454  0.6854  0.7324  0.1434
  885MPD2    C212974   0.604   1.455   0.328 -0.4008 -0.2635 -0.5143
  885MPD2    C312975   0.485   1.516   0.280 -0.7511  0.4336  0.2730
  885MPD2    C412976   0.403   1.589   0.366  0.4338  0.2029  0.2499
  885MPD2    C512977   0.453   1.612   0.486  0.0605 -0.2886  0.2165
  885MPD2     H12978   0.667   1.387   0.272  1.8105  0.7734  0.6984
  885MPD2    H112979   0.313   1.646   0.344 -0.3260 -1.3390 -0.6705
  885MPD2    H212980   0.604   1.590   0.631 -1.0152  0.1219 -0.3497
  885MPD2    H312981   0.393   1.673   0.554 -0.6503  0.1809 -0.8357
  885MPD2     N12982   0.468   1.512   0.139  0.4736  0.1744  0.5588
  885MPD2    H512983   0.544   1.467   0.089 -1.1419 -1.5728 -0.3383
  885MPD2    N112984   0.766   1.405   0.508  0.4466  0.2263 -0.6943
  885MPD2    H712985   0.778   1.421   0.607 -0.4695  1.8085 -0.8294
  886MPD2     C12986   1.515   4.352  15.654 -0.1135 -0.2589  0.1198
  886MPD2    C112987   1.523   4.334  15.514  0.1398 -0.7029 -0.6926
  886MPD2    C212988   1.494   4.437  15.431 -0.3454 -0.8097  0.4546
  886MPD2    C312989   1.445   4.555  15.480 -0.2437 -1.2863 -0.5371
  886MPD2    C412990   1.437   4.578  15.615  0.7050 -0.0449  0.9720
  886MPD2    C512991   1.473   4.475  15.702 -0.6913 -0.8350 -0.0849
  886MPD2     H12992   1.508   4.422  15.325  1.6335 -0.0011  0.6035
  886MPD2    H112993   1.401   4.668  15.664  1.8113  0.3133  1.1300
  886MPD2    H212994   1.561   4.286  15.727 -1.1531 -1.2207 -0.0948
  886MPD2    H312995   1.482   4.491  15.808 -0.6435 -0.6302 -0.1198
  886MPD2     N12996   1.418   4.666  15.405 -0.3727  0.5155  0.1851
  886MPD2    H512997   1.399   0.023  15.463 -1.8599  1.1301 -1.1523
  886MPD2    N112998   1.571   4.212  15.451 -0.0672  0.1130 -0.0440
  886MPD2    H712999   1.572   4.210  15.350  1.0627  1.8205 -0.0508
  887MPD2     C13000   1.993   4.311  15.177 -0.2587  0.3324  0.2031
  887MPD2    C113001   1.948   4.286  15.307 -0.4035  0.8199 -0.3818
  887MPD2    C213002   1.902   4.391  15.391 -0.4007  0.2686  0.2867
  887MPD2    C313003   1.919   4.524  15.349 -0.2709  0.5380 -0.7861
  887MPD2    C413004   1.972   4.552  15.228  0.1158 -0.6282  0.1295
  887MPD2    C513005   2.002   4.446  15.141 -0.0448  0.1754  0.1565
  887MPD2     H13006   1.870   4.364  15.491 -1.2640  0.8474  0.1609
  887MPD2    H113007   1.980   4.654  15.193  1.9258 -1.1594 -1.0078
  887MPD2    H213008   2.008   4.227  15.110 -0.3529  1.7821 -1.6236
  887MPD2    H313009   2.019   4.455  15.034 -1.2215 -1.5828 -0.2013
  887MPD2     N13010   1.881   4.636  15.428  0.4909  0.7647  0.5694
  887MPD2    H513011   1.872   0.004  15.383  1.6773  0.5868 -0.0311
  887MPD2    N113012   1.938   4.154  15.349  0.1138 -0.1749  0.1326
  887MPD2    H713013   1.891   4.144  15.439 -1.3969 -1.3303 -0.7808
  888MPD2     C13014   4.105   4.661  14.638  0.5233 -0.2843  0.2600
  888MPD2    C113015   4.041   0.003  14.740 -0.0361 -0.1976  0.2368
  888MPD2    C213016   4.090   0.127  14.783  1.0538  0.0229 -0.4239
  888MPD2    C313017   4.193   0.186  14.718 -0.2450 -0.3615 -0.0847
  888MPD2    C413018   4.249   0.124  14.608  0.0027  0.3479 -0.1617
  888MPD2    C513019   4.208   4.721  14.569  0.3916 -0.1623  0.3442
  888MPD2     H13020   4.045   0.185  14.863  1.5100 -1.1209  0.6706
  888MPD2    H113021   4.331   0.166  14.552  0.1524 -1.9513 -1.6511
  888MPD2    H213022   4.095   4.555  14.618 -3.3247  0.5430 -2.2288
  888MPD2    H313023   4.267   4.668  14.495  1.4630  2.7046 -0.8574
  888MPD2     N13024   4.236   0.315  14.756 -0.9959 -0.6352  0.3041
  888MPD2    H513025   4.196   0.360  14.838  0.5080 -0.9703  1.2215
  888MPD2    N113026   3.934   4.676  14.801  0.5589 -0.0658  0.1258
  888MPD2    H713027   3.920   4.717  14.893  2.0757 -3.3566  1.8492
  889MPD2     C13028   3.244   4.133  12.472  0.8632  0.1104  0.5745
  889MPD2    C113029   3.355   4.130  12.551  0.4472 -0.0055 -0.2422
  889MPD2    C213030   3.389   4.234  12.636  0.1590  0.3846  0.4514
  889MPD2    C313031   3.307   4.345  12.631 -0.2181 -0.3728 -0.2450
  889MPD2    C413032   3.210   4.363  12.536  0.1392  0.2667  0.5306
  889MPD2    C513033   3.186   4.257  12.453 -0.2032  0.2903  0.0433
  889MPD2     H13034   3.463   4.226  12.715 -0.1899  2.3779  0.9686
  889MPD2    H113035   3.156   4.456  12.536  2.4951  1.6456  1.7613
  889MPD2    H213036   3.237   4.045  12.409 -0.6285 -0.7407  1.9339
  889MPD2    H313037   3.116   4.276  12.372 -1.5360  0.8853  1.3372
  889MPD2     N13038   3.324   4.437  12.741  0.5857  0.4216  0.4577
  889MPD2    H513039   3.381   4.416  12.823  4.2248 -0.1914 -2.2453
  889MPD2    N113040   3.414   4.005  12.586  0.3244  0.5171  0.4545
  889MPD2    H713041   3.368   3.931  12.534  0.8591  0.4961  0.0133
  890MPD2     C13042   2.423   1.114  14.590  0.0254 -0.3410  0.0781
  890MPD2    C113043   2.497   1.186  14.688 -0.0224 -0.2968 -1.1681
  890MPD2    C213044   2.550   1.120  14.797 -0.4954 -0.0211 -0.3707
  890MPD2    C313045   2.531   0.986  14.816 -0.2857  0.0294  0.0248
  890MPD2    C413046   2.464   0.912  14.716  0.0069 -0.4064 -0.2523
  890MPD2    C513047   2.408   0.979  14.609  1.1292  0.3542 -0.7744
  890MPD2     H13048   2.611   1.172  14.870 -0.8728 -0.3138  0.1515
  890MPD2    H113049   2.446   0.806  14.726  1.6099 -0.8328 -2.0741
  890MPD2    H213050   2.357   1.159  14.516 -1.8525 -2.5200  0.4164
  890MPD2    H313051   2.354   0.920  14.536 -1.5702  0.8118  0.8377
  890MPD2     N13052   2.576   0.924  14.940  0.4911 -0.0667 -0.5519
  890MPD2    H513053   2.645   0.971  14.998  0.4489 -2.0414  1.1076
  890MPD2    N113054   2.500   1.327  14.667 -0.2208 -0.0311  0.0756
  890MPD2    H713055   2.427   1.356  14.603  0.1983 -0.5531 -0.6391
  891MPD2     C13056   1.033   0.037  16.306 -0.8036  0.0745 -0.1761
  891MPD2    C113057   0.969   0.037  16.424  0.7284  0.5256  0.1652
  891MPD2    C213058   1.040   0.022  16.542  0.1188 -0.4585  0.2771
  891MPD2    C313059   1.172   4.707  16.542 -0.8516  0.2041 -0.7242
  891MPD2    C413060   1.238   4.704  16.416 -0.1024  0.0049 -0.2121
  891MPD2    C513061   1.167   0.006  16.303 -0.4651 -0.5069 -0.0759
  891MPD2     H13062   0.993   0.030  16.639 -1.6487  2.2504 -0.8190
  891MPD2    H113063   1.342   4.679  16.401  0.1895  1.1453 -0.0852
  891MPD2    H213064   0.981   0.047  16.211  0.8064  0.0262 -1.0670
  891MPD2    H313065   1.228   0.015  16.214  0.1817  0.4238  0.4591
  891MPD2     N13066   1.234   4.661  16.660 -0.3994 -0.1700  0.4617
  891MPD2    H513067   1.177   4.660  16.744 -0.7279 -1.5396  0.2227
  891MPD2    N113068   0.827   0.060  16.423  0.8663 -0.6286 -0.3030
  891MPD2    H713069   0.780   0.066  16.334 -0.1935  0.4878  0.3306
  892MPD2     C13070   2.005   0.398  14.754 -0.2901 -0.1103  0.5633
  892MPD2    C113071   1.918   0.403  14.652  0.0854  0.3193  1.1117
  892MPD2    C213072   1.953   0.341  14.532 -0.7191 -0.9641  0.6477
  892MPD2    C313073   2.082   0.297  14.508 -0.2632 -0.0908 -0.0964
  892MPD2    C413074   2.167   0.289  14.614 -0.5131 -0.5672 -0.3717
  892MPD2    C513075   2.131   0.346  14.736  0.0101  0.2899 -0.0474
  892MPD2     H13076   1.885   0.337  14.448 -1.5200  0.9596  1.2094
  892MPD2    H113077   2.268   0.249  14.613 -0.3479 -0.1291 -0.9561
  892MPD2    H213078   1.983   0.451  14.846  1.7727  1.0247  0.4133
  892MPD2    H313079   2.192   0.352  14.825  2.2602  0.0968 -1.5784
  892MPD2     N13080   2.128   0.255  14.382  0.1606  0.6001  0.3263
  892MPD2    H513081   2.223   0.217  14.385 -0.5373 -1.0854  1.0530
  892MPD2    N113082   1.790   0.461  14.666 -0.1471  0.2109 -0.0814
  892MPD2    H713083   1.725   0.476  14.590  2.0959 -0.9648 -2.2223
  893MPD2     C13084   0.177   2.230   1.492  0.2718  0.6859 -0.3711
  893MPD2    C113085   0.073   2.300   1.548 -0.2542 -0.0255 -0.1372
  893MPD2    C213086   4.669   2.245   1.547 -0.0961  0.0507 -0.6191
  893MPD2    C313087   4.646   2.108   1.511 -0.7822  0.4389 -0.4824
  893MPD2    C413088   0.033   2.044   1.460  0.0403 -0.4878 -0.1472
  893MPD2    C513089   0.157   2.103   1.457 -0.0115  0.0802 -0.1932
  893MPD2     H13090   4.583   2.309   1.565 -2.2939 -2.7324 -1.3122
  893MPD2    H113091   0.022   1.938   1.440 -0.5438 -1.0793  3.2930
  893MPD2    H213092   0.276   2.273   1.492  1.1263 -1.2661 -1.3557
  893MPD2    H313093   0.243   2.051   1.418  0.4217  0.4363  0.2805
  893MPD2     N13094   4.518   2.037   1.512  0.0889 -0.1535  0.5748
  893MPD2    H513095   4.511   1.944   1.472 -2.1071  0.1039  0.3667
  893MPD2    N113096   0.100   2.427   1.599 -0.1281 -0.3372 -0.1561
  893MPD2    H713097   0.193   2.465   1.584 -0.6959  0.7538 -0.8678
  894MPD2     C13098   2.297   1.693   0.761 -0.0722  0.3592 -0.6079
  894MPD2    C113099   2.254   1.683   0.892  0.0437  0.1406  0.6894
  894MPD2    C213100   2.245   1.793   0.966 -0.5234  0.4727 -0.1511
  894MPD2    C313101   2.278   1.919   0.918 -0.3044 -0.3411  0.2946
  894MPD2    C413102   2.322   1.927   0.784  0.1835 -0.0491  0.0805
  894MPD2    C513103   2.326   1.812   0.706  0.5854 -0.5078  0.5991
  894MPD2     H13104   2.200   1.775   1.063  0.7305 -1.3305  0.0878
  894MPD2    H113105   2.332   2.023   0.735  1.5413  0.9842  2.3456
  894MPD2    H213106   2.311   1.606   0.698  1.7979  0.0816  0.2065
  894MPD2    H313107   2.368   1.812   0.606  4.1858 -0.2662  2.1164
  894MPD2     N13108   2.267   2.034   0.992  0.4308 -0.5467  0.8957
  894MPD2    H513109   2.220   2.019   1.081 -0.8012 -3.4254 -0.2262
  894MPD2    N113110   2.222   1.560   0.957  0.0370  0.2921 -0.0689
  894MPD2    H713111   2.191   1.557   1.054 -1.9699 -2.7749 -0.8148
  895MPD2     C13112   1.025   4.324  13.464  0.1953 -0.1644 -0.0010
  895MPD2    C113113   0.997   4.327  13.331 -0.3861 -0.3826 -0.8100
  895MPD2    C213114   1.031   4.215  13.260 -0.0630 -0.1070 -0.2165
  895MPD2    C313115   1.107   4.109  13.315  0.0127 -0.1600  0.2910
  895MPD2    C413116   1.147   4.114  13.449 -0.5379  0.2860  0.4032
  895MPD2    C513117   1.104   4.225  13.519  0.0217  0.3571  0.0199
  895MPD2     H13118   1.020   4.222  13.153 -0.1908 -0.1609 -0.2075
  895MPD2    H113119   1.205   4.050  13.515 -0.4424 -0.4715 -0.4278
  895MPD2    H213120   0.986   4.395  13.537 -1.0608  0.5928 -1.4308
  895MPD2    H313121   1.127   4.229  13.625  1.3978 -1.3080 -0.2152
  895MPD2     N13122   1.121   3.992  13.240  0.1138 -0.2559  0.3949
  895MPD2    H513123   1.070   3.982  13.152 -0.9306  2.6652  0.6861
  895MPD2    N113124   0.919   4.427  13.270 -0.3256  0.4827  0.2475
  895MPD2    H713125   0.889   4.411  13.174  2.7545  2.9044 -1.1319
  896MPD2     C13126   3.344   2.194   1.606 -0.3711  0.1177  0.4115
  896MPD2    C113127   3.314   2.208   1.468  0.1300  0.0279  0.0455
  896MPD2    C213128   3.203   2.153   1.423  0.2339  0.3225 -0.4356
  896MPD2    C313129   3.110   2.094   1.509 -0.0372 -0.1549 -0.0213
  896MPD2    C413130   3.138   2.084   1.648 -0.2824  0.3472 -0.3745
  896MPD2    C513131   3.257   2.141   1.698 -0.3554  0.6541  0.2814
  896MPD2     H13132   3.181   2.170   1.318  0.5685  1.7374 -0.2727
  896MPD2    H113133   3.074   2.033   1.719 -0.5368  0.0528 -0.8079
  896MPD2    H213134   3.437   2.235   1.644 -1.9989  3.5120  0.7774
  896MPD2    H313135   3.273   2.127   1.804  0.3976 -1.2057 -0.0860
  896MPD2     N13136   2.988   2.051   1.456 -0.5270 -0.1407 -0.3849
  896MPD2    H513137   2.962   2.086   1.364 -1.5339 -0.1937 -0.1207
  896MPD2    N113138   3.413   2.258   1.386 -0.3704  0.3922 -0.2489
  896MPD2    H713139   3.501   2.282   1.432  0.0428 -0.0974 -0.7827
  897MPD2     C13140   4.065   3.823  10.589  0.3133  0.1354 -0.7324
  897MPD2    C113141   4.155   3.810  10.691 -0.7317  0.4965 -0.0574
  897MPD2    C213142   4.114   3.852  10.818  0.7166  0.0694 -0.6795
  897MPD2    C313143   3.994   3.904  10.845  0.2786  0.1779 -0.2704
  897MPD2    C413144   3.905   3.915  10.740  0.1395  0.3230 -0.3412
  897MPD2    C513145   3.948   3.875  10.618 -0.4019 -0.1239 -0.0486
  897MPD2     H13146   4.170   3.822  10.906  0.7837  1.0884 -0.3816
  897MPD2    H113147   3.802   3.949  10.745 -0.1145 -0.6508  1.2144
  897MPD2    H213148   4.090   3.798  10.487 -1.4560  0.3350 -1.2028
  897MPD2    H313149   3.875   3.892  10.540 -0.4150  1.7387  0.3699
  897MPD2     N13150   3.963   3.930  10.980  0.1727 -0.2617 -0.7147
  897MPD2    H513151   4.026   3.907  11.056 -2.0694 -1.1372  0.8749
  897MPD2    N113152   4.282   3.755  10.674 -0.1688  0.1057  0.0490
  897MPD2    H713153   4.338   3.754  10.759 -1.9739 -0.7398  1.2358
  898MPD2     C13154   2.101   4.711   0.113 -0.5225 -0.2730  0.3814
  898MPD2    C113155   2.197   0.070   0.062  0.9678 -0.5465  0.7528
  898MPD2    C213156   2.179   0.133  17.635  0.2638  0.1181 -0.2238
  898MPD2    C313157   2.052   0.136  17.582  0.6202 -0.0396 -0.4604
  898MPD2    C413158   1.949   0.062  17.642 -0.7075  0.2520 -1.3850
  898MPD2    C513159   1.981   4.695   0.042 -0.4306 -0.2743 -0.3494
  898MPD2     H13160   2.261   0.180  17.582 -0.7409 -0.0636 -1.9761
  898MPD2    H113161   1.855   0.062  17.589 -0.2595  1.7031 -2.1909
  898MPD2    H213162   2.107   4.657   0.207 -1.0459  0.1895  0.6806
  898MPD2    H313163   1.908   4.620   0.070 -1.8397  2.0047  2.0890
  898MPD2     N13164   2.028   0.239  17.485 -0.1341 -0.3720  0.4132
  898MPD2    H513165   2.104   0.268  17.423 -0.3778  2.0929  1.2701
  898MPD2    N113166   2.326   0.081   0.113 -0.5536  0.2701  0.3588
  898MPD2    H713167   2.379   0.156   0.070 -0.4124 -0.0839 -0.0820
  899MPD2     C13168   3.045   1.109  17.636 -0.2875 -0.6144 -0.6750
  899MPD2    C113169   2.994   1.090  17.511 -0.3463 -1.0093 -1.1696
  899MPD2    C213170   2.870   1.036  17.497 -0.3126  0.6300 -0.4302
  899MPD2    C313171   2.802   0.985  17.610  0.1290 -0.3383 -0.1380
  899MPD2    C413172   2.849   1.014   0.040 -0.4046  0.0152 -0.3233
  899MPD2    C513173   2.976   1.070   0.049 -0.4271 -0.0786  0.1220
  899MPD2     H13174   2.820   1.030  17.401  2.0208 -2.3101 -1.4620
  899MPD2    H113175   2.792   0.977   0.125 -1.8367 -0.2686 -1.4087
  899MPD2    H213176   3.140   1.157  17.654 -0.6612 -1.0273  2.4449
  899MPD2    H313177   3.015   1.100   0.146 -2.5144  0.8512  0.6666
  899MPD2     N13178   2.673   0.931  17.613  0.2656  0.0803  1.0156
  899MPD2    H513179   2.630   0.946   0.009 -2.6081  3.2566 -0.8084
  899MPD2    N113180   3.064   1.157  17.407  0.0923  0.5242 -0.2309
  899MPD2    H713181   3.130   1.229  17.436 -0.9295  2.0274 -1.5914
  900MPD2     C13182   2.168   2.358  12.750 -0.2752 -0.4095  0.1958
  900MPD2    C113183   2.135   2.242  12.685  0.4585  0.6337 -0.4266
  900MPD2    C213184   2.052   2.242  12.577  0.7250  0.0344 -0.1694
  900MPD2    C313185   1.998   2.363  12.538  0.2647  0.5284  0.0947
  900MPD2    C413186   2.036   2.474  12.603  0.3975  0.3107  0.0070
  900MPD2    C513187   2.120   2.474  12.707 -1.4317 -0.0347  0.1680
  900MPD2     H13188   2.026   2.155  12.518 -1.6985 -0.0916  1.0710
  900MPD2    H113189   2.005   2.577  12.586 -1.1340  0.1148  1.5046
  900MPD2    H213190   2.232   2.370  12.837  1.1779 -0.4952 -0.8720
  900MPD2    H313191   2.155   2.569  12.745 -0.7027 -0.4564  0.5413
  900MPD2     N13192   1.914   2.369  12.424 -0.2950 -0.4687  0.5822
  900MPD2    H513193   1.883   2.279  12.389  1.6594 -0.7833 -0.3443
  900MPD2    N113194   2.198   2.120  12.733 -0.2896 -0.6958  0.2232
  900MPD2    H713195   2.278   2.136  12.793  1.7890  0.0708 -2.7676
  901MPD2     C13196   2.287   1.130  13.170 -0.8381  0.9568 -0.2816
  901MPD2    C113197   2.325   1.113  13.042  0.3053 -0.6861 -0.0115
  901MPD2    C213198   2.321   1.233  12.969 -0.1494 -0.1571 -0.8155
  901MPD2    C313199   2.291   1.355  13.033  0.7739  0.5320  0.1713
  901MPD2    C413200   2.244   1.366  13.163 -0.3281  0.2597  0.6071
  901MPD2    C513201   2.252   1.245  13.229 -0.0830  0.4810  0.2933
  901MPD2     H13202   2.334   1.232  12.861  1.2767  1.4664 -0.6591
  901MPD2    H113203   2.229   1.458  13.219  1.5309  1.4740 -0.8743
  901MPD2    H213204   2.280   1.049  13.242  2.2395  1.7681  0.9432
  901MPD2    H313205   2.219   1.234  13.332  0.4702 -0.6250  0.3550
  901MPD2     N13206   2.291   1.468  12.950  0.0304 -0.5166  0.3379
  901MPD2    H513207   2.334   1.451  12.860 -1.8666  0.8352 -0.8190
  901MPD2    N113208   2.355   0.978  12.992 -0.6789 -0.0402  0.2344
  901MPD2    H713209   2.349   0.899  13.056 -1.4304 -0.0722  0.1178
  902MPD2     C13210   1.051   0.176  12.731 -0.6672  0.8968  0.0587
  902MPD2    C113211   0.974   0.185  12.615 -0.5833 -0.2503  0.0911
  902MPD2    C213212   0.962   0.063  12.549  0.0139 -0.9515  0.5915
  902MPD2    C313213   1.029   4.671  12.588 -0.5882 -0.6464  0.5690
  902MPD2    C413214   1.110   4.671  12.701  0.4575  0.3139  0.0858
  902MPD2    C513215   1.111   0.061  12.775  0.1354  0.2104 -0.4906
  902MPD2     H13216   0.914   0.051  12.452 -0.8385  2.6025  0.5862
  902MPD2    H113217   1.146   4.582  12.751  0.4871  0.6105  0.5887
  902MPD2    H213218   1.058   0.261  12.799  1.8775 -1.3711  2.6476
  902MPD2    H313219   1.163   0.070  12.869 -0.6536  3.6409 -0.3767
  902MPD2     N13220   1.003   4.541  12.525  0.1494  0.6646  0.8001
  902MPD2    H513221   0.931   4.545  12.453 -0.8691 -1.9436  1.6746
  902MPD2    N113222   0.926   0.309  12.566 -0.4266 -0.3181 -0.1884
  902MPD2    H713223   0.947   0.389  12.624  3.5559 -0.8415 -0.9315
  903MPD2     C13224   1.033   4.439  11.863 -0.0944  0.5318  0.3006
  903MPD2    C113225   0.922   4.423  11.950 -0.4155 -0.3901 -0.1359
  903MPD2    C213226   0.806   4.481  11.907 -0.4947  0.2739 -0.5616
  903MPD2    C313227   0.796   4.548  11.794 -0.0079  0.0724  0.8557
  903MPD2    C413228   0.901   4.546  11.703 -0.1122 -0.3007  0.0919
  903MPD2    C513229   1.018   4.495  11.738 -0.2798 -0.1532  0.8271
  903MPD2     H13230   0.713   4.481  11.964  0.7640  1.1850  1.4864
  903MPD2    H113231   0.903   4.599  11.609  2.0001  1.0751  0.9215
  903MPD2    H213232   1.130   4.402  11.895  0.0207  0.7813  0.2466
  903MPD2    H313233   1.106   4.507  11.677  0.7752  2.1438  2.8027
  903MPD2     N13234   0.682   4.618  11.773 -0.0074 -0.3355 -0.1145
  903MPD2    H513235   0.600   4.587  11.824  0.6015  0.7760  1.5287
  903MPD2    N113236   0.934   4.336  12.061  0.0600  0.1770 -0.0746
  903MPD2    H713237   1.024   4.294  12.079  0.3916  1.0688  0.3590
  904MPD2     C13238   0.760   3.924  13.660 -0.5851 -0.1984 -0.5500
  904MPD2    C113239   0.758   3.906  13.803 -0.1040 -0.6550  0.0632
  904MPD2    C213240   0.875   3.865  13.862  0.4084 -0.8824  0.3591
  904MPD2    C313241   0.997   3.865  13.798  0.1279 -0.2986  0.2795
  904MPD2    C413242   0.995   3.875  13.657 -0.4175 -0.0508 -0.6675
  904MPD2    C513243   0.886   3.919  13.592 -0.0182  0.3149  0.1584
  904MPD2     H13244   0.873   3.834  13.965 -2.1653  0.4581  0.7120
  904MPD2    H113245   1.091   3.872  13.606  0.9488 -1.3992  1.9512
  904MPD2    H213246   0.673   3.933  13.597 -0.4680 -1.4848 -0.8848
  904MPD2    H313247   0.884   3.940  13.485 -1.0878  0.1104  0.1441
  904MPD2     N13248   1.109   3.822  13.876  0.2473  0.0125 -0.4174
  904MPD2    H513249   1.090   3.804  13.974  0.6385 -0.7521 -0.4775
  904MPD2    N113250   0.641   3.905  13.880 -0.3465  0.5134 -0.6647
  904MPD2    H713251   0.650   3.860  13.971 -0.2978 -0.5656 -1.1965
  905MPD2     C13252   0.614   4.235  13.099  0.1142  0.3253 -0.2804
  905MPD2    C113253   0.604   4.155  13.212 -0.1016  0.0272 -0.0949
  905MPD2    C213254   0.675   4.033  13.211  0.9387 -0.0425  0.6440
  905MPD2    C313255   0.753   3.990  13.099  0.3042  0.3203 -0.6335
  905MPD2    C413256   0.764   4.072  12.994  0.4178 -0.0055 -0.1107
  905MPD2    C513257   0.697   4.196  12.997 -0.4632  0.7009 -0.0826
  905MPD2     H13258   0.674   3.960  13.291  0.5907 -0.1182  0.5693
  905MPD2    H113259   0.816   4.038  12.905  0.8247  2.5503 -0.8403
  905MPD2    H213260   0.555   4.326  13.091 -2.2840 -1.1554  0.5185
  905MPD2    H313261   0.701   4.254  12.905 -1.5079  3.0852  1.3740
  905MPD2     N13262   0.832   3.875  13.099 -0.1388 -0.0914 -0.1206
  905MPD2    H513263   0.888   3.862  13.016  0.4625 -0.2010  0.2988
  905MPD2    N113264   0.535   4.202  13.324  0.4736 -0.2826 -0.1934
  905MPD2    H713265   0.508   4.299  13.320  0.4125 -0.2861  0.1353
  906MPD2     C13266   2.589   3.383  11.857 -0.0587  0.1670  0.8051
  906MPD2    C113267   2.553   3.356  11.726 -0.1292 -0.0958 -0.0724
  906MPD2    C213268   2.453   3.258  11.705  0.2267 -0.2177 -0.5330
  906MPD2    C313269   2.392   3.191  11.809  0.0504  0.5511  0.1788
  906MPD2    C413270   2.417   3.229  11.938  0.9344 -0.4718 -0.5617
  906MPD2    C513271   2.517   3.318  11.959 -0.4858 -0.4213 -0.3775
  906MPD2     H13272   2.430   3.238  11.601 -2.4697  0.3186 -0.0424
  906MPD2    H113273   2.367   3.181  12.022  0.9591  0.4939  0.0072
  906MPD2    H213274   2.671   3.445  11.890 -2.6105  2.3547  3.0889
  906MPD2    H313275   2.543   3.336  12.062  0.7981 -1.6983 -0.4954
  906MPD2     N13276   2.297   3.094  11.794  0.0341 -0.5615 -0.0279
  906MPD2    H513277   2.276   3.044  11.880 -1.3648  0.9660  0.5188
  906MPD2    N113278   2.626   3.400  11.610 -0.4020  0.6904  0.1704
  906MPD2    H713279   2.602   3.343  11.529 -1.0971 -0.9453  1.5250
  907MPD2     C13280   2.328   3.109  15.474 -0.5414  0.6281  0.1857
  907MPD2    C113281   2.314   2.979  15.517  0.1618 -0.8911 -0.2936
  907MPD2    C213282   2.341   2.951  15.650 -0.1037 -0.2831  0.4139
  907MPD2    C313283   2.392   3.046  15.737  0.2184  0.1239  1.3231
  907MPD2    C413284   2.417   3.170  15.686  0.1377 -0.2044  0.2331
  907MPD2    C513285   2.380   3.210  15.555  0.1843  0.0499 -0.1471
  907MPD2     H13286   2.330   2.854  15.697  1.4797  0.5933  2.6398
  907MPD2    H113287   2.469   3.251  15.737 -1.0352  0.8358 -0.2148
  907MPD2    H213288   2.298   3.134  15.373 -0.4422 -0.7220 -0.1641
  907MPD2    H313289   2.400   3.307  15.512  1.4456  0.6815  1.8639
  907MPD2     N13290   2.415   3.003  15.869  0.4553  0.1596  0.9556
  907MPD2    H513291   2.392   2.909  15.899  1.9999 -0.5179  0.0130
  907MPD2    N113292   2.261   2.877  15.431 -0.1319  0.3683 -0.1860
  907MPD2    H713293   2.243   2.788  15.477 -0.2370 -0.8607 -2.5978
  908MPD2     C13294   4.531   3.078  10.011  0.3383  0.2317  0.4257
  908MPD2    C113295   4.487   3.207   9.997  0.8420  0.2701 -0.6963
  908MPD2    C213296   4.510   3.294  10.094  0.2273  0.2007 -0.3767
  908MPD2    C313297   4.564   3.256  10.217  0.0185 -0.0262 -0.0725
  908MPD2    C413298   4.601   3.123  10.231 -0.1132 -0.6617  0.3648
  908MPD2    C513299   4.587   3.037  10.129  0.6349  1.0023 -0.1170
  908MPD2     H13300   4.480   3.397  10.081  2.8463  1.1201  0.7145
  908MPD2    H113301   4.638   3.082  10.324  0.3241  1.7237  1.2232
  908MPD2    H213302   4.515   3.014   9.925 -1.4310  0.1260  0.8227
  908MPD2    H313303   4.629   2.938  10.141 -2.1101  0.0521  1.7036
  908MPD2     N13304   4.586   3.354  10.317 -0.5274 -0.3951 -0.1959
  908MPD2    H513305   4.553   3.448  10.298  0.3389 -0.1942 -0.7144
  908MPD2    N113306   4.427   3.239   9.871  0.4175 -0.3047  0.9355
  908MPD2    H713307   4.424   3.164   9.803  2.1507 -1.1282  1.7807
  909MPD2     C13308   0.162   1.356  11.657 -0.0324 -0.0600 -0.3249
  909MPD2    C113309   0.162   1.482  11.607  0.0931  0.0102  0.2654
  909MPD2    C213310   0.080   1.574  11.667  0.2110 -0.3936  0.1446
  909MPD2    C313311   0.006   1.550  11.780 -0.3395 -0.4596 -0.6625
  909MPD2    C413312   0.008   1.421  11.833  0.2166 -0.4802 -0.6853
  909MPD2    C513313   0.077   1.326  11.761  0.1830 -0.1511  0.0620
  909MPD2     H13314   0.082   1.677  11.635  1.5461 -0.8993 -1.4077
  909MPD2    H113315   4.691   1.398  11.931 -0.2402 -1.7746 -1.1690
  909MPD2    H213316   0.211   1.270  11.612 -0.5912 -1.5864  1.9784
  909MPD2    H313317   0.088   1.226  11.801 -4.1028 -1.7392 -2.7815
  909MPD2     N13318   4.654   1.665  11.828  0.1077 -0.0490 -0.4664
  909MPD2    H513319   4.664   1.752  11.778  0.9357  0.4817  0.6327
  909MPD2    N113320   0.241   1.522  11.502 -0.3579  0.4774 -0.3409
  909MPD2    H713321   0.239   1.616  11.462 -0.6171 -0.2319 -2.0204
  910MPD2     C13322   1.458   3.663  15.806  0.4183  0.1500  0.4756
  910MPD2    C113323   1.541   3.600  15.713 -0.9624  0.4918 -0.2104
  910MPD2    C213324   1.515   3.623  15.583 -0.3771  0.1038  0.2070
  910MPD2    C313325   1.412   3.710  15.536  0.0971  0.0533  0.8561
  910MPD2    C413326   1.324   3.765  15.628  0.2712  0.3311  0.0760
  910MPD2    C513327   1.352   3.742  15.758 -0.2206 -0.9620  0.6660
  910MPD2     H13328   1.590   3.586  15.514  1.0943  0.6541  1.5096
  910MPD2    H113329   1.239   3.827  15.601  0.4137  1.0439  1.2947
  910MPD2    H213330   1.463   3.644  15.913  0.7452  1.1535  0.6442
  910MPD2    H313331   1.290   3.782  15.838 -0.4953 -0.1723  0.0550
  910MPD2     N13332   1.399   3.755  15.403 -0.2942 -1.0534  0.1864
  910MPD2    H513333   1.329   3.824  15.380  0.8389  0.3353  0.8817
  910MPD2    N113334   1.653   3.518  15.752  0.0379 -0.1448  0.2144
  910MPD2    H713335   1.719   3.482  15.683  0.6509  0.5392  0.4401
  911MPD2     C13336   4.054   4.238  16.267 -0.1633 -0.4276  0.5971
  911MPD2    C113337   4.090   4.321  16.371  0.1156  0.3501 -0.5109
  911MPD2    C213338   4.034   4.441  16.387 -0.2297 -0.4815  0.8814
  911MPD2    C313339   3.927   4.478  16.308 -0.0170 -0.8315 -0.3907
  911MPD2    C413340   3.881   4.391  16.211 -0.4999  0.3252 -0.4897
  911MPD2    C513341   3.945   4.276  16.195  0.4276  0.2513 -0.1423
  911MPD2     H13342   4.074   4.514  16.456  0.3899 -0.5931  0.6383
  911MPD2    H113343   3.790   4.416  16.158 -1.8105  0.2841  1.7436
  911MPD2    H213344   4.103   4.143  16.248  1.9375  0.7484  0.0908
  911MPD2    H313345   3.920   4.207  16.115  0.0649  1.5804 -1.1806
  911MPD2     N13346   3.853   4.593  16.325 -0.1619 -0.7155 -0.0946
  911MPD2    H513347   3.764   4.604  16.277 -0.4671  1.6771  1.0475
  911MPD2    N113348   4.197   4.274  16.449 -0.0233 -0.0111 -0.3172
  911MPD2    H713349   4.244   4.190  16.419  0.6374  0.5432 -0.8444
  912MPD2     C13350   3.683   4.615  15.765 -0.0995 -0.6801 -0.7587
  912MPD2    C113351   3.631   4.600  15.894  0.2330 -0.0383 -0.2127
  912MPD2    C213352   3.620   4.471  15.938 -0.0911 -0.6660  0.2530
  912MPD2    C313353   3.671   4.360  15.875 -0.6355 -0.0005  0.0797
  912MPD2    C413354   3.732   4.376  15.753  0.4741  0.2838 -0.0058
  912MPD2    C513355   3.735   4.504  15.702 -0.3052 -0.4182 -0.1091
  912MPD2     H13356   3.582   4.451  16.038  1.0135 -1.7789  0.4440
  912MPD2    H113357   3.776   4.293  15.699  0.4538 -1.0503  2.0219
  912MPD2    H213358   3.691   4.710  15.713  0.0636 -0.2287  0.1005
  912MPD2    H313359   3.793   4.527  15.614 -1.5803  1.6570 -0.4114
  912MPD2     N13360   3.662   4.237  15.941  0.0732  0.2052 -0.2023
  912MPD2    H513361   3.608   4.240  16.027  0.7981  1.4567  0.2239
  912MPD2    N113362   3.600   4.714  15.969 -0.8122  0.5912  0.0590
  912MPD2    H713363   3.614   0.077  15.918 -1.6442  2.0272  2.2939
  913MPD2     C13364   4.403   1.086  11.201  0.5031  0.7138 -0.2645
  913MPD2    C113365   4.372   0.997  11.109  0.1391  0.2647  0.2155
  913MPD2    C213366   4.392   1.022  10.971  0.3929  0.1479 -0.8872
  913MPD2    C313367   4.435   1.149  10.927 -0.4353 -0.4304 -0.0410
  913MPD2    C413368   4.466   1.241  11.024  0.6479 -0.4597 -0.3173
  913MPD2    C513369   4.454   1.207  11.156  0.9224 -0.6860 -0.3403
  913MPD2     H13370   4.383   0.940  10.900 -0.0615  0.1875 -0.8747
  913MPD2    H113371   4.502   1.341  11.002 -1.0276  0.0319 -0.8103
  913MPD2    H213372   4.390   1.073  11.308 -0.9602  1.5957 -0.3246
  913MPD2    H313373   4.483   1.275  11.235  1.9126  1.0309 -2.2030
  913MPD2     N13374   4.454   1.182  10.789 -0.2931  0.1296 -0.6645
  913MPD2    H513375   4.462   1.282  10.780  0.2356  0.2907  1.6126
  913MPD2    N113376   4.315   0.881  11.165 -0.2521 -0.4544  0.3712
  913MPD2    H713377   4.298   0.881  11.265 -0.9339  1.5041  0.2491
  914MPD2     C13378   1.911   0.806  12.126  0.4413  0.9303 -0.1327
  914MPD2    C113379   1.963   0.914  12.195  0.1808 -0.0858  0.4335
  914MPD2    C213380   2.045   0.892  12.304  0.1184  0.6075  0.3788
  914MPD2    C313381   2.090   0.767  12.341  1.0540 -0.3237 -0.5321
  914MPD2    C413382   2.050   0.658  12.267  0.6026 -0.3768 -0.0849
  914MPD2    C513383   1.955   0.679  12.170 -0.0435  0.4876  0.4452
  914MPD2     H13384   2.078   0.981  12.355 -0.1405  0.5062  0.7218
  914MPD2    H113385   2.071   0.554  12.292 -2.6534 -1.0318 -0.0596
  914MPD2    H213386   1.879   0.819  12.023 -1.2626  1.3865  0.4550
  914MPD2    H313387   1.925   0.590  12.116  0.5754  0.6614 -0.1775
  914MPD2     N13388   2.176   0.765  12.462 -0.2960  0.5133 -0.7815
  914MPD2    H513389   2.183   0.845  12.524  1.2511 -0.8997  0.8935
  914MPD2    N113390   1.937   1.052  12.161 -0.1978  0.1203 -0.1779
  914MPD2    H713391   1.991   1.123  12.210 -0.0922  0.8155 -1.2994
  915MPD2     C13392   0.426   0.968  16.197 -0.4565 -0.3691 -0.6383
  915MPD2    C113393   0.309   0.976  16.129 -0.3007 -0.1301 -0.0158
  915MPD2    C213394   0.197   1.030  16.196  0.2054 -0.2949  0.3759
  915MPD2    C313395   0.204   1.083  16.321  0.5692 -0.4187  0.4428
  915MPD2    C413396   0.321   1.060  16.389  0.2019 -0.7950  0.0298
  915MPD2    C513397   0.431   1.014  16.322 -0.2318  0.0625  1.0251
  915MPD2     H13398   0.108   1.052  16.139  0.3471  1.3237  0.7718
  915MPD2    H113399   0.331   1.073  16.497 -1.1011 -0.0069  0.0462
  915MPD2    H213400   0.507   0.911  16.154  0.4200  0.2967  0.1238
  915MPD2    H313401   0.515   0.980  16.381  1.7245 -0.3351 -1.9468
  915MPD2     N13402   0.098   1.152  16.373  0.2238  0.4198  0.3846
  915MPD2    H513403   0.020   1.176  16.313  0.0929  0.0532  0.4100
  915MPD2    N113404   0.316   0.940  15.994  0.2035  0.1960 -0.2258
  915MPD2    H713405   0.405   0.906  15.961 -0.0222  1.6819 -2.3559
  916MPD2     C13406   3.407   4.470  15.617  1.2649 -0.7097 -0.4729
  916MPD2    C113407   3.390   4.358  15.690 -0.0311  0.2258 -0.1284
  916MPD2    C213408   3.411   4.238  15.631 -0.0623 -0.3692 -0.0705
  916MPD2    C313409   3.460   4.231  15.501 -0.3154  0.2145 -0.1719
  916MPD2    C413410   3.467   4.346  15.424  0.2455 -0.0364  0.0544
  916MPD2    C513411   3.437   4.464  15.486  0.7278 -0.1808  0.1224
  916MPD2     H13412   3.391   4.147  15.686 -1.0373 -0.6657 -0.9290
  916MPD2    H113413   3.496   4.345  15.320  1.1551  0.2979  0.3034
  916MPD2    H213414   3.383   4.562  15.670 -0.7708  0.2927 -3.0935
  916MPD2    H313415   3.448   4.555  15.429  0.0788  0.3844  0.9099
  916MPD2     N13416   3.483   4.109  15.437  0.7110  0.3824  0.2216
  916MPD2    H513417   3.490   4.025  15.495 -0.5617  0.9179  1.1494
  916MPD2    N113418   3.332   4.369  15.821  0.0578  0.1213  0.4801
  916MPD2    H713419   3.301   4.462  15.847  0.8133  0.4121  0.3524
  917MPD2     C13420   3.618   1.196  11.108 -0.6399 -0.8123 -0.8144
  917MPD2    C113421   3.610   1.288  11.213 -0.6113 -0.2363 -0.1398
  917MPD2    C213422   3.691   1.400  11.218 -0.0350  0.1929 -0.2437
  917MPD2    C313423   3.770   1.429  11.109  1.1077  1.3794  0.0440
  917MPD2    C413424   3.776   1.345  11.000  0.1096  0.6114 -0.5132
  917MPD2    C513425   3.698   1.227  11.002  0.1684  0.4530  0.3961
  917MPD2     H13426   3.690   1.472  11.298 -0.7829  0.5178 -0.5448
  917MPD2    H113427   3.841   1.363  10.915  0.7494  0.8319  0.0162
  917MPD2    H213428   3.550   1.116  11.083 -0.4918 -1.7333  1.7160
  917MPD2    H313429   3.691   1.170  10.910 -1.9918 -0.3147  1.0297
  917MPD2     N13430   3.850   1.550  11.100 -0.1343  0.7811 -0.4756
  917MPD2    H513431   3.928   1.549  11.036  1.5523  0.3660  1.5918
  917MPD2    N113432   3.517   1.258  11.315  0.0042  0.4950  0.0893
  917MPD2    H713433   3.455   1.182  11.289  1.2984  0.0920 -1.8973
  918MPD2     C13434   3.385   1.692  12.210 -0.5810  0.3374 -0.5337
  918MPD2    C113435   3.494   1.650  12.132 -0.3127  0.0103 -1.6737
  918MPD2    C213436   3.481   1.549  12.038 -0.5022  0.2406  0.4138
  918MPD2    C313437   3.361   1.496  12.000 -0.2626 -0.2001 -0.3892
  918MPD2    C413438   3.251   1.546  12.065  0.3513 -0.1541 -0.3133
  918MPD2    C513439   3.265   1.630  12.167  0.1297  0.0244 -0.1648
  918MPD2     H13440   3.567   1.512  11.984 -0.5428 -0.6598  0.9697
  918MPD2    H113441   3.150   1.516  12.041  0.3373 -0.6099  0.3165
  918MPD2    H213442   3.389   1.761  12.294  0.4899  0.3679 -0.6149
  918MPD2    H313443   3.175   1.656  12.221  1.7632  1.3824  1.9288
  918MPD2     N13444   3.366   1.401  11.897 -0.0410  0.2154 -0.7872
  918MPD2    H513445   3.454   1.382  11.851  0.4978 -0.6131  0.5785
  918MPD2    N113446   3.627   1.712  12.152 -0.3578 -0.3039 -0.2107
  918MPD2    H713447   3.699   1.688  12.086 -0.5504 -0.7632 -0.2512
  919MPD2     C13448   3.852   0.341  11.204  0.4463  0.3527 -0.3839
  919MPD2    C113449   3.899   0.209  11.215 -0.5553  0.3469 -0.3311
  919MPD2    C213450   3.966   0.155  11.102  0.1979 -0.4604  0.7821
  919MPD2    C313451   3.973   0.223  10.984 -0.3814 -0.1681  0.8313
  919MPD2    C413452   3.924   0.355  10.973 -0.1509 -0.3624 -0.2010
  919MPD2    C513453   3.865   0.407  11.089 -1.0360 -0.5047 -0.0110
  919MPD2     H13454   4.018   0.061  11.110  0.2248 -0.3047  2.5206
  919MPD2    H113455   3.942   0.417  10.886  3.3627 -3.1883 -1.4812
  919MPD2    H213456   3.803   0.391  11.287 -1.9659  0.4756 -1.8889
  919MPD2    H313457   3.847   0.514  11.081  0.9822 -0.3006 -1.7756
  919MPD2     N13458   4.048   0.178  10.871  0.3388  0.1973  1.0452
  919MPD2    H513459   4.061   0.243  10.794 -0.4794  1.4454  1.9542
  919MPD2    N113460   3.887   0.128  11.331  0.6331 -0.0193 -0.5111
  919MPD2    H713461   3.951   0.049  11.336  0.6702 -0.0300 -1.0779
  920MPD2     C13462   4.206   0.592  10.171  0.3723 -0.4909 -0.2433
  920MPD2    C113463   4.095   0.567  10.246 -0.8064  0.1787  0.9136
  920MPD2    C213464   4.108   0.463  10.338 -0.0458  0.1842 -0.4559
  920MPD2    C313465   4.209   0.367  10.328  0.2277  0.6660 -0.4736
  920MPD2    C413466   4.310   0.381  10.235  0.1692  0.1315 -0.2814
  920MPD2    C513467   4.313   0.499  10.168  0.5025 -0.2912 -0.6407
  920MPD2     H13468   4.040   0.447  10.420 -0.0810  0.4618 -0.4289
  920MPD2    H113469   4.392   0.311  10.222 -0.7431 -1.1821  1.0248
  920MPD2    H213470   4.207   0.679  10.106  1.5726  1.1357  1.9512
  920MPD2    H313471   4.398   0.531  10.110 -0.6941 -0.5177 -2.5211
  920MPD2     N13472   4.196   0.254  10.418  0.1382  0.3596  0.0959
  920MPD2    H513473   4.114   0.247  10.477  0.0399 -2.0434 -0.3350
  920MPD2    N113474   3.976   0.639  10.236  0.3235 -0.0671 -0.5030
  920MPD2    H713475   3.898   0.597  10.283 -0.2065 -0.3304 -1.6163
  921MPD2     C13476   0.191   4.649  16.941 -0.4407 -0.2548  0.1197
  921MPD2    C113477   0.192   4.609  16.811  0.5834  0.0301 -0.0624
  921MPD2    C213478   0.116   4.497  16.773 -0.1975  0.1352  0.5178
  921MPD2    C313479   0.033   4.431  16.864  0.1852  0.7086  0.3558
  921MPD2    C413480   0.024   4.486  16.989 -0.6206 -0.5599 -0.3539
  921MPD2    C513481   0.101   4.591  17.022  0.1022 -0.6025  0.4161
  921MPD2     H13482   0.116   4.454  16.674  1.7043 -0.2306  0.6824
  921MPD2    H113483   4.671   4.459  17.061  1.0157  0.1979  1.6732
  921MPD2    H213484   0.245   0.012  16.978 -1.1689 -0.4227  1.5764
  921MPD2    H313485   0.081   4.639  17.117  2.0513  2.3255 -0.6789
  921MPD2     N13486   4.672   4.334  16.812 -0.4393  0.2833  0.0824
  921MPD2    H513487   4.676   4.321  16.711  0.8651 -1.9617  0.4121
  921MPD2    N113488   0.271   4.671  16.722 -0.1218  0.2032 -0.3813
  921MPD2    H713489   0.328   0.022  16.761 -1.6361  1.3938 -0.4432
  922MPD2     C13490   1.508   2.779  16.857  0.2144 -0.6784  0.4524
  922MPD2    C113491   1.518   2.801  16.990  0.5801 -0.0878  0.3002
  922MPD2    C213492   1.456   2.718  17.082  0.6135 -0.2753 -0.0431
  922MPD2    C313493   1.391   2.600  17.039 -0.1994  0.3073 -0.0482
  922MPD2    C413494   1.386   2.579  16.899  0.2845  0.4292 -0.7810
  922MPD2    C513495   1.428   2.677  16.810 -0.0807 -0.0810  0.2040
  922MPD2     H13496   1.464   2.725  17.190  0.5267 -0.9596  0.0129
  922MPD2    H113497   1.327   2.501  16.852 -2.0097  3.2192 -2.5390
  922MPD2    H213498   1.552   2.846  16.784  0.1178 -0.1799  0.8489
  922MPD2    H313499   1.406   2.657  16.705 -2.5317  1.4206  0.4126
  922MPD2     N13500   1.328   2.516  17.131  0.5686 -0.2803 -0.1018
  922MPD2    H513501   1.319   2.551  17.226 -0.7067  3.0023 -1.4410
  922MPD2    N113502   1.583   2.907  17.043  0.1037 -0.6076 -0.0093
  922MPD2    H713503   1.588   2.913  17.144 -1.5083 -1.1739  0.1062
  923MPD2     C13504   1.917   3.868   8.888 -0.0438 -0.7078  0.0054
  923MPD2    C113505   2.008   3.925   8.976 -0.5214 -0.2712  0.0039
  923MPD2    C213506   2.136   3.885   8.983  0.0601  1.0448  0.1391
  923MPD2    C313507   2.172   3.767   8.921  0.0465 -0.2299  0.0425
  923MPD2    C413508   2.083   3.699   8.843 -0.0788 -0.0153  0.2832
  923MPD2    C513509   1.959   3.752   8.826 -0.3257  0.3986  0.5723
  923MPD2     H13510   2.200   3.938   9.051  1.0891 -2.8332  2.1976
  923MPD2    H113511   2.099   3.598   8.810 -2.5169 -0.4445  0.3808
  923MPD2    H213512   1.818   3.909   8.872  0.9401  1.8754  0.7029
  923MPD2    H313513   1.905   3.695   8.751 -0.6286 -0.8093  1.7177
  923MPD2     N13514   2.300   3.707   8.933  0.4334 -0.5301  0.3534
  923MPD2    H513515   2.314   3.621   8.881 -0.1521 -0.3588 -0.1026
  923MPD2    N113516   1.971   4.038   9.053  0.2438 -0.6841  0.0186
  923MPD2    H713517   2.043   4.082   9.110  0.7351 -4.1031  2.0106
  924MPD2     C13518   2.566   2.206  16.093 -0.8362 -0.2155  0.2870
  924MPD2    C113519   2.504   2.261  16.203  0.3544  0.3460 -0.4527
  924MPD2    C213520   2.509   2.401  16.220  0.0381  0.3536 -0.4066
  924MPD2    C313521   2.576   2.482  16.125 -0.1032  0.2876  0.4204
  924MPD2    C413522   2.634   2.417  16.021 -0.0087  0.5032 -0.0662
  924MPD2    C513523   2.632   2.282  16.006  0.1273  0.4781 -0.3816
  924MPD2     H13524   2.460   2.445  16.306  1.5622  2.4219 -0.6165
  924MPD2    H113525   2.677   2.471  15.937  0.7633  0.1998  0.1322
  924MPD2    H213526   2.576   2.101  16.066  0.9020  0.4432 -1.6778
  924MPD2    H313527   2.668   2.244  15.911  1.3535  2.8217 -0.8662
  924MPD2     N13528   2.579   2.621  16.130 -0.6750 -0.1668  0.3585
  924MPD2    H513529   2.617   2.675  16.052  3.0721 -2.2183  0.7975
  924MPD2    N113530   2.447   2.169  16.295  0.0313  0.3941 -0.4062
  924MPD2    H713531   2.479   2.072  16.294  0.3731  0.4850  2.3190
  925MPD2     C13532   0.884   4.481  14.557 -0.0634  0.1041  0.2003
  925MPD2    C113533   0.778   4.571  14.539  0.0604  0.4781  0.4789
  925MPD2    C213534   0.686   4.599  14.639 -0.1208  0.0901  0.4044
  925MPD2    C313535   0.694   4.548  14.765  0.4041 -0.1860  0.3429
  925MPD2    C413536   0.810   4.470  14.791 -0.0315  0.2470 -1.3408
  925MPD2    C513537   0.895   4.438  14.686 -0.5292  0.7151 -0.2178
  925MPD2     H13538   0.616   4.675  14.607 -2.1714 -1.9590  0.0562
  925MPD2    H113539   0.838   4.446  14.893  1.8501  2.9823 -1.2046
  925MPD2    H213540   0.953   4.440  14.484  1.2139  1.2615  0.7579
  925MPD2    H313541   0.984   4.377  14.704  0.6424  1.7761 -2.4843
  925MPD2     N13542   0.613   4.582  14.873  0.2517 -0.5214  0.0864
  925MPD2    H513543   0.639   4.540  14.962 -0.5015 -1.9184 -0.3593
  925MPD2    N113544   0.771   4.632  14.412 -0.0883 -0.0660  0.2924
  925MPD2    H713545   0.688   4.688  14.398  0.9773  1.7474  1.1491
  926MPD2     C13546   4.487   3.206  13.202  0.4545 -0.5411 -0.0430
  926MPD2    C113547   4.427   3.331  13.213  1.1419  0.1383 -0.6915
  926MPD2    C213548   4.469   3.433  13.126  0.7686 -0.8687 -0.3987
  926MPD2    C313549   4.568   3.415  13.029  0.0270 -0.4964  0.2381
  926MPD2    C413550   4.631   3.288  13.023  0.3581 -0.5229  0.4886
  926MPD2    C513551   4.592   3.193  13.116  0.3745  0.3250  0.7005
  926MPD2     H13552   4.417   3.527  13.144  3.4982  0.7927 -1.2933
  926MPD2    H113553   4.719   3.266  12.963  0.4534  0.0796  0.4107
  926MPD2    H213554   4.458   3.117  13.257 -0.2115 -0.3674 -0.1162
  926MPD2    H313555   4.643   3.097  13.113  2.1726  1.2804  1.3239
  926MPD2     N13556   4.617   3.518  12.936  0.4058  0.2035  0.2947
  926MPD2    H513557   4.698   3.496  12.878 -0.1704 -3.2301  0.8261
  926MPD2    N113558   4.329   3.352  13.309 -0.6049 -0.1213 -0.1887
  926MPD2    H713559   4.302   3.449  13.314 -1.5599 -0.3770 -0.4317
  927MPD2     C13560   0.694   1.144   0.058  0.2551 -0.0331  0.3908
  927MPD2    C113561   0.592   1.111   0.147 -0.4355 -0.2649  0.2326
  927MPD2    C213562   0.461   1.108   0.106 -0.1968 -0.1390 -1.1278
  927MPD2    C313563   0.428   1.128  17.671  0.3338 -0.2471  0.1342
  927MPD2    C413564   0.529   1.154  17.584  0.2088 -0.0296  0.7455
  927MPD2    C513565   0.659   1.174  17.626 -0.1583  0.4529  0.3172
  927MPD2     H13566   0.389   1.080   0.182  0.1175 -0.2454 -0.8668
  927MPD2    H113567   0.508   1.184  17.482 -0.7199 -0.9697  0.6724
  927MPD2    H213568   0.800   1.152   0.082 -0.1224  4.2085  0.7264
  927MPD2    H313569   0.733   1.195  17.550  0.5219 -3.0468  0.0171
  927MPD2     N13570   0.294   1.134  17.618 -0.3790  0.9452  0.0689
  927MPD2    H513571   0.291   1.166  17.522 -1.7515  3.1059  0.8447
  927MPD2    N113572   0.631   1.083   0.273  0.1382 -0.1431  0.2216
  927MPD2    H713573   0.718   1.125   0.303  0.4015 -1.0953  0.7821
  928MPD2     C13574   2.616   4.056   1.103  0.2273  0.0221  0.0095
  928MPD2    C113575   2.733   4.014   1.040  0.7168  0.2526  0.1771
  928MPD2    C213576   2.767   4.079   0.920 -0.2302 -0.2143  0.0439
  928MPD2    C313577   2.670   4.157   0.858  0.3616  0.1414 -0.0875
  928MPD2    C413578   2.559   4.200   0.922  0.1315  0.3083  0.1199
  928MPD2    C513579   2.536   4.148   1.046  0.4231 -1.1681  0.1178
  928MPD2     H13580   2.853   4.054   0.859  1.2794  0.7946  1.7551
  928MPD2    H113581   2.488   4.269   0.878 -2.2207 -0.2185  3.0747
  928MPD2    H213582   2.593   4.025   1.204 -1.5207  1.0274 -0.0950
  928MPD2    H313583   2.452   4.189   1.100  1.5614  1.4648 -0.0996
  928MPD2     N13584   2.702   4.218   0.734  0.4034 -0.0335  0.3265
  928MPD2    H513585   2.802   4.216   0.712  0.1584 -3.1953 -0.5409
  928MPD2    N113586   2.813   3.920   1.112 -0.0491 -0.1766  0.1661
  928MPD2    H713587   2.774   3.896   1.203 -1.1283  1.3046  0.1103
  929MPD2     C13588   1.435   3.484   9.408 -0.0639  0.1064 -0.3271
  929MPD2    C113589   1.563   3.431   9.398 -0.8485  0.0394  0.2089
  929MPD2    C213590   1.668   3.497   9.459  0.3898  0.4983  1.1090
  929MPD2    C313591   1.660   3.610   9.540  0.6569 -0.7840 -1.2385
  929MPD2    C413592   1.532   3.659   9.552 -0.8911  0.2394  0.1311
  929MPD2    C513593   1.429   3.598   9.488 -0.1749 -0.3695 -0.4041
  929MPD2     H13594   1.765   3.456   9.434  0.0185 -0.4862  1.2712
  929MPD2    H113595   1.506   3.743   9.615  0.5057  0.6048  0.2221
  929MPD2    H213596   1.347   3.451   9.354  0.5757 -1.1037 -0.6456
  929MPD2    H313597   1.331   3.642   9.500  0.4096  1.4489 -2.4128
  929MPD2     N13598   1.771   3.660   9.613  0.3851  0.2356  0.3066
  929MPD2    H513599   1.766   3.747   9.666 -0.1894 -0.4018  1.2932
  929MPD2    N113600   1.595   3.312   9.328 -0.1062 -0.0154 -0.4638
  929MPD2    H713601   1.693   3.288   9.334  0.1207  1.1132  0.3441
  930MPD2     C13602   4.418   1.571  14.184  0.1408  0.7102 -0.1275
  930MPD2    C113603   4.403   1.667  14.090 -0.0239  0.1925  0.4403
  930MPD2    C213604   4.303   1.643  13.996  0.1570 -0.0988  0.7290
  930MPD2    C313605   4.234   1.520  13.994 -0.5562  0.5963  0.2022
  930MPD2    C413606   4.250   1.431  14.095 -0.1146  0.4455 -0.1647
  930MPD2    C513607   4.340   1.458  14.191  0.3281 -0.3798  0.6843
  930MPD2     H13608   4.268   1.712  13.920  2.2971  0.5941  0.3613
  930MPD2    H113609   4.188   1.345  14.111  2.2675 -1.4424 -1.0429
  930MPD2    H213610   4.478   1.580  14.273 -0.3563 -0.0990  0.2946
  930MPD2    H313611   4.351   1.386  14.271  0.1028 -1.5234 -0.3196
  930MPD2     N13612   4.130   1.485  13.899  0.1319  0.1513  0.4599
  930MPD2    H513613   4.097   1.389  13.896  0.7597 -0.0499 -0.1862
  930MPD2    N113614   4.465   1.795  14.105  0.1780 -0.2712 -0.3431
  930MPD2    H713615   4.520   1.812  14.188  0.1860  0.0573 -0.4161
  931MPD2     C13616   0.719   0.454   0.788 -0.2959 -0.2315 -0.5360
  931MPD2    C113617   0.620   0.549   0.804 -0.4114 -0.7395 -0.5972
  931MPD2    C213618   0.516   0.534   0.889 -0.4865  0.8873 -0.1887
  931MPD2    C313619   0.501   0.408   0.953  0.2196 -0.6454 -0.0138
  931MPD2    C413620   0.590   0.306   0.920  0.2463  0.6569 -0.2756
  931MPD2    C513621   0.705   0.333   0.851 -0.1630 -0.2804 -0.7825
  931MPD2     H13622   0.425   0.588   0.868 -0.7327  0.6432  0.2324
  931MPD2    H113623   0.582   0.216   0.981  2.8815  0.8448  0.3151
  931MPD2    H213624   0.808   0.473   0.729 -0.0165  1.3082  0.4019
  931MPD2    H313625   0.769   0.251   0.819 -0.6810 -1.4628  1.2586
  931MPD2     N13626   0.396   0.366   1.030  0.3987 -0.2206  0.2755
  931MPD2    H513627   0.387   0.267   1.053 -0.5937 -0.3559 -0.6834
  931MPD2    N113628   0.639   0.671   0.731 -0.0051 -0.1689 -0.1050
  931MPD2    H713629   0.708   0.665   0.656  1.8738  1.4227  1.5178
  932MPD2     C13630   0.660   4.409  11.497 -0.2671 -0.5729  0.3623
  932MPD2    C113631   0.771   4.388  11.410 -0.0956  0.9001 -0.9041
  932MPD2    C213632   0.853   4.271  11.425 -0.6009  0.1313 -0.5089
  932MPD2    C313633   0.821   4.173  11.521 -0.5268 -0.4013  0.3163
  932MPD2    C413634   0.710   4.193  11.605 -0.0584 -0.2978 -0.4222
  932MPD2    C513635   0.637   4.314  11.600 -0.2091 -0.0983  0.1614
  932MPD2     H13636   0.929   4.248  11.352 -1.7966 -3.0858 -0.7100
  932MPD2    H113637   0.695   4.119  11.683  2.8498  0.5858  1.0045
  932MPD2    H213638   0.594   4.494  11.502  1.0177  0.4883 -0.8974
  932MPD2    H313639   0.553   4.332  11.666 -1.0207  2.9905 -1.7084
  932MPD2     N13640   0.888   4.050  11.529 -0.7740 -0.1215  0.0737
  932MPD2    H513641   0.833   3.981  11.581  0.1962 -1.7996 -1.1189
  932MPD2    N113642   0.824   4.495  11.324  0.0240 -0.6956 -0.0908
  932MPD2    H713643   0.914   4.473  11.281 -0.5978  0.7873 -2.1314
  933MPD2     C13644   2.765   3.317   1.687  0.4567  0.4587  1.1357
  933MPD2    C113645   2.728   3.419   1.599 -0.3692 -0.1510  0.0519
  933MPD2    C213646   2.600   3.478   1.618 -0.1174 -0.1097  0.1264
  933MPD2    C313647   2.519   3.438   1.718 -0.4450 -0.7681  0.1058
  933MPD2    C413648   2.560   3.338   1.805 -0.9985  1.1809 -0.5098
  933MPD2    C513649   2.677   3.274   1.780 -0.0551  0.1873 -0.5146
  933MPD2     H13650   2.560   3.551   1.549 -0.2776 -1.6255 -1.3727
  933MPD2    H113651   2.497   3.295   1.882 -0.7537 -1.4176 -1.7558
  933MPD2    H213652   2.860   3.264   1.688  0.5366  0.5480 -1.2429
  933MPD2    H313653   2.702   3.191   1.846  0.4832  0.8917  0.1753
  933MPD2     N13654   2.395   3.512   1.728  0.1528  0.3107  0.2141
  933MPD2    H513655   2.364   3.569   1.650  2.2210  0.7882 -0.2649
  933MPD2    N113656   2.818   3.451   1.491 -0.2915  0.4211 -0.2389
  933MPD2    H713657   2.915   3.426   1.507 -0.5924  1.3663  3.0855
  934MPD2     C13658   3.463   1.873   1.528 -0.7077  0.4252 -0.1772
  934MPD2    C113659   3.382   1.828   1.428  0.2248  0.0657  0.0077
  934MPD2    C213660   3.270   1.757   1.458  0.0521 -0.2556  0.0878
  934MPD2    C313661   3.246   1.722   1.589 -0.2293  0.3999  0.0213
  934MPD2    C413662   3.318   1.785   1.693  0.3138 -1.0257 -0.0736
  934MPD2    C513663   3.426   1.851   1.659  0.2529  0.6856 -0.2273
  934MPD2     H13664   3.214   1.716   1.375 -2.0758  1.6660  0.5630
  934MPD2    H113665   3.300   1.773   1.799  0.8120 -1.6555 -0.0651
  934MPD2    H213666   3.559   1.922   1.513  0.2109 -0.9895  1.0885
  934MPD2    H313667   3.495   1.872   1.739  0.9380 -1.7190 -0.1929
  934MPD2     N13668   3.136   1.644   1.629  0.0966  0.0855  0.8144
  934MPD2    H513669   3.119   1.626   1.728  0.5007  0.1817  0.9011
  934MPD2    N113670   3.408   1.861   1.291  0.0394  0.0964  0.4499
  934MPD2    H713671   3.342   1.833   1.219  0.9632 -0.2705 -0.2467
  935MPD2     C13672   2.930   1.020   1.007 -0.3418 -0.2522 -0.1558
  935MPD2    C113673   2.820   0.992   1.090  0.4438 -0.0790  0.1054
  935MPD2    C213674   2.804   1.077   1.206  0.4471  0.3015 -0.3277
  935MPD2    C313675   2.898   1.171   1.237 -0.4637 -0.5510  0.0003
  935MPD2    C413676   3.007   1.190   1.154  0.3723  0.7307  0.0345
  935MPD2    C513677   3.019   1.118   1.043  0.3097  0.1218 -0.1309
  935MPD2     H13678   2.720   1.064   1.273 -0.0070  1.1779 -0.7302
  935MPD2    H113679   3.071   1.276   1.173 -1.3223  2.0756 -0.3423
  935MPD2    H213680   2.963   0.960   0.923 -0.0364  0.5009 -0.5671
  935MPD2    H313681   3.091   1.156   0.971  0.2012 -0.8115 -0.7375
  935MPD2     N13682   2.888   1.262   1.350 -0.1857  0.2688  0.1459
  935MPD2    H513683   2.955   1.338   1.362  1.7463 -1.3135 -0.6491
  935MPD2    N113684   2.728   0.888   1.067 -0.3865  0.7241 -0.4785
  935MPD2    H713685   2.669   0.863   1.146 -0.6993  2.2462 -0.2312
  936MPD2     C13686   1.230   3.623  12.880  0.4115  0.7459 -0.1107
  936MPD2    C113687   1.318   3.528  12.917 -0.1003  0.6502  0.1980
  936MPD2    C213688   1.448   3.544  12.869  0.2358 -0.5452 -0.0450
  936MPD2    C313689   1.487   3.659  12.807 -0.8557  0.5336 -0.6492
  936MPD2    C413690   1.388   3.755  12.770  0.1445  0.1587  0.1465
  936MPD2    C513691   1.258   3.733  12.806  0.3171  0.4359 -0.5388
  936MPD2     H13692   1.509   3.463  12.905 -1.8569 -2.1077  0.0087
  936MPD2    H113693   1.412   3.850  12.723 -0.0023  0.6062  0.9591
  936MPD2    H213694   1.125   3.616  12.907  1.3261 -2.0191  2.7601
  936MPD2    H313695   1.183   3.805  12.773 -0.5051  0.3520  1.1301
  936MPD2     N13696   1.617   3.689  12.764 -0.5320 -0.5284 -0.6865
  936MPD2    H513697   1.635   3.767  12.702 -0.9291  1.4413  1.6975
  936MPD2    N113698   1.285   3.418  13.000  0.2255 -0.1703  0.4261
  936MPD2    H713699   1.356   3.348  13.020  2.3276  2.2770  1.4588
  937MPD2     C13700   4.291   4.426  11.767 -1.4106 -0.0230  0.0862
  937MPD2    C113701   4.255   4.500  11.653  0.0302  0.5827  0.2577
  937MPD2    C213702   4.328   4.471  11.539  0.1083  0.1831 -0.0678
  937MPD2    C313703   4.447   4.402  11.540  1.1316  0.3836 -0.3320
  937MPD2    C413704   4.488   4.332  11.653  0.1711  0.1134  0.3882
  937MPD2    C513705   4.406   4.343  11.762  0.0516 -0.4607 -0.1825
  937MPD2     H13706   4.284   4.509  11.448 -0.3976  0.4609  0.2943
  937MPD2    H113707   4.573   4.265  11.660 -0.1532 -0.4998 -1.5299
  937MPD2    H213708   4.232   4.422  11.858 -1.8249 -1.5685 -0.2525
  937MPD2    H313709   4.437   4.281  11.845  1.9191  0.2957 -0.3202
  937MPD2     N13710   4.530   4.384  11.424 -0.3713  0.7389 -0.7889
  937MPD2    H513711   4.611   4.324  11.430 -1.8346 -1.2462 -0.6515
  937MPD2    N113712   4.126   4.557  11.634  0.3489  0.0037  0.5917
  937MPD2    H713713   4.103   4.582  11.539  0.3381 -2.3733 -0.0300
  938MPD2     C13714   2.718   0.574   1.432  0.4828  0.3783  0.1112
  938MPD2    C113715   2.586   0.579   1.474  0.2467  0.0875  0.6462
  938MPD2    C213716   2.532   0.460   1.516 -0.3688  0.1604 -0.5454
  938MPD2    C313717   2.608   0.349   1.525 -0.3185 -0.5526 -0.2775
  938MPD2    C413718   2.735   0.349   1.472  0.1329  0.5352  0.4816
  938MPD2    C513719   2.791   0.464   1.424 -1.2728 -0.7706 -0.0247
  938MPD2     H13720   2.428   0.450   1.544 -0.7012  1.2193 -1.3845
  938MPD2    H113721   2.800   0.262   1.476 -1.4280 -0.6345  0.3568
  938MPD2    H213722   2.769   0.664   1.402  0.2502  0.6018  0.3850
  938MPD2    H313723   2.889   0.463   1.379 -0.7139  0.6706  1.1570
  938MPD2     N13724   2.561   0.223   1.563  0.4585 -0.1177  0.0135
  938MPD2    H513725   2.630   0.148   1.564  2.4081  1.6720 -2.3010
  938MPD2    N113726   2.507   0.695   1.483  0.8045 -0.0627 -0.3665
  938MPD2    H713727   2.414   0.690   1.522  0.4002  0.2653 -1.2802
  939MPD2     C13728   3.387   2.967   0.568 -0.5504 -0.2729 -0.1412
  939MPD2    C113729   3.498   2.996   0.648  0.1771 -0.1006 -1.0820
  939MPD2    C213730   3.622   3.027   0.587 -0.0112 -0.0170 -0.2160
  939MPD2    C313731   3.635   3.025   0.449  0.0108  0.1033 -0.0652
  939MPD2    C413732   3.518   3.009   0.374 -0.2856  0.0371  0.0475
  939MPD2    C513733   3.397   2.975   0.431 -0.6541  0.0603  0.2844
  939MPD2     H13734   3.712   3.062   0.635 -0.0296 -0.0839 -0.1325
  939MPD2    H113735   3.525   3.012   0.265  0.5258 -1.7494  0.0416
  939MPD2    H213736   3.290   2.935   0.604 -0.1636  1.2202  2.1830
  939MPD2    H313737   3.315   2.947   0.366 -1.3444 -1.2351  1.6964
  939MPD2     N13738   3.762   3.044   0.396  0.1681  0.4425 -0.1902
  939MPD2    H513739   3.840   3.053   0.461 -0.0029  1.2211 -0.0916
  939MPD2    N113740   3.490   2.962   0.791 -0.3795  0.3136  0.2691
  939MPD2    H713741   3.402   2.936   0.836 -1.6717  0.7573 -1.9970
  940MPD2     C13742   1.957   3.387  13.344 -0.2813  0.3814  0.2480
  940MPD2    C113743   2.040   3.280  13.368 -0.0007 -0.3679  0.1166
  940MPD2    C213744   2.174   3.272  13.319  0.7951  0.1778 -0.3262
  940MPD2    C313745   2.206   3.363  13.217 -0.0367  0.3525 -0.4538
  940MPD2    C413746   2.118   3.468  13.191  0.2486  0.1333  0.0968
  940MPD2    C513747   1.994   3.478  13.255  0.2889  0.6259  1.2573
  940MPD2     H13748   2.236   3.188  13.348  0.4740 -0.0584 -0.3263
  940MPD2    H113749   2.145   3.538  13.113  0.1383 -0.6804 -0.6665
  940MPD2    H213750   1.864   3.413  13.393 -0.6825 -1.0583  0.2568
  940MPD2    H313751   1.932   3.559  13.217 -1.6956 -2.0718 -1.2141
  940MPD2     N13752   2.322   3.365  13.134 -0.7186  0.9800 -0.2932
  940MPD2    H513753   2.320   3.435  13.061  0.5265  3.0606  1.6732
  940MPD2    N113754   2.004   3.187  13.462  0.1498 -0.4551  0.5039
  940MPD2    H713755   2.075   3.130  13.506 -0.2995 -0.9456  0.5866
  941MPD2     C13756   2.166   1.875   9.522 -0.0096  0.1236 -0.3664
  941MPD2    C113757   2.085   1.874   9.637 -0.0957 -0.0826 -0.1913
  941MPD2    C213758   1.987   1.775   9.662 -0.0677 -0.1526  0.6121
  941MPD2    C313759   1.973   1.680   9.565  0.1638 -1.2476  0.1433
  941MPD2    C413760   2.055   1.684   9.455  0.2615 -0.6643  0.3589
  941MPD2    C513761   2.159   1.777   9.430  0.0807 -0.7053 -0.4087
  941MPD2     H13762   1.917   1.785   9.745  0.2818  1.6087  0.7106
  941MPD2    H113763   2.045   1.607   9.379  2.1255  0.3902 -0.9417
  941MPD2    H213764   2.241   1.951   9.503 -0.2371  0.6468  0.7832
  941MPD2    H313765   2.224   1.775   9.343 -0.5993  1.8153 -0.9973
  941MPD2     N13766   1.880   1.572   9.575  0.4865  0.0754  0.4750
  941MPD2    H513767   1.877   1.513   9.492 -2.5483 -0.2027  0.7902
  941MPD2    N113768   2.081   1.986   9.724  0.2937  0.5892  0.0949
  941MPD2    H713769   2.026   1.966   9.807  0.1667 -2.3560 -0.6999
  942MPD2     C13770   1.910   3.477   9.123 -0.4095  0.0514 -0.2408
  942MPD2    C113771   1.868   3.595   9.177  0.1055  0.3867  0.4241
  942MPD2    C213772   1.959   3.661   9.260 -0.3942  0.1826 -0.6962
  942MPD2    C313773   2.093   3.622   9.261 -0.9356 -0.2339 -0.5519
  942MPD2    C413774   2.124   3.501   9.204 -0.0190 -1.1019 -0.4850
  942MPD2    C513775   2.036   3.426   9.137  0.0379 -0.0087  0.4807
  942MPD2     H13776   1.915   3.742   9.317 -0.4444  0.9159 -1.7840
  942MPD2    H113777   2.223   3.458   9.203  0.7750  0.6433  2.1181
  942MPD2    H213778   1.849   3.422   9.052 -2.1258  1.5084  0.1025
  942MPD2    H313779   2.072   3.345   9.074  1.8703  0.9455  0.3061
  942MPD2     N13780   2.190   3.690   9.329  0.0221 -0.0402 -0.1979
  942MPD2    H513781   2.285   3.656   9.320 -0.2969 -1.0491  0.2596
  942MPD2    N113782   1.739   3.648   9.166  0.4300  0.8027 -0.3609
  942MPD2    H713783   1.730   3.730   9.225 -0.6040  1.3228 -1.2274
  943MPD2     C13784   4.574   2.380   9.448 -0.2460 -0.1927  0.6203
  943MPD2    C113785   4.517   2.269   9.503 -0.5824  0.1635  0.8008
  943MPD2    C213786   4.489   2.161   9.416  0.2622 -0.7973 -0.5220
  943MPD2    C313787   4.502   2.177   9.279 -0.1824  0.2668 -0.3259
  943MPD2    C413788   4.566   2.293   9.231  0.6985  0.4532  0.5069
  943MPD2    C513789   4.594   2.393   9.316 -0.1081 -0.0443 -0.0786
  943MPD2     H13790   4.445   2.067   9.448  0.5776 -0.8398 -0.2102
  943MPD2    H113791   4.589   2.308   9.126  2.1547 -0.4394  0.7031
  943MPD2    H213792   4.586   2.471   9.505 -0.4653  0.6731 -0.7156
  943MPD2    H313793   4.634   2.488   9.281 -0.3079  0.2012  0.3646
  943MPD2     N13794   4.467   2.073   9.190 -0.4586  0.7153  0.0004
  943MPD2    H513795   4.506   2.083   9.097  1.2227  2.2969  0.8902
  943MPD2    N113796   4.489   2.268   9.638 -0.6871 -0.3563  0.4580
  943MPD2    H713797   4.509   2.349   9.697 -1.0172  0.4626 -0.5502
  944MPD2     C13798   0.125   1.274  10.937  0.0436 -0.4955  0.0281
  944MPD2    C113799   0.080   1.385  10.867  0.4061 -0.1535  0.7470
  944MPD2    C213800   0.030   1.495  10.935 -0.2453 -0.0434  0.1851
  944MPD2    C313801   0.031   1.491  11.076 -0.1847 -0.3083 -0.1254
  944MPD2    C413802   0.064   1.377  11.144 -0.5775 -0.0334  0.5817
  944MPD2    C513803   0.110   1.274  11.072 -1.2507 -0.1855 -0.5315
  944MPD2     H13804   0.020   1.591  10.887 -0.6541 -1.2049 -2.0513
  944MPD2    H113805   0.060   1.363  11.251  1.6212  0.8793  0.7804
  944MPD2    H213806   0.166   1.185  10.890 -1.5095  0.0212 -2.3093
  944MPD2    H313807   0.137   1.188  11.132 -0.5030 -1.4383 -2.6759
  944MPD2     N13808   4.707   1.606  11.143  0.3848 -0.1019  0.2104
  944MPD2    H513809   4.677   1.679  11.079  0.8458 -0.5690 -0.5461
  944MPD2    N113810   0.097   1.380  10.722 -0.3248 -0.0219 -0.0538
  944MPD2    H713811   0.162   1.309  10.691  0.1379  1.2148 -1.9213
    1TCq1    O113812   2.849   2.485  15.091  0.8073  0.0819 -0.1563
    1TCq1    C113813   2.829   2.582  15.188 -0.3244 -0.2967  0.2838
    1TCq1    O213814   2.733   2.658  15.186 -0.3785 -0.2887 -0.2034
    1TCq1    C213815   2.962   2.621  15.243 -0.3223 -0.2713 -0.0271
    1TCq1    C313816   3.044   2.517  15.274  0.4406 -0.2587  0.6638
    1TCq1    C413817   3.156   2.541  15.351  0.0984 -0.5179  0.8508
    1TCq1    C513818   3.188   2.673  15.385  0.1370 -0.1794  0.2111
    1TCq1    C613819   3.112   2.778  15.340  1.2161  0.3539  0.5932
    1TCq1    C713820   2.996   2.751  15.270 -0.6340  0.4305  0.8745
    1TCq1    C813821   3.181   2.899  15.299  0.4901 -0.2639 -0.2220
    1TCq1    O413822   3.277   2.929  15.364 -0.7379  0.2326  0.0950
    1TCq1    C913823   3.223   2.427  15.411 -0.2652  0.1216  0.3467
    1TCq1    O513824   3.330   2.454  15.474  0.8721 -0.4125 -0.8719
    1TCq1    O613825   3.174   2.314  15.393  0.0411 -0.5646  0.2243
    1TCq1    H113826   2.942   2.461  15.069  0.8907  0.4339 -0.2032
    1TCq1    H213827   3.010   2.415  15.263 -0.1868  0.0944 -0.6972
    1TCq1    H313828   3.279   2.695  15.440 -0.2081 -1.1422  1.1591
    1TCq1    H413829   2.929   2.832  15.245  0.7373  1.9761  2.2598
    2MPD2     C13830   3.169   3.364  15.077 -0.1867  0.2169  0.6171
    2MPD2    C113831   3.076   3.292  15.015 -0.3229  0.6525 -0.0115
    2MPD2    C213832   3.076   3.157  15.051 -0.5402  0.6666 -1.5529
    2MPD2    C313833   3.155   3.098  15.149 -0.1144  0.0333 -0.2531
    2MPD2    C413834   3.243   3.181  15.218  0.5428 -0.2482  0.1136
    2MPD2    C513835   3.254   3.309  15.171  0.1278 -0.3958  0.1128
    2MPD2     H13836   3.010   3.090  14.997 -0.2490 -2.0058  1.4194
    2MPD2    H113837   3.295   3.165  15.312  0.4902 -0.4563  0.1085
    2MPD2    H213838   3.178   3.470  15.057 -0.5856  0.1327 -0.0036
    2MPD2    H313839   3.334   3.368  15.213  0.2101 -1.8984  2.0394
    2MPD2     N13840   3.129   2.962  15.186  0.5670 -0.0996 -0.8860
    2MPD2    H513841   3.057   2.916  15.131  1.0671 -1.2020 -0.6191
    2MPD2    N113842   2.979   3.354  14.934  0.1506 -0.7377 -0.3943
    2MPD2    H713843   2.983   3.454  14.913 -2.3767 -0.7686 -1.0472
    3TMC2    C113844   2.779   3.379  14.820  0.5372 -0.4117 -0.4958
    3TMC2    C213845   2.647   3.343  14.824 -0.4916  0.0105  0.4020
    3TMC2    C313846   2.567   3.379  14.722 -0.2373  0.0162 -0.4550
    3TMC2    C413847   2.831   3.452  14.717 -0.4115  0.1073 -0.2436
    3TMC2    C513848   2.746   3.476  14.617  0.4587 -0.1988  0.3098
    3TMC2    C613849   2.611   3.445  14.615  0.1655 -0.6507 -0.5660
    3TMC2     C13850   2.866   3.289  14.887 -0.2543  0.4779  0.7256
    3TMC2     O13851   2.821   3.174  14.898  0.0515 -0.0576 -0.1419
    3TMC2     H13852   2.606   3.277  14.899 -1.5600 -1.8928 -1.8293
    3TMC2    H113853   2.929   3.498  14.710  0.4623 -1.9608 -1.4480
    3TMC2    H213854   2.546   3.473  14.533  0.3183  0.0593 -0.4415
    3TMC2    C713855   2.789   3.548  14.495 -0.9182 -0.5335  0.3291
    3TMC2    C813856   2.475   3.270  14.689  0.5005  0.3411 -0.0116
    3TMC2    O113857   2.875   3.634  14.501 -0.5449  0.0028  0.3071
    3TMC2    O213858   2.498   3.192  14.598  0.9243  0.9416  0.2243
    3TMC2    O513859   2.358   3.289  14.757 -0.1666  0.0438 -0.4530
    3TMC2    H513860   2.370   3.358  14.825  1.2448 -0.1187 -0.5338
    4MPD2     C13861   1.549   3.653  13.569 -0.0807  0.8834  0.2163
    4MPD2    C113862   1.643   3.699  13.481  0.4763 -0.0198 -0.7248
    4MPD2    C213863   1.776   3.659  13.499 -0.8101  0.1114 -0.5807
    4MPD2    C313864   1.816   3.571  13.600  0.1527 -0.3314  0.5316
    4MPD2    C413865   1.717   3.521  13.684 -0.9576 -0.2727 -0.4817
    4MPD2    C513866   1.587   3.559  13.667  0.2375 -0.9022 -0.1503
    4MPD2     H13867   1.848   3.692  13.426 -3.0069  1.8653 -1.9712
    4MPD2    H113868   1.741   3.453  13.765  0.2124 -0.3209 -0.8742
    4MPD2    H213869   1.449   3.693  13.558 -0.8815 -1.0163  0.4851
    4MPD2    H313870   1.512   3.517  13.733  0.1644 -1.9783 -0.9111
    4MPD2     N13871   1.960   3.548  13.617  0.3076  0.0470  0.2519
    4MPD2    H513872   2.022   3.596  13.553 -1.7891  1.7562 -0.4830
    4MPD2    N113873   1.602   3.773  13.370  0.6802  0.3071  0.2389
    4MPD2    H713874   1.504   3.797  13.362  0.3743 -1.5217 -1.5133
    5TCq2    C113875   2.021   3.468  13.709 -0.4115 -0.3590  0.2300
    5TCq2    O213876   1.978   3.398  13.797 -0.2795 -0.2366 -0.5200
    5TCq2    C213877   2.168   3.479  13.693 -0.2979 -1.0374  0.3516
    5TCq2    C313878   2.228   3.509  13.571 -0.6720  0.3381 -0.2067
    5TCq2    C413879   2.367   3.513  13.568  0.1537 -0.2231  0.6699
    5TCq2    C513880   2.443   3.485  13.679  0.0645 -0.2893 -0.2552
    5TCq2    C613881   2.385   3.472  13.802 -0.0263  0.0590  0.3076
    5TCq2    C713882   2.241   3.473  13.808  0.4777  0.6214 -0.7882
    5TCq2    C813883   2.474   3.471  13.925 -0.5137 -0.1420  0.2733
    5TCq2    O413884   2.420   3.427  14.027 -0.6379 -0.6334  0.1349
    5TCq2    C913885   2.437   3.554  13.454  0.2205  0.5563 -0.5369
    5TCq2    O513886   2.565   3.576  13.460  0.0979  0.0896 -0.4811
    5TCq2    O613887   2.370   3.607  13.364 -0.0566 -0.0358 -0.5306
    5TCq2    H213888   2.180   3.508  13.474  0.2050  0.6419 -0.6513
    5TCq2    H313889   2.550   3.468  13.675  0.1663  0.2660  0.1985
    5TCq2    H413890   2.186   3.471  13.901  1.2599 -1.3965 -0.3765
    6MPD1     C13891   2.191   0.839  13.387 -0.3632 -0.0759 -0.5869
    6MPD1    C113892   2.258   0.749  13.313 -0.0064 -0.2717 -0.4927
    6MPD1    C213893   2.178   0.652  13.253  0.2523 -0.6082 -0.2805
    6MPD1    C313894   2.038   0.626  13.283 -0.1777 -0.0169  0.4410
    6MPD1    C413895   1.982   0.705  13.378 -0.0151 -0.2478  0.4974
    6MPD1    C513896   2.055   0.812  13.419  0.2148  0.8355  0.0763
    6MPD1     H13897   2.221   0.582  13.182  0.8565  0.1052 -0.6160
    6MPD1    H113898   1.884   0.687  13.420  0.4176 -1.8456  0.8282
    6MPD1    H213899   2.238   0.917  13.445 -1.9029 -0.1828  0.8034
    6MPD1    H313900   2.007   0.877  13.491  1.2499  0.2409  1.3115
    6MPD1     N13901   1.958   0.521  13.234 -0.0441  0.0256 -0.4356
    6MPD1    H513902   1.864   0.508  13.268  0.8452 -3.2755  0.7810
    6MPD1    N113903   2.389   0.762  13.270 -0.6460  0.0814 -0.3157
    6MPD1    H613904   2.429   0.678  13.228  0.8224  1.2728 -1.2922
    6MPD1    H713905   2.451   0.818  13.329  0.1429 -1.6545  0.5256
    7MPD2     C13906   1.594   4.598  13.517 -0.1112 -0.2030 -0.2293
    7MPD2    C113907   1.616   4.583  13.383  0.3123  0.4212  0.4583
    7MPD2    C213908   1.584   4.465  13.330 -0.0152  0.7230 -0.0149
    7MPD2    C313909   1.527   4.362  13.395  0.1993 -0.1564 -0.1914
    7MPD2    C413910   1.502   4.380  13.529  0.4030 -0.5677  0.1236
    7MPD2    C513911   1.528   4.496  13.584 -0.4183 -0.1895 -0.2438
    7MPD2     H13912   1.609   4.453  13.225 -0.4320 -1.0637  0.0926
    7MPD2    H113913   1.463   4.305  13.597  0.8162 -1.7609 -0.9508
    7MPD2    H213914   1.627   4.684  13.574 -0.4998 -1.8390  2.4447
    7MPD2    H313915   1.505   4.513  13.688  2.1235 -0.2595  0.3155
    7MPD2     N13916   1.487   4.242  13.329 -0.7602  0.0221  0.2294
    7MPD2    H513917   1.478   4.157  13.384  1.2997 -0.1355  0.3204
    7MPD2    N113918   1.676   4.690  13.303  0.7938  0.1519 -0.5264
    7MPD2    H713919   1.678   4.674  13.202  0.2077 -1.2471 -0.3185
    8TMC3    C113920   1.480   4.088  13.147 -0.7419 -0.0654  0.0124
    8TMC3    C213921   1.531   3.997  13.237 -0.1441 -0.4707 -0.3775
    8TMC3    C313922   1.623   3.912  13.178 -0.2748  0.3025  0.0249
    8TMC3    C413923   1.501   4.082  13.009  0.1485  0.4771  0.0301
    8TMC3    C513924   1.598   4.006  12.964  0.2663 -0.3070 -0.1606
    8TMC3    C613925   1.651   3.913  13.045 -0.0689 -0.3037 -0.6967
    8TMC3     C13926   1.474   4.228  13.196  0.0888 -0.0732  0.3221
    8TMC3     O13927   1.473   4.303  13.105  0.0201  0.6882  0.3013
    8TMC3     H13928   1.528   3.997  13.345  1.9867 -0.1944 -0.3189
    8TMC3    H113929   1.458   4.153  12.940  2.1571  0.8929 -0.8083
    8TMC3    H213930   1.716   3.834  13.009  0.8940  0.4086 -0.5217
    8TMC3    C713931   1.691   4.063  12.871 -0.6029 -0.2006  0.3910
    8TMC3    C813932   1.684   3.814  13.268 -0.1849  0.1855  0.3461
    8TMC3    O113933   1.755   3.983  12.804 -0.3024  0.1941  0.0006
    8TMC3    O213934   1.787   3.770  13.226  0.0081  0.0538 -0.1031
    9TMC3    C113935   1.912   0.317  13.127 -0.1088 -0.5163 -0.4921
    9TMC3    C213936   1.946   0.242  13.023  0.1573  0.3898 -0.0505
    9TMC3    C313937   1.892   0.115  13.014 -0.4309 -0.2514  0.9254
    9TMC3    C413938   1.854   0.264  13.236  0.3222  0.1034 -0.2457
    9TMC3    C513939   1.805   0.140  13.225  1.0054 -0.1778 -0.4500
    9TMC3    C613940   1.814   0.063  13.111  0.4342  0.0870  0.2229
    9TMC3     C13941   2.001   0.429  13.140 -0.5724 -0.0205 -0.3322
    9TMC3     O13942   2.098   0.438  13.070  0.0088 -0.1770  0.7759
    9TMC3     H13943   2.021   0.273  12.951  2.1164 -0.7535  1.5023
    9TMC3    H113944   1.834   0.328  13.322 -0.0571  0.3544 -0.5197
    9TMC3    H213945   1.799   4.679  13.112 -1.5884  0.3945  2.0262
    9TMC3    C713946   1.740   0.080  13.343 -0.7588 -0.7830  0.1995
    9TMC3    C813947   1.914   0.037  12.893 -0.2768 -0.6298 -0.1230
    9TMC3    O113948   1.754   0.129  13.457 -0.0958 -0.5730 -0.0498
    9TMC3    O213949   1.992   0.073  12.809 -0.3361  0.0764 -0.1660
   10MPD2     C13950   1.900   4.256  12.777  0.1932 -0.8512  0.1863
   10MPD2    C113951   1.781   4.295  12.838 -0.4977 -0.2647 -0.0753
   10MPD2    C213952   1.754   4.427  12.869  0.7229  1.2510 -0.1379
   10MPD2    C313953   1.842   4.525  12.833  0.1301  0.1153  0.6469
   10MPD2    C413954   1.949   4.489  12.760 -0.4052  0.2058  0.2339
   10MPD2    C513955   1.982   4.362  12.733  0.3340  0.1288 -0.2617
   10MPD2     H13956   1.673   4.446  12.938  2.0199  2.4794  1.0669
   10MPD2    H113957   2.023   4.563  12.731  1.2249 -0.5955  2.3386
   10MPD2    H213958   1.928   4.155  12.752  0.6356 -0.2793 -1.7001
   10MPD2    H313959   2.077   4.346  12.684  0.4426  0.5436 -0.1903
   10MPD2     N13960   1.823   4.656  12.890  0.7252 -0.0785  0.6792
   10MPD2    H513961   1.737   4.660  12.945  0.2502 -0.3171 -0.0534
   10MPD2    N113962   1.680   4.202  12.872 -0.1705  0.1651  0.1479
   10MPD2    H713963   1.595   4.239  12.914  0.3660  1.6844 -0.0957
   11MPD2     C13964   2.821   3.680  14.224  0.2935  0.3974  0.3772
   11MPD2    C113965   2.729   3.581  14.255  0.4535 -0.7856 -0.3554
   11MPD2    C213966   2.659   3.531  14.150 -0.7208  0.4401 -0.6895
   11MPD2    C313967   2.661   3.594  14.024  0.7673  0.0480  0.3853
   11MPD2    C413968   2.757   3.692  14.002  0.0535  0.5738 -0.1876
   11MPD2    C513969   2.839   3.742  14.104  0.3452 -1.1453 -0.0839
   11MPD2     H13970   2.584   3.457  14.176  1.4081 -1.5876 -0.2994
   11MPD2    H113971   2.775   3.735  13.904  3.0305 -0.9297 -0.3340
   11MPD2    H213972   2.890   3.712  14.301 -1.0003  1.4144  1.1191
   11MPD2    H313973   2.918   3.813  14.081  0.7904 -0.9410  2.0211
   11MPD2     N13974   2.578   3.557  13.917  0.2473 -0.2841 -0.4707
   11MPD2    H513975   2.608   3.592  13.827  1.9434  0.2316  0.3012
   11MPD2    N113976   2.720   3.515  14.380  0.2898 -0.1646  0.3081
   11MPD2    H713977   2.657   3.436  14.393 -0.2960 -0.1303 -2.2714
    1MPD1     C13978   1.864   0.074  17.162  0.0340  0.6498  0.7485
    1MPD1    C113979   1.882   0.182  17.078 -0.8465  0.5153 -0.2839
    1MPD1    C213980   1.772   0.268  17.058 -0.8641 -0.1366 -0.3175
    1MPD1    C313981   1.662   0.258  17.144 -0.6740  0.1646 -0.2923
    1MPD1    C413982   1.651   0.151  17.231 -0.5826  0.8586  0.2776
    1MPD1    C513983   1.755   0.056  17.240  0.6376  0.7666  0.3606
    1MPD1     H13984   1.788   0.349  16.987  0.7705 -0.6211 -0.5074
    1MPD1    H113985   1.570   0.146  17.303 -0.8896  0.4199 -0.0918
    1MPD1    H213986   1.943   0.002  17.180 -0.6716  0.2437  2.1940
    1MPD1    H313987   1.756   4.704  17.318 -1.4321  0.7174  0.3356
    1MPD1     N13988   1.550   0.339  17.136 -0.2653  0.6487  0.3138
    1MPD1    H513989   1.469   0.306  17.188  1.5753 -1.7501  1.6617
    1MPD1    N113990   1.992   0.186  16.989 -0.7229  0.1477  0.2286
    1MPD1    H613991   2.080   0.154  17.029  0.0287  2.5197  0.4718
    1MPD1    H713992   2.005   0.269  16.932  0.3359  1.2231  2.0299
    2MPD1     C13993   0.827   0.870  16.485 -0.7060 -0.1008  0.4700
    2MPD1    C113994   0.781   0.871  16.615 -0.3584  0.1082 -0.9423
    2MPD1    C213995   0.850   0.809  16.715 -0.2656  0.3579  0.4399
    2MPD1    C313996   0.976   0.757  16.690 -0.5542  0.4176  0.2284
    2MPD1    C413997   1.028   0.760  16.565 -0.0392 -1.2012  0.6788
    2MPD1    C513998   0.950   0.819  16.464  0.4177  0.5566  0.1297
    2MPD1     H13999   0.813   0.806  16.818  1.7462 -0.9126  1.1286
    2MPD1    H114000   1.127   0.727  16.535  1.8491  4.3764  0.8646
    2MPD1    H214001   0.772   0.919  16.405 -1.0933  0.8007  1.2983
    2MPD1    H314002   0.979   0.826  16.360  0.2976  1.1245  0.1325
    2MPD1     N14003   1.053   0.692  16.787  0.2671 -0.4054 -0.3333
    2MPD1    H514004   1.012   0.665  16.876  1.8106 -0.2891  0.4126
    2MPD1    N114005   0.648   0.908  16.634 -0.2162 -0.0383  0.4221
    2MPD1    H614006   0.634   0.947  16.727 -1.4822 -2.8901  1.4140
    2MPD1    H714007   0.623   0.983  16.570  0.5798 -0.2966 -0.1912
    3TMC3    C114008   1.221   0.589  16.918  0.6136 -0.1743  0.0354
    3TMC3    C214009   1.125   0.548  17.006  0.0261 -0.8635  0.0913
    3TMC3    C314010   1.169   0.468  17.107  0.2959  0.6998 -0.5171
    3TMC3    C414011   1.349   0.559  16.938 -0.1615  0.1491  0.0028
    3TMC3    C514012   1.392   0.487  17.048 -0.0616  0.3379  0.5967
    3TMC3    C614013   1.302   0.443  17.141  0.3653 -0.1272  0.0179
    3TMC3     C14014   1.184   0.654  16.787  0.1273 -0.5094  0.0503
    3TMC3     O14015   1.270   0.663  16.701  0.5818  0.3341 -0.0992
    3TMC3     H14016   1.020   0.543  16.980  0.1931 -4.3732  0.0472
    3TMC3    H114017   1.422   0.595  16.866 -0.7783 -2.4464 -1.9342
    3TMC3    H214018   1.315   0.365  17.215  1.1055 -0.4054 -0.3960
    3TMC3    C714019   1.527   0.440  17.041 -1.4536  0.6992 -0.5505
    3TMC3    C814020   1.084   0.453  17.223 -0.0801 -0.4612 -0.2767
    3TMC3    O114021   1.608   0.503  16.973 -0.2866  0.1510 -0.1189
    3TMC3    O214022   1.135   0.422  17.327  0.5001  0.1574 -0.5464
    4MPD1     C14023   0.633   0.360  17.454  0.2672  0.7652 -0.6210
    4MPD1    C114024   0.603   0.444  17.350  0.2639  0.0233 -0.3096
    4MPD1    C214025   0.704   0.498  17.271  0.1795 -0.3654  0.5304
    4MPD1    C314026   0.844   0.465  17.297  0.7523  0.3982  0.3915
    4MPD1    C414027   0.864   0.379  17.409 -0.5938  0.3000 -0.0762
    4MPD1    C514028   0.760   0.340  17.485 -0.1908 -0.3584  0.0093
    4MPD1     H14029   0.674   0.562  17.189 -0.7755  0.8836  1.8480
    4MPD1    H114030   0.962   0.342  17.438  0.1866  2.3420 -0.0835
    4MPD1    H214031   0.558   0.321  17.522  2.1142 -2.6575 -0.5356
    4MPD1    H314032   0.780   0.272  17.567  0.2049  0.1136  0.3040
    4MPD1     N14033   0.949   0.484  17.200 -0.3446 -0.5567 -0.3611
    4MPD1    H514034   0.932   0.551  17.126 -2.1115 -1.5512 -0.8693
    4MPD1    N114035   0.470   0.454  17.308 -0.2551 -0.3656 -0.4258
    4MPD1    H614036   0.403   0.448  17.384 -0.0235 -0.7873 -0.2541
    4MPD1    H714037   0.437   0.534  17.255  1.3303  0.7416  0.2720
    1TCq1    O114038   1.300   0.240  11.727 -0.2196 -0.8004  0.7990
    1TCq1    C114039   1.359   0.247  11.605  0.1146 -0.5226 -0.3847
    1TCq1    O214040   1.455   0.318  11.569  0.0738 -0.2813  0.0031
    1TCq1    C214041   1.253   0.223  11.513 -1.0550 -0.1679 -0.1124
    1TCq1    C314042   1.231   0.086  11.513  0.1321 -0.0712 -0.0246
    1TCq1    C414043   1.251   0.020  11.396  0.9739  0.3343 -0.5640
    1TCq1    C514044   1.286   0.080  11.283  0.2449  0.0650 -0.0433
    1TCq1    C614045   1.279   0.220  11.274  0.6222  0.1943  0.2126
    1TCq1    C714046   1.271   0.292  11.389  0.0524  0.5140 -0.3855
    1TCq1    C814047   1.323   0.280  11.149  0.0618 -0.3592  0.0863
    1TCq1    O414048   1.352   0.196  11.065 -0.0140 -1.1160 -0.4561
    1TCq1    C914049   1.290   4.604  11.404 -0.0749 -0.1603  1.0781
    1TCq1    O514050   1.338   4.565  11.513  0.3687 -0.3155 -0.2135
    1TCq1    O614051   1.306   4.550  11.293  0.6052 -0.1584  0.3632
    1TCq1    H114052   1.216   0.190  11.725 -0.3936 -0.5152  0.8640
    1TCq1    H214053   1.254   0.028  11.602 -0.0155 -1.6875 -1.0476
    1TCq1    H314054   1.321   0.023  11.197  0.2265  0.7359 -0.4966
    1TCq1    H414055   1.292   0.399  11.395 -0.0696  0.4752  0.8475
    2MPD1     C14056   1.342   0.663  10.801 -0.3449 -0.0990 -0.6527
    2MPD1    C114057   1.292   0.711  10.921  0.3571  0.2687  0.1005
    2MPD1    C214058   1.269   0.627  11.027  0.3474  0.1928 -0.2384
    2MPD1    C314059   1.315   0.497  11.026  0.1386 -0.5036  0.2609
    2MPD1    C414060   1.371   0.447  10.909 -1.2750 -0.7480 -0.4176
    2MPD1    C514061   1.380   0.529  10.799 -0.2898  0.4452 -0.4894
    2MPD1     H14062   1.219   0.655  11.119  2.2858  0.0248  0.8731
    2MPD1    H114063   1.405   0.345  10.903  0.4794 -0.1798 -0.2285
    2MPD1    H214064   1.360   0.721  10.711 -1.7457 -0.1158 -0.9392
    2MPD1    H314065   1.423   0.484  10.710  0.1201  0.6926 -0.4185
    2MPD1     N14066   1.297   0.417  11.141 -0.0787  0.1046 -0.3031
    2MPD1    H514067   1.262   0.460  11.226 -3.8110  1.0576 -2.3239
    2MPD1    N114068   1.242   0.841  10.931  0.0690 -0.4237  0.3796
    2MPD1    H614069   1.286   0.888  10.852  0.8332 -0.5920  0.7073
    2MPD1    H714070   1.273   0.886  11.017  1.5436  0.5276 -0.6567
    1TCq1    O114071   3.554   3.710   1.779 -0.2322  0.1423  0.9664
    1TCq1    C114072   3.475   3.605   1.793  0.2721 -0.7631  0.1021
    1TCq1    O214073   3.371   3.603   1.860  0.2188 -0.4449 -0.1673
    1TCq1    C214074   3.568   3.500   1.772 -0.0690 -0.7621 -1.3280
    1TCq1    C314075   3.561   3.391   1.859  0.4657 -0.2744 -0.3851
    1TCq1    C414076   3.671   3.313   1.864  1.1305 -0.8260  0.0535
    1TCq1    C514077   3.759   3.317   1.761 -0.3806 -0.9103  0.1234
    1TCq1    C614078   3.750   3.418   1.671  0.6277 -0.0991 -0.4267
    1TCq1    C714079   3.655   3.513   1.673  0.2688 -0.8519  0.1622
    1TCq1    C814080   3.847   3.414   1.553 -0.5878 -0.1668 -0.4927
    1TCq1    O414081   3.851   3.519   1.499 -0.3480 -0.1117  0.3456
    1TCq1    C914082   3.678   3.192   1.946  0.5250 -0.3287 -0.6969
    1TCq1    O514083   3.741   3.092   1.899  0.5248  0.2288  0.3923
    1TCq1    O614084   3.606   3.189   2.050  0.1027 -0.4636 -0.1682
    1TCq1    H114085   3.651   3.696   1.784 -0.3284 -0.9765 -0.3805
    1TCq1    H214086   3.487   3.390   1.939 -1.0053  2.8010 -1.7203
    1TCq1    H314087   3.849   3.257   1.771  0.4533  0.1371 -1.1101
    1TCq1    H414088   3.651   3.587   1.594 -2.2993 -1.9725 -0.7906
    2MPD1     C14089   4.160   3.210   1.217  0.3107  0.4841  0.4732
    2MPD1    C114090   4.145   3.119   1.320  0.2991 -0.5146  0.5925
    2MPD1    C214091   4.077   3.151   1.436 -0.2158 -0.7846  0.7187
    2MPD1    C314092   4.022   3.279   1.450 -0.1821 -0.1438 -0.4530
    2MPD1    C414093   4.048   3.371   1.344 -0.3707  0.3909 -0.0419
    2MPD1    C514094   4.116   3.336   1.229  0.2209 -0.3071 -0.0815
    2MPD1     H14095   4.070   3.074   1.512  0.7854  0.1832  1.8135
    2MPD1    H114096   4.011   3.473   1.347  0.9145  0.9086 -1.4936
    2MPD1    H214097   4.207   3.182   1.124 -2.2487 -0.8434 -0.4286
    2MPD1    H314098   4.129   3.401   1.143  0.4569  0.1827  0.3222
    2MPD1     N14099   3.932   3.306   1.550 -0.3150 -0.1735 -0.0784
    2MPD1    H514100   3.909   3.230   1.613 -2.0195 -1.5023 -2.2996
    2MPD1    N114101   4.178   2.984   1.294  0.2846  1.3268 -0.1146
    2MPD1    H614102   4.261   2.979   1.236 -0.4630 -1.6926 -0.9117
    2MPD1    H714103   4.189   2.933   1.382 -0.8015 -0.4800 -1.0436
    1MPD1     C14104   4.079   3.353  12.113 -0.5130 -0.5777  0.0387
    1MPD1    C114105   4.181   3.440  12.147 -0.6514 -0.3149  0.4010
    1MPD1    C214106   4.160   3.577  12.117  0.1050 -0.4067 -0.5292
    1MPD1    C314107   4.041   3.622  12.059  0.2870  0.0843 -0.1380
    1MPD1    C414108   3.937   3.529  12.043  0.0528 -0.3848 -0.2737
    1MPD1    C514109   3.955   3.394  12.069 -0.7762  0.1287  0.3696
    1MPD1     H14110   4.232   3.654  12.143  0.7856 -0.6225 -1.7400
    1MPD1    H114111   3.853   3.546  11.976 -0.8040  1.3216  1.2664
    1MPD1    H214112   4.095   3.251  12.143 -1.6690 -0.2411  1.7692
    1MPD1    H314113   3.876   3.322  12.051 -0.6693  0.4378 -1.3224
    1MPD1     N14114   4.032   3.761  12.026 -0.6694 -0.4412 -0.1210
    1MPD1    H514115   4.124   3.802  12.013 -0.4818 -0.5411  0.8750
    1MPD1    N114116   4.308   3.403  12.198  0.2894  0.2418  0.3267
    1MPD1    H614117   4.359   3.483  12.235  2.5462 -2.0670  2.1014
    1MPD1    H714118   4.307   3.313  12.244  2.3674 -1.3349 -2.7222
    2MPD1     C14119   3.347   4.429   9.584  0.3769 -0.4242 -0.0521
    2MPD1    C114120   3.323   4.551   9.637 -0.4510 -0.4576  0.1253
    2MPD1    C214121   3.305   4.559   9.774  0.5781 -0.2493  0.5829
    2MPD1    C314122   3.309   4.443   9.857  0.1909 -0.4968  0.6134
    2MPD1    C414123   3.339   4.320   9.795  0.7629 -0.6548 -0.1579
    2MPD1    C514124   3.347   4.316   9.658 -0.3831 -0.3391 -0.4613
    2MPD1     H14125   3.285   4.655   9.821 -0.0778  0.0532 -0.3118
    2MPD1    H114126   3.358   4.231   9.855  0.2546 -0.9194 -0.3940
    2MPD1    H214127   3.369   4.413   9.479  1.6933 -2.4208  0.5180
    2MPD1    H314128   3.375   4.226   9.604  3.7830  0.6354  0.0779
    2MPD1     N14129   3.285   4.440   9.992 -0.4795  0.4619  0.1205
    2MPD1    H514130   3.290   4.355  10.047  0.3672  1.7811  2.0796
    2MPD1    N114131   3.325   4.666   9.550  0.0569 -0.3501  0.8183
    2MPD1    H614132   3.299   4.641   9.455 -1.6736  1.8993  0.7034
    2MPD1    H714133   3.273   0.027   9.572  1.9417  1.5185 -1.8764
    3MPD1     C14134   2.717   0.271  10.548  0.1221 -0.4571 -0.4663
    3MPD1    C114135   2.835   0.326  10.504 -0.1033 -0.1309  0.5985
    3MPD1    C214136   2.948   0.243  10.486 -0.6526  0.7280  0.3730
    3MPD1    C314137   2.933   0.104  10.502 -0.0842 -0.1050 -0.4464
    3MPD1    C414138   2.812   0.057  10.543  0.7442 -0.5071 -0.1675
    3MPD1    C514139   2.711   0.139  10.569  0.1457 -0.2945 -0.5728
    3MPD1     H14140   3.048   0.284  10.479 -0.5891  0.7134  1.2190
    3MPD1    H114141   2.801   4.674  10.561 -2.2865 -0.3173 -0.8979
    3MPD1    H214142   2.630   0.330  10.575  0.3643  0.1358 -0.9621
    3MPD1    H314143   2.618   0.088  10.592 -0.2420  1.1794  1.1881
    3MPD1     N14144   3.040   0.014  10.475  0.2566  0.4130 -0.3009
    3MPD1    H514145   3.120   0.059  10.432  1.6306 -1.5380  0.2238
    3MPD1    N114146   2.856   0.466  10.490  0.1277  0.2776 -0.1103
    3MPD1    H614147   2.927   0.473  10.417  0.9676  1.9281  0.8622
    3MPD1    H714148   2.779   0.530  10.470  0.5384  1.3293  1.6661
    4MPD2     C14149   3.575   4.394  11.645 -0.1772 -0.5875 -0.1538
    4MPD2    C114150   3.702   4.349  11.635 -0.1767  0.1797 -1.0155
    4MPD2    C214151   3.772   4.377  11.519  0.3358 -0.3094 -0.5253
    4MPD2    C314152   3.719   4.446  11.412  0.3404  0.1109 -0.1761
    4MPD2    C414153   3.597   4.492  11.432  0.3947  0.4114 -0.0930
    4MPD2    C514154   3.519   4.464  11.541 -0.3228  0.2549 -0.0601
    4MPD2     H14155   3.869   4.330  11.521 -0.3453 -1.7303 -0.8212
    4MPD2    H114156   3.546   4.558  11.363  1.4978 -0.0304 -1.3229
    4MPD2    H214157   3.511   4.359  11.725 -0.1197  2.2588  1.1156
    4MPD2    H314158   3.415   4.496  11.542 -0.8244 -1.3709 -1.3850
    4MPD2     N14159   3.796   4.467  11.296  0.1282  0.2435  1.0641
    4MPD2    H514160   3.740   4.493  11.216 -0.3716 -0.4603  1.1851
    4MPD2    N114161   3.760   4.258  11.723  0.6974  0.2410  0.1533
    4MPD2    H714162   3.851   4.227  11.692 -0.0909 -2.1623  0.2633
    5TMC3    C114163   3.829   4.174  11.910 -0.6463  0.7267  0.0220
    5TMC3    C214164   3.815   4.048  11.957 -0.7920  0.3529 -0.5584
    5TMC3    C314165   3.935   3.971  11.950 -0.0111 -0.4016 -0.3616
    5TMC3    C414166   3.952   4.221  11.875  0.1383  0.7098  0.9428
    5TMC3    C514167   4.058   4.138  11.853 -0.3535 -0.9769  0.4192
    5TMC3    C614168   4.051   4.007  11.892  0.2361 -0.7063  0.2870
    5TMC3     C14169   3.716   4.232  11.846 -0.0443 -0.1722  0.5202
    5TMC3     O14170   3.611   4.256  11.903 -0.3902 -0.4083 -0.0893
    5TMC3     H14171   3.721   4.007  11.990 -0.1351 -0.1044  0.7393
    5TMC3    H114172   3.956   4.323  11.839  2.2124 -0.0346 -0.9774
    5TMC3    H214173   4.131   3.936  11.877  1.1558  0.6359 -1.1093
    5TMC3    C714174   4.098   4.154  11.711 -0.9443  0.1627  0.6406
    5TMC3    C814175   3.915   3.829  11.990 -0.3130 -0.2157 -0.9107
    5TMC3    O114176   4.001   4.183  11.642 -0.2995 -0.2888  0.4162
    5TMC3    O214177   3.799   3.790  11.968 -0.4212 -0.3785 -0.0088
    6TMC3    C114178   3.236   4.505  10.210  0.9031 -0.0725  0.3083
    6TMC3    C214179   3.151   4.577  10.290 -0.0448 -0.1451  0.2362
    6TMC3    C314180   3.138   4.541  10.416 -0.1340 -0.6907  0.3262
    6TMC3    C414181   3.328   4.411  10.254  0.2477  0.4815  0.4085
    6TMC3    C514182   3.317   4.390  10.389  0.6768 -0.1353  0.0690
    6TMC3    C614183   3.231   4.455  10.472 -0.1515  0.2608 -0.1455
    6TMC3     C14184   3.240   4.546  10.066 -0.1005  0.5216 -0.1429
    6TMC3     O14185   3.182   4.648  10.032 -0.7017 -0.0733  0.1270
    6TMC3     H14186   3.092   4.658  10.247  1.5615  1.4311  1.0043
    6TMC3    H114187   3.389   4.356  10.183  0.0721  2.1053 -0.9963
    6TMC3    H214188   3.218   4.437  10.579 -2.0715 -0.2043 -0.4571
    6TMC3    C714189   3.433   4.340  10.462 -0.5529  0.2177  0.4974
    6TMC3    C814190   3.040   4.605  10.497 -0.1578  0.2686  0.1855
    6TMC3    O114191   3.431   4.335  10.583 -0.2424  0.6175  0.3460
    6TMC3    O214192   2.980   4.542  10.586  0.8721 -0.3167  0.6432
    7MPD2     C14193   4.370   4.041  11.280  0.1371  0.8903 -0.7400
    7MPD2    C114194   4.259   4.124  11.306  0.0759 -0.1726 -1.4213
    7MPD2    C214195   4.208   4.142  11.433  0.8884  0.0761  0.4379
    7MPD2    C314196   4.270   4.074  11.544  0.2615  0.9872  0.3242
    7MPD2    C414197   4.384   3.996  11.511 -0.4159 -0.0526 -0.1514
    7MPD2    C514198   4.422   3.966  11.383  0.1930 -0.5046 -0.3670
    7MPD2     H14199   4.119   4.203  11.446  0.4400 -0.7620  1.2948
    7MPD2    H114200   4.434   3.946  11.594 -0.7273  0.1533  0.1616
    7MPD2    H214201   4.406   4.028  11.178  0.4793  0.1196 -0.5260
    7MPD2    H314202   4.498   3.889  11.377  0.4277 -0.2279 -0.9217
    7MPD2     N14203   4.219   4.087  11.679  0.1962 -0.3568  0.3956
    7MPD2    H514204   4.283   4.067  11.754 -1.7309  1.2868  2.4669
    7MPD2    N114205   4.203   4.211  11.208 -0.6439 -0.2928  0.4633
    7MPD2    H714206   4.131   4.274  11.241  0.0866  0.3921  0.7476
    8TMC3    C114207   4.139   4.326  11.025  0.4320 -0.1422 -0.4562
    8TMC3    C214208   4.055   4.293  10.928  0.2213 -0.1357  0.5355
    8TMC3    C314209   3.930   4.342  10.931 -0.5817 -0.1209  0.2893
    8TMC3    C414210   4.101   4.406  11.130  0.7612  0.2794  0.3628
    8TMC3    C514211   3.967   4.431  11.134 -0.2731  0.5680  0.1369
    8TMC3    C614212   3.876   4.393  11.046  0.2000  0.1177  0.0808
    8TMC3     C14213   4.233   4.221  11.078 -0.7009 -0.2755  0.4878
    8TMC3     O14214   4.314   4.167  11.005 -0.0648  0.3962  0.3837
    8TMC3     H14215   4.099   4.242  10.844  0.3611  1.5359 -0.4118
    8TMC3    H114216   4.175   4.445  11.200  1.7474  0.0851 -0.5755
    8TMC3    H214217   3.775   4.433  11.051  0.2743  0.1165  1.4913
    8TMC3    C714218   3.924   4.425  11.271  0.2430  0.7589  0.1658
    8TMC3    C814219   3.850   4.354  10.808  0.1261 -0.3589 -0.8610
    8TMC3    O114220   4.013   4.390  11.348  0.3389  0.0011  0.0836
    8TMC3    O214221   3.751   4.429  10.805 -0.0636 -0.4392  0.0175
    9MPD2     C14222   3.917   4.185  10.491  0.8813  0.5130  0.0895
    9MPD2    C114223   3.841   4.249  10.589 -0.2732 -0.6940 -0.3613
    9MPD2    C214224   3.714   4.290  10.549 -0.1500  0.7719 -0.1129
    9MPD2    C314225   3.663   4.270  10.422 -0.0211 -0.4158 -0.5468
    9MPD2    C414226   3.743   4.200  10.333 -0.1071 -0.2068 -0.4880
    9MPD2    C514227   3.871   4.160  10.369  0.0488 -0.4366  0.2707
    9MPD2     H14228   3.654   4.352  10.615  0.6710 -0.2182  1.5680
    9MPD2    H114229   3.713   4.179  10.231 -3.3681  0.3786  0.3577
    9MPD2    H214230   4.002   4.130  10.530  2.4786  3.4796  0.7961
    9MPD2    H314231   3.931   4.102  10.300  0.0289 -1.7378  1.3428
    9MPD2     N14232   3.536   4.306  10.380 -0.2456 -0.7555 -0.2200
    9MPD2    H514233   3.513   4.285  10.283 -0.0173 -1.9075 -0.0265
    9MPD2    N114234   3.906   4.280  10.710 -0.1067 -0.1153  0.0804
    9MPD2    H714235   3.999   4.243  10.727  0.4138  0.6093 -1.1410
    1MPD1     C14236   3.553   3.360  16.392 -0.0805  0.0667 -0.0916
    1MPD1    C114237   3.483   3.253  16.333 -0.8274 -0.3747 -0.2574
    1MPD1    C214238   3.545   3.170  16.236  0.8105 -0.2189  0.3445
    1MPD1    C314239   3.678   3.200  16.201  0.8494 -0.4146 -0.3577
    1MPD1    C414240   3.745   3.309  16.260 -0.4323  0.1052 -1.0831
    1MPD1    C514241   3.686   3.383  16.361  0.4939  0.5961  0.0931
    1MPD1     H14242   3.495   3.084  16.192  1.3487 -0.7709  0.8048
    1MPD1    H114243   3.850   3.326  16.240  0.4127 -1.8929  1.5267
    1MPD1    H214244   3.503   3.427  16.461  1.9061  1.8681 -0.3976
    1MPD1    H314245   3.736   3.469  16.404 -0.0072  0.4374  0.9961
    1MPD1     N14246   3.742   3.136  16.091  0.6191 -0.2039  0.5056
    1MPD1    H514247   3.833   3.166  16.057  1.2682 -1.4421  1.1828
    1MPD1    N114248   3.345   3.241  16.356 -0.3531 -0.5560 -0.4600
    1MPD1    H614249   3.304   3.280  16.441  0.4778 -1.8105  0.5281
    1MPD1    H714250   3.311   3.145  16.350 -0.8151 -0.3904 -0.4891
    2MPD1     C14251   4.113   3.592  15.470 -0.6501 -0.0102 -0.0570
    2MPD1    C114252   4.096   3.602  15.604 -0.0386 -0.1336  1.2511
    2MPD1    C214253   4.038   3.494  15.668  0.1763 -0.3785  0.3466
    2MPD1    C314254   4.013   3.368  15.605  0.7823  0.0546 -0.5279
    2MPD1    C414255   4.032   3.359  15.468 -0.5627  0.5452 -0.0933
    2MPD1    C514256   4.082   3.468  15.402  0.7033  0.0045  0.4110
    2MPD1     H14257   4.011   3.506  15.772  0.9630  1.1202  0.3836
    2MPD1    H114258   3.990   3.276  15.413 -1.7932  1.8099 -1.0464
    2MPD1    H214259   4.137   3.680  15.412 -1.6509  0.1355 -0.2557
    2MPD1    H314260   4.069   3.476  15.294 -1.4676 -1.5974  0.5425
    2MPD1     N14261   3.966   3.253  15.676  1.0535 -0.1016 -0.3592
    2MPD1    H514262   3.952   3.269  15.775  0.5731  0.1851 -0.4679
    2MPD1    N114263   4.085   3.724  15.667  1.1233 -0.1241  0.1239
    2MPD1    H614264   4.158   3.783  15.629  0.1974  0.5367 -0.6179
    2MPD1    H714265   4.119   3.713  15.762  1.7876  2.3574  0.1604
    3TCq2    C114266   3.946   3.126  15.626 -1.0858  0.1543  0.8140
    3TCq2    O214267   3.980   3.074  15.518  0.3845  0.0181 -0.0821
    3TCq2    C214268   3.880   3.030  15.716  0.1734  0.4806  0.3102
    3TCq2    C314269   3.897   2.898  15.689  0.3944 -0.6121 -0.0474
    3TCq2    C414270   3.843   2.800  15.776  0.5622  0.0385 -0.1775
    3TCq2    C514271   3.775   2.842  15.887 -0.1325 -0.2791  0.4257
    3TCq2    C614272   3.766   2.984  15.906  0.2263 -0.3383  0.0564
    3TCq2    C714273   3.811   3.083  15.824  0.7135  0.2185 -0.4689
    3TCq2    C814274   3.694   3.020  16.028 -0.1915 -0.8493  0.2994
    3TCq2    O414275   3.600   2.949  16.059  0.5285  0.0343 -0.0904
    3TCq2    C914276   3.862   2.665  15.745  0.7100  0.0877  0.1984
    3TCq2    O514277   3.789   2.582  15.801 -0.0727  0.2063 -0.1632
    3TCq2    O614278   3.954   2.642  15.663  0.1816 -0.5118 -0.0653
    3TCq2    H214279   3.953   2.867  15.602  0.4276 -1.4794  0.2797
    3TCq2    H314280   3.754   2.772  15.967 -1.2854 -1.2276 -0.7133
    3TCq2    H414281   3.806   3.187  15.854 -0.7972 -1.1821  4.0766
    1TCq1    O114282   1.447   3.041  12.743  0.5087  0.2101 -0.0210
    1TCq1    C114283   1.443   3.069  12.874  0.1514  0.1745 -0.4219
    1TCq1    O214284   1.431   3.182  12.923  0.0621  0.0777  0.7783
    1TCq1    C214285   1.385   2.952  12.932  0.1622 -0.4551  0.1490
    1TCq1    C314286   1.268   2.913  12.884  0.6964  0.1308 -0.7234
    1TCq1    C414287   1.211   2.802  12.934  0.2290  0.1214 -0.1856
    1TCq1    C514288   1.280   2.724  13.027 -0.3007  0.1538 -0.2229
    1TCq1    C614289   1.406   2.770  13.070 -0.0105 -0.6381 -0.1497
    1TCq1    C714290   1.464   2.885  13.023 -0.6054 -0.3028 -0.0049
    1TCq1    C814291   1.501   2.684  13.138 -0.4338 -0.4014  0.8140
    1TCq1    O414292   1.479   2.566  13.146  0.1199  0.1103  0.4527
    1TCq1    C914293   1.085   2.743  12.887  0.1892  0.2378 -0.1299
    1TCq1    O514294   1.077   2.618  12.900 -0.0193 -0.1032 -0.2636
    1TCq1    O614295   0.984   2.815  12.854 -0.4911 -0.7073 -0.0773
    1TCq1    H114296   1.416   2.950  12.730 -2.3074  1.2952 -0.7937
    1TCq1    H214297   1.204   2.979  12.827 -2.1991 -0.8187  1.4054
    1TCq1    H314298   1.221   2.642  13.067  3.0875 -1.1915  1.9574
    1TCq1    H414299   1.565   2.920  13.046 -0.5102  0.3069 -1.3692
    2MPD2     C14300   1.729   2.777  13.415  0.7036 -0.4847  0.4239
    2MPD2    C114301   1.680   2.694  13.316 -0.2655 -0.1842 -0.0709
    2MPD2    C214302   1.727   2.559  13.311  0.0903  0.8072  0.1937
    2MPD2    C314303   1.829   2.516  13.397  0.3838  0.0352  0.9302
    2MPD2    C414304   1.882   2.603  13.489 -0.4021  0.7864 -0.5113
    2MPD2    C514305   1.835   2.730  13.492  0.2213 -0.1581  0.6419
    2MPD2     H14306   1.681   2.495  13.237 -0.3908  0.4036  0.8327
    2MPD2    H114307   1.952   2.569  13.564  0.2740 -0.0245 -1.5071
    2MPD2    H214308   1.687   2.875  13.433  1.2719 -0.1904  0.1293
    2MPD2    H314309   1.878   2.798  13.564  0.6443 -1.8598  1.9897
    2MPD2     N14310   1.874   2.378  13.380 -0.0329  0.3839  0.5132
    2MPD2    H514311   1.826   2.322  13.310  0.3413  0.0875  0.4925
    2MPD2    N114312   1.580   2.750  13.227  0.1841 -0.3978  0.2729
    2MPD2    H714313   1.569   2.850  13.234 -2.9191 -0.7124 -0.1090
    3TCq1    O114314   1.980   2.094  13.006  0.0758  0.0803 -0.5653
    3TCq1    C114315   1.961   1.997  13.101  1.1415  0.1225  0.4990
    3TCq1    O214316   1.942   1.876  13.079  0.3204 -0.5360  0.4641
    3TCq1    C214317   2.026   2.044  13.225  0.8012 -0.0386 -0.4508
    3TCq1    C314318   2.098   1.954  13.299  0.4058 -0.0116  0.4317
    3TCq1    C414319   2.131   1.996  13.425  0.3531  0.0303 -0.9356
    3TCq1    C514320   2.080   2.108  13.478 -0.6892 -0.2136  0.2810
    3TCq1    C614321   2.002   2.185  13.404 -0.1464 -0.1718 -0.6679
    3TCq1    C714322   1.970   2.159  13.273  0.1703  0.2040 -0.0544
    3TCq1    C814323   1.960   2.310  13.460  0.3493  0.4032 -0.1846
    3TCq1    O414324   2.011   2.338  13.566 -0.3157 -0.4980  0.4525
    3TCq1    C914325   2.230   1.915  13.503 -0.1624 -0.5849  0.4269
    3TCq1    O514326   2.261   1.811  13.444 -0.2639  0.3531  0.2840
    3TCq1    O614327   2.235   1.933  13.627 -0.6936  0.0975 -0.7237
    3TCq1    H114328   2.042   2.165  13.036  0.1678 -0.3631  0.2907
    3TCq1    H214329   2.137   1.863  13.255 -1.2438 -0.3857 -0.2443
    3TCq1    H314330   2.114   2.139  13.576 -0.0345 -2.7572  0.8528
    3TCq1    H414331   1.908   2.226  13.215 -0.4526  0.7083  1.1866
    1MPD2     C14332   1.105   3.629  15.000  0.2360 -0.1532  0.0964
    1MPD2    C114333   1.114   3.566  15.120  0.4366  0.1365  0.5051
    1MPD2    C214334   1.235   3.498  15.145 -0.2416  0.0067  0.0219
    1MPD2    C314335   1.334   3.499  15.048  0.5014  0.1671  0.2060
    1MPD2    C414336   1.322   3.568  14.928 -0.4112  0.3761 -0.1248
    1MPD2    C514337   1.206   3.642  14.909 -0.0119  0.0100 -0.1267
    1MPD2     H14338   1.262   3.462  15.243  2.4457 -1.1503 -1.1374
    1MPD2    H114339   1.398   3.564  14.851 -0.9252 -0.7247 -0.5830
    1MPD2    H214340   1.017   3.689  14.981 -0.3003 -1.1793 -0.6533
    1MPD2    H314341   1.207   3.701  14.819  2.1128 -1.3228 -0.9883
    1MPD2     N14342   1.443   3.422  15.081  0.1173  0.5279  0.5270
    1MPD2    H514343   1.442   3.374  15.171  0.0685 -0.2106  0.1362
    1MPD2    N114344   1.006   3.582  15.206  0.0961  0.2279 -1.1153
    1MPD2    H714345   0.938   3.650  15.173  0.9259  1.7650  0.3296
    2TMC3    C114346   0.850   3.504  15.359  0.5181 -0.0397  0.4443
    2TMC3    C214347   0.839   3.372  15.398  0.7374 -0.2484  0.5099
    2TMC3    C314348   0.744   3.292  15.332 -0.3540 -0.6310 -0.0149
    2TMC3    C414349   0.768   3.553  15.260  0.1573 -0.5940 -0.5833
    2TMC3    C514350   0.672   3.469  15.204  0.2454 -0.1848  0.4533
    2TMC3    C614351   0.654   3.341  15.246 -0.4591 -0.3195  0.1605
    2TMC3     C14352   0.992   3.513  15.319 -0.1028 -0.4310  0.0345
    2TMC3     O14353   1.069   3.435  15.375  0.2751 -0.2813  0.4080
    2TMC3     H14354   0.893   3.331  15.482  1.4346  1.1632  0.7387
    2TMC3    H114355   0.757   3.661  15.255 -1.2002 -0.7327 -0.8464
    2TMC3    H214356   0.577   3.281  15.200 -1.9259  1.2073  0.6590
    2TMC3    C714357   0.616   3.521  15.074  0.6800 -0.3615  1.1777
    2TMC3    C814358   0.796   3.161  15.311  0.4702 -0.2412  0.2018
    2TMC3    O114359   0.522   3.460  15.026 -0.1170  0.2011 -0.2528
    2TMC3    O214360   0.722   3.065  15.285  0.7228 -0.1152 -0.3524
    3TCq1    O114361   0.909   4.338  14.195 -0.3709  0.1008 -0.0623
    3TCq1    C114362   0.917   4.214  14.147  0.0882 -0.1805 -0.0763
    3TCq1    O214363   0.839   4.161  14.060 -0.5089 -0.9193 -0.2355
    3TCq1    C214364   0.962   4.141  14.273  0.2250  0.5867 -0.4535
    3TCq1    C314365   1.064   4.193  14.346 -0.2548 -0.6047 -0.1250
    3TCq1    C414366   1.068   4.175  14.482 -0.2009  0.5747 -0.6263
    3TCq1    C514367   0.968   4.110  14.547  0.0103  0.8519 -0.5940
    3TCq1    C614368   0.867   4.068  14.474  0.2573  0.5405 -0.3198
    3TCq1    C714369   0.860   4.084  14.343 -0.3397 -0.1361 -1.1903
    3TCq1    C814370   0.751   4.003  14.537 -0.0121 -0.3386  0.7034
    3TCq1    O414371   0.643   4.034  14.489  0.6616  0.2417  0.0583
    3TCq1    C914372   1.169   4.229  14.558 -0.1484  0.6098 -0.6407
    3TCq1    O514373   1.244   4.318  14.506  0.2233 -0.9895 -0.3177
    3TCq1    O614374   1.177   4.187  14.675 -0.0695  0.1300  0.5954
    3TCq1    H114375   0.963   4.350  14.276  3.1866 -1.1409 -2.2836
    3TCq1    H214376   1.155   4.232  14.300 -1.1312  1.5424 -0.0646
    3TCq1    H314377   0.961   4.118  14.655 -1.6189  2.5916 -0.8309
    3TCq1    H414378   0.768   4.069  14.288 -0.2919  0.1577 -1.3496
    4MPD2     C14379   0.543   3.868  14.707  0.2186 -0.4778  0.1472
    4MPD2    C114380   0.686   3.860  14.725 -0.1404  0.5619 -0.5012
    4MPD2    C214381   0.724   3.780  14.835  0.4927 -0.0723 -0.2989
    4MPD2    C314382   0.636   3.703  14.910  0.2425 -0.2988  0.4697
    4MPD2    C414383   0.506   3.706  14.874 -0.7648  0.0430 -0.2948
    4MPD2    C514384   0.458   3.785  14.774  0.1199 -0.0447  0.3319
    4MPD2     H14385   0.831   3.762  14.842  0.6224  0.5839 -0.5160
    4MPD2    H114386   0.426   3.654  14.925 -0.0227  0.1705  0.9790
    4MPD2    H214387   0.502   3.921  14.622  2.3778  0.4540 -0.3107
    4MPD2    H314388   0.354   3.793  14.746  0.5411  1.3574 -0.8614
    4MPD2     N14389   0.684   3.632  15.019 -0.8222  1.2529  0.0494
    4MPD2    H514390   0.775   3.650  15.061 -0.0982 -1.0399 -0.5615
    4MPD2    N114391   0.777   3.935  14.655 -0.7692 -0.2113 -0.5665
    4MPD2    H714392   0.877   3.929  14.672 -0.7394  0.0650 -0.6453
    5TMC2    C114393   1.583   3.198  15.280 -0.3529 -0.1186  0.0164
    5TMC2    C214394   1.666   3.276  15.356 -0.0773 -0.2520 -0.0215
    5TMC2    C314395   1.741   3.372  15.299 -0.6319  0.2144 -0.4414
    5TMC2    C414396   1.569   3.229  15.142  0.3197 -0.1767 -0.5512
    5TMC2    C514397   1.649   3.325  15.090  0.2154  0.1167 -0.6594
    5TMC2    C614398   1.741   3.398  15.164  0.1826  1.1134  0.7666
    5TMC2     C14399   1.443   3.155  15.326  0.6942  0.5801 -0.3039
    5TMC2     O14400   1.403   3.208  15.427  0.5522 -0.0617  0.3606
    5TMC2     H14401   1.680   3.256  15.462 -0.9089  0.2500  0.1884
    5TMC2    H114402   1.503   3.178  15.073 -0.2041 -2.0373  1.3044
    5TMC2    H214403   1.770   3.493  15.123 -0.8687  1.6138  1.1881
    5TMC2    C714404   1.565   3.417  15.019  0.1293 -0.1778  0.5615
    5TMC2    C814405   1.818   3.455  15.390 -0.0661 -0.8129  0.3788
    5TMC2    O114406   1.606   3.498  14.938  0.1097 -0.1197 -0.2727
    5TMC2    O214407   1.788   3.463  15.507 -0.3071  0.1775 -0.3116
    5TMC2    O514408   1.897   3.547  15.334  0.3816  0.1040 -0.6928
    5TMC2    H514409   1.926   3.534  15.241 -1.0054  2.3230 -1.4125
    6MPD2     C14410   0.992   2.945  15.248 -0.1010 -0.2462 -0.2707
    6MPD2    C114411   1.030   3.068  15.291 -0.7803 -0.3317  0.0900
    6MPD2    C214412   1.163   3.103  15.312  0.5548 -0.3014  0.7261
    6MPD2    C314413   1.260   3.013  15.261  0.3486 -0.1589 -0.1493
    6MPD2    C414414   1.223   2.884  15.216  0.0779 -0.6186 -0.1039
    6MPD2    C514415   1.089   2.852  15.213  0.3222  0.5716 -0.5241
    6MPD2     H14416   1.190   3.205  15.338 -0.4339  0.3297 -0.7377
    6MPD2    H114417   1.290   2.811  15.172 -0.3454  1.9114 -5.0041
    6MPD2    H214418   0.890   2.907  15.243 -0.1436  0.0874 -1.9178
    6MPD2    H314419   1.044   2.759  15.179  0.6187  0.4376 -0.5573
    6MPD2     N14420   1.397   3.048  15.256 -0.5794  0.3832 -0.0697
    6MPD2    H514421   1.458   3.007  15.185  0.3745  3.6089 -1.0987
    6MPD2    N114422   0.932   3.168  15.318 -0.5520 -0.3059 -0.5598
    6MPD2    H714423   0.959   3.264  15.336  0.0794 -0.6976  0.5535
  945NH4     N114424   1.089   1.699  10.984 -0.3022  0.2568  0.1937
  945NH4     H214425   1.095   1.641  10.897 -2.8250  0.7735 -0.2996
  945NH4     H314426   1.043   1.787  10.955  1.3548  1.2086  0.4074
  945NH4     H414427   1.188   1.711  11.015 -0.1454 -2.4053  0.7519
  945NH4     H514428   1.041   1.641  11.055 -0.1395  0.2143  0.2696
  946SOD     NA14429   2.950   4.266  11.407  0.1742  0.1994  0.4365
  947SOD     NA14430   0.844   2.627  12.941 -0.1293 -0.0017 -0.1390
  948SOD     NA14431   0.732   4.281   3.580  0.3686  0.4328  0.0837
  949SOD     NA14432   2.375   3.712  15.258  0.2582 -0.1059  0.1727
  950SOD     NA14433   3.495   1.224  14.638  0.5628  0.3990  0.1642
  951SOD     NA14434   1.464   3.553   5.126 -0.0982 -0.5346  0.2716
  952SOD     NA14435   0.895   3.813   2.807  0.3495  0.3721  0.0877
  953SOD     NA14436   3.956   2.945   1.222  0.5330 -0.2877 -0.0332
  954SOD     NA14437   2.990   2.591  14.638  0.2696  0.0373  0.1555
  955SOD     NA14438   1.892   2.216  10.468 -0.2207 -0.5582 -0.1035
  956SOD     NA14439   3.435   3.724  14.678 -0.3830 -0.1911  0.0474
  957SOD     NA14440   3.655   0.901   0.619  0.1100 -0.3302 -0.1572
  958SOD     NA14441   0.452   2.123  16.155  0.2713  0.1330 -0.2616
  959SOD     NA14442   2.779   3.532  13.494  0.4188  0.2598  0.3100
  960SOD     NA14443   0.620   3.290  12.692  0.2904  0.4522  0.0286
  961SOD     NA14444   3.005   2.090   0.761  0.0571  0.6572 -0.0622
  962SOD     NA14445   1.012   2.098   9.109 -0.3442 -0.0349 -0.6498
  963SOD     NA14446   4.105   3.783   2.716 -0.0005  0.7240  0.1220
  964SOD     NA14447   1.679   1.938  12.061 -0.2700  0.3207 -0.0624
  965SOD     NA14448   0.127   3.232   7.547 -0.5163 -0.0216  0.2112
  966SOD     NA14449   4.702   1.220   2.944 -0.3920  0.4783 -0.0313
  967SOD     NA14450   2.829   1.737  12.927  0.2330 -0.0319  0.7945
  968SOD     NA14451   0.532   3.301   1.950  0.3740 -0.2684  0.2526
  969SOD     NA14452   1.104   2.416  12.955 -0.0788 -0.2881  0.2612
  970SOD     NA14453   1.781   1.981  10.300 -0.0862  0.6124  0.3401
  971SOD     NA14454   1.795   1.777  12.317 -0.1719 -0.2767  0.0278
  972SOD     NA14455   2.725   3.539  15.763 -0.2583 -0.1990  0.1487
  973SOD     NA14456   0.533   4.261   9.416  0.2919  0.2832  0.6867
  974SOD     NA14457   2.889   1.986   9.373  0.0835  0.1741 -0.3668
  975SOD     NA14458   1.996   1.947   4.101 -0.1489 -0.3997 -0.3782
  976SOD     NA14459   1.706   2.301  11.367  0.2331  0.0833  0.6286
  977SOD     NA14460   1.940   3.128  14.969  0.1626  0.3235  0.3418
  978SOD     NA14461   1.020   0.578   1.489 -0.0557  0.0101 -0.0698
  979SOD     NA14462   1.590   2.935  10.547 -0.6898  0.4284  0.3320
  980SOD     NA14463   0.259   1.220  14.204 -0.1906  0.3167 -0.2241
  981SOD     NA14464   2.441   1.311   6.408  0.1359 -0.1181 -0.0210
  982SOD     NA14465   1.180   4.633   2.450  0.4093  0.8933 -0.4461
  983SOD     NA14466   3.267   2.126   8.219  0.0761  0.2194 -0.4560
  984SOD     NA14467   2.061   4.033   0.052 -0.6209 -0.0828 -0.2807
  985SOD     NA14468   3.310   1.524  10.522  0.0434 -0.4752 -0.1300
  986SOD     NA14469   1.238   4.243  14.889 -0.2153  0.2770 -0.0990
  987SOD     NA14470   1.576   0.933  17.109 -0.0580 -0.0401 -0.3710
  988SOD     NA14471   3.451   2.679  16.953 -0.1736 -0.0150 -0.0446
  989SOD     NA14472   0.204   2.457  10.578 -0.1377 -0.0780  0.5702
  990SOD     NA14473   1.330   2.272  11.358  0.0033 -0.2496  0.3438
  991SOD     NA14474   2.006   2.391  13.802  0.4607  0.1091 -0.0659
  992SOD     NA14475   2.166   4.383  11.982  0.5259  0.6937 -0.2414
  993SOD     NA14476   4.223   2.611  13.105 -0.2627  0.0980  0.1158
  994SOD     NA14477   4.196   1.948  15.268 -0.3342 -0.4895  0.3640
  995SOD     NA14478   2.498   0.551   1.906  0.2183  0.0462 -0.0241
  996SOD     NA14479   0.822   1.786  14.183 -0.1549 -0.1802 -0.1883
  997SOD     NA14480   2.419   1.537   3.989 -0.0735  0.3076 -0.1342
  998SOD     NA14481   1.362   4.351  11.553 -0.2400 -0.2057  0.3602
  999SOD     NA14482   1.351   3.911  11.113  0.0300  0.3010 -0.4141
 1000SOD     NA14483   0.394   2.719   9.756  0.4578  0.0513 -0.0963
 1001SOD     NA14484   3.464   2.950  14.745 -0.0227 -0.2205 -0.1771
 1002SOD     NA14485   4.193   2.765   9.981 -0.5646  0.1088 -0.2227
 1003SOD     NA14486   3.281   3.451   2.287  0.5346 -0.0496 -0.5286
 1004SOD     NA14487   2.340   2.602  14.286 -0.7696  0.5079 -0.3306
 1005SOD     NA14488   2.429   0.757  17.070 -0.0995  0.2146 -0.1878
 1006SOD     NA14489   0.998   0.376  13.724  0.1567 -0.2536  0.9237
 1007SOD     NA14490   0.437   0.996  10.235 -0.3665  0.0076 -0.2047
 1008SOD     NA14491   4.456   2.919  11.107 -0.0092  0.3452 -0.3814
 1009SOD     NA14492   2.640   3.239  11.163 -0.9838 -0.3219 -0.4680
 1010SOD     NA14493   1.741   3.310  16.460 -0.0635  0.2943 -0.2609
 1011SOL     OW14494   2.484   2.102   9.247  0.2493 -0.4447 -0.3065
 1011SOL    HW114495   2.399   2.065   9.269 -1.0231  2.3164 -0.6820
 1011SOL    HW214496   2.456   2.178   9.197  2.1395 -0.1923 -0.9867
 1012SOL     OW14497   3.475   2.535   1.470  0.3630  0.2089 -0.1992
 1012SOL    HW114498   3.524   2.458   1.499  0.9192 -0.1565 -2.0946
 1012SOL    HW214499   3.544   2.601   1.469 -0.3267  0.9602  1.2019
 1013SOL     OW14500   2.486   1.991   2.154  0.1344  0.5529  0.2948
 1013SOL    HW114501   2.550   2.050   2.113 -3.5295  1.7799 -3.6943
 1013SOL    HW214502   2.476   2.044   2.233  0.6946  0.4053  0.4658
 1014SOL     OW14503   0.271   1.658  12.923 -0.6676  0.0080 -0.8494
 1014SOL    HW114504   0.268   1.730  12.986 -2.1872 -0.0775 -0.8437
 1014SOL    HW214505   0.314   1.701  12.849  0.6541 -1.0541 -0.7138
 1015SOL     OW14506   4.562   3.228   7.883 -0.1189 -0.1234 -0.2310
 1015SOL    HW114507   4.549   3.174   7.961  2.3117 -0.6942 -0.2398
 1015SOL    HW214508   4.512   3.306   7.908  1.0967  0.6210 -0.1420
 1016SOL     OW14509   2.037   4.371   2.218 -0.2314  0.2894 -0.6949
 1016SOL    HW114510   2.096   4.337   2.286  0.3983  0.9672 -0.8990
 1016SOL    HW214511   2.003   4.293   2.173  0.2348  0.6352 -1.6500
 1017SOL     OW14512   1.754   1.079   5.431 -0.1392  0.6450  0.5342
 1017SOL    HW114513   1.787   1.085   5.521  1.0678  1.2986  0.0519
 1017SOL    HW214514   1.793   1.155   5.389 -1.5171  0.8697 -0.3248
 1018SOL     OW14515   2.241   1.097  15.614 -0.2484 -0.3447  0.1262
 1018SOL    HW114516   2.216   1.188  15.597  0.4940 -0.5015 -1.7959
 1018SOL    HW214517   2.217   1.056  15.531  1.9850 -0.8889 -0.2348
 1019SOL     OW14518   1.973   1.315  11.616  0.4597  0.3358 -0.1506
 1019SOL    HW114519   1.937   1.381  11.556  2.6832  0.9081 -0.8443
 1019SOL    HW214520   2.053   1.362  11.640 -0.2886  1.0778  0.8811
 1020SOL     OW14521   3.089   1.685   8.059  0.3281  0.5276  0.0882
 1020SOL    HW114522   3.033   1.641   8.123 -1.0723 -0.5350 -1.8860
 1020SOL    HW214523   3.149   1.612   8.042 -0.3763 -0.3978  1.5779
 1021SOL     OW14524   0.278   3.253   9.125  0.6436  0.9141  0.4516
 1021SOL    HW114525   0.351   3.302   9.086  2.2790 -1.9085 -0.0549
 1021SOL    HW214526   0.318   3.167   9.113  1.8673  1.5520 -0.0910
 1022SOL     OW14527   1.999   1.575  13.827  0.2284 -0.5305 -0.4008
 1022SOL    HW114528   2.084   1.598  13.791  0.2327 -0.3819 -0.2966
 1022SOL    HW214529   2.017   1.489  13.865  0.3417 -1.0839 -1.7322
 1023SOL     OW14530   4.370   1.313   4.089  0.1015 -0.2133 -0.4059
 1023SOL    HW114531   4.299   1.360   4.046 -0.5028 -1.5308 -0.8579
 1023SOL    HW214532   4.319   1.304   4.170  0.3667  1.0318 -0.0981
 1024SOL     OW14533   1.559   3.797   0.049  0.4024 -0.2207 -0.4013
 1024SOL    HW114534   1.559   3.702   0.059  0.1019 -0.2428 -0.6228
 1024SOL    HW214535   1.608   3.823   0.128  0.7094 -0.0408 -0.6511
 1025SOL     OW14536   4.325   0.436   5.768 -0.0694  0.6587 -0.0948
 1025SOL    HW114537   4.247   0.441   5.713 -0.0319  1.2786 -0.0944
 1025SOL    HW214538   4.395   0.429   5.704 -3.1450  0.5445 -3.4109
 1026SOL     OW14539   0.648   3.968   5.967 -0.1062 -0.1357  0.1407
 1026SOL    HW114540   0.616   3.878   5.972  1.7745 -0.7060  2.2612
 1026SOL    HW214541   0.615   3.998   5.883  0.7370 -0.0480 -0.1549
 1027SOL     OW14542   3.373   0.785   7.249 -0.2259 -0.0933  0.4350
 1027SOL    HW114543   3.433   0.853   7.218 -1.9154  1.6701  1.0059
 1027SOL    HW214544   3.413   0.717   7.196  1.6287  0.9748  0.4511
 1028SOL     OW14545   1.037   2.223   1.917 -1.0523  0.4018 -0.1327
 1028SOL    HW114546   1.104   2.279   1.878 -0.8070 -0.8172 -1.4309
 1028SOL    HW214547   1.078   2.228   2.003 -0.8263  1.6362 -0.3137
 1029SOL     OW14548   2.473   2.484   1.627 -0.0900 -0.1663 -0.0382
 1029SOL    HW114549   2.443   2.400   1.593  1.2927 -1.1488  1.1590
 1029SOL    HW214550   2.407   2.545   1.593 -0.7638  0.0143  1.5975
 1030SOL     OW14551   1.453   1.944   4.450  0.1647  0.3662  0.0605
 1030SOL    HW114552   1.398   2.021   4.470  1.4732  0.3741  3.6269
 1030SOL    HW214553   1.393   1.870   4.457 -0.1619  0.5079 -1.2339
 1031SOL     OW14554   3.762   4.070  14.665 -0.2905 -0.0367  0.5452
 1031SOL    HW114555   3.673   4.053  14.694  0.6753 -2.7345  1.9758
 1031SOL    HW214556   3.794   4.108  14.746 -1.7684  2.6926 -0.1613
 1032SOL     OW14557   4.152   0.697   0.300 -0.1656  0.0644 -0.0594
 1032SOL    HW114558   4.064   0.689   0.263  0.9674 -0.9172 -2.5251
 1032SOL    HW214559   4.138   0.654   0.385  1.6096 -1.7832 -0.7068
 1033SOL     OW14560   3.237   4.082   0.582  0.4000  0.2112 -0.5268
 1033SOL    HW114561   3.225   3.990   0.605  0.3053  0.6185  1.0826
 1033SOL    HW214562   3.312   4.109   0.635 -0.4444  3.7143 -1.1054
 1034SOL     OW14563   2.855   2.015   1.893  1.0612 -0.0373 -0.0433
 1034SOL    HW114564   2.922   1.953   1.922  0.0711 -0.3635  1.5138
 1034SOL    HW214565   2.848   1.984   1.803  1.3869 -0.5952  0.1284
 1035SOL     OW14566   4.649   2.855   2.893  0.3708 -0.1793  0.0026
 1035SOL    HW114567   4.722   2.793   2.902 -0.1768 -1.2567 -2.7796
 1035SOL    HW214568   4.585   2.820   2.955 -0.1247  0.4805 -0.1429
 1036SOL     OW14569   0.933   3.274   6.788 -0.1171  0.3231  0.3324
 1036SOL    HW114570   0.926   3.281   6.883  0.0737  1.7722  0.2321
 1036SOL    HW214571   0.904   3.360   6.759 -0.0898 -0.2939 -1.5646
 1037SOL     OW14572   0.395   2.971   2.186 -0.0683 -0.4937 -0.3836
 1037SOL    HW114573   0.441   2.887   2.189  0.0137 -0.4293  0.0675
 1037SOL    HW214574   0.303   2.953   2.166 -0.6581  0.8465  1.0857
 1038SOL     OW14575   0.920   2.513  16.663 -0.2626 -0.3451  0.1208
 1038SOL    HW114576   0.977   2.524  16.587 -1.6317 -2.9494 -1.2404
 1038SOL    HW214577   0.838   2.529  16.618  0.8323  1.8235 -1.1303
 1039SOL     OW14578   1.448   0.355   5.502 -0.5556 -0.1046 -0.0154
 1039SOL    HW114579   1.443   0.424   5.437 -1.3398  0.8795  1.0778
 1039SOL    HW214580   1.539   0.330   5.491 -0.2188  0.4120  1.5879
 1040SOL     OW14581   2.237   3.946   3.411 -0.2657 -0.4705 -0.0958
 1040SOL    HW114582   2.328   3.933   3.436  0.5948  2.2209 -1.8905
 1040SOL    HW214583   2.208   3.993   3.489 -0.8529 -1.2113  0.1396
 1041SOL     OW14584   1.711   3.415   7.717  0.5752  0.4592  0.1248
 1041SOL    HW114585   1.801   3.445   7.732 -0.0135  2.3688 -0.0686
 1041SOL    HW214586   1.733   3.343   7.659  0.4150 -0.0011  0.6367
 1042SOL     OW14587   1.813   1.610   8.038 -0.3613 -0.2279  0.2707
 1042SOL    HW114588   1.760   1.545   7.992 -0.5776  0.7640 -0.8848
 1042SOL    HW214589   1.904   1.607   8.010  0.2365 -0.1762  2.2143
 1043SOL     OW14590   2.806   4.438   5.322  0.1942 -0.2371  0.2473
 1043SOL    HW114591   2.793   4.484   5.405  0.5516  0.6778 -0.2067
 1043SOL    HW214592   2.886   4.485   5.302 -0.3500  0.7655  0.4293
 1044SOL     OW14593   0.283   1.610   3.744  0.5919 -0.3628 -0.0128
 1044SOL    HW114594   0.211   1.590   3.685  0.0442 -1.2905  0.9689
 1044SOL    HW214595   0.311   1.700   3.725 -0.2595 -0.0799  0.0724
 1045SOL     OW14596   1.808   2.706   4.269  0.5598  0.8365  0.4701
 1045SOL    HW114597   1.781   2.782   4.321 -0.4360  1.7165 -1.3167
 1045SOL    HW214598   1.830   2.641   4.336 -1.1383 -1.4899 -1.2244
 1046SOL     OW14599   0.424   0.362  12.193  0.1702  0.5172 -0.2957
 1046SOL    HW114600   0.369   0.440  12.185 -2.6780 -1.1570  3.0827
 1046SOL    HW214601   0.496   0.378  12.132 -0.1623 -1.7872 -1.2958
 1047SOL     OW14602   3.006   2.036   3.295 -0.2237  0.0519  0.5023
 1047SOL    HW114603   3.077   2.097   3.315  0.4270 -1.4243  2.6832
 1047SOL    HW214604   2.994   2.043   3.200 -1.4349 -1.7818  0.5245
 1048SOL     OW14605   4.604   3.383   4.129  0.3898  0.0858  0.2142
 1048SOL    HW114606   4.613   3.478   4.140  0.5038  0.1380 -0.2961
 1048SOL    HW214607   4.682   3.360   4.180 -0.0407  0.5819  1.1002
 1049SOL     OW14608   1.842   1.112  14.217 -0.0277  0.0815  0.4829
 1049SOL    HW114609   1.788   1.065  14.281  2.1750 -0.1716  2.1584
 1049SOL    HW214610   1.926   1.089  14.257  0.2918  1.5386  0.6359
 1050SOL     OW14611   1.133   4.182   1.769 -0.5580  1.2324  0.3359
 1050SOL    HW114612   1.095   4.245   1.708  1.1274  0.0884 -1.8989
 1050SOL    HW214613   1.052   4.132   1.784 -0.1554  0.2577 -0.6981
 1051SOL     OW14614   0.839   2.330   3.788  0.5670 -0.5860 -0.0033
 1051SOL    HW114615   0.919   2.297   3.829 -0.6467 -0.8303  2.1533
 1051SOL    HW214616   0.807   2.382   3.862 -1.1518 -1.7802  0.0960
 1052SOL     OW14617   0.772   3.529   6.751  0.0111  0.3642  0.0744
 1052SOL    HW114618   0.809   3.547   6.837  0.3557 -2.3182  0.4729
 1052SOL    HW214619   0.683   3.506   6.779 -0.4450  0.7015 -1.1063
 1053SOL     OW14620   3.082   4.108   7.627 -0.4889  0.1432  0.6213
 1053SOL    HW114621   3.072   4.047   7.554  2.0531  0.1847  0.2513
 1053SOL    HW214622   3.148   4.063   7.680  1.3891  0.8157 -1.1264
 1054SOL     OW14623   0.442   3.313   9.713 -0.3503 -0.2689  0.6018
 1054SOL    HW114624   0.349   3.289   9.706  0.0493 -0.9420 -2.0571
 1054SOL    HW214625   0.475   3.237   9.761  2.5905  0.6972  0.1162
 1055SOL     OW14626   4.442   1.641  13.709 -0.7544  0.2031 -0.4228
 1055SOL    HW114627   4.432   1.693  13.788 -2.4280  0.1780 -0.6323
 1055SOL    HW214628   4.428   1.706  13.640  0.6753 -0.6008 -1.4745
 1056SOL     OW14629   1.540   4.572  17.458  0.1235 -0.0953  0.1728
 1056SOL    HW114630   1.526   4.630  17.383  1.6108  1.3548  1.0474
 1056SOL    HW214631   1.457   4.581  17.504  0.1616  0.4731  0.1227
 1057SOL     OW14632   2.767   0.025   3.184 -0.4909  0.0676  0.2181
 1057SOL    HW114633   2.682   0.055   3.153  0.1881 -0.3720 -2.1299
 1057SOL    HW214634   2.823   0.016   3.107  0.5643 -0.7425  1.0668
 1058SOL     OW14635   1.816   3.551   5.569 -0.2168  0.1961  0.2519
 1058SOL    HW114636   1.736   3.551   5.622 -0.5214 -0.3537 -0.2142
 1058SOL    HW214637   1.825   3.458   5.550  3.3394  0.6928 -0.3520
 1059SOL     OW14638   1.634   1.941   6.358  0.0548  0.0727  0.0742
 1059SOL    HW114639   1.705   1.938   6.294 -0.1898  2.4033 -0.3271
 1059SOL    HW214640   1.667   1.908   6.442  1.8084 -0.7950 -0.9546
 1060SOL     OW14641   3.277   1.474   8.025  0.6623  0.3814 -0.3615
 1060SOL    HW114642   3.240   1.387   8.038  0.8382  0.3342 -0.1776
 1060SOL    HW214643   3.289   1.484   7.930 -1.5208  0.5923 -0.6200
 1061SOL     OW14644   0.812   0.142   4.991  0.3713 -0.4802 -0.4099
 1061SOL    HW114645   0.719   0.159   4.978 -0.1801  0.1046  4.2040
 1061SOL    HW214646   0.803   0.106   5.079  3.4941  0.6057  0.3908
 1062SOL     OW14647   4.550   1.782   4.812 -0.6311  0.2335  0.2900
 1062SOL    HW114648   4.513   1.857   4.858 -3.8409 -1.4554  0.4666
 1062SOL    HW214649   4.523   1.802   4.722 -3.8025 -2.7407  0.5888
 1063SOL     OW14650   3.434   4.646   4.085 -0.0861 -0.1922 -0.2556
 1063SOL    HW114651   3.392   4.723   4.123  1.6409  0.0593  1.1357
 1063SOL    HW214652   3.487   4.683   4.014 -1.5379  0.2249 -1.1400
 1064SOL     OW14653   1.494   1.785  13.949 -0.1174  0.1161  0.0799
 1064SOL    HW114654   1.576   1.771  13.901 -1.8536 -0.2792 -2.8012
 1064SOL    HW214655   1.440   1.806  13.873 -0.8851 -0.6467  0.4198
 1065SOL     OW14656   1.479   2.809   0.341  0.6469 -0.4350 -0.4075
 1065SOL    HW114657   1.416   2.878   0.360 -0.6066 -1.0147 -2.3806
 1065SOL    HW214658   1.536   2.839   0.411 -0.3900 -0.3299  0.3925
 1066SOL     OW14659   1.681   1.523  10.339  0.6729  0.3212  0.2627
 1066SOL    HW114660   1.620   1.463  10.383  1.1339  0.0062  0.4769
 1066SOL    HW214661   1.699   1.477  10.257 -1.0539 -0.7605  0.4773
 1067SOL     OW14662   3.722   3.477   2.206 -0.4258 -0.4527  0.2075
 1067SOL    HW114663   3.757   3.515   2.287  1.6941 -1.0144 -0.4353
 1067SOL    HW214664   3.765   3.538   2.145  0.7066  0.0453  1.5070
 1068SOL     OW14665   2.318   1.559   9.054 -0.6539  0.6583 -0.0894
 1068SOL    HW114666   2.342   1.503   9.127 -0.2875  0.7992 -0.1022
 1068SOL    HW214667   2.227   1.585   9.067  0.4048  3.5073  1.5761
 1069SOL     OW14668   2.474   3.854   3.630 -0.4008 -0.5191 -0.6058
 1069SOL    HW114669   2.446   3.778   3.681 -0.8228  0.2586  0.3391
 1069SOL    HW214670   2.533   3.903   3.688 -1.3882 -0.0177 -0.0276
 1070SOL     OW14671   2.851   0.513   2.229 -0.4309 -0.1042  0.3491
 1070SOL    HW114672   2.813   0.457   2.296  1.1326 -1.3304  0.2327
 1070SOL    HW214673   2.917   0.454   2.192  0.8928  0.7276  1.3813
 1071SOL     OW14674   0.397   2.998  11.078 -0.1195  0.2738  0.6865
 1071SOL    HW114675   0.479   2.973  11.034 -0.4190  2.6534 -1.2015
 1071SOL    HW214676   0.396   3.094  11.076  1.0368  0.2480 -0.7895
 1072SOL     OW14677   2.363   4.526  16.231 -0.2964  0.5536  0.0636
 1072SOL    HW114678   2.412   4.546  16.311 -1.9833  1.8953  0.7724
 1072SOL    HW214679   2.425   4.461  16.198 -2.1630 -0.5929 -1.2120
 1073SOL     OW14680   4.036   0.663   4.974  0.2820 -0.0409 -0.0763
 1073SOL    HW114681   3.959   0.635   5.024 -1.1620 -0.6797 -2.6865
 1073SOL    HW214682   4.064   0.574   4.952 -0.1508  0.0992 -1.1697
 1074SOL     OW14683   1.918   3.331  11.547 -0.3527  0.5377 -0.3043
 1074SOL    HW114684   1.857   3.307  11.477 -1.3338 -3.2657  1.8816
 1074SOL    HW214685   1.897   3.424  11.561 -0.8080  0.7699 -2.5056
 1075SOL     OW14686   0.679   1.742  10.879  0.4914  0.2776 -0.2287
 1075SOL    HW114687   0.753   1.802  10.871  0.6120 -0.1879 -2.6145
 1075SOL    HW214688   0.726   1.662  10.900 -1.6172 -0.9768 -0.2951
 1076SOL     OW14689   0.815   4.677   8.447  0.6376  0.4425 -0.5521
 1076SOL    HW114690   0.838   0.030   8.501  0.1491 -0.3611  0.8062
 1076SOL    HW214691   0.897   4.668   8.398  0.3959 -1.6407 -0.5822
 1077SOL     OW14692   3.100   3.885   3.772  0.5388  0.3030 -0.3057
 1077SOL    HW114693   3.039   3.815   3.747 -0.8789  0.9055  1.4298
 1077SOL    HW214694   3.172   3.866   3.712  1.2130  1.2824  0.1970
 1078SOL     OW14695   1.699   1.368  10.117 -0.1648 -0.1656 -0.5842
 1078SOL    HW114696   1.781   1.329  10.087  0.6794  0.1312  1.3227
 1078SOL    HW214697   1.630   1.323  10.069 -0.9792 -1.7005  2.0658
 1079SOL     OW14698   4.530   4.201   5.881 -0.2671  0.1272 -0.0810
 1079SOL    HW114699   4.620   4.171   5.875  0.0624  1.4291 -1.6692
 1079SOL    HW214700   4.531   4.252   5.962  2.5117 -0.8701  0.5108
 1080SOL     OW14701   4.129   1.413   8.333 -0.4293  0.2258 -0.1649
 1080SOL    HW114702   4.168   1.344   8.387 -0.8315 -0.0209 -0.1956
 1080SOL    HW214703   4.114   1.483   8.397  0.8722  0.7127 -0.3968
 1081SOL     OW14704   3.935   1.374   3.993  0.1834 -0.1250 -0.6343
 1081SOL    HW114705   3.841   1.392   3.986  0.2267  0.8170  1.4672
 1081SOL    HW214706   3.947   1.290   4.037  0.7343 -0.6407 -1.7729
 1082SOL     OW14707   1.597   4.302   6.587  0.3870  0.3693 -0.3726
 1082SOL    HW114708   1.589   4.216   6.545 -0.2751 -0.1698  0.8489
 1082SOL    HW214709   1.595   4.361   6.512 -1.3981  0.3261 -0.3616
 1083SOL     OW14710   0.604   2.376  10.327  0.2618 -0.2625  0.3749
 1083SOL    HW114711   0.533   2.315  10.305 -1.3957  1.1312  1.8945
 1083SOL    HW214712   0.592   2.435  10.252 -1.0856  1.1145  1.6821
 1084SOL     OW14713   0.789   0.675   1.181 -0.5237  0.2373 -0.2750
 1084SOL    HW114714   0.827   0.676   1.268 -1.4798  2.0987  0.1146
 1084SOL    HW214715   0.724   0.605   1.176 -1.3042  0.8536  1.5049
 1085SOL     OW14716   3.485   3.823   7.408 -0.4499  0.2840  0.1997
 1085SOL    HW114717   3.571   3.858   7.434 -0.0822 -1.0983  0.8606
 1085SOL    HW214718   3.491   3.821   7.313 -1.0685  0.0790  0.1659
 1086SOL     OW14719   2.814   3.169   5.150  0.3055  0.3272  0.6337
 1086SOL    HW114720   2.759   3.141   5.077  0.5491  0.7997  0.2655
 1086SOL    HW214721   2.771   3.247   5.183  0.3784 -0.2805  2.1452
 1087SOL     OW14722   2.460   3.935   2.362  0.3301 -0.4980 -0.2201
 1087SOL    HW114723   2.536   3.978   2.322 -0.2174  0.0690 -0.6634
 1087SOL    HW214724   2.462   3.856   2.309  1.2028 -0.6862  0.0981
 1088SOL     OW14725   0.609   2.198   6.179 -0.1694  0.0072  0.3437
 1088SOL    HW114726   0.578   2.263   6.117  1.0287  0.4278  0.1989
 1088SOL    HW214727   0.699   2.230   6.191 -0.4586  1.1230 -0.5410
 1089SOL     OW14728   3.107   2.755   8.067  0.3189  1.0232 -0.1568
 1089SOL    HW114729   3.103   2.681   8.127  0.3214  2.0766  1.1407
 1089SOL    HW214730   3.107   2.718   7.979 -0.7389  2.7048 -0.8715
 1090SOL     OW14731   4.082   3.995   0.842  0.8748 -0.1492 -0.0016
 1090SOL    HW114732   4.058   3.998   0.750  0.3524  1.1254  0.1780
 1090SOL    HW214733   4.016   3.943   0.887  2.1786 -0.8308  1.1341
 1091SOL     OW14734   1.091   3.722   5.228 -0.2282  0.5287 -0.5308
 1091SOL    HW114735   1.015   3.718   5.286 -0.0211 -0.4945 -0.3431
 1091SOL    HW214736   1.047   3.728   5.144  0.4306 -1.2381 -0.9977
 1092SOL     OW14737   2.069   1.184  17.039 -0.1148  0.3892  0.1734
 1092SOL    HW114738   2.109   1.124  16.976  0.2931  0.2341  0.5858
 1092SOL    HW214739   2.152   1.218  17.074  0.6434  1.0762 -2.2857
 1093SOL     OW14740   1.823   3.969   0.468  0.1799  0.1741  0.5958
 1093SOL    HW114741   1.785   4.042   0.517 -0.9003 -1.8258  2.7243
 1093SOL    HW214742   1.826   3.903   0.537  2.8011  0.4801  0.7642
 1094SOL     OW14743   3.354   0.406   9.371  0.6495  0.4196 -0.1155
 1094SOL    HW114744   3.434   0.354   9.376  0.4899 -0.1640 -3.5964
 1094SOL    HW214745   3.397   0.490   9.353  1.9137 -0.1894  0.0677
 1095SOL     OW14746   3.664   0.154   2.952  0.4258 -0.2001 -0.1364
 1095SOL    HW114747   3.607   0.230   2.959 -1.6159 -1.4419 -3.3085
 1095SOL    HW214748   3.681   0.139   2.859  0.1088 -0.1496 -0.2030
 1096SOL     OW14749   3.131   3.967   7.922  0.1201 -0.5250  0.0759
 1096SOL    HW114750   3.117   3.881   7.882 -1.7912 -0.0397 -0.3185
 1096SOL    HW214751   3.147   3.944   8.014  0.2349  0.1051  0.2170
 1097SOL     OW14752   0.639   1.022  14.437  0.4963 -0.6990 -0.2891
 1097SOL    HW114753   0.734   1.033  14.432  0.7426 -1.4860  2.7837
 1097SOL    HW214754   0.614   1.001  14.527  0.6112 -2.3078 -0.6372
 1098SOL     OW14755   3.141   0.239  14.604 -0.3055  0.3415  0.0363
 1098SOL    HW114756   3.048   0.256  14.592 -0.6852 -2.2837 -0.8352
 1098SOL    HW214757   3.182   0.291  14.535 -0.7345  0.6356  0.0011
 1099SOL     OW14758   2.960   4.255   8.342  0.4680 -0.4859  0.2754
 1099SOL    HW114759   3.018   4.258   8.417 -2.0858 -1.0069  2.2626
 1099SOL    HW214760   2.946   4.349   8.350 -0.4253 -0.5960  0.0529
 1100SOL     OW14761   0.189   0.267   3.532 -0.3991 -0.6733 -0.4412
 1100SOL    HW114762   0.252   0.306   3.471  0.6269 -1.8725 -0.1470
 1100SOL    HW214763   0.140   0.345   3.558  2.0306  0.5666  0.4024
 1101SOL     OW14764   2.345   3.423   5.557 -0.0728  0.4932  0.4724
 1101SOL    HW114765   2.372   3.486   5.623 -0.5481  1.2469 -0.0555
 1101SOL    HW214766   2.434   3.403   5.526 -1.0960 -0.8097 -1.6138
 1102SOL     OW14767   2.741   1.420   9.368 -0.1234 -0.0369 -0.2526
 1102SOL    HW114768   2.707   1.358   9.303 -1.0360 -0.1018  0.2893
 1102SOL    HW214769   2.805   1.473   9.321  1.8851 -1.4272  0.8938
 1103SOL     OW14770   2.420   1.757   2.277 -0.8111 -0.1935 -0.1414
 1103SOL    HW114771   2.452   1.823   2.215  0.6485  0.2271  1.0806
 1103SOL    HW214772   2.392   1.692   2.213 -0.9152 -0.6584  0.3812
 1104SOL     OW14773   4.483   2.711  11.071 -0.7810  0.3375 -0.7725
 1104SOL    HW114774   4.399   2.688  11.030 -0.8611 -1.3740  0.3484
 1104SOL    HW214775   4.546   2.645  11.043 -0.5916 -1.4311  3.8119
 1105SOL     OW14776   2.905   3.124  13.171 -0.8666 -0.8992  0.4159
 1105SOL    HW114777   2.874   3.206  13.134  0.2691  0.2407  2.0301
 1105SOL    HW214778   2.998   3.145  13.164 -0.7206 -1.1866  1.4402
 1106SOL     OW14779   1.606   0.276   1.809  0.3696  0.0774 -0.3615
 1106SOL    HW114780   1.631   0.225   1.732  1.7976 -0.1300  0.2322
 1106SOL    HW214781   1.686   0.328   1.809  1.3599 -1.4453  0.6295
 1107SOL     OW14782   0.493   2.733   6.523 -0.5154  0.3257 -0.2556
 1107SOL    HW114783   0.498   2.778   6.608 -2.5126 -1.1211  0.6130
 1107SOL    HW214784   0.492   2.814   6.471 -2.6993 -0.1171 -0.8933
 1108SOL     OW14785   2.774   3.416   5.194 -0.3284 -0.0275  0.0686
 1108SOL    HW114786   2.782   3.496   5.246  0.6762  1.2894 -2.1219
 1108SOL    HW214787   2.689   3.433   5.154 -0.0374  1.7741  0.2232
 1109SOL     OW14788   3.444   3.391   7.728  0.6005 -0.1420  0.1545
 1109SOL    HW114789   3.406   3.460   7.673  0.1837  0.8013  1.6394
 1109SOL    HW214790   3.369   3.375   7.785  0.7599 -0.9860  0.1343
 1110SOL     OW14791   4.001   3.286   8.174  0.2853 -0.8384  0.7997
 1110SOL    HW114792   3.989   3.197   8.206 -1.3663 -0.3795  1.4749
 1110SOL    HW214793   3.931   3.332   8.221  0.0600 -1.0374  0.6618
 1111SOL     OW14794   2.680   2.543   3.359  0.0167  0.0827 -0.4380
 1111SOL    HW114795   2.676   2.607   3.430  2.2632 -0.5115  0.2297
 1111SOL    HW214796   2.749   2.485   3.393 -0.1336 -0.1094 -0.4646
 1112SOL     OW14797   2.238   4.018   8.192 -0.3480 -0.6161  0.5130
 1112SOL    HW114798   2.190   4.100   8.202 -1.0839 -0.7937 -1.5062
 1112SOL    HW214799   2.303   4.009   8.261 -0.5410 -1.1401  0.6269
 1113SOL     OW14800   2.594   0.024   8.610 -0.0190 -0.3289  0.1311
 1113SOL    HW114801   2.572   0.016   8.703  0.0930  0.6693  0.2451
 1113SOL    HW214802   2.522   0.078   8.579  1.4046  2.1564  1.1080
 1114SOL     OW14803   2.240   3.073  12.812 -0.0546  0.2230  0.1767
 1114SOL    HW114804   2.202   3.160  12.798 -1.2373  0.1241  2.6370
 1114SOL    HW214805   2.168   3.014  12.792 -0.5423  1.9726 -3.0908
 1115SOL     OW14806   0.463   0.320   2.133  0.0068  0.0244  0.2661
 1115SOL    HW114807   0.376   0.355   2.118  0.4605  0.5322 -1.2668
 1115SOL    HW214808   0.508   0.341   2.051 -0.5137  0.3567  0.0683
 1116SOL     OW14809   4.526   2.079   5.411  0.0288  0.4528  0.2939
 1116SOL    HW114810   4.449   2.078   5.468 -0.8180 -0.8653 -0.8966
 1116SOL    HW214811   4.508   2.146   5.346  2.1731 -0.3864 -1.1556
 1117SOL     OW14812   0.405   0.018   2.625  0.4869 -0.5739  0.0770
 1117SOL    HW114813   0.362   0.049   2.545 -1.3377 -2.1390  0.4567
 1117SOL    HW214814   0.447   4.662   2.591  0.3093 -1.5833  2.2111
 1118SOL     OW14815   0.696   4.614   8.835 -0.2974  0.5483  0.2843
 1118SOL    HW114816   0.692   4.538   8.892  1.1160 -0.9493 -1.6202
 1118SOL    HW214817   0.789   4.636   8.835  0.2071 -1.6748 -0.5994
 1119SOL     OW14818   0.016   4.427  13.142  0.0171 -0.3262  0.1206
 1119SOL    HW114819   0.030   4.491  13.212  0.9425 -2.0959  1.5320
 1119SOL    HW214820   0.102   4.387  13.157  0.2608  0.3224  0.4651
 1120SOL     OW14821   2.433   1.701   8.759 -0.0546  0.5429  0.5458
 1120SOL    HW114822   2.388   1.777   8.796  0.9771  0.4907  1.9186
 1120SOL    HW214823   2.496   1.673   8.825  0.6557  0.7226 -0.0401
 1121SOL     OW14824   3.204   0.118   7.171 -0.1772 -0.5898  0.1270
 1121SOL    HW114825   3.201   0.179   7.245 -0.1935  0.1376 -0.4690
 1121SOL    HW214826   3.297   0.099   7.164  0.3591  1.8065  0.5320
 1122SOL     OW14827   0.981   2.445   6.021  0.6070  0.0977  0.3296
 1122SOL    HW114828   0.925   2.436   6.098  0.1842  1.4404  0.1696
 1122SOL    HW214829   0.961   2.533   5.989 -1.2919 -0.1519  0.7816
 1123SOL     OW14830   2.933   4.365   2.524 -0.6584 -0.5517 -1.2676
 1123SOL    HW114831   2.915   4.273   2.542  2.8483 -0.6148  1.8589
 1123SOL    HW214832   2.857   4.379   2.467 -1.3335 -1.1652 -0.5170
 1124SOL     OW14833   4.189   0.900   8.755  0.0440  0.0643 -0.0422
 1124SOL    HW114834   4.198   0.851   8.836 -0.6794  1.2837  0.7714
 1124SOL    HW214835   4.264   0.959   8.764 -0.6400  0.9986 -0.5204
 1125SOL     OW14836   3.320   4.120   7.386 -0.0208  0.2414 -0.0136
 1125SOL    HW114837   3.336   4.034   7.426 -0.1531 -0.1115 -0.7220
 1125SOL    HW214838   3.347   4.184   7.452 -0.7816  0.7853 -0.2354
 1126SOL     OW14839   2.311   2.844   6.770 -0.4405 -0.0746 -0.3774
 1126SOL    HW114840   2.283   2.894   6.694  0.5463 -0.3236 -0.9044
 1126SOL    HW214841   2.380   2.896   6.811  0.5593 -1.4102 -0.3559
 1127SOL     OW14842   3.043   2.054  11.559 -0.4819 -0.3081  0.2174
 1127SOL    HW114843   3.135   2.060  11.534 -0.7593 -0.0564 -0.7508
 1127SOL    HW214844   3.022   2.147  11.548  2.7082  0.5442  1.3762
 1128SOL     OW14845   0.416   1.656   8.282 -0.2397 -0.1698  0.7436
 1128SOL    HW114846   0.441   1.632   8.192 -2.1334 -2.2319  0.7639
 1128SOL    HW214847   0.450   1.575   8.320 -1.0184  0.1883  2.1896
 1129SOL     OW14848   3.683   3.191   6.366 -0.4792 -0.1614 -0.0723
 1129SOL    HW114849   3.612   3.136   6.334  0.0225 -0.7204 -0.2381
 1129SOL    HW214850   3.753   3.134   6.332  0.4008  1.2271 -0.5850
 1130SOL     OW14851   3.469   4.370   6.058 -0.0354 -0.6775  0.2537
 1130SOL    HW114852   3.494   4.438   6.120 -0.2150  0.7196 -1.1924
 1130SOL    HW214853   3.414   4.426   6.003  1.1722 -0.5808 -0.8681
 1131SOL     OW14854   1.675   3.212   6.695  0.1194  0.1617 -0.2166
 1131SOL    HW114855   1.739   3.162   6.745 -0.2537 -0.2262 -0.1289
 1131SOL    HW214856   1.609   3.237   6.760 -1.7903 -1.0645 -1.6730
 1132SOL     OW14857   3.852   1.905   9.810 -0.2231 -0.0778  0.0522
 1132SOL    HW114858   3.834   1.910   9.716 -0.5320 -0.9489  0.0650
 1132SOL    HW214859   3.943   1.878   9.817 -0.4310 -0.3164  1.7748
 1133SOL     OW14860   0.623   0.437   4.314 -0.2991  0.5566  0.2444
 1133SOL    HW114861   0.706   0.478   4.339  0.8134 -0.2837 -2.0434
 1133SOL    HW214862   0.576   0.427   4.396 -0.7193  1.8283  0.1643
 1134SOL     OW14863   0.208   2.461   3.299 -0.2416 -0.9176 -0.0574
 1134SOL    HW114864   0.267   2.385   3.293 -1.9637 -2.2291 -0.3301
 1134SOL    HW214865   0.145   2.426   3.362  0.1258  2.1597  1.9628
 1135SOL     OW14866   0.512   1.279   3.887  0.0007 -0.2788 -0.2551
 1135SOL    HW114867   0.498   1.209   3.951  0.9625 -1.7478 -1.6703
 1135SOL    HW214868   0.500   1.226   3.809 -0.9371 -0.5888  0.1010
 1136SOL     OW14869   2.096   3.731   3.124  0.4523  0.3399 -0.2985
 1136SOL    HW114870   2.099   3.719   3.218 -0.8957  0.5448 -0.2284
 1136SOL    HW214871   2.006   3.760   3.113  0.6320  0.5107 -1.3301
 1137SOL     OW14872   4.173   4.278   7.479  0.2714 -0.1272  0.0308
 1137SOL    HW114873   4.088   4.320   7.469 -0.0640 -0.8141  0.0163
 1137SOL    HW214874   4.224   4.332   7.418 -0.6102 -0.9362 -1.4220
 1138SOL     OW14875   2.609   4.686   7.697 -0.5278  0.3613 -0.4637
 1138SOL    HW114876   2.598   4.680   7.603  0.5659  2.2709 -0.7114
 1138SOL    HW214877   2.682   4.624   7.705  0.2851  1.2238 -1.1929
 1139SOL     OW14878   1.824   4.615   3.510  0.0052 -0.0504  0.1279
 1139SOL    HW114879   1.789   4.701   3.535 -0.1892  0.3900 -1.7110
 1139SOL    HW214880   1.749   4.556   3.520 -0.4362  0.7209  1.5035
 1140SOL     OW14881   1.334   3.358   0.462  1.0120 -0.2188  0.3357
 1140SOL    HW114882   1.374   3.298   0.399 -0.5372  0.0248 -0.9006
 1140SOL    HW214883   1.366   3.439   0.422  1.9546 -0.7364  0.0467
 1141SOL     OW14884   3.427   1.298   3.019 -0.4353 -0.1707  0.2098
 1141SOL    HW114885   3.422   1.231   3.087  0.1724  0.1566  0.5862
 1141SOL    HW214886   3.519   1.286   2.997 -0.9186 -0.2193 -1.7310
 1142SOL     OW14887   3.790   2.679   1.839  0.3880 -1.0175 -0.3955
 1142SOL    HW114888   3.750   2.594   1.824 -1.0965 -0.2705 -0.6781
 1142SOL    HW214889   3.852   2.678   1.767 -1.8648  1.2429 -2.3739
 1143SOL     OW14890   2.246   4.271  12.937 -0.0040 -0.7395  0.0801
 1143SOL    HW114891   2.311   4.247  13.004 -0.4882  0.3043  0.9218
 1143SOL    HW214892   2.315   4.303  12.879  0.2559 -0.6680  0.4294
 1144SOL     OW14893   4.693   3.435   4.460  0.0553 -0.0719 -0.0765
 1144SOL    HW114894   4.653   3.396   4.538 -0.6139  1.8654  0.5501
 1144SOL    HW214895   4.668   3.526   4.469  0.0855  0.0612 -1.4048
 1145SOL     OW14896   4.702   4.574   2.761 -0.0191 -0.4311 -0.0776
 1145SOL    HW114897   4.660   4.505   2.711 -1.4543 -0.2700  0.9041
 1145SOL    HW214898   4.678   4.645   2.702 -0.6931 -0.4364  0.1947
 1146SOL     OW14899   0.279   1.251  17.359 -0.1095 -0.5781  0.2880
 1146SOL    HW114900   0.334   1.272  17.283  1.2808 -0.6974  1.2725
 1146SOL    HW214901   0.192   1.267  17.322  1.1399 -0.2852 -2.5412
 1147SOL     OW14902   4.580   3.541   9.440 -0.0112  0.8886 -0.1833
 1147SOL    HW114903   4.606   3.555   9.349 -1.7541  0.4314 -0.7568
 1147SOL    HW214904   4.628   3.460   9.457  0.4867  0.9674 -1.2110
 1148SOL     OW14905   0.016   4.409   0.522 -0.0528 -0.1905  0.0708
 1148SOL    HW114906   0.112   4.401   0.519 -0.0720 -1.0087  1.4330
 1148SOL    HW214907   0.016   4.494   0.564 -0.2893 -1.4086  2.5454
 1149SOL     OW14908   3.887   2.362  15.592  0.3571 -0.8603  0.1143
 1149SOL    HW114909   3.930   2.448  15.585  0.6162 -1.0356 -0.4466
 1149SOL    HW214910   3.829   2.392  15.662 -1.9410 -0.1654 -2.0821
 1150SOL     OW14911   3.376   2.908   7.183  0.5760 -0.6903  0.4099
 1150SOL    HW114912   3.457   2.951   7.158 -0.9376  0.5150 -2.5449
 1150SOL    HW214913   3.384   2.818   7.153  0.1256 -0.0233 -1.7767
 1151SOL     OW14914   4.052   2.588  15.428 -0.2753  0.5586 -0.7783
 1151SOL    HW114915   4.003   2.603  15.509 -2.8143  0.1793 -2.2488
 1151SOL    HW214916   4.001   2.649  15.374 -1.6718 -0.4904 -0.6380
 1152SOL     OW14917   4.551   0.254   8.506  0.4841 -0.1872 -0.8189
 1152SOL    HW114918   4.623   0.266   8.568  1.2806  0.8188 -1.9264
 1152SOL    HW214919   4.518   0.342   8.527 -0.7601 -1.6848  3.4476
 1153SOL     OW14920   0.280   4.446   0.508  0.0723 -0.2126 -0.4359
 1153SOL    HW114921   0.280   4.395   0.589  1.2097  2.4831  1.2555
 1153SOL    HW214922   0.374   4.444   0.489  0.5704  1.8376  1.8930
 1154SOL     OW14923   0.904   1.474   9.615  0.1218  0.9615 -0.3517
 1154SOL    HW114924   0.853   1.397   9.589  0.1616  1.1878 -1.1008
 1154SOL    HW214925   0.837   1.521   9.663  1.6530  0.4582  2.2662
 1155SOL     OW14926   0.614   3.412   6.937  0.1536  0.6238 -0.1329
 1155SOL    HW114927   0.646   3.450   7.019 -0.5806  1.3022 -0.1530
 1155SOL    HW214928   0.596   3.323   6.969  2.5164 -0.5788 -2.1774
 1156SOL     OW14929   3.099   2.491   7.341 -0.1016  0.5040  0.3970
 1156SOL    HW114930   3.015   2.494   7.294  1.1007  0.6583 -1.7844
 1156SOL    HW214931   3.125   2.399   7.335  0.0583  0.6469 -1.1226
 1157SOL     OW14932   4.547   2.140   2.697 -0.2654  0.2193  0.1352
 1157SOL    HW114933   4.550   2.236   2.707  0.9282  0.2526 -0.5451
 1157SOL    HW214934   4.575   2.128   2.606 -1.6145 -4.3215  0.3252
 1158SOL     OW14935   1.645   2.085   7.992  0.0404 -0.0891 -0.1930
 1158SOL    HW114936   1.617   2.000   8.026 -0.3626  0.1859  0.1579
 1158SOL    HW214937   1.697   2.123   8.063  0.0378  0.4088 -0.4607
 1159SOL     OW14938   1.579   4.652   6.582 -1.0379  0.5643  0.1472
 1159SOL    HW114939   1.665   4.694   6.579  0.1176 -1.8870 -0.5366
 1159SOL    HW214940   1.575   4.617   6.671 -0.8942  1.6278  0.5797
 1160SOL     OW14941   1.322   1.465  10.752  0.2397  0.2208 -0.4353
 1160SOL    HW114942   1.291   1.555  10.764  1.5336  0.5796  0.2592
 1160SOL    HW214943   1.237   1.422  10.759  2.9561 -5.2986 -1.8954
 1161SOL     OW14944   1.225   0.117  13.469  0.0384  0.1388 -0.0375
 1161SOL    HW114945   1.144   0.131  13.420 -0.0992 -0.0609  0.1361
 1161SOL    HW214946   1.233   0.023  13.458 -1.2594  0.0968 -0.5769
 1162SOL     OW14947   1.815   1.585   3.476 -0.6159 -0.1462  0.3965
 1162SOL    HW114948   1.736   1.541   3.507 -0.1956 -0.2657  1.2882
 1162SOL    HW214949   1.884   1.543   3.527 -0.6942 -0.5213  0.1922
 1163SOL     OW14950   1.705   0.107   3.825  0.0988 -0.2690 -1.0607
 1163SOL    HW114951   1.634   0.147   3.876  1.3667 -0.0030  0.4958
 1163SOL    HW214952   1.766   0.180   3.818  0.2491 -0.2646  0.3430
 1164SOL     OW14953   3.664   0.402   7.483  0.6701  0.5929  0.2485
 1164SOL    HW114954   3.650   0.309   7.467 -0.0011  0.9301 -1.0916
 1164SOL    HW214955   3.694   0.394   7.573  0.2322 -0.0900  0.3311
 1165SOL     OW14956   3.533   1.558   0.884  0.1171  0.2634 -0.2823
 1165SOL    HW114957   3.607   1.618   0.872 -0.1017  0.3578 -1.1930
 1165SOL    HW214958   3.462   1.602   0.837  0.7182  2.0597  0.4888
 1166SOL     OW14959   0.782   1.567   8.296 -0.0293  0.3323 -0.3602
 1166SOL    HW114960   0.870   1.550   8.329  0.0606 -0.3912 -0.9812
 1166SOL    HW214961   0.721   1.570   8.370  1.1613 -0.3419  0.6472
 1167SOL     OW14962   2.117   1.285  12.381  0.7092 -0.1790  0.6531
 1167SOL    HW114963   2.180   1.252  12.317 -2.2215 -1.5521 -1.5511
 1167SOL    HW214964   2.150   1.239  12.458  0.5911  0.2550  0.9587
 1168SOL     OW14965   1.532   1.469  12.989 -0.1727  0.2638 -0.2418
 1168SOL    HW114966   1.540   1.379  12.956 -0.3914  0.8041 -1.7340
 1168SOL    HW214967   1.620   1.497  13.013 -0.3613  0.4861  0.1839
 1169SOL     OW14968   3.850   3.613   7.377 -0.6682 -0.2467 -0.7737
 1169SOL    HW114969   3.894   3.599   7.461 -1.0314  1.0218 -0.3682
 1169SOL    HW214970   3.811   3.695   7.410  0.5872 -0.8637  2.2452
 1170SOL     OW14971   0.667   3.520  12.651  0.6325 -0.6181  0.3099
 1170SOL    HW114972   0.617   3.590  12.694  2.6691  1.1288 -0.1925
 1170SOL    HW214973   0.617   3.509  12.570 -0.4119  0.3678  0.8152
 1171SOL     OW14974   3.850   4.696   2.337  0.3015  0.7263 -0.1575
 1171SOL    HW114975   3.757   4.709   2.355  0.8498  0.3428  3.0525
 1171SOL    HW214976   3.859   0.021   2.255  0.7694  1.4722  0.3355
 1172SOL     OW14977   4.369   3.568  16.962 -0.0608 -0.1889 -0.0687
 1172SOL    HW114978   4.383   3.518  16.882  1.1250 -3.1936  2.0420
 1172SOL    HW214979   4.369   3.659  16.930  1.4929  0.0570  0.6438
 1173SOL     OW14980   3.923   3.012  11.999  0.4576  0.3503 -0.1153
 1173SOL    HW114981   4.015   3.034  11.987  1.1714 -2.3868  0.5113
 1173SOL    HW214982   3.880   3.061  11.929  0.9989 -0.7507 -1.2020
 1174SOL     OW14983   0.903   2.321  12.592 -0.6364  0.7514 -0.3328
 1174SOL    HW114984   0.869   2.316  12.681 -0.0519  0.2273 -0.1406
 1174SOL    HW214985   0.866   2.243  12.551  1.5369  0.1485 -1.1250
 1175SOL     OW14986   4.010   1.584   5.353 -0.0048 -0.1801 -0.0350
 1175SOL    HW114987   4.017   1.599   5.448 -1.3032  2.0669 -0.2919
 1175SOL    HW214988   4.067   1.649   5.314 -1.5387  1.6056  0.6798
 1176SOL     OW14989   0.435   1.187   4.516  0.4192  0.2904  0.4955
 1176SOL    HW114990   0.485   1.269   4.513  1.1280 -0.1602  0.0658
 1176SOL    HW214991   0.351   1.220   4.483  0.2622  0.0947  0.7006
 1177SOL     OW14992   0.804   0.082   5.263 -0.5731  0.0113  0.1297
 1177SOL    HW114993   0.783   0.151   5.326  0.0020 -0.2571  0.6150
 1177SOL    HW214994   0.887   0.055   5.301 -0.8605  1.0261  1.4730
 1178SOL     OW14995   1.821   3.894   2.484 -0.1033  0.2214 -0.8404
 1178SOL    HW114996   1.751   3.839   2.450 -1.9502  1.8882  0.2463
 1178SOL    HW214997   1.867   3.827   2.536 -0.5722  1.3809  1.0928
 1179SOL     OW14998   0.638   1.175   1.194  0.3427 -0.1251  0.6623
 1179SOL    HW114999   0.723   1.200   1.230  0.0887 -0.2884  1.3831
 1179SOL    HW215000   0.666   1.087   1.166  1.9224  0.2479  1.0718
 1180SOL     OW15001   2.887   0.954  14.864  0.2303  0.0134  0.2142
 1180SOL    HW115002   2.838   0.966  14.783  1.7705 -1.1478 -0.8822
 1180SOL    HW215003   2.975   0.950  14.828  0.5035  1.0177  0.7569
 1181SOL     OW15004   1.352   0.426   4.447  0.4923 -0.7619 -0.0005
 1181SOL    HW115005   1.278   0.456   4.498  0.4320 -0.3775 -0.3102
 1181SOL    HW215006   1.415   0.390   4.510  1.4781 -1.0547 -1.1447
 1182SOL     OW15007   3.475   1.663   5.337  0.0120 -0.0382 -0.0914
 1182SOL    HW115008   3.452   1.728   5.270 -2.2372 -0.8601 -0.1043
 1182SOL    HW215009   3.417   1.597   5.300 -1.3581  2.0047 -1.6278
 1183SOL     OW15010   0.572   4.097   8.916  0.1626 -0.3740 -0.4492
 1183SOL    HW115011   0.516   4.022   8.897 -0.2771 -0.3063  0.5808
 1183SOL    HW215012   0.507   4.166   8.930 -0.2045 -0.4840 -1.5720
 1184SOL     OW15013   2.892   1.275  13.245  0.3446  0.1268  0.5250
 1184SOL    HW115014   2.844   1.264  13.163  1.5440 -2.5708  0.1991
 1184SOL    HW215015   2.820   1.261  13.307  0.6442  2.0360  1.2976
 1185SOL     OW15016   0.121   0.708  10.714 -0.0094  0.6428  0.2386
 1185SOL    HW115017   0.126   0.676  10.804  1.5790 -1.9630 -0.7477
 1185SOL    HW215018   0.027   0.699  10.697 -0.2123  0.1376  1.6141
 1186SOL     OW15019   3.634   3.820   2.463  0.6609  0.8964 -0.2405
 1186SOL    HW115020   3.706   3.883   2.455  0.9609  0.5709 -0.0660
 1186SOL    HW215021   3.614   3.812   2.369 -1.5108  0.5196  0.2692
 1187SOL     OW15022   4.255   3.437   5.942  0.3542 -0.0585 -0.7089
 1187SOL    HW115023   4.223   3.527   5.953  0.4709 -0.0731 -0.2226
 1187SOL    HW215024   4.234   3.426   5.849 -2.1803 -0.2015 -0.1375
 1188SOL     OW15025   3.790   4.061  12.431 -0.4082 -0.5531 -0.4864
 1188SOL    HW115026   3.787   4.074  12.525 -1.4306 -2.4512 -0.2631
 1188SOL    HW215027   3.795   3.966  12.423  1.6897 -0.3828 -1.4140
 1189SOL     OW15028   2.402   0.220   6.872  0.1109 -0.0589 -0.0146
 1189SOL    HW115029   2.465   0.261   6.931  2.5301 -1.7288 -1.4314
 1189SOL    HW215030   2.449   0.201   6.791 -0.7523  1.2783 -0.8198
 1190SOL     OW15031   1.640   2.739   5.308 -0.5493 -0.1534  0.1468
 1190SOL    HW115032   1.611   2.649   5.317  0.4282 -0.3007  1.6681
 1190SOL    HW215033   1.586   2.766   5.233  2.7012  0.2745 -2.0486
 1191SOL     OW15034   2.673   4.215   8.418  0.3704  0.0817 -0.3085
 1191SOL    HW115035   2.764   4.235   8.396  0.8626  0.7123  2.3299
 1191SOL    HW215036   2.676   4.236   8.511 -0.8673  2.1304 -0.7353
 1192SOL     OW15037   4.129   2.396  16.145 -0.0347 -0.6476 -0.5236
 1192SOL    HW115038   4.044   2.354  16.160  0.1043 -0.5630  0.4728
 1192SOL    HW215039   4.120   2.430  16.055  0.8222 -0.2656 -0.4682
 1193SOL     OW15040   0.465   1.780   4.584 -0.0929 -0.0222  0.2692
 1193SOL    HW115041   0.401   1.822   4.527 -0.1170  0.6788  0.8006
 1193SOL    HW215042   0.422   1.706   4.626  1.5173 -0.4150  1.2181
 1194SOL     OW15043   1.861   2.765   8.651 -0.1223  0.3115  0.0550
 1194SOL    HW115044   1.830   2.677   8.674  0.0326 -0.2041 -1.7818
 1194SOL    HW215045   1.789   2.815   8.690  0.0022 -1.1767  2.2130
 1195SOL     OW15046   2.773   3.427   7.409  0.6686  0.0289 -0.1109
 1195SOL    HW115047   2.749   3.404   7.319 -0.9518 -1.2831  0.6482
 1195SOL    HW215048   2.861   3.389   7.418  0.0792 -2.2140 -3.7708
 1196SOL     OW15049   4.671   0.347   5.779 -0.4109  0.2339  0.3728
 1196SOL    HW115050   4.648   0.294   5.856 -0.8632 -0.9896 -0.6067
 1196SOL    HW215051   4.625   0.291   5.716 -1.6895 -0.5024  1.9352
 1197SOL     OW15052   3.545   2.166   5.763  0.2611 -0.8350  0.9348
 1197SOL    HW115053   3.586   2.091   5.720  1.3474 -0.1689  0.8251
 1197SOL    HW215054   3.622   2.220   5.778  0.6253 -1.0731 -0.0974
 1198SOL     OW15055   0.609   4.641   6.695  0.2983 -0.8227  0.1916
 1198SOL    HW115056   0.637   4.552   6.673  1.2320 -0.3450 -0.5639
 1198SOL    HW215057   0.609   4.637   6.791 -2.0067 -0.6612  0.2025
 1199SOL     OW15058   1.567   3.977  11.346  0.2570  0.5074  0.2556
 1199SOL    HW115059   1.554   4.025  11.264  0.0592  0.7043  0.4031
 1199SOL    HW215060   1.502   3.908  11.331 -0.6247  1.2554  0.6776
 1200SOL     OW15061   0.334   2.044   4.952 -0.5464 -0.0042  0.0837
 1200SOL    HW115062   0.344   2.049   5.047 -1.0494  1.6504  0.0526
 1200SOL    HW215063   0.410   2.081   4.908  1.1800 -0.2386  2.8592
 1201SOL     OW15064   0.810   3.723   3.391 -0.6885  0.3951  0.4067
 1201SOL    HW115065   0.757   3.671   3.331  1.2607 -0.3801 -0.6280
 1201SOL    HW215066   0.894   3.677   3.391 -0.7981  0.1961  0.6488
 1202SOL     OW15067   1.408   0.341   7.704  0.7354  0.0912  0.1698
 1202SOL    HW115068   1.339   0.404   7.683  0.3731 -0.6654 -0.8881
 1202SOL    HW215069   1.467   0.365   7.632 -0.9842  0.0605 -1.2542
 1203SOL     OW15070   3.260   1.461   6.239 -0.7288 -0.1487  0.2393
 1203SOL    HW115071   3.278   1.375   6.276 -1.0287 -0.1930  0.2804
 1203SOL    HW215072   3.246   1.445   6.146 -0.3974 -0.1836  0.1944
 1204SOL     OW15073   0.330   1.521   4.255  0.4910  0.2912  0.4275
 1204SOL    HW115074   0.291   1.607   4.237  0.2183  0.3635  1.3547
 1204SOL    HW215075   0.258   1.474   4.297  1.7890 -2.6248 -0.6468
 1205SOL     OW15076   0.715   1.565   9.393  0.1151  0.2248 -0.1506
 1205SOL    HW115077   0.629   1.579   9.354 -1.1252 -1.8230  1.8663
 1205SOL    HW215078   0.734   1.654   9.422 -1.4686  1.3429 -2.5063
 1206SOL     OW15079   3.419   2.054  12.379 -0.4686 -0.4355  0.2163
 1206SOL    HW115080   3.474   1.977  12.366 -0.7905 -0.4873 -0.8354
 1206SOL    HW215081   3.409   2.057  12.474  1.3106  1.3584  0.3422
 1207SOL     OW15082   1.116   4.051   6.668 -0.6507  0.2022 -0.0735
 1207SOL    HW115083   1.104   4.021   6.578  2.8046 -0.4040 -0.3209
 1207SOL    HW215084   1.054   4.009   6.727 -1.9288  0.3130 -1.3330
 1208SOL     OW15085   3.340   3.939  13.777 -0.1182 -0.2030  0.3819
 1208SOL    HW115086   3.348   3.850  13.743  0.4531 -0.2366  0.6074
 1208SOL    HW215087   3.294   3.988  13.708  0.8264  1.0950  0.6790
 1209SOL     OW15088   4.064   1.409   2.836  0.1048 -0.1779  0.0098
 1209SOL    HW115089   4.029   1.486   2.790 -0.4011 -0.5583 -0.2535
 1209SOL    HW215090   4.030   1.329   2.793  1.0981 -0.1980 -0.7484
 1210SOL     OW15091   2.593   4.449   5.579  0.5208  1.0962 -0.0921
 1210SOL    HW115092   2.594   4.401   5.662  1.0063 -0.1840 -0.8333
 1210SOL    HW215093   2.658   4.515   5.602  3.2672 -1.4232 -0.4735
 1211SOL     OW15094   4.044   0.374   2.074 -0.2361  0.4946 -0.7303
 1211SOL    HW115095   3.957   0.399   2.108  0.6907  1.3748  0.9982
 1211SOL    HW215096   4.109   0.437   2.105  1.1307  0.5615 -3.7231
 1212SOL     OW15097   2.237   2.173   8.522  0.1471  0.4572 -0.1422
 1212SOL    HW115098   2.255   2.243   8.585 -0.7245 -1.4694  2.2581
 1212SOL    HW215099   2.285   2.100   8.560  0.8358  0.5414 -0.8422
 1213SOL     OW15100   3.167   2.982  14.439  0.2375  0.2274  0.0145
 1213SOL    HW115101   3.261   3.002  14.433  0.8017 -2.3141  0.1685
 1213SOL    HW215102   3.140   3.019  14.355 -2.0982  0.5131  0.8935
 1214SOL     OW15103   4.463   3.625  15.546  0.1349 -0.1476 -0.3844
 1214SOL    HW115104   4.524   3.699  15.543  1.1651 -1.0052 -0.6843
 1214SOL    HW215105   4.392   3.669  15.499 -0.7678  1.2759  2.3171
 1215SOL     OW15106   0.549   0.776   8.960  0.4089 -0.4212  0.2340
 1215SOL    HW115107   0.554   0.863   9.000  0.1203 -1.0043  1.5371
 1215SOL    HW215108   0.466   0.773   8.914  0.9861 -0.1638 -0.8324
 1216SOL     OW15109   0.102   3.387   5.616  0.1548  0.1583 -0.3150
 1216SOL    HW115110   0.152   3.405   5.696  2.8321  0.7067 -2.1501
 1216SOL    HW215111   0.051   3.468   5.615  0.4384  0.3352 -0.3929
 1217SOL     OW15112   0.510   2.202   4.027  0.0784  0.8139  0.2582
 1217SOL    HW115113   0.515   2.120   4.075  0.5748  1.4362  1.2656
 1217SOL    HW215114   0.432   2.237   4.070 -0.2615 -0.0109  0.3149
 1218SOL     OW15115   0.873   0.591   2.825 -0.2569  0.2455  0.5483
 1218SOL    HW115116   0.912   0.601   2.912 -1.3007 -2.2301  1.2902
 1218SOL    HW215117   0.834   0.675   2.801  0.2605  0.1129 -0.7564
 1219SOL     OW15118   4.265   1.185   1.806  0.0697 -0.1025  0.5955
 1219SOL    HW115119   4.330   1.116   1.800  0.8894  0.6306  1.0270
 1219SOL    HW215120   4.319   1.256   1.842  0.3184  0.5137 -0.9632
 1220SOL     OW15121   1.698   2.795   6.341 -0.3440 -0.1268  0.1236
 1220SOL    HW115122   1.723   2.730   6.407  0.7862 -0.6000 -0.7627
 1220SOL    HW215123   1.704   2.876   6.392  0.0397 -0.4543  0.5997
 1221SOL     OW15124   0.702   3.469  10.845 -0.3831  0.5474  0.1649
 1221SOL    HW115125   0.708   3.493  10.753 -1.2880  1.7783  0.4175
 1221SOL    HW215126   0.790   3.438  10.866 -1.4018 -2.2851  0.2158
 1222SOL     OW15127   4.465   4.224  10.737 -0.4659  0.1860 -0.1450
 1222SOL    HW115128   4.495   4.235  10.647 -3.1967  0.3361 -1.0483
 1222SOL    HW215129   4.394   4.289  10.736  0.3653  1.1215  2.1450
 1223SOL     OW15130   0.074   4.198  12.729 -0.1595  0.5909 -0.0412
 1223SOL    HW115131   0.011   4.210  12.800 -2.2158 -1.6930 -1.4331
 1223SOL    HW215132   0.162   4.210  12.763 -0.1114  1.7287 -0.5709
 1224SOL     OW15133   4.546   1.942   2.998 -0.0329 -0.5879  0.1978
 1224SOL    HW115134   4.623   1.996   2.987 -0.4036  0.1329  1.1820
 1224SOL    HW215135   4.482   1.980   2.937 -1.6036 -0.8781  1.6404
 1225SOL     OW15136   1.105   4.377   5.912 -0.0914 -0.2856  0.2598
 1225SOL    HW115137   1.176   4.398   5.852 -1.0672 -0.4417 -0.9400
 1225SOL    HW215138   1.032   4.370   5.851 -0.7737 -1.9458  1.2500
 1226SOL     OW15139   4.602   2.203  13.262  0.1649 -0.0974  0.0258
 1226SOL    HW115140   4.581   2.229  13.173  0.4619 -0.3341 -0.1138
 1226SOL    HW215141   4.697   2.215  13.261  0.0049  1.0703 -0.4684
 1227SOL     OW15142   4.491   2.611   7.734  0.2252 -0.7977  0.7433
 1227SOL    HW115143   4.517   2.643   7.821 -1.1143 -0.3917  0.9988
 1227SOL    HW215144   4.405   2.653   7.729  0.6056  0.0698  1.4098
 1228SOL     OW15145   1.463   2.482   4.821  0.3419  0.3006 -0.6444
 1228SOL    HW115146   1.505   2.488   4.735  3.4017  0.5747  0.8974
 1228SOL    HW215147   1.371   2.500   4.801 -0.0815  0.4826  1.5479
 1229SOL     OW15148   1.733   1.917  17.235 -0.4246  0.1342 -0.1755
 1229SOL    HW115149   1.653   1.902  17.185 -0.3554  1.1604 -0.6014
 1229SOL    HW215150   1.719   1.851  17.303  0.4849  0.4473  0.3211
 1230SOL     OW15151   0.095   4.404  16.330 -0.3841  0.0269  0.1566
 1230SOL    HW115152   0.110   4.462  16.405  1.9144  1.2905 -1.2844
 1230SOL    HW215153   0.035   4.341  16.370  0.2901 -0.1550  0.8870
 1231SOL     OW15154   3.610   3.268  12.559 -0.0790 -0.2922 -0.1172
 1231SOL    HW115155   3.629   3.206  12.488  0.0713 -2.6012  1.9295
 1231SOL    HW215156   3.699   3.287  12.588  0.1572 -1.9506  0.2325
 1232SOL     OW15157   2.448   3.763   4.772  0.0182  0.2212 -0.1051
 1232SOL    HW115158   2.492   3.812   4.841  0.4327 -0.3264  0.0179
 1232SOL    HW215159   2.367   3.752   4.822 -1.0611  2.2919 -1.3929
 1233SOL     OW15160   3.055   3.580   6.167 -0.3245  0.3304  0.2883
 1233SOL    HW115161   3.037   3.628   6.086 -2.6899 -0.9925  0.0457
 1233SOL    HW215162   3.047   3.489   6.141  0.8271  0.0212  1.0152
 1234SOL     OW15163   1.726   3.485   1.597  0.5966  0.1574 -0.0963
 1234SOL    HW115164   1.657   3.547   1.621 -2.2623 -3.0080 -0.0321
 1234SOL    HW215165   1.715   3.465   1.503  0.5666 -0.0557 -0.0483
 1235SOL     OW15166   2.246   3.320   4.155  0.1148 -0.0237 -0.1955
 1235SOL    HW115167   2.170   3.332   4.098 -0.1355  0.3666  0.2170
 1235SOL    HW215168   2.264   3.409   4.185  0.4720  0.3877 -1.6309
 1236SOL     OW15169   2.939   0.876   6.553  0.8665  0.0778  0.9349
 1236SOL    HW115170   2.873   0.807   6.543  2.7962 -1.9609  2.1247
 1236SOL    HW215171   2.911   0.936   6.484  0.6088 -1.2464 -0.1019
 1237SOL     OW15172   2.065   2.662   3.317  0.7079 -0.3316  0.2300
 1237SOL    HW115173   2.042   2.660   3.409 -1.2297 -1.1509 -0.2787
 1237SOL    HW215174   2.020   2.744   3.295 -0.0895 -1.1072 -1.0302
 1238SOL     OW15175   0.896   3.835   9.229 -1.3379 -0.0620  0.7598
 1238SOL    HW115176   0.803   3.847   9.208 -0.8222  0.5496 -1.2491
 1238SOL    HW215177   0.901   3.870   9.317  1.3580  0.1304  0.5352
 1239SOL     OW15178   3.295   0.995   2.010 -0.1088 -0.4738 -0.1595
 1239SOL    HW115179   3.375   0.998   2.063  0.0785  2.3295 -0.5757
 1239SOL    HW215180   3.257   1.077   2.042  0.2501 -0.0646 -0.7936
 1240SOL     OW15181   1.742   0.499   3.248  0.4900  0.6344  0.6879
 1240SOL    HW115182   1.646   0.505   3.250  0.5784  1.8288  0.9533
 1240SOL    HW215183   1.754   0.428   3.184  0.8586  1.1758  0.1511
 1241SOL     OW15184   2.608   0.263  14.385 -0.8382 -0.0926  0.2640
 1241SOL    HW115185   2.658   0.194  14.342 -0.7961 -1.2059  2.1182
 1241SOL    HW215186   2.646   0.345  14.352  0.3008 -1.9462 -2.9766
 1242SOL     OW15187   2.324   3.037   1.784  0.3862 -0.1837  0.1953
 1242SOL    HW115188   2.359   2.963   1.735  0.3890  0.7657 -1.2513
 1242SOL    HW215189   2.378   3.039   1.862 -0.9584 -2.1282  1.1794
 1243SOL     OW15190   2.582   1.782   5.518 -0.5770 -0.0989  0.0458
 1243SOL    HW115191   2.513   1.842   5.545 -0.8263  1.0351 -3.0859
 1243SOL    HW215192   2.600   1.728   5.595  1.2517 -1.4661 -1.3521
 1244SOL     OW15193   4.252   0.157  11.546 -0.0164  0.0254  0.0370
 1244SOL    HW115194   4.167   0.177  11.585  0.0411 -0.3272  0.3310
 1244SOL    HW215195   4.242   0.199  11.460 -1.3294 -2.6426 -1.1132
 1245SOL     OW15196   4.042   1.741   0.437  0.1835 -0.0333 -0.2367
 1245SOL    HW115197   4.093   1.738   0.356 -0.9232 -1.2331 -0.8996
 1245SOL    HW215198   4.055   1.835   0.450 -0.0047 -0.0073 -0.2359
 1246SOL     OW15199   3.116   0.652   5.915  1.0403  0.1822 -0.7928
 1246SOL    HW115200   3.060   0.585   5.956  1.8102 -1.3230 -2.2006
 1246SOL    HW215201   3.171   0.655   5.993  1.9876 -1.4295 -1.3972
 1247SOL     OW15202   0.847   0.214   2.444 -0.4454 -0.5073 -0.0229
 1247SOL    HW115203   0.758   0.233   2.415  0.3209  1.6373 -0.9506
 1247SOL    HW215204   0.880   0.233   2.356  0.5279  0.4222  0.5444
 1248SOL     OW15205   3.705   3.942   1.969  0.6176  0.1222  0.2444
 1248SOL    HW115206   3.770   4.009   1.948 -1.4270  1.6167 -1.3632
 1248SOL    HW215207   3.756   3.867   1.938  0.5187 -0.1841  0.8279
 1249SOL     OW15208   3.847   1.028   0.083 -0.0386  0.2625  0.2768
 1249SOL    HW115209   3.856   1.118   0.054 -1.2590  0.4479  0.4954
 1249SOL    HW215210   3.763   1.007   0.043 -0.6813  2.2576  0.5956
 1250SOL     OW15211   4.371   2.370   8.286 -0.1230  0.4046  0.1817
 1250SOL    HW115212   4.448   2.314   8.281  0.8755  1.8555 -0.4591
 1250SOL    HW215213   4.409   2.444   8.332 -2.3445  0.5188  1.8315
 1251SOL     OW15214   3.938   2.809  10.916  0.3817  1.0265 -0.2006
 1251SOL    HW115215   3.915   2.893  10.876  1.4747  0.9822 -0.9590
 1251SOL    HW215216   3.955   2.756  10.838  1.8326  1.1020  0.0540
 1252SOL     OW15217   3.215   4.151  10.084  0.1047  0.1653  0.1365
 1252SOL    HW115218   3.144   4.140  10.146  0.6870  1.8072  1.1047
 1252SOL    HW215219   3.194   4.080  10.024  1.6636  0.5491 -0.8691
 1253SOL     OW15220   3.524   4.058   1.227  0.6409  0.1604  0.4149
 1253SOL    HW115221   3.572   4.049   1.144  1.9822 -0.6964  1.2916
 1253SOL    HW215222   3.591   4.076   1.293 -0.3376  0.2346  1.3878
 1254SOL     OW15223   3.626   4.663  10.545  0.1407  0.6376  0.2745
 1254SOL    HW115224   3.579   4.634  10.623 -0.3174  0.8379  0.0719
 1254SOL    HW215225   3.712   4.623  10.559 -0.0204  0.9009  2.0058
 1255SOL     OW15226   4.523   3.018   4.501 -0.3981  0.1262  0.1841
 1255SOL    HW115227   4.503   2.935   4.544  1.0963  0.3429  1.2829
 1255SOL    HW215228   4.454   3.074   4.538 -2.5668 -2.2181 -0.3393
 1256SOL     OW15229   3.336   0.984  14.824  0.9026 -0.6937  0.1074
 1256SOL    HW115230   3.243   0.992  14.800  0.5189  0.5198  1.9798
 1256SOL    HW215231   3.324   0.904  14.876  0.1880 -0.4147  0.3758
 1257SOL     OW15232   0.886   3.459   8.570  0.9173  0.1074  0.1306
 1257SOL    HW115233   0.868   3.453   8.664  1.1435  3.2295  0.3750
 1257SOL    HW215234   0.851   3.378   8.531 -0.5504 -0.4339  2.5533
 1258SOL     OW15235   2.098   1.647   2.268 -0.1292 -0.0736 -0.6874
 1258SOL    HW115236   2.067   1.612   2.184  2.0530 -0.9387 -1.1412
 1258SOL    HW215237   2.087   1.736   2.236 -2.0785 -0.4766 -1.1006
 1259SOL     OW15238   0.741   2.772  13.101  0.1081 -0.2292  0.2592
 1259SOL    HW115239   0.791   2.829  13.161  1.4997 -1.9037  0.6966
 1259SOL    HW215240   0.655   2.781  13.141 -0.1730 -1.1206 -0.1547
 1260SOL     OW15241   4.238   2.634  10.944 -0.1560  0.6719 -0.3703
 1260SOL    HW115242   4.153   2.602  10.974 -0.1456  0.7246 -0.2855
 1260SOL    HW215243   4.288   2.552  10.937  1.0053  1.3434  0.1242
 1261SOL     OW15244   1.279   4.487   8.342 -0.3512 -0.1499  0.0819
 1261SOL    HW115245   1.279   4.399   8.381  1.0288 -0.2888 -0.2222
 1261SOL    HW215246   1.364   4.479   8.298 -0.1747 -0.6768  0.5151
 1262SOL     OW15247   4.373   2.869  13.447 -0.4110 -0.0422  0.5513
 1262SOL    HW115248   4.356   2.963  13.441 -1.7190 -0.2922  0.4700
 1262SOL    HW215249   4.357   2.838  13.358 -2.1178  2.9111 -0.1628
 1263SOL     OW15250   2.105   1.084   8.437  0.2304  0.1605  0.0460
 1263SOL    HW115251   2.157   1.076   8.516  0.1792 -0.8800 -0.0176
 1263SOL    HW215252   2.097   0.990   8.421  0.0309  0.0983  0.5198
 1264SOL     OW15253   1.202   4.546   3.948  0.3462 -0.1039  0.0644
 1264SOL    HW115254   1.226   4.561   4.039 -0.3296 -0.2181  0.2576
 1264SOL    HW215255   1.144   4.472   3.967 -0.0726  0.2792  0.2610
 1265SOL     OW15256   4.567   2.436   2.734 -0.0866 -0.4660  0.0947
 1265SOL    HW115257   4.583   2.460   2.825 -0.8076  2.8609 -0.6755
 1265SOL    HW215258   4.637   2.490   2.698  1.9680 -0.6915  3.7510
 1266SOL     OW15259   2.369   1.514   5.643  0.1360 -0.2298 -0.4027
 1266SOL    HW115260   2.417   1.459   5.581 -0.2090 -2.0997  1.0047
 1266SOL    HW215261   2.387   1.468   5.725 -0.7654 -1.8052 -1.0857
 1267SOL     OW15262   2.967   0.153   3.485 -0.5894  0.0640  0.1744
 1267SOL    HW115263   3.021   0.141   3.562 -2.2191  0.9326  1.4686
 1267SOL    HW215264   3.016   0.223   3.442  0.5703 -0.3629  0.8282
 1268SOL     OW15265   1.469   1.143   6.149  0.0878 -0.1924 -0.0712
 1268SOL    HW115266   1.422   1.195   6.085 -0.4515 -0.7906 -0.1624
 1268SOL    HW215267   1.442   1.181   6.233 -1.3627  2.9395 -1.9551
 1269SOL     OW15268   4.544   3.590  13.731  0.2793  0.1987 -0.0848
 1269SOL    HW115269   4.592   3.509  13.718 -1.8683 -1.1879  0.7055
 1269SOL    HW215270   4.602   3.621  13.801 -1.0074  0.0740  1.0335
 1270SOL     OW15271   3.112   4.380   5.956  0.4450 -0.4084 -0.2123
 1270SOL    HW115272   3.130   4.388   5.862  1.1903 -3.5406 -0.3445
 1270SOL    HW215273   3.097   4.286   5.965 -1.8684  0.1561  1.9951
 1271SOL     OW15274   1.832   4.628  14.672  0.3269  0.1491  0.2487
 1271SOL    HW115275   1.803   4.687  14.742  1.2183 -0.7620  1.3810
 1271SOL    HW215276   1.781   4.548  14.688 -0.3537  0.6260  0.4554
 1272SOL     OW15277   3.414   1.442  15.968  0.4939  0.1901  0.6522
 1272SOL    HW115278   3.423   1.490  16.051 -0.3047  1.6441 -0.1121
 1272SOL    HW215279   3.408   1.354  16.005  0.4291  0.0880  0.4011
 1273SOL     OW15280   2.144   1.665   4.404  0.8373 -0.4044  0.2601
 1273SOL    HW115281   2.236   1.685   4.421 -0.1612  2.3447  2.3157
 1273SOL    HW215282   2.128   1.632   4.492  1.2225 -0.9501  0.1255
 1274SOL     OW15283   2.430   3.206   6.393  0.5058  0.2308 -0.0436
 1274SOL    HW115284   2.387   3.186   6.310  1.1863 -0.6671 -0.1884
 1274SOL    HW215285   2.371   3.255   6.449 -1.3038 -3.2158  1.0667
 1275SOL     OW15286   4.656   4.225   1.458 -0.0717 -0.3509 -0.0757
 1275SOL    HW115287   4.703   4.258   1.534  2.2374 -0.8323 -1.3016
 1275SOL    HW215288   4.698   4.256   1.378  1.3466 -0.2742  0.7023
 1276SOL     OW15289   0.068   2.547   2.634 -0.4451  0.0004  0.4020
 1276SOL    HW115290   0.119   2.471   2.609  1.0619  2.1448 -3.0297
 1276SOL    HW215291   0.111   2.547   2.719  4.3690 -1.6029 -2.0550
 1277SOL     OW15292   1.546   0.916   8.300 -0.4051  0.4973 -0.3295
 1277SOL    HW115293   1.500   0.900   8.218 -1.8531  0.7966  0.4398
 1277SOL    HW215294   1.528   0.833   8.344 -0.8175  1.0555  0.5306
 1278SOL     OW15295   0.014   2.322   3.442 -0.1413 -0.1915  0.6998
 1278SOL    HW115296   4.677   2.307   3.369  2.3094  0.4784 -1.4309
 1278SOL    HW215297   4.701   2.264   3.509 -1.1326 -1.0335 -0.5789
 1279SOL     OW15298   0.561   0.949   6.663 -0.1982 -0.0620 -0.2284
 1279SOL    HW115299   0.605   0.944   6.578  0.4277 -4.3768  0.3320
 1279SOL    HW215300   0.580   1.037   6.696 -1.3638  0.4577 -0.9622
 1280SOL     OW15301   0.244   2.526  12.005  0.3638  0.8112 -0.1152
 1280SOL    HW115302   0.198   2.494  11.927  2.7546 -1.4725 -0.5952
 1280SOL    HW215303   0.175   2.517  12.070  0.0396  1.0463 -0.4277
 1281SOL     OW15304   1.731   4.072   2.168  0.0530  0.4021  0.1636
 1281SOL    HW115305   1.796   4.102   2.231  0.5140 -1.1175  0.4157
 1281SOL    HW215306   1.648   4.094   2.211  0.0041  0.3582  0.0914
 1282SOL     OW15307   0.370   2.446   6.335  0.5358 -0.8249  0.7766
 1282SOL    HW115308   0.346   2.497   6.412  1.8518 -0.0129  0.6372
 1282SOL    HW215309   0.365   2.512   6.267 -1.5248 -0.4389  1.3072
 1283SOL     OW15310   0.274   0.121   2.409 -0.4603  0.3244  0.3209
 1283SOL    HW115311   0.214   0.050   2.386  1.1641 -0.8580 -0.2684
 1283SOL    HW215312   0.228   0.201   2.382 -2.0693 -0.1009  1.7819
 1284SOL     OW15313   0.101   4.301  10.074  0.1125  0.5200  0.7001
 1284SOL    HW115314   0.078   4.226  10.128 -3.2122  0.2184 -1.1323
 1284SOL    HW215315   0.039   4.313  10.002  0.8039  2.7757  0.4642
 1285SOL     OW15316   0.937   3.946  16.203  0.0761  0.1897  0.8123
 1285SOL    HW115317   0.989   4.022  16.229  0.5948 -0.5018  1.8085
 1285SOL    HW215318   0.972   3.875  16.258  1.1310  0.7666  0.8672
 1286SOL     OW15319   0.364   0.859   9.191 -0.0680 -0.1834 -0.1636
 1286SOL    HW115320   0.444   0.818   9.224 -1.9288 -2.3286  1.6154
 1286SOL    HW215321   0.325   0.892   9.272  0.4145 -1.1699  0.4668
 1287SOL     OW15322   4.566   0.970  13.236  0.7013 -0.7374  0.1471
 1287SOL    HW115323   4.491   1.019  13.269 -1.3851 -3.7067 -0.1872
 1287SOL    HW215324   4.635   0.993  13.299 -0.7509  1.2841  1.0211
 1288SOL     OW15325   1.250   1.373  17.629 -0.5179 -0.3184 -0.1454
 1288SOL    HW115326   1.205   1.425  17.562  0.4237  1.5357  0.6504
 1288SOL    HW215327   1.189   1.366   0.007 -0.5778 -0.8461 -0.2453
 1289SOL     OW15328   2.758   2.356  10.228 -0.2969 -0.0474  0.5599
 1289SOL    HW115329   2.783   2.382  10.139 -0.0191 -0.1158  0.6181
 1289SOL    HW215330   2.703   2.279  10.211 -1.1156  0.4828  0.7809
 1290SOL     OW15331   0.311   2.322   4.171 -0.5854 -0.0320  0.2196
 1290SOL    HW115332   0.317   2.366   4.256 -2.0436  1.5161 -0.4788
 1290SOL    HW215333   0.237   2.364   4.127 -0.7930 -0.4927  0.1289
 1291SOL     OW15334   0.468   1.249   8.473 -0.4814  0.3627 -0.2298
 1291SOL    HW115335   0.520   1.193   8.530 -0.6713 -0.8561 -1.2462
 1291SOL    HW215336   0.493   1.224   8.384 -0.3875 -2.2484  0.5341
 1292SOL     OW15337   0.660   3.533   4.046  0.0073 -0.0562  0.0044
 1292SOL    HW115338   0.693   3.618   4.016  2.8130 -1.3757 -0.5567
 1292SOL    HW215339   0.693   3.473   3.979 -1.0983  0.5546 -1.0877
 1293SOL     OW15340   1.235   1.406   9.151  0.0323  0.0184 -0.4279
 1293SOL    HW115341   1.176   1.447   9.212  2.1083  0.0831  1.5349
 1293SOL    HW215342   1.317   1.450   9.174  0.0270 -1.1303  1.7481
 1294SOL     OW15343   1.320   1.143   6.737  0.0307  0.2162  0.0018
 1294SOL    HW115344   1.292   1.104   6.654  0.8861 -0.9647  0.2809
 1294SOL    HW215345   1.303   1.235   6.715 -0.3537  0.2547  0.4604
 1295SOL     OW15346   0.479   0.516   6.960  0.6619  0.3351 -0.4703
 1295SOL    HW115347   0.516   0.591   6.912 -0.6122  1.8255  0.8681
 1295SOL    HW215348   0.386   0.530   6.945  0.9094  1.8073 -0.6453
 1296SOL     OW15349   4.104   1.312   4.774  0.1270  0.6050 -0.2098
 1296SOL    HW115350   4.106   1.307   4.869  0.1473 -1.7119 -0.3312
 1296SOL    HW215351   4.016   1.284   4.749  0.0143  1.4533 -0.7449
 1297SOL     OW15352   0.877   3.522   5.065 -0.3637 -0.2066 -0.0905
 1297SOL    HW115353   0.932   3.537   4.988 -1.3919 -0.4336 -0.8620
 1297SOL    HW215354   0.794   3.497   5.027 -1.3291  1.0463  1.1883
 1298SOL     OW15355   1.732   4.087   7.328 -0.0815 -0.2593  0.0499
 1298SOL    HW115356   1.729   4.074   7.423 -0.7475  0.7869  0.1692
 1298SOL    HW215357   1.661   4.149   7.316 -0.3425 -0.6293 -0.3532
 1299SOL     OW15358   1.513   0.413   2.756  0.1723 -0.2435 -0.1403
 1299SOL    HW115359   1.485   0.364   2.680  0.6189  1.5804 -1.4785
 1299SOL    HW215360   1.577   0.477   2.724  1.3626 -1.2504  0.2389
 1300SOL     OW15361   4.069   1.172   8.632  0.0874 -0.3278  0.1801
 1300SOL    HW115362   4.026   1.256   8.621 -0.2022 -0.3202  1.3566
 1300SOL    HW215363   4.009   1.134   8.696  1.8013 -1.3568  1.1777
 1301SOL     OW15364   0.527   0.572   8.156  0.5011  0.5701 -0.2543
 1301SOL    HW115365   0.557   0.491   8.114 -2.2645 -0.8035  0.3926
 1301SOL    HW215366   0.457   0.538   8.211  0.3995 -1.9514 -1.9031
 1302SOL     OW15367   3.640   4.526   7.286 -0.0247  0.1262 -1.0300
 1302SOL    HW115368   3.591   4.531   7.368 -0.1991 -0.5232 -1.0944
 1302SOL    HW215369   3.576   4.568   7.229 -0.9452  1.9632  1.3646
 1303SOL     OW15370   3.296   3.915   2.211 -0.2938 -0.0533  0.0852
 1303SOL    HW115371   3.202   3.902   2.200 -0.3667 -0.7107  1.5139
 1303SOL    HW215372   3.315   3.985   2.148  0.0919 -0.6165 -0.4244
 1304SOL     OW15373   3.736   2.108  11.951 -0.4695  0.0354  0.1249
 1304SOL    HW115374   3.772   2.195  11.936 -0.4111  0.0134  0.1364
 1304SOL    HW215375   3.676   2.128  12.023 -0.0767  0.9787  0.1804
 1305SOL     OW15376   4.669   1.088   0.840  0.7170  0.1257 -0.0912
 1305SOL    HW115377   4.719   1.131   0.770  1.4921 -0.7938 -0.0958
 1305SOL    HW215378   4.723   1.017   0.875  0.3685  0.6286  1.4759
 1306SOL     OW15379   0.609   2.814   0.686 -0.1243 -0.0062 -0.3032
 1306SOL    HW115380   0.627   2.891   0.740 -2.2846  0.3068 -0.0224
 1306SOL    HW215381   0.513   2.807   0.687 -0.2732  2.0266  0.0762
 1307SOL     OW15382   0.753   1.470  10.916 -0.7666  0.0064 -0.1156
 1307SOL    HW115383   0.789   1.443  10.832 -0.9715 -0.2653 -0.1145
 1307SOL    HW215384   0.676   1.413  10.924 -0.7439 -0.1322 -0.9431
 1308SOL     OW15385   1.975   0.529   5.262  0.1329  0.3850 -0.2661
 1308SOL    HW115386   1.963   0.611   5.310  2.6508  1.0525 -0.7902
 1308SOL    HW215387   1.970   0.464   5.332 -0.8528  2.8171  1.9001
 1309SOL     OW15388   2.245   2.799  12.503  0.5958 -0.0362  0.7925
 1309SOL    HW115389   2.158   2.822  12.533  0.3895 -0.7496  0.7565
 1309SOL    HW215390   2.224   2.763  12.416 -1.2578 -0.1427  1.2849
 1310SOL     OW15391   0.036   3.230   2.006  0.2290  0.2568 -0.3810
 1310SOL    HW115392   4.695   3.171   1.967 -2.8009  2.5541  1.0859
 1310SOL    HW215393   0.116   3.204   1.961  1.8853  1.5617  1.7945
 1311SOL     OW15394   0.258   4.353   0.756 -0.1107  0.2317 -0.1234
 1311SOL    HW115395   0.338   4.321   0.798 -0.2797 -0.7762 -0.5788
 1311SOL    HW215396   0.192   4.354   0.825  0.1292  0.5325  0.1021
 1312SOL     OW15397   4.117   0.232   6.755 -0.0656  0.3930 -0.1585
 1312SOL    HW115398   4.187   0.220   6.819 -1.8151 -0.2164  1.6543
 1312SOL    HW215399   4.049   0.278   6.804 -2.3836 -2.8055 -0.3660
 1313SOL     OW15400   3.134   0.787   5.248 -0.6860 -0.2755 -0.0237
 1313SOL    HW115401   3.121   0.802   5.341  0.7233 -2.8978  0.5879
 1313SOL    HW215402   3.040   0.777   5.229 -0.6169 -0.5819 -0.2156
 1314SOL     OW15403   0.903   1.983  12.174 -0.0080 -0.4898 -0.1784
 1314SOL    HW115404   0.918   2.078  12.175 -1.1953 -0.3022  0.2507
 1314SOL    HW215405   0.965   1.952  12.109  1.2543 -3.7714  2.5758
 1315SOL     OW15406   4.247   1.533   8.139 -0.1768  0.0954 -0.0081
 1315SOL    HW115407   4.224   1.489   8.058  1.9611 -0.9003 -0.0624
 1315SOL    HW215408   4.209   1.469   8.200  3.2098 -0.9621  0.9702
 1316SOL     OW15409   0.861   4.653   6.967  0.0679  0.3897 -0.3131
 1316SOL    HW115410   0.841   0.017   7.001 -0.8820  0.8729 -2.1195
 1316SOL    HW215411   0.785   4.601   6.994 -0.4971  2.1086  1.3752
 1317SOL     OW15412   2.766   2.569   9.372  0.0180  0.4007 -0.5755
 1317SOL    HW115413   2.695   2.624   9.339 -0.2957 -0.4268 -1.2639
 1317SOL    HW215414   2.709   2.501   9.407  1.4998 -0.5497 -0.0197
 1318SOL     OW15415   2.905   0.664  17.014  0.3702 -0.3911 -0.4205
 1318SOL    HW115416   2.942   0.752  17.001 -0.4184  0.0977  0.6845
 1318SOL    HW215417   2.964   0.616  17.072 -0.3901  0.1256  0.7835
 1319SOL     OW15418   2.538   1.070   3.894 -0.2851  0.5669  0.0594
 1319SOL    HW115419   2.495   0.984   3.893  0.1986  0.3113  0.9745
 1319SOL    HW215420   2.621   1.045   3.852  0.3062  0.6882  1.1642
 1320SOL     OW15421   4.657   1.815   8.295 -0.2877 -0.0195  0.4531
 1320SOL    HW115422   4.693   1.886   8.349  1.9904 -1.9609  1.5107
 1320SOL    HW215423   4.597   1.769   8.354  1.7730 -3.8991 -0.4790
 1321SOL     OW15424   3.227   2.190   9.060  0.1841  0.2508 -0.6735
 1321SOL    HW115425   3.250   2.255   8.994  2.2055 -0.0043 -0.2120
 1321SOL    HW215426   3.314   2.161   9.088 -0.7275  1.4580  3.4923
 1322SOL     OW15427   2.594   0.323   9.137  0.1080  0.4230  0.2524
 1322SOL    HW115428   2.615   0.337   9.229  0.2227  1.8850  0.0008
 1322SOL    HW215429   2.546   0.401   9.110  0.2360  0.1541 -0.7496
 1323SOL     OW15430   2.086   2.294   4.716  0.1565  0.1529  0.2779
 1323SOL    HW115431   2.085   2.347   4.636 -2.6283  0.9768  0.8757
 1323SOL    HW215432   2.110   2.369   4.771 -0.6533 -0.2334  1.1677
 1324SOL     OW15433   3.068   0.344   4.085 -0.0609  0.1339  0.5126
 1324SOL    HW115434   3.114   0.418   4.045 -0.6288  0.5842  0.7009
 1324SOL    HW215435   3.017   0.321   4.007  0.9587 -1.9807  0.4579
 1325SOL     OW15436   2.746   3.954   1.416 -0.1333  0.6930 -0.7838
 1325SOL    HW115437   2.685   4.021   1.447  1.0862  0.7181  1.5492
 1325SOL    HW215438   2.682   3.883   1.414  0.5354  0.0573  0.8707
 1326SOL     OW15439   3.187   3.424  13.888  0.7164  0.2476  0.2935
 1326SOL    HW115440   3.179   3.410  13.793  1.5558  1.0526  0.1085
 1326SOL    HW215441   3.165   3.337  13.923  1.3264 -0.7776 -1.8395
 1327SOL     OW15442   1.014   2.161   7.230  0.1577 -0.2603 -0.3641
 1327SOL    HW115443   1.032   2.068   7.237  0.6152 -0.2523 -1.4475
 1327SOL    HW215444   0.993   2.179   7.138 -0.2465  1.7230  0.1013
 1328SOL     OW15445   0.917   3.009   9.460  1.2276  0.6330  0.6202
 1328SOL    HW115446   0.859   2.934   9.446  3.0016 -0.1829 -2.4431
 1328SOL    HW215447   0.865   3.087   9.478 -1.6310 -1.1315 -0.0145
 1329SOL     OW15448   1.951   3.236  16.448 -0.0867 -0.5214  0.4698
 1329SOL    HW115449   2.043   3.255  16.463  0.1556 -1.5916  0.3164
 1329SOL    HW215450   1.966   3.147  16.416 -2.8912  0.0302 -2.4933
 1330SOL     OW15451   4.174   0.736  16.462  0.6082 -0.0576 -0.3342
 1330SOL    HW115452   4.160   0.693  16.546 -0.0332 -1.5517 -1.2071
 1330SOL    HW215453   4.122   0.678  16.408  0.6082  2.1361 -2.7183
 1331SOL     OW15454   0.779   0.097   6.099  0.0132  0.3986 -0.2976
 1331SOL    HW115455   0.776   0.153   6.022  2.6924 -0.0701 -0.7464
 1331SOL    HW215456   0.851   0.150   6.133  0.5461 -2.0234  2.2819
 1332SOL     OW15457   1.777   0.316   6.822  0.0718  0.0315  0.3571
 1332SOL    HW115458   1.860   0.293   6.780  0.8535  1.6216  1.0138
 1332SOL    HW215459   1.714   0.285   6.757  0.9035 -2.9859  0.9883
 1333SOL     OW15460   0.978   2.259   0.408  1.0129  0.3994  0.0999
 1333SOL    HW115461   1.033   2.318   0.461  1.3450 -0.1767  0.4064
 1333SOL    HW215462   0.935   2.218   0.483  0.0288 -1.4814 -1.5107
 1334SOL     OW15463   4.041   4.438   3.226 -0.0443 -0.3628 -0.7146
 1334SOL    HW115464   4.121   4.477   3.261 -0.5390 -0.1563  0.1937
 1334SOL    HW215465   4.014   4.504   3.162 -0.8779  1.3258  1.3624
 1335SOL     OW15466   0.929   3.071  12.922  0.6153  0.2198  0.3121
 1335SOL    HW115467   0.926   3.052  13.016 -1.3325 -0.7930  0.0323
 1335SOL    HW215468   0.953   2.983  12.894 -0.7678 -0.2250  0.5213
 1336SOL     OW15469   0.910   2.529   4.707  0.2290 -0.0289  0.9287
 1336SOL    HW115470   0.926   2.591   4.635 -1.3827 -1.8547 -1.0238
 1336SOL    HW215471   0.950   2.454   4.664  1.6542  1.3217 -0.1022
 1337SOL     OW15472   4.505   0.228   5.403  0.0509 -0.2969  0.5082
 1337SOL    HW115473   4.526   0.158   5.465 -0.1014 -0.8430 -0.0448
 1337SOL    HW215474   4.432   0.186   5.357 -1.2747  0.9007  1.5296
 1338SOL     OW15475   2.434   0.841   4.735  0.0431 -0.6375  0.3737
 1338SOL    HW115476   2.508   0.791   4.702 -0.7270 -2.3817  1.2810
 1338SOL    HW215477   2.453   0.838   4.828  1.3041 -0.9421  0.1045
 1339SOL     OW15478   3.293   1.407  15.065 -0.4184 -0.4938  0.1992
 1339SOL    HW115479   3.345   1.407  15.145  0.6354  2.0828 -0.4986
 1339SOL    HW215480   3.320   1.495  15.038  1.2115 -1.4248 -1.1738
 1340SOL     OW15481   0.008   3.235   2.560  0.5774  0.2876  0.5621
 1340SOL    HW115482   4.688   3.195   2.485  0.6816 -0.0066  0.6587
 1340SOL    HW215483   4.696   3.174   2.625  0.6850 -0.8559 -0.4696
 1341SOL     OW15484   3.186   2.142  12.236  0.2062 -0.0043 -1.1298
 1341SOL    HW115485   3.225   2.199  12.169  2.3582 -0.3720 -0.1831
 1341SOL    HW215486   3.261   2.085  12.253 -2.0365 -3.1443 -1.7659
 1342SOL     OW15487   0.322   4.575   7.049  0.0427 -0.2201  0.2461
 1342SOL    HW115488   0.341   4.532   6.966  0.8964  3.1201 -1.2897
 1342SOL    HW215489   0.314   4.668   7.027 -2.6368  0.0890  2.5300
 1343SOL     OW15490   0.294   1.216   4.826 -0.1081 -0.0100  0.2805
 1343SOL    HW115491   0.319   1.271   4.900 -0.3354  0.8953 -0.3120
 1343SOL    HW215492   0.366   1.225   4.764 -0.0262 -2.1486  0.0764
 1344SOL     OW15493   2.718   3.437   8.162  0.4804  0.2211  0.2091
 1344SOL    HW115494   2.710   3.451   8.068  0.1642  0.4681  0.2748
 1344SOL    HW215495   2.727   3.343   8.177  0.8215  0.3283  0.7178
 1345SOL     OW15496   4.420   3.806   5.323 -0.8335 -0.0823  0.6160
 1345SOL    HW115497   4.470   3.728   5.299 -0.9839 -0.4873  1.6033
 1345SOL    HW215498   4.483   3.877   5.313  0.6863 -1.6163 -0.7205
 1346SOL     OW15499   0.722   1.634   4.042 -0.2959  0.6396  0.0239
 1346SOL    HW115500   0.670   1.555   4.057  1.4597 -1.2393 -3.7829
 1346SOL    HW215501   0.654   1.701   4.031  0.9423  1.8073 -0.4098
 1347SOL     OW15502   2.409   0.598   7.631  0.0555 -0.0706  0.1700
 1347SOL    HW115503   2.487   0.551   7.603  0.8481  1.3937 -0.0551
 1347SOL    HW215504   2.443   0.659   7.696  0.8012 -0.0031 -0.2812
 1348SOL     OW15505   1.112   2.464   6.530  0.0327 -0.0027  0.3941
 1348SOL    HW115506   1.199   2.470   6.570 -0.0039  1.2480  0.2917
 1348SOL    HW215507   1.147   2.468   6.441 -0.1565  0.8792  0.3616
 1349SOL     OW15508   2.191   3.045   5.905  0.2670  0.1181 -0.0186
 1349SOL    HW115509   2.128   2.993   5.854  0.8057  0.5618 -1.1499
 1349SOL    HW215510   2.204   3.115   5.841  1.5131 -0.1363 -0.0465
 1350SOL     OW15511   4.365   4.475   7.946 -0.3882 -0.4862 -0.5374
 1350SOL    HW115512   4.417   4.396   7.937 -0.0411 -0.2415 -0.6906
 1350SOL    HW215513   4.310   4.470   7.868 -3.0261 -0.9462  1.3448
 1351SOL     OW15514   2.917   4.278   4.793  0.0568 -0.2752  0.2281
 1351SOL    HW115515   2.843   4.241   4.841  0.9772 -1.1100  1.0042
 1351SOL    HW215516   2.899   4.239   4.707  1.6381 -0.5508  0.0226
 1352SOL     OW15517   1.792   1.085  16.320 -0.2865 -1.0642 -0.6384
 1352SOL    HW115518   1.861   1.018  16.311  1.1853  0.1986  1.2659
 1352SOL    HW215519   1.780   1.119  16.231 -3.0039  1.7645  0.8162
 1353SOL     OW15520   2.787   2.128   8.661 -0.2873  0.4582  0.1604
 1353SOL    HW115521   2.783   2.033   8.667  1.9482  0.4085  0.8922
 1353SOL    HW215522   2.701   2.146   8.622 -0.0464 -0.7098 -0.8957
 1354SOL     OW15523   2.598   3.183  17.289  0.3558  0.4885 -0.0788
 1354SOL    HW115524   2.618   3.256  17.229  0.5382  1.0822  0.7036
 1354SOL    HW215525   2.502   3.185  17.288  0.3392 -0.5755 -0.5489
 1355SOL     OW15526   4.517   0.330   3.358 -0.0283 -0.5136 -0.2569
 1355SOL    HW115527   4.492   0.371   3.440 -1.7820 -2.3524  0.1024
 1355SOL    HW215528   4.555   0.250   3.392 -0.5652 -0.8562 -0.4670
 1356SOL     OW15529   4.600   1.172  16.217  0.3042  0.3266 -0.0951
 1356SOL    HW115530   4.576   1.080  16.203 -1.7892  0.7928  0.4073
 1356SOL    HW215531   4.510   1.192  16.245 -0.4217 -2.3848 -0.4595
 1357SOL     OW15532   2.871   3.755   3.038 -0.0825  0.3472  0.3853
 1357SOL    HW115533   2.904   3.684   2.984 -1.4427  0.6994 -0.9333
 1357SOL    HW215534   2.778   3.730   3.039  0.0256 -0.0049  1.1085
 1358SOL     OW15535   3.836   1.714  10.105 -0.0557 -0.0254  0.0073
 1358SOL    HW115536   3.881   1.630  10.100  0.6326  0.4663 -1.8932
 1358SOL    HW215537   3.901   1.770  10.148  0.5748  0.2408 -1.3064
 1359SOL     OW15538   2.514   4.608   8.987  0.3440 -0.4785  0.2584
 1359SOL    HW115539   2.574   4.680   9.005 -0.6075 -0.7705  4.6636
 1359SOL    HW215540   2.460   4.650   8.920 -0.7274 -0.8857  0.8649
 1360SOL     OW15541   3.562   3.538   8.453  0.1773  0.4589 -0.0283
 1360SOL    HW115542   3.583   3.556   8.361 -0.3770  0.9587 -0.0523
 1360SOL    HW215543   3.553   3.624   8.493 -1.8925  0.7972 -1.2383
 1361SOL     OW15544   1.940   1.564  12.847 -0.0749  0.2406 -0.2661
 1361SOL    HW115545   1.991   1.604  12.918  0.2708 -0.8134  0.0801
 1361SOL    HW215546   1.855   1.553  12.891 -0.2818 -1.1976 -1.0537
 1362SOL     OW15547   3.564   0.277  10.693  0.0921 -0.1869  0.2941
 1362SOL    HW115548   3.553   0.365  10.727 -0.4469 -0.1530  0.0298
 1362SOL    HW215549   3.607   0.225  10.762 -0.8298  0.7442  1.5662
 1363SOL     OW15550   4.597   4.542   8.064 -0.0124 -0.2121 -0.2636
 1363SOL    HW115551   4.647   4.599   8.006  0.2617  0.5636  0.7327
 1363SOL    HW215552   4.533   4.512   8.000  0.8937  0.4306 -1.4713
 1364SOL     OW15553   2.551   3.999  10.561 -0.2720 -0.5692 -0.5836
 1364SOL    HW115554   2.539   4.087  10.526 -0.8521  0.0664  1.2145
 1364SOL    HW215555   2.645   3.981  10.555 -0.6617 -2.0664 -2.0731
 1365SOL     OW15556   3.233   3.271  17.626 -0.2546  0.0611 -0.3709
 1365SOL    HW115557   3.324   3.242  17.628 -0.3278 -0.1756 -0.5124
 1365SOL    HW215558   3.224   3.282  17.531  0.6525  1.2397 -0.3249
 1366SOL     OW15559   4.408   0.899   9.852 -0.7549 -0.1770 -0.1607
 1366SOL    HW115560   4.319   0.866   9.860 -1.3163  1.1564 -0.8672
 1366SOL    HW215561   4.457   0.817   9.846 -0.0768  0.2018  0.2474
 1367SOL     OW15562   0.632   3.192   9.039  0.2976 -0.1751 -0.2591
 1367SOL    HW115563   0.706   3.180   8.980 -0.1680 -2.1254 -0.4606
 1367SOL    HW215564   0.656   3.124   9.102  1.9263  0.7212  0.0856
 1368SOL     OW15565   3.988   2.704   3.668  0.3649 -0.3090 -0.0124
 1368SOL    HW115566   3.995   2.663   3.754 -2.6469  0.2599  0.4903
 1368SOL    HW215567   4.041   2.784   3.674 -1.0344  0.6551 -0.5242
 1369SOL     OW15568   0.932   0.146   6.544  0.0304  0.5690  0.1720
 1369SOL    HW115569   0.950   0.125   6.452 -0.3145  0.8981  0.0270
 1369SOL    HW215570   0.954   0.065   6.590  0.6659  0.3169 -0.5754
 1370SOL     OW15571   0.386   1.696   1.813 -0.7916  0.0409 -0.0003
 1370SOL    HW115572   0.414   1.752   1.740  0.2018 -1.4112 -0.7180
 1370SOL    HW215573   0.438   1.742   1.879 -0.5244 -0.7943  0.3743
 1371SOL     OW15574   3.964   4.435   6.651 -0.4143 -0.5831 -0.1106
 1371SOL    HW115575   3.939   4.349   6.619  1.5535 -0.2279 -2.6334
 1371SOL    HW215576   3.983   4.404   6.740 -1.1432  0.1583  0.3106
 1372SOL     OW15577   4.106   0.490  12.752 -0.1941 -0.3393 -0.0619
 1372SOL    HW115578   4.014   0.467  12.735 -0.5347  0.8362  0.1688
 1372SOL    HW215579   4.112   0.585  12.756 -2.0774 -0.1522 -1.4190
 1373SOL     OW15580   4.640   3.663   7.106  0.2724 -0.8412 -0.1060
 1373SOL    HW115581   4.649   3.677   7.201  2.5567  0.7763 -0.5718
 1373SOL    HW215582   4.545   3.666   7.099  0.1439  0.5329  2.0958
 1374SOL     OW15583   0.419   4.354   8.885 -0.2292 -0.3932 -0.5593
 1374SOL    HW115584   0.400   4.401   8.967 -1.6194  1.9451 -2.2098
 1374SOL    HW215585   0.412   4.424   8.820  0.2559  1.4140  1.3232
 1375SOL     OW15586   2.185   1.218   5.906  0.0437  0.0456  0.3899
 1375SOL    HW115587   2.230   1.295   5.941  2.3226 -1.7504  1.3900
 1375SOL    HW215588   2.129   1.197   5.980  0.4487  0.1199  0.7183
 1376SOL     OW15589   4.390   3.328  14.670  0.3666 -0.4113  0.4125
 1376SOL    HW115590   4.327   3.398  14.654 -0.6049 -2.1997 -3.5661
 1376SOL    HW215591   4.475   3.370  14.681  0.5875 -0.7446 -0.0093
 1377SOL     OW15592   3.778   4.095   0.750 -0.8837 -0.2345  0.2134
 1377SOL    HW115593   3.779   4.000   0.766 -0.8784 -0.1227  0.8831
 1377SOL    HW215594   3.855   4.120   0.800 -0.2269 -1.7076 -0.0580
 1378SOL     OW15595   2.817   3.883  12.791 -0.5574 -0.3730  0.3374
 1378SOL    HW115596   2.812   3.837  12.875  0.8416 -0.2527  0.4797
 1378SOL    HW215597   2.901   3.858  12.753  0.2715  1.0041  1.2725
 1379SOL     OW15598   2.878   4.591   4.287  0.8581 -0.0801 -0.2128
 1379SOL    HW115599   2.965   4.629   4.298 -0.0231  1.7690  0.4183
 1379SOL    HW215600   2.875   4.568   4.194  0.9206 -1.0711  0.0302
 1380SOL     OW15601   2.051   0.523   1.201 -0.5372 -0.2718 -0.0847
 1380SOL    HW115602   2.036   0.433   1.171  2.0285 -1.2076  1.4496
 1380SOL    HW215603   2.142   0.540   1.174 -0.2102  1.3579  2.0050
 1381SOL     OW15604   1.694   1.943   9.692  0.2151 -0.4027 -0.1817
 1381SOL    HW115605   1.707   1.932   9.787  0.8720  2.9068  0.0934
 1381SOL    HW215606   1.627   1.874   9.689 -0.1188 -0.0620 -0.5732
 1382SOL     OW15607   1.245   2.568   8.813 -0.5885  0.1397  0.7948
 1382SOL    HW115608   1.237   2.647   8.759  0.8462 -1.4100 -1.7342
 1382SOL    HW215609   1.163   2.521   8.798  0.6673 -1.3141 -1.5951
 1383SOL     OW15610   2.954   3.822   4.230 -0.0247  0.1061 -0.0142
 1383SOL    HW115611   2.952   3.738   4.276  1.3422 -1.3130 -2.5300
 1383SOL    HW215612   2.917   3.885   4.292 -2.0018 -2.0654  0.9904
 1384SOL     OW15613   0.120   1.911   6.039  0.1341 -0.0378  0.0138
 1384SOL    HW115614   0.081   1.927   5.953  1.8496 -1.8661 -1.0777
 1384SOL    HW215615   0.066   1.839   6.071 -0.2043 -0.2610 -1.0491
 1385SOL     OW15616   3.245   3.100   8.262 -0.0858  0.2271  0.0677
 1385SOL    HW115617   3.286   3.049   8.332 -0.6084 -2.2041 -1.3920
 1385SOL    HW215618   3.253   3.189   8.297 -2.0152  0.9265 -1.2814
 1386SOL     OW15619   2.103   0.369   3.253  0.3049  0.6063 -0.6046
 1386SOL    HW115620   2.033   0.313   3.287  0.5367  0.7474  0.1001
 1386SOL    HW215621   2.184   0.321   3.267 -0.2360  0.2529  1.3218
 1387SOL     OW15622   2.400   0.727   2.300  0.3813  0.3642  0.3770
 1387SOL    HW115623   2.461   0.797   2.277 -0.0053  0.2422 -1.0756
 1387SOL    HW215624   2.418   0.662   2.232  0.1766  2.3135 -1.5353
 1388SOL     OW15625   1.405   1.042   2.662 -0.0237 -0.1371  0.1170
 1388SOL    HW115626   1.367   1.100   2.595  2.4480  0.1393 -1.0345
 1388SOL    HW215627   1.400   0.967   2.602  0.1688 -0.1702  0.1437
 1389SOL     OW15628   2.935   3.029   5.359  0.2235 -0.2403  0.1271
 1389SOL    HW115629   2.907   3.081   5.284 -1.7742 -3.7883 -1.5816
 1389SOL    HW215630   3.009   3.085   5.386  0.5836 -0.5860 -0.1410
 1390SOL     OW15631   3.114   0.728   2.492 -0.2823  0.5010 -0.0198
 1390SOL    HW115632   3.203   0.699   2.515 -0.0555  0.2433 -1.2216
 1390SOL    HW215633   3.115   0.721   2.397 -0.7155 -1.6472  0.1203
 1391SOL     OW15634   2.334   2.846   6.003  0.7496  0.3262 -0.0035
 1391SOL    HW115635   2.367   2.805   5.923 -1.9371  0.9704 -1.4510
 1391SOL    HW215636   2.279   2.919   5.972  0.6955  0.4959  0.4982
 1392SOL     OW15637   3.261   3.941  15.686 -0.3442  0.1362  0.7712
 1392SOL    HW115638   3.319   3.866  15.701  0.6767  0.4564 -1.6211
 1392SOL    HW215639   3.271   3.983  15.771  0.4933 -0.1873  0.8341
 1393SOL     OW15640   3.756   2.205  12.963 -0.0684 -0.6599 -0.1562
 1393SOL    HW115641   3.699   2.146  13.013  0.8051 -2.1347 -0.9019
 1393SOL    HW215642   3.837   2.154  12.964 -1.1879 -2.4390 -0.1000
 1394SOL     OW15643   1.224   4.372  12.197 -0.0072 -0.2969  0.2064
 1394SOL    HW115644   1.292   4.363  12.263  0.4541  2.5001  0.1267
 1394SOL    HW215645   1.242   4.309  12.127  0.3635  0.9739 -0.8348
 1395SOL     OW15646   2.063   1.105   2.657  0.1407  0.3983 -0.9181
 1395SOL    HW115647   2.069   1.011   2.641  0.2489  0.8155 -3.3555
 1395SOL    HW215648   1.973   1.133   2.641 -0.2692  0.5531  1.7893
 1396SOL     OW15649   3.038   0.909   5.932 -0.1242 -0.8742 -0.1214
 1396SOL    HW115650   2.954   0.873   5.961  0.4798 -1.2081  1.2081
 1396SOL    HW215651   3.078   0.826   5.910  3.2996  1.0887 -1.2359
 1397SOL     OW15652   1.207   0.444   1.440 -0.0595  0.1060 -0.5893
 1397SOL    HW115653   1.240   0.391   1.513  1.4087  1.0826 -0.5437
 1397SOL    HW215654   1.246   0.401   1.364 -0.4084  2.1830 -1.9351
 1398SOL     OW15655   4.491   1.350   3.761 -0.1762  0.0238  0.4933
 1398SOL    HW115656   4.426   1.298   3.808 -2.7942  1.3912 -1.6087
 1398SOL    HW215657   4.468   1.327   3.671 -3.0394 -1.5024  1.6086
 1399SOL     OW15658   1.380   1.423  10.163  0.1222  0.0728 -0.3622
 1399SOL    HW115659   1.383   1.374  10.081  0.4429 -0.1064 -0.2464
 1399SOL    HW215660   1.307   1.380  10.208 -0.9215  3.0889  0.8058
 1400SOL     OW15661   4.637   1.343  15.996  1.2230  0.4398 -0.5003
 1400SOL    HW115662   4.601   1.282  15.932  0.3807 -0.6909  1.0486
 1400SOL    HW215663   4.635   1.291  16.076  1.0530 -0.9871 -1.4333
 1401SOL     OW15664   0.486   3.982  17.595 -0.0072 -0.4015  0.0560
 1401SOL    HW115665   0.411   4.006  17.540  0.1886 -0.2970 -0.1670
 1401SOL    HW215666   0.543   4.059  17.591  2.2630 -2.1453 -1.0841
 1402SOL     OW15667   2.792   3.907  11.716 -0.1985 -0.3269 -0.0410
 1402SOL    HW115668   2.768   3.843  11.783 -0.3115  0.1279  0.3475
 1402SOL    HW215669   2.839   3.972  11.768 -3.6854  1.9082  0.3192
 1403SOL     OW15670   0.548   0.735   8.635  0.0572  0.7078  0.3594
 1403SOL    HW115671   0.613   0.670   8.609  0.0517 -0.2101  2.6707
 1403SOL    HW215672   0.552   0.750   8.729  0.1444  0.1430  0.4400
 1404SOL     OW15673   2.067   1.724   7.830 -0.3934  0.5930  0.1788
 1404SOL    HW115674   2.122   1.800   7.848  0.4393  0.1907 -0.6588
 1404SOL    HW215675   1.982   1.769   7.824 -1.7573 -2.2216 -1.6984
 1405SOL     OW15676   1.141   1.397   8.897  0.1213  0.0307 -0.3988
 1405SOL    HW115677   1.169   1.399   8.989  0.5324  1.0815 -0.5495
 1405SOL    HW215678   1.090   1.477   8.887 -0.1532 -0.5332 -3.4907
 1406SOL     OW15679   1.307   0.650   8.184  0.3964  0.1027  0.6036
 1406SOL    HW115680   1.349   0.728   8.148 -0.8197  0.9511  1.0393
 1406SOL    HW215681   1.378   0.608   8.233  0.7777  1.0256  0.8380
 1407SOL     OW15682   1.269   3.506   5.004 -0.4657 -0.5659  0.2480
 1407SOL    HW115683   1.269   3.416   4.974  1.2581 -0.6681  0.6025
 1407SOL    HW215684   1.206   3.491   5.075  0.4664 -0.7929  1.0293
 1408SOL     OW15685   4.367   1.081   0.805  0.1465 -0.3136  0.0261
 1408SOL    HW115686   4.347   1.151   0.743  0.0022 -0.0339  0.3886
 1408SOL    HW215687   4.457   1.064   0.779 -0.0431 -1.8514  0.3363
 1409SOL     OW15688   3.468   1.840   7.797 -0.7028 -0.3130 -0.2282
 1409SOL    HW115689   3.553   1.845   7.841 -1.1924 -1.4072  0.8336
 1409SOL    HW215690   3.445   1.933   7.795  1.9072  0.4042  2.3303
 1410SOL     OW15691   1.739   0.112   4.486  0.3060  0.3589  0.3082
 1410SOL    HW115692   1.779   0.198   4.497  3.3106 -1.0732  0.5415
 1410SOL    HW215693   1.810   0.051   4.467 -0.3914 -0.5830  0.6889
 1411SOL     OW15694   0.511   1.854  13.817 -0.9545  0.0998  0.3387
 1411SOL    HW115695   0.463   1.896  13.888 -0.8787  0.1912  0.3350
 1411SOL    HW215696   0.460   1.774  13.803 -0.6526  0.1814 -1.2637
 1412SOL     OW15697   4.115   3.849   9.668  0.2938  0.4449  0.0397
 1412SOL    HW115698   4.042   3.868   9.727 -1.4065 -0.4722 -1.8054
 1412SOL    HW215699   4.176   3.822   9.737 -0.7753 -0.8984  0.4658
 1413SOL     OW15700   4.100   2.625  12.331 -0.3127  0.2857  0.8011
 1413SOL    HW115701   4.053   2.694  12.285 -1.7347  0.9589  3.2415
 1413SOL    HW215702   4.044   2.598  12.404 -0.3140  0.6758  0.9453
 1414SOL     OW15703   1.306   2.840  14.158 -0.3874  0.7996  0.6426
 1414SOL    HW115704   1.380   2.786  14.185  1.3836  2.5762 -0.6785
 1414SOL    HW215705   1.344   2.885  14.082 -0.4509  1.6544  1.1132
 1415SOL     OW15706   4.380   3.803   8.558 -0.2094 -0.5583  0.0084
 1415SOL    HW115707   4.450   3.778   8.618  0.5474  0.7772 -0.3080
 1415SOL    HW215708   4.309   3.774   8.615 -0.6929  2.6622  1.0546
 1416SOL     OW15709   0.263   4.537   3.023 -0.1329  0.4398 -0.0317
 1416SOL    HW115710   0.266   4.614   2.966 -0.2889 -0.1345 -0.8075
 1416SOL    HW215711   0.336   4.480   3.000  1.5968  1.5182  2.7430
 1417SOL     OW15712   1.699   2.598   1.651  0.1367  0.2111 -0.0861
 1417SOL    HW115713   1.649   2.677   1.630 -0.0882  0.0986  0.0378
 1417SOL    HW215714   1.786   2.639   1.658 -0.2157  1.5599 -3.2147
 1418SOL     OW15715   0.595   0.411   0.509  0.0652  0.5319  0.6367
 1418SOL    HW115716   0.541   0.466   0.453  2.8555  1.7048 -0.9394
 1418SOL    HW215717   0.675   0.463   0.502  0.6314 -0.2716  1.1021
 1419SOL     OW15718   3.283   3.343  12.105  0.2839 -0.6918 -0.0789
 1419SOL    HW115719   3.325   3.318  12.188 -2.8553  0.5080  1.8844
 1419SOL    HW215720   3.340   3.299  12.042 -0.7515 -3.7794  1.1457
 1420SOL     OW15721   1.120   3.377   1.846 -0.3886  0.1562  0.6342
 1420SOL    HW115722   1.043   3.371   1.790 -1.4763  0.5261  2.1021
 1420SOL    HW215723   1.089   3.426   1.922 -0.9340  1.7192 -0.5888
 1421SOL     OW15724   1.322   4.704   7.967  0.3802 -0.1919 -0.0605
 1421SOL    HW115725   1.331   0.012   7.877 -3.0428  2.8587  0.6624
 1421SOL    HW215726   1.373   4.623   7.974 -0.9870 -1.2141 -2.0882
 1422SOL     OW15727   1.935   0.368   9.581 -0.2711 -0.1206  0.1718
 1422SOL    HW115728   1.988   0.447   9.573  1.4969 -1.2369  1.0116
 1422SOL    HW215729   1.860   0.392   9.636  0.7668 -1.8065  2.3129
 1423SOL     OW15730   2.149   0.548   9.555  0.4016  0.1572  0.0492
 1423SOL    HW115731   2.128   0.554   9.462 -1.2196  0.2890  0.4142
 1423SOL    HW215732   2.175   0.639   9.568 -0.2041  0.4690 -0.8698
 1424SOL     OW15733   1.894   3.326   4.953 -0.7642 -0.3633  0.1933
 1424SOL    HW115734   1.938   3.334   5.038 -0.4913 -2.4336  0.2505
 1424SOL    HW215735   1.907   3.414   4.917  1.5102 -0.5498  0.5086
 1425SOL     OW15736   2.317   0.146   1.951  0.4476 -0.3125  0.5471
 1425SOL    HW115737   2.240   0.203   1.962  1.7077  1.7872 -1.5112
 1425SOL    HW215738   2.268   0.064   1.942 -0.1084  0.2672 -1.8928
 1426SOL     OW15739   0.502   0.313   3.418 -0.3520 -0.6334  0.3242
 1426SOL    HW115740   0.462   0.387   3.373  2.1990  0.0583 -0.8075
 1426SOL    HW215741   0.465   0.246   3.360 -0.4041  0.2203 -0.6329
 1427SOL     OW15742   1.810   1.058   8.593 -0.7797 -0.2642  0.6645
 1427SOL    HW115743   1.830   0.991   8.658  1.3282 -0.4785 -0.1834
 1427SOL    HW215744   1.888   1.114   8.587 -1.2430  0.2821 -0.3816
 1428SOL     OW15745   2.235   3.463   3.569 -0.3350 -0.8182 -0.3186
 1428SOL    HW115746   2.280   3.545   3.547  0.0730 -0.5490  1.4480
 1428SOL    HW215747   2.279   3.387   3.532  1.4643  0.5863 -1.0731
 1429SOL     OW15748   2.527   1.071   5.793  0.2511  0.2530 -0.7192
 1429SOL    HW115749   2.544   1.164   5.777 -1.4601  1.0209  1.8531
 1429SOL    HW215750   2.600   1.055   5.852  0.7423  0.8993 -1.1492
 1430SOL     OW15751   1.826   1.915   0.555  0.5091 -0.2302  0.0878
 1430SOL    HW115752   1.885   1.869   0.615 -0.8370 -0.2386  1.4157
 1430SOL    HW215753   1.842   2.009   0.563  0.3138  0.1001 -3.8316
 1431SOL     OW15754   1.022   0.875   1.815  0.4357 -0.0954 -0.5359
 1431SOL    HW115755   1.030   0.824   1.734  1.5933 -2.9650  1.3850
 1431SOL    HW215756   0.947   0.930   1.795  2.5294  2.0953 -2.3087
 1432SOL     OW15757   3.694   0.549  11.469  0.3904  0.0986  0.6734
 1432SOL    HW115758   3.778   0.505  11.479 -0.3344 -1.3573  0.3052
 1432SOL    HW215759   3.685   0.596  11.386  1.1750  0.2536  0.6827
 1433SOL     OW15760   3.753   4.602   4.115 -0.0348 -0.2585  0.8437
 1433SOL    HW115761   3.696   4.573   4.187 -1.8022  0.4024 -0.2857
 1433SOL    HW215762   3.745   4.528   4.056  0.8267 -0.2879  0.7633
 1434SOL     OW15763   1.526   1.543   4.039 -0.1300  0.9086  0.1380
 1434SOL    HW115764   1.495   1.459   4.003 -0.4504  0.7304  0.8288
 1434SOL    HW215765   1.449   1.600   4.042 -0.1024  0.9134  0.6648
 1435SOL     OW15766   3.510   4.622   6.859 -0.1394 -0.3095 -0.2727
 1435SOL    HW115767   3.522   4.552   6.796  0.7645  0.6767 -1.1864
 1435SOL    HW215768   3.594   4.642   6.902 -1.0520 -0.0784  1.4115
 1436SOL     OW15769   3.707   2.410  13.852 -0.1385  0.2764  0.4164
 1436SOL    HW115770   3.778   2.356  13.887  0.2681  0.0894 -0.7105
 1436SOL    HW215771   3.642   2.419  13.921 -1.2092 -0.7092 -0.4779
 1437SOL     OW15772   2.085   2.294  14.773 -0.3370 -0.1346  0.4850
 1437SOL    HW115773   2.153   2.359  14.788 -3.2573  3.3782 -1.5794
 1437SOL    HW215774   2.040   2.296  14.857 -0.3570  1.7689  0.4129
 1438SOL     OW15775   2.135   4.437   5.207 -0.0185  0.9158 -0.0358
 1438SOL    HW115776   2.146   4.374   5.279  0.4952  4.2958  2.8779
 1438SOL    HW215777   2.214   4.484   5.233  2.3336 -1.4113 -3.0577
 1439SOL     OW15778   1.820   2.229   1.123  0.1168 -0.0829  0.3696
 1439SOL    HW115779   1.851   2.319   1.130 -1.6146  0.7322 -2.3096
 1439SOL    HW215780   1.837   2.207   1.214 -2.8163 -0.2037  0.8944
 1440SOL     OW15781   3.908   1.100   7.645  0.0520 -0.0018  0.2300
 1440SOL    HW115782   3.830   1.097   7.700  0.0287 -1.6667  0.0940
 1440SOL    HW215783   3.876   1.123   7.558  1.0775  2.4859  0.4821
 1441SOL     OW15784   1.707   0.382   1.191 -0.0801  0.3570 -0.2841
 1441SOL    HW115785   1.792   0.345   1.169 -0.3536 -0.9481  0.8877
 1441SOL    HW215786   1.646   0.312   1.167  0.3865 -0.0631 -0.2259
 1442SOL     OW15787   1.000   1.038   3.053  0.6936  0.0845  0.6092
 1442SOL    HW115788   0.979   1.084   3.134  1.4813  1.7879 -0.1387
 1442SOL    HW215789   0.924   1.054   2.995  0.6620 -0.1513  0.5852
 1443SOL     OW15790   1.634   0.568   5.702 -0.4397  0.0684  1.3056
 1443SOL    HW115791   1.726   0.548   5.685 -0.4917  1.8236 -1.1664
 1443SOL    HW215792   1.640   0.654   5.744 -1.0322  0.4177  0.6875
 1444SOL     OW15793   1.248   3.076   8.425  0.0518 -0.1781  0.4771
 1444SOL    HW115794   1.156   3.060   8.447  0.5760 -1.8722  1.3895
 1444SOL    HW215795   1.280   3.075   8.515 -2.1548  0.2666  1.2659
 1445SOL     OW15796   1.289   0.404   6.796  0.5127 -0.4007  0.0412
 1445SOL    HW115797   1.205   0.393   6.842  0.7383  1.0134  0.7615
 1445SOL    HW215798   1.262   0.486   6.755  0.7313 -0.6100 -0.5136
 1446SOL     OW15799   3.108   1.026   6.909 -0.4554  0.1739 -0.0494
 1446SOL    HW115800   3.198   1.031   6.942 -0.8321 -0.6712  1.1036
 1446SOL    HW215801   3.062   0.997   6.987 -0.3955 -1.5576 -0.6623
 1447SOL     OW15802   0.708   0.378  12.942 -0.6812  0.3478  0.1109
 1447SOL    HW115803   0.713   0.457  12.889  1.4998  1.2996  1.7328
 1447SOL    HW215804   0.618   0.388  12.974 -1.2697  0.7119 -1.6339
 1448SOL     OW15805   0.562   3.462   6.550  0.0530  0.8180 -0.2620
 1448SOL    HW115806   0.497   3.530   6.531 -3.7900 -2.9776 -0.5162
 1448SOL    HW215807   0.640   3.517   6.561  1.4092 -0.9898 -0.8915
 1449SOL     OW15808   4.356   3.612   0.276 -0.3968  0.2989 -0.4862
 1449SOL    HW115809   4.314   3.529   0.299 -3.4758  1.0962 -3.1946
 1449SOL    HW215810   4.336   3.605   0.182  2.4349 -1.3487 -0.9557
 1450SOL     OW15811   0.888   3.837  15.142  0.5361 -0.2125 -0.3390
 1450SOL    HW115812   0.879   3.920  15.095  0.2736  0.3458  0.6944
 1450SOL    HW215813   0.966   3.851  15.195  0.4440 -1.1977  0.0540
 1451SOL     OW15814   0.273   2.267   7.537  0.5937  1.0678  0.4686
 1451SOL    HW115815   0.277   2.361   7.520 -0.1807  0.9293 -0.4842
 1451SOL    HW215816   0.300   2.273   7.629  1.8697  0.9906  0.1021
 1452SOL     OW15817   2.794   4.345   7.437 -0.4229  0.2356  0.0343
 1452SOL    HW115818   2.851   4.278   7.398  2.0383  0.1236  3.8300
 1452SOL    HW215819   2.719   4.289   7.454  0.3595  0.0401  2.9022
 1453SOL     OW15820   2.868   2.859   5.134  0.1447  0.7800 -1.0665
 1453SOL    HW115821   2.904   2.878   5.220  1.6728 -2.8822 -0.9329
 1453SOL    HW215822   2.786   2.910   5.136 -1.1813 -1.3535 -1.1899
 1454SOL     OW15823   3.097   1.557   1.889  0.5268 -0.5422  0.3394
 1454SOL    HW115824   3.150   1.574   1.966  0.8950  2.1122 -0.4964
 1454SOL    HW215825   3.064   1.468   1.905  1.3737 -0.9870 -0.4306
 1455SOL     OW15826   1.534   4.616   1.470 -0.1512 -0.3671 -0.0753
 1455SOL    HW115827   1.460   4.677   1.477 -0.5136 -1.1117  2.6129
 1455SOL    HW215828   1.501   4.548   1.529  1.2631 -0.9938 -0.0173
 1456SOL     OW15829   3.563   0.750  13.145 -0.9016  0.1353 -0.2309
 1456SOL    HW115830   3.524   0.744  13.232  1.7110 -0.7551  0.8865
 1456SOL    HW215831   3.647   0.791  13.164 -1.1162  0.3309  0.2839
 1457SOL     OW15832   1.987   1.612   3.913 -0.2424 -0.4876 -0.5838
 1457SOL    HW115833   1.896   1.626   3.884 -0.0065  1.2188 -0.5075
 1457SOL    HW215834   1.965   1.534   3.963  3.0759 -0.3041  1.1189
 1458SOL     OW15835   1.959   4.061   0.250 -0.6317 -0.0304  0.0326
 1458SOL    HW115836   2.028   4.099   0.306  0.2964 -0.3913 -0.8592
 1458SOL    HW215837   1.918   4.006   0.317  1.5377 -1.0923  0.5053
 1459SOL     OW15838   1.763   3.832   6.589 -0.5801  0.5002  0.0664
 1459SOL    HW115839   1.738   3.808   6.500  0.9991  0.9969 -0.5076
 1459SOL    HW215840   1.689   3.882   6.622  0.7204  2.3592  0.1290
 1460SOL     OW15841   0.218   0.003   2.829  0.1801  0.3598 -0.2985
 1460SOL    HW115842   0.148   4.677   2.786  0.8155  0.2157 -1.1818
 1460SOL    HW215843   0.278   0.011   2.755 -2.5310  2.9583 -2.1925
 1461SOL     OW15844   3.202   1.152  10.774  0.0494 -0.2864 -0.8463
 1461SOL    HW115845   3.199   1.220  10.841  0.0348 -0.4843 -0.6478
 1461SOL    HW215846   3.108   1.140  10.759  0.2821 -1.0037 -1.7476
 1462SOL     OW15847   3.523   2.028   3.157  0.3085  0.3929  0.1148
 1462SOL    HW115848   3.511   1.954   3.097 -1.4119 -0.3377  1.3843
 1462SOL    HW215849   3.498   1.990   3.241  0.4505  1.1675  0.5102
 1463SOL     OW15850   2.282   4.516   2.244  0.6408  0.3113  0.1887
 1463SOL    HW115851   2.189   4.540   2.239  0.3975 -1.0052 -1.7898
 1463SOL    HW215852   2.303   4.502   2.151 -1.2597  3.2578 -0.6876
 1464SOL     OW15853   1.738   1.315   4.110 -0.1411  0.1794 -0.9999
 1464SOL    HW115854   1.694   1.318   4.025  0.6470 -4.4753 -1.5711
 1464SOL    HW215855   1.814   1.258   4.097  1.1649  0.8894  3.4568
 1465SOL     OW15856   1.582   4.132  10.752 -0.2389  0.2960  0.4975
 1465SOL    HW115857   1.625   4.188  10.816  0.3729 -1.6233  1.7595
 1465SOL    HW215858   1.556   4.202  10.691  3.6479  1.0580 -0.2890
 1466SOL     OW15859   3.092   2.012   2.594 -0.3532 -0.6321 -0.3024
 1466SOL    HW115860   3.149   2.088   2.581 -2.5754  1.1417  0.3860
 1466SOL    HW215861   3.077   1.986   2.503  0.6500  0.8594 -0.8854
 1467SOL     OW15862   2.773   1.583   5.701 -0.0419  0.8182  0.4051
 1467SOL    HW115863   2.848   1.615   5.751  0.4107  0.5149 -0.0746
 1467SOL    HW215864   2.706   1.588   5.769  0.2044  1.6902  0.5926
 1468SOL     OW15865   4.394   0.416   8.313 -0.4791  0.0478  0.3266
 1468SOL    HW115866   4.393   0.505   8.279 -0.3656 -0.8844 -2.1216
 1468SOL    HW215867   4.385   0.426   8.408 -1.7295  1.0117  0.1060
 1469SOL     OW15868   2.354   2.897   7.244  0.0011  0.1524 -0.6401
 1469SOL    HW115869   2.442   2.906   7.206  0.8770 -1.9883  0.9101
 1469SOL    HW215870   2.375   2.846   7.322 -1.9645  1.1219  0.5058
 1470SOL     OW15871   2.628   2.277   3.767 -0.2881 -0.2253 -0.5967
 1470SOL    HW115872   2.560   2.231   3.816  0.0631 -1.5750 -1.3898
 1470SOL    HW215873   2.600   2.243   3.682 -2.2791  0.0079 -0.0195
 1471SOL     OW15874   4.524   3.864   2.411 -0.2771 -1.1076 -0.1099
 1471SOL    HW115875   4.582   3.903   2.476  0.2998  0.9733 -1.8977
 1471SOL    HW215876   4.556   3.774   2.416  0.9302 -0.5424  2.4817
 1472SOL     OW15877   0.388   4.433   6.790  0.3978 -0.2565  0.1691
 1472SOL    HW115878   0.433   4.392   6.715 -0.3626 -2.4695  0.9082
 1472SOL    HW215879   0.385   4.359   6.850  0.3830 -1.4536 -1.2813
 1473SOL     OW15880   2.432   2.095   2.402 -0.1690 -0.1848 -0.1172
 1473SOL    HW115881   2.456   2.186   2.420 -0.9647 -0.1395  0.7258
 1473SOL    HW215882   2.338   2.094   2.417 -0.2505 -0.2401 -0.6459
 1474SOL     OW15883   1.679   2.294   2.049 -0.4242 -0.2907  0.4126
 1474SOL    HW115884   1.708   2.205   2.029 -1.6912 -0.5566 -0.2640
 1474SOL    HW215885   1.671   2.279   2.143  0.7755 -1.9180  0.2379
 1475SOL     OW15886   3.854   0.132   5.220  0.1447 -0.4051  0.4176
 1475SOL    HW115887   3.792   0.163   5.287 -0.0317  0.0986  0.0164
 1475SOL    HW215888   3.904   0.071   5.274 -0.6845 -1.1315  0.3709
 1476SOL     OW15889   3.672   1.654   1.758 -0.3899  0.0089  0.2997
 1476SOL    HW115890   3.580   1.632   1.744 -0.9304  2.2812  0.3396
 1476SOL    HW215891   3.724   1.629   1.681 -0.3710 -0.1076  0.3511
 1477SOL     OW15892   3.725   2.726   5.290 -0.0626  0.2249 -0.2556
 1477SOL    HW115893   3.691   2.652   5.340  0.9213 -1.2005 -1.6857
 1477SOL    HW215894   3.678   2.695   5.212 -1.7116 -0.7674  1.1309
 1478SOL     OW15895   4.512   2.790   5.966  0.2812  0.2875  1.1862
 1478SOL    HW115896   4.606   2.797   5.985  0.6974  0.8236 -1.0902
 1478SOL    HW215897   4.487   2.698   5.961 -0.8536  0.6538  0.3716
 1479SOL     OW15898   4.673   0.129   5.957 -0.0910 -0.1009  0.7132
 1479SOL    HW115899   0.022   0.092   5.906 -1.0405 -0.6165 -0.2442
 1479SOL    HW215900   4.654   0.069   6.029  1.0672 -1.5339 -0.1592
 1480SOL     OW15901   4.558   3.077   2.371 -0.0633 -0.2229 -0.5379
 1480SOL    HW115902   4.542   2.988   2.403 -0.7860 -0.1438 -0.6818
 1480SOL    HW215903   4.617   3.058   2.298  3.3606  1.1695  1.8321
 1481SOL     OW15904   0.542   0.461  15.943 -0.3310 -0.0466 -0.0934
 1481SOL    HW115905   0.545   0.405  16.021 -0.4405  1.0610  0.7022
 1481SOL    HW215906   0.625   0.428  15.908 -0.8353 -2.6643  1.1852
 1482SOL     OW15907   1.105   2.578   7.394  0.1456 -0.2363  0.0111
 1482SOL    HW115908   1.163   2.604   7.466 -0.5164 -0.9326  0.7981
 1482SOL    HW215909   1.117   2.652   7.335  0.5955  1.0338  1.6745
 1483SOL     OW15910   4.646   1.577   5.541 -0.1464  0.7076 -0.2539
 1483SOL    HW115911   4.697   1.497   5.533 -2.4431 -0.9633  1.8744
 1483SOL    HW215912   4.659   1.622   5.457 -2.9517 -0.9549 -1.5637
 1484SOL     OW15913   2.614   0.930   2.680 -0.6965  0.2882 -0.2304
 1484SOL    HW115914   2.658   0.944   2.596 -0.9521 -0.9429 -0.5751
 1484SOL    HW215915   2.535   0.885   2.650  0.6339 -1.0520 -1.7841
 1485SOL     OW15916   2.076   0.014   6.448 -0.5452 -0.3530  0.2778
 1485SOL    HW115917   2.128   0.041   6.524 -1.0619  3.0682 -0.5576
 1485SOL    HW215918   2.137   4.684   6.398 -0.2322  0.9006 -0.6859
 1486SOL     OW15919   3.414   3.023   1.989  0.2976  0.5029  0.9080
 1486SOL    HW115920   3.487   3.082   2.007 -1.2915  2.7823 -0.1949
 1486SOL    HW215921   3.471   2.959   1.947 -1.1978  0.9462 -1.7765
 1487SOL     OW15922   0.518   4.613   4.567 -0.2694  0.0365  0.0523
 1487SOL    HW115923   0.440   4.641   4.520 -1.2722 -1.3183  0.9382
 1487SOL    HW215924   0.571   4.691   4.586 -0.2450 -0.0171  0.2095
 1488SOL     OW15925   4.074   3.577   3.484  0.1380  0.3533  0.1368
 1488SOL    HW115926   4.158   3.617   3.509  0.7702 -1.5272  0.9938
 1488SOL    HW215927   4.031   3.639   3.425 -1.6252 -0.9522  0.0645
 1489SOL     OW15928   1.263   2.849  14.838 -0.6363 -0.4968  0.0407
 1489SOL    HW115929   1.224   2.805  14.914 -1.5404  1.1822  0.5455
 1489SOL    HW215930   1.286   2.778  14.778 -0.4629  0.2899 -0.8301
 1490SOL     OW15931   2.840   4.081   4.270 -0.1150  0.2131  0.2316
 1490SOL    HW115932   2.781   4.071   4.195  1.2551 -0.0767 -0.8172
 1490SOL    HW215933   2.780   4.100   4.342  0.1298  1.2913  0.1512
 1491SOL     OW15934   2.979   4.458  13.134 -0.1297 -0.3414  0.5156
 1491SOL    HW115935   2.911   4.429  13.073 -1.2486  0.7139  1.2590
 1491SOL    HW215936   3.045   4.389  13.129 -0.7574 -0.9229  0.2161
 1492SOL     OW15937   1.046   4.152   2.239  0.3313  0.2191 -0.7565
 1492SOL    HW115938   1.051   4.059   2.261  1.3470  1.1780  3.1350
 1492SOL    HW215939   1.114   4.151   2.172 -0.0136  3.1409 -1.1299
 1493SOL     OW15940   0.819   4.125   2.468  0.2385 -0.0596 -0.0357
 1493SOL    HW115941   0.905   4.103   2.432  0.9766 -0.4879  2.0079
 1493SOL    HW215942   0.772   4.136   2.385 -1.6970  0.9884  1.2030
 1494SOL     OW15943   3.096   4.203  15.471  0.4603  0.3644 -0.8368
 1494SOL    HW115944   3.168   4.264  15.454  0.4964  0.2880 -0.9574
 1494SOL    HW215945   3.041   4.246  15.536 -0.4977 -1.1076 -0.6837
 1495SOL     OW15946   0.850   4.608  12.263 -0.2494 -0.4364  0.3312
 1495SOL    HW115947   0.777   4.639  12.317  1.0235  3.6657 -0.2438
 1495SOL    HW215948   0.805   4.572  12.187  0.4757  1.1823 -0.8754
 1496SOL     OW15949   2.931   1.632   7.238 -0.3299  0.0846  0.2058
 1496SOL    HW115950   2.914   1.688   7.313  0.0332  2.5602 -1.5553
 1496SOL    HW215951   2.987   1.685   7.181  1.6412 -0.7596  1.3857
 1497SOL     OW15952   3.622   4.306  10.031  0.2917 -0.1896  0.3050
 1497SOL    HW115953   3.637   4.296   9.937  0.4632 -1.6479  0.4904
 1497SOL    HW215954   3.599   4.218  10.060 -0.7015 -0.2982 -0.8195
 1498SOL     OW15955   3.815   3.284   7.234  0.1508  0.1630 -0.0031
 1498SOL    HW115956   3.875   3.265   7.162  0.4222  0.7927  0.0520
 1498SOL    HW215957   3.826   3.201   7.280 -0.8181  0.5497  0.9244
 1499SOL     OW15958   1.855   0.581   7.929 -0.5482 -0.1632  0.1183
 1499SOL    HW115959   1.777   0.526   7.936 -0.1143 -0.7586  0.3500
 1499SOL    HW215960   1.881   0.597   8.020 -0.5797 -1.4155  0.3474
 1500SOL     OW15961   2.862   2.609   1.226  0.8067  0.1131  0.0283
 1500SOL    HW115962   2.920   2.536   1.207  0.8691  0.0795  0.3407
 1500SOL    HW215963   2.841   2.598   1.319  1.1980  0.6942  0.1836
 1501SOL     OW15964   0.736   2.185  16.376 -0.2480  0.0509  0.0359
 1501SOL    HW115965   0.723   2.210  16.467  2.8120 -1.3517  0.8551
 1501SOL    HW215966   0.768   2.095  16.380 -0.8330 -0.0069  2.8573
 1502SOL     OW15967   3.611   0.193   3.998 -0.3061 -0.3386  0.6945
 1502SOL    HW115968   3.650   0.277   4.023 -1.6234  0.2205  0.9177
 1502SOL    HW215969   3.647   0.148   4.075 -0.5826 -1.9896 -0.1461
 1503SOL     OW15970   1.305   4.198   1.460 -0.4168  0.8092  0.2059
 1503SOL    HW115971   1.336   4.280   1.498  0.8833 -0.1283  1.1592
 1503SOL    HW215972   1.318   4.137   1.533  0.1626  1.0400  0.2938
 1504SOL     OW15973   1.322   1.200   2.478  0.1834 -0.3271 -0.1477
 1504SOL    HW115974   1.342   1.147   2.400 -1.3024 -1.5471  0.3110
 1504SOL    HW215975   1.382   1.273   2.466  0.1305 -0.3980 -0.8733
 1505SOL     OW15976   1.010   2.065   8.689  0.5341  0.2889 -0.0586
 1505SOL    HW115977   0.927   2.093   8.730  1.0662  2.0182 -0.1452
 1505SOL    HW215978   0.972   1.992   8.640  0.8177 -1.0018  1.6557
 1506SOL     OW15979   3.544   1.196  10.641 -0.2560 -0.4344  0.4379
 1506SOL    HW115980   3.472   1.177  10.581 -0.9987 -0.4076  1.3139
 1506SOL    HW215981   3.623   1.177  10.591  0.6911  2.5242  0.8336
 1507SOL     OW15982   2.570   1.411   8.417 -0.2664  0.1021  0.3752
 1507SOL    HW115983   2.490   1.448   8.381  0.0156  2.1992  1.9019
 1507SOL    HW215984   2.553   1.316   8.416  0.7620 -0.0482 -3.9946
 1508SOL     OW15985   3.778   2.157  15.404 -0.2490 -0.0379 -0.2361
 1508SOL    HW115986   3.727   2.213  15.345 -0.3260  0.7635  0.5949
 1508SOL    HW215987   3.811   2.216  15.471 -0.2748 -0.7278  0.3915
 1509SOL     OW15988   2.356   2.392  16.948 -0.5306  0.1941 -0.4821
 1509SOL    HW115989   2.425   2.424  17.005 -0.5694  1.2194 -1.0170
 1509SOL    HW215990   2.374   2.298  16.947 -1.3726 -0.0112  3.5731
 1510SOL     OW15991   4.714   1.084   8.648  0.5416  0.5692 -0.4015
 1510SOL    HW115992   4.669   1.167   8.636 -0.7146 -0.0238  0.1597
 1510SOL    HW215993   0.078   1.094   8.609 -0.0306  1.0508 -1.5483
 1511SOL     OW15994   3.835   0.887   2.815  0.1927  0.0184 -0.6592
 1511SOL    HW115995   3.897   0.837   2.762 -0.0377 -1.1028  0.1277
 1511SOL    HW215996   3.846   0.840   2.898 -0.5027 -0.4846 -0.8469
 1512SOL     OW15997   0.127   0.271   2.859  0.1172 -0.3948 -0.7490
 1512SOL    HW115998   0.212   0.312   2.841 -0.0818 -0.4400 -1.7753
 1512SOL    HW215999   0.154   0.180   2.873  1.1941 -0.1808 -1.3909
 1513SOL     OW16000   2.490   1.476  13.892 -0.1462 -0.2300 -0.1815
 1513SOL    HW116001   2.558   1.425  13.936 -0.6060  1.1287  2.0793
 1513SOL    HW216002   2.414   1.421  13.911  0.2019 -1.2905 -1.8070
 1514SOL     OW16003   4.064   0.431   7.338 -0.5577 -0.0741  0.3569
 1514SOL    HW116004   4.039   0.477   7.418 -2.1331  2.9160 -1.8345
 1514SOL    HW216005   4.151   0.398   7.361 -1.6136 -1.8063  1.9136
 1515SOL     OW16006   1.277   0.423  12.434  0.1583 -0.0527 -0.2537
 1515SOL    HW116007   1.233   0.433  12.350 -1.0866  0.8811  0.5070
 1515SOL    HW216008   1.356   0.385  12.396  0.2643 -0.8012  0.7078
 1516SOL     OW16009   0.128   2.808   4.146 -0.5866  0.1895  0.4137
 1516SOL    HW116010   0.038   2.832   4.124 -0.5251 -2.2961 -2.4595
 1516SOL    HW216011   0.160   2.884   4.195  3.4417  0.2167 -2.2662
 1517SOL     OW16012   3.583   1.660  11.455  0.1786  0.3996 -0.1460
 1517SOL    HW116013   3.579   1.564  11.455  2.4166  0.3027 -0.7357
 1517SOL    HW216014   3.649   1.678  11.388  0.4614  0.2608  0.0946
 1518SOL     OW16015   0.555   4.515   7.523 -0.3354 -0.3270 -0.0133
 1518SOL    HW116016   0.610   4.552   7.453 -1.4984  1.2407 -0.1192
 1518SOL    HW216017   0.617   4.461   7.572 -3.1962 -3.8033 -0.2856
 1519SOL     OW16018   2.182   2.171  17.247 -0.3716 -0.6173  0.4516
 1519SOL    HW116019   2.093   2.135  17.239 -0.4446 -0.2865 -0.3010
 1519SOL    HW216020   2.156   2.264  17.248 -2.0873 -1.0832  0.2842
 1520SOL     OW16021   3.005   0.712   8.461 -0.0082  0.1108 -0.5996
 1520SOL    HW116022   3.026   0.769   8.535 -0.3313  0.2110 -0.5840
 1520SOL    HW216023   3.084   0.659   8.452  0.3720  0.2947  1.4993
 1521SOL     OW16024   3.285   0.172   1.110 -0.5762  0.4396  0.1190
 1521SOL    HW116025   3.194   0.153   1.130  0.1925 -1.8100  1.5655
 1521SOL    HW216026   3.267   0.259   1.077  0.3794  1.1521  1.4574
 1522SOL     OW16027   3.076   2.642   4.148  0.0883  0.0817  0.1441
 1522SOL    HW116028   3.054   2.553   4.119 -0.4635  0.1778  0.2674
 1522SOL    HW216029   2.998   2.682   4.110 -0.0009 -0.9005 -0.7194
 1523SOL     OW16030   3.364   2.273   5.427  0.1191  0.5872 -0.0607
 1523SOL    HW116031   3.300   2.270   5.499  0.9479  0.3565  0.6706
 1523SOL    HW216032   3.441   2.240   5.475 -0.5807 -1.3206 -0.2218
 1524SOL     OW16033   0.219   3.273  16.315 -0.9042  0.3439  0.0278
 1524SOL    HW116034   0.275   3.276  16.238  2.7440 -1.2024  2.6400
 1524SOL    HW216035   0.264   3.327  16.380 -1.1889  1.2752 -0.5488
 1525SOL     OW16036   4.663   2.549  14.949 -0.0195 -0.3949  0.1325
 1525SOL    HW116037   4.690   2.457  14.956  0.9532 -0.0747  0.5663
 1525SOL    HW216038   0.019   2.588  14.985  0.8458 -1.5943 -0.4571
 1526SOL     OW16039   2.289   0.262   3.663 -0.1459  0.6583  0.3806
 1526SOL    HW116040   2.278   0.272   3.758 -0.1268  0.6844  0.3803
 1526SOL    HW216041   2.204   0.237   3.628 -0.2762  0.5132  0.7994
 1527SOL     OW16042   4.646   0.735  14.925  0.3131 -0.4376  0.5699
 1527SOL    HW116043   4.679   0.657  14.882  0.4128  0.2673 -0.6413
 1527SOL    HW216044   4.579   0.700  14.984  0.3186 -0.8144  0.3469
 1528SOL     OW16045   4.445   0.943  12.734 -0.5047  0.3336 -0.4546
 1528SOL    HW116046   4.517   0.882  12.718 -0.5108  0.1421  0.2492
 1528SOL    HW216047   4.369   0.921  12.680 -1.1136  0.5755  0.3011
 1529SOL     OW16048   2.618   3.302   9.747 -0.1527  0.3559 -0.4194
 1529SOL    HW116049   2.659   3.242   9.808 -0.9562 -0.0564 -0.2873
 1529SOL    HW216050   2.533   3.259   9.735 -0.0427 -0.2629  1.0709
 1530SOL     OW16051   1.274   0.900   4.146 -0.2856 -0.8225 -0.5148
 1530SOL    HW116052   1.190   0.941   4.164  0.3465  0.4261 -0.3343
 1530SOL    HW216053   1.326   0.960   4.201 -1.2548  0.7432 -1.2986
 1531SOL     OW16054   1.729   1.582   3.835  0.3605 -0.4553  0.2899
 1531SOL    HW116055   1.691   1.561   3.749  0.8208  3.8260 -0.9832
 1531SOL    HW216056   1.649   1.586   3.888 -1.0148 -0.2891 -1.7798
 1532SOL     OW16057   2.282   3.074   2.635 -0.1759  0.7943  0.1353
 1532SOL    HW116058   2.218   3.145   2.643 -1.1199 -0.2030  1.3610
 1532SOL    HW216059   2.231   3.002   2.671  0.0810 -0.0084 -1.1280
 1533SOL     OW16060   0.928   0.927   8.693  0.0990 -0.3110 -0.4523
 1533SOL    HW116061   0.892   1.014   8.675  0.7755 -0.1640 -1.1189
 1533SOL    HW216062   0.894   0.908   8.780  0.7984 -0.8824 -0.2992
 1534SOL     OW16063   3.648   3.887   6.635 -0.4465  0.1441  0.0159
 1534SOL    HW116064   3.552   3.897   6.637 -0.3821  1.2668 -2.0791
 1534SOL    HW216065   3.655   3.873   6.540  1.0071  0.3418  0.1057
 1535SOL     OW16066   1.758   1.361   2.179 -0.3853 -0.3041 -0.1937
 1535SOL    HW116067   1.685   1.300   2.177 -1.5431  0.9895  1.7825
 1535SOL    HW216068   1.835   1.327   2.134 -0.5673 -0.1607 -0.6124
 1536SOL     OW16069   1.732   3.213  16.262 -0.2712  0.5475  0.2379
 1536SOL    HW116070   1.646   3.232  16.225  0.5945 -2.5460 -3.3567
 1536SOL    HW216071   1.739   3.129  16.218 -0.1419 -0.3083  1.8715
 1537SOL     OW16072   2.290   0.195  10.385  0.2866  0.2587 -0.2949
 1537SOL    HW116073   2.227   0.240  10.440  0.5032  1.5064 -1.0542
 1537SOL    HW216074   2.239   0.151  10.317  1.9916 -1.3819 -0.5153
 1538SOL     OW16075   1.872   1.695   6.261  0.6604  0.7182 -0.5980
 1538SOL    HW116076   1.783   1.662   6.253  0.1850  1.7686  0.4283
 1538SOL    HW216077   1.873   1.789   6.244  0.4262  0.7341 -0.5172
 1539SOL     OW16078   2.085   3.671   6.019 -0.0537 -0.0685 -0.3034
 1539SOL    HW116079   2.175   3.698   6.005  0.5196 -2.0337 -0.3754
 1539SOL    HW216080   2.101   3.623   6.100  1.5169  3.1376  1.3037
 1540SOL     OW16081   1.150   1.455   1.945  0.4557 -0.3058 -0.0437
 1540SOL    HW116082   1.100   1.374   1.951 -1.9218  1.1989  0.0602
 1540SOL    HW216083   1.151   1.495   2.031  0.3980 -0.2134 -0.0870
 1541SOL     OW16084   3.838   1.952   3.981 -0.1541  0.4009  0.5577
 1541SOL    HW116085   3.895   1.975   3.908  0.3193 -0.9418  0.5085
 1541SOL    HW216086   3.749   1.982   3.960 -1.0338 -3.2442 -0.9337
 1542SOL     OW16087   4.009   3.935  17.032 -0.6347  0.0056 -0.4089
 1542SOL    HW116088   3.990   4.029  17.026 -0.7393  0.1122  1.6165
 1542SOL    HW216089   4.001   3.911  16.939 -2.2004  0.3140 -0.3568
 1543SOL     OW16090   2.586   3.736  15.740  0.2236  0.0854 -0.2356
 1543SOL    HW116091   2.608   3.813  15.792  0.6386 -0.4071  0.3271
 1543SOL    HW216092   2.498   3.759  15.711  0.6174  2.1456  0.2407
 1544SOL     OW16093   4.043   2.569   7.474  0.2743  0.2778  0.6166
 1544SOL    HW116094   3.997   2.488   7.495 -0.0472  0.4944  0.7614
 1544SOL    HW216095   4.032   2.554   7.380  0.3117  1.0411  0.4882
 1545SOL     OW16096   0.748   2.746   3.210  0.1475 -0.0565  0.0823
 1545SOL    HW116097   0.791   2.696   3.279  0.6294  1.1994  0.6918
 1545SOL    HW216098   0.711   2.671   3.163 -1.5589 -1.7441  4.0876
 1546SOL     OW16099   1.909   3.123   8.498  0.3015  0.2018  0.1077
 1546SOL    HW116100   1.899   3.216   8.479  0.2373  0.1934  0.0987
 1546SOL    HW216101   1.941   3.130   8.587  1.3178  1.7327 -0.3922
 1547SOL     OW16102   0.266   1.250   6.777 -0.0639  0.5735 -0.7273
 1547SOL    HW116103   0.309   1.302   6.709  0.5578  1.1716  0.1433
 1547SOL    HW216104   0.191   1.209   6.732 -0.3414  0.7688 -0.4409
 1548SOL     OW16105   3.788   2.599  12.294  0.1258  0.0180 -0.4177
 1548SOL    HW116106   3.826   2.683  12.321 -0.7382  0.8145 -1.6706
 1548SOL    HW216107   3.728   2.578  12.366  0.7994 -0.4151  0.0096
 1549SOL     OW16108   0.990   0.556   1.003  0.0129  0.0927  0.2760
 1549SOL    HW116109   1.013   0.502   1.079  0.5209  1.0184  0.7864
 1549SOL    HW216110   0.915   0.601   1.043  0.5930 -0.1920  1.7111
 1550SOL     OW16111   2.861   0.824   2.221 -0.1586  0.4347  0.4437
 1550SOL    HW116112   2.869   0.728   2.219  0.6408  0.5474 -2.0151
 1550SOL    HW216113   2.946   0.852   2.188 -0.3341  1.6760  1.0552
 1551SOL     OW16114   1.018   3.913  14.819  0.0583 -0.5195  0.3893
 1551SOL    HW116115   1.048   3.965  14.894 -0.5094 -0.3367  0.4857
 1551SOL    HW216116   1.102   3.915  14.772  0.7647  2.4483  1.7418
 1552SOL     OW16117   3.601   3.449   6.353 -0.1256  0.0327 -0.2478
 1552SOL    HW116118   3.614   3.356   6.334 -1.3585 -0.2932  0.4583
 1552SOL    HW216119   3.627   3.488   6.270  0.2479 -0.0576 -0.1737
 1553SOL     OW16120   1.602   2.471   5.265  0.2657  0.3421 -0.3926
 1553SOL    HW116121   1.537   2.402   5.256  1.5368 -0.8829 -0.1280
 1553SOL    HW216122   1.685   2.424   5.251  1.1242  1.9138 -0.6146
 1554SOL     OW16123   0.862   4.077   7.095  0.2232 -0.5273  0.0086
 1554SOL    HW116124   0.891   4.030   7.016  1.8951  1.2535 -0.4202
 1554SOL    HW216125   0.943   4.074   7.144 -0.9095 -0.2810  1.9002
 1555SOL     OW16126   4.228   3.235   4.502  0.7528  0.8518 -0.0803
 1555SOL    HW116127   4.241   3.328   4.521  0.8472  0.9304 -0.5430
 1555SOL    HW216128   4.241   3.203   4.592  0.2718 -2.2316 -1.1311
 1556SOL     OW16129   0.012   3.547   5.967  0.0582  0.0230  0.2304
 1556SOL    HW116130   4.671   3.513   5.904  1.2916 -0.8453 -0.5625
 1556SOL    HW216131   4.707   3.639   5.959 -1.5363 -0.3356  1.6307
 1557SOL     OW16132   0.141   2.800   4.500 -0.5801  0.2734  0.2080
 1557SOL    HW116133   0.109   2.711   4.517 -0.9400  0.8101  2.3100
 1557SOL    HW216134   0.235   2.787   4.514 -0.1946  0.8852 -1.8495
 1558SOL     OW16135   2.510   0.502   3.843  0.1636 -0.2288 -0.3700
 1558SOL    HW116136   2.571   0.568   3.876  0.2508 -0.0063 -0.9613
 1558SOL    HW216137   2.529   0.500   3.749  1.5976  2.8311 -0.1712
 1559SOL     OW16138   1.462   3.849   9.964  0.3286 -0.1697  0.1876
 1559SOL    HW116139   1.484   3.898  10.044  2.0305 -0.5575 -0.0280
 1559SOL    HW216140   1.385   3.799   9.989  0.8715 -1.4265 -0.6491
 1560SOL     OW16141   3.513   1.717  14.722  0.1872 -0.5568 -0.2155
 1560SOL    HW116142   3.525   1.755  14.635 -2.4161 -0.5589 -0.5676
 1560SOL    HW216143   3.428   1.676  14.708  0.4787 -2.0768  2.4070
 1561SOL     OW16144   1.145   1.463   1.541 -0.5027  0.2236  0.1083
 1561SOL    HW116145   1.135   1.393   1.477 -1.4735  1.6490 -1.2909
 1561SOL    HW216146   1.218   1.426   1.591  0.6433  1.6742 -0.4989
 1562SOL     OW16147   1.611   2.384  10.995  0.2893  0.6481 -0.1976
 1562SOL    HW116148   1.528   2.425  10.972 -0.5791  0.9090  3.3240
 1562SOL    HW216149   1.578   2.334  11.070  1.1270  1.2627  0.5952
 1563SOL     OW16150   3.268   2.888  13.574 -0.1965 -0.0668 -0.2366
 1563SOL    HW116151   3.177   2.905  13.552 -0.6893 -1.1110  0.9885
 1563SOL    HW216152   3.283   2.958  13.638 -0.0460 -1.1330  0.9021
 1564SOL     OW16153   4.181   2.200   4.110 -0.1610  0.0157 -0.7702
 1564SOL    HW116154   4.093   2.235   4.095 -1.2631 -1.2255  2.5383
 1564SOL    HW216155   4.168   2.179   4.203 -0.7558  0.7608 -0.6864
 1565SOL     OW16156   1.991   3.491   7.767 -0.0215  0.3236 -0.3836
 1565SOL    HW116157   2.062   3.442   7.724  0.8325 -0.9267  2.4727
 1565SOL    HW216158   2.004   3.477   7.861 -1.1646  2.8802  0.1312
 1566SOL     OW16159   0.715   1.828   4.528 -0.7654  0.6674 -0.3207
 1566SOL    HW116160   0.627   1.814   4.562 -0.3374 -0.0006  0.5186
 1566SOL    HW216161   0.736   1.915   4.561  0.8332  0.4476 -0.7367
 1567SOL     OW16162   1.482   3.309   1.686  0.0816 -0.3016 -0.8339
 1567SOL    HW116163   1.418   3.251   1.725  3.6285 -2.8579  1.2265
 1567SOL    HW216164   1.492   3.375   1.754 -1.1696  0.3784 -1.3118
 1568SOL     OW16165   2.682   1.202   2.117  0.6637 -0.5308  0.2628
 1568SOL    HW116166   2.659   1.254   2.194  1.1406 -0.3245  0.2647
 1568SOL    HW216167   2.595   1.169   2.093 -0.0845  0.7977  1.0836
 1569SOL     OW16168   3.584   2.669   8.719  0.3592  0.2462 -0.1620
 1569SOL    HW116169   3.537   2.644   8.639 -0.2571 -1.3171  0.6930
 1569SOL    HW216170   3.591   2.764   8.713 -1.0169  0.2828 -1.1803
 1570SOL     OW16171   2.762   3.766   0.144  0.1704  0.3661 -0.2715
 1570SOL    HW116172   2.836   3.720   0.103 -0.6911 -1.9310  0.7467
 1570SOL    HW216173   2.773   3.735   0.234 -1.2951  0.4092 -0.0834
 1571SOL     OW16174   3.217   4.606   7.035 -0.4766  0.9353 -0.4239
 1571SOL    HW116175   3.169   4.568   7.108  1.1622 -0.5233 -0.0986
 1571SOL    HW216176   3.207   4.699   7.053  3.4367  0.6716  3.0577
 1572SOL     OW16177   3.045   2.165   4.224  0.1878 -0.4346 -0.1902
 1572SOL    HW116178   3.057   2.112   4.146 -1.7251 -1.1803  0.0040
 1572SOL    HW216179   3.106   2.238   4.215  2.4844 -2.5259 -1.3688
 1573SOL     OW16180   0.243   4.448   2.419  0.2861 -0.0558  0.4192
 1573SOL    HW116181   0.303   4.432   2.492 -0.3845 -0.0351  0.9733
 1573SOL    HW216182   0.301   4.460   2.344 -1.0523  2.3694 -0.2068
 1574SOL     OW16183   0.530   1.288   5.021 -0.3310  0.2855  0.0864
 1574SOL    HW116184   0.488   1.313   5.104  0.7916 -0.8841  0.9990
 1574SOL    HW216185   0.559   1.376   4.998 -1.5099 -0.0080 -2.5328
 1575SOL     OW16186   4.027   1.980   3.794  0.2285 -0.4709 -0.0645
 1575SOL    HW116187   4.092   1.918   3.826  0.7950  0.6982  1.0363
 1575SOL    HW216188   4.004   1.945   3.708 -1.3907 -0.5943  0.4105
 1576SOL     OW16189   3.696   3.702  11.163 -0.3144 -0.0078 -0.0789
 1576SOL    HW116190   3.719   3.654  11.242  1.3660 -0.9162 -1.1175
 1576SOL    HW216191   3.615   3.748  11.185 -0.3824  0.5417 -1.4382
 1577SOL     OW16192   0.932   1.722   7.966 -0.2121 -0.3804 -0.0741
 1577SOL    HW116193   1.008   1.777   7.946 -2.1856  1.7186 -1.8922
 1577SOL    HW216194   0.978   1.673   8.033  1.8002 -0.2961 -1.4025
 1578SOL     OW16195   3.406   0.427   6.205  0.0584 -0.4140 -0.2676
 1578SOL    HW116196   3.357   0.391   6.279  0.4287  0.9213  0.6335
 1578SOL    HW216197   3.435   0.352   6.153 -0.2664  0.4076 -1.6520
 1579SOL     OW16198   3.751   4.316   7.136 -0.0344 -1.0165  0.0648
 1579SOL    HW116199   3.729   4.402   7.172 -0.1892 -1.2625  0.5459
 1579SOL    HW216200   3.700   4.312   7.055  4.0151  0.6965 -2.6017
 1580SOL     OW16201   0.112   3.919   7.650 -0.3443  0.4307 -0.3418
 1580SOL    HW116202   0.142   3.970   7.575 -1.9944 -0.1791 -1.4135
 1580SOL    HW216203   0.191   3.919   7.704 -1.6291  4.9680  1.5067
 1581SOL     OW16204   2.491   3.431   2.135  0.3437 -0.1495  0.1257
 1581SOL    HW116205   2.487   3.523   2.160 -0.4691  0.4061 -2.0166
 1581SOL    HW216206   2.422   3.429   2.069 -0.5079  0.8641  0.9866
 1582SOL     OW16207   1.612   3.600   6.023  0.0756 -0.1342 -0.1070
 1582SOL    HW116208   1.644   3.523   5.976 -2.8844  0.1914 -2.6601
 1582SOL    HW216209   1.693   3.647   6.042 -0.3237 -0.1126  1.5336
 1583SOL     OW16210   4.627   2.727   5.634 -0.3669 -0.6680 -0.3881
 1583SOL    HW116211   4.625   2.635   5.662  1.6766  0.3265  3.0666
 1583SOL    HW216212   4.664   2.767   5.713 -0.7975 -1.1033  0.0416
 1584SOL     OW16213   2.198   2.973  13.539  0.5709 -0.0131 -0.6993
 1584SOL    HW116214   2.216   2.932  13.454  0.6802 -1.1337 -0.1342
 1584SOL    HW216215   2.245   2.917  13.601 -0.5113  0.9411  0.9806
 1585SOL     OW16216   2.324   3.181   9.333 -0.2258  0.3925  0.4526
 1585SOL    HW116217   2.410   3.222   9.328 -0.2744  0.5077  0.5743
 1585SOL    HW216218   2.273   3.252   9.370 -1.5410  0.1906 -0.9561
 1586SOL     OW16219   4.138   3.875   4.607  0.1473  0.2950  0.1136
 1586SOL    HW116220   4.112   3.860   4.698  0.2505  0.0963  0.1107
 1586SOL    HW216221   4.058   3.890   4.558 -1.6440  1.1537  3.2740
 1587SOL     OW16222   1.289   1.338   1.738 -0.2487  0.0914 -0.5518
 1587SOL    HW116223   1.317   1.269   1.798  2.6213  2.2406  0.5736
 1587SOL    HW216224   1.242   1.385   1.808 -0.3028  0.9414 -1.1548
 1588SOL     OW16225   2.020   3.972   1.273  1.0207 -0.1010  0.0728
 1588SOL    HW116226   1.969   3.961   1.353  1.0171 -0.5435  0.0087
 1588SOL    HW216227   2.026   4.066   1.256  1.1229 -0.4271 -1.6980
 1589SOL     OW16228   4.245   4.252   2.187  0.2545 -0.1790 -0.3485
 1589SOL    HW116229   4.281   4.338   2.165 -2.5381  0.8143 -1.1037
 1589SOL    HW216230   4.204   4.228   2.104 -0.4726  1.7910 -0.5715
 1590SOL     OW16231   4.448   4.074  17.168  0.0526  0.7957 -0.0638
 1590SOL    HW116232   4.423   4.163  17.140  0.2694  1.7644  2.8615
 1590SOL    HW216233   4.387   4.052  17.239  2.3778  2.2612  2.3902
 1591SOL     OW16234   1.876   3.376   8.419 -0.0571 -0.4312  0.0729
 1591SOL    HW116235   1.840   3.460   8.446 -0.5591 -0.5445 -0.2410
 1591SOL    HW216236   1.912   3.399   8.333 -0.6330  1.3068  0.3038
 1592SOL     OW16237   2.202   2.326   7.729 -0.6064 -0.5150 -0.4135
 1592SOL    HW116238   2.267   2.268   7.690  1.5515  1.7287 -0.1834
 1592SOL    HW216239   2.255   2.368   7.797 -0.1968  0.3648 -1.2902
 1593SOL     OW16240   4.699   3.895  11.723 -0.3374 -0.0015  0.0395
 1593SOL    HW116241   0.027   3.928  11.797 -0.6413 -2.0442  1.1684
 1593SOL    HW216242   0.025   3.818  11.694 -1.9860 -0.5004 -1.4290
 1594SOL     OW16243   4.631   3.758   0.741 -0.2092 -0.0087  0.7325
 1594SOL    HW116244   4.684   3.742   0.662  0.6230  0.4118  1.2074
 1594SOL    HW216245   4.604   3.668   0.760 -0.7711 -0.0511 -0.2911
 1595SOL     OW16246   0.219   3.301   9.386  0.2633  0.4340  0.4824
 1595SOL    HW116247   0.280   3.371   9.408  0.1321 -0.4069  3.4678
 1595SOL    HW216248   0.237   3.287   9.293  0.5023  1.1405  0.4221
 1596SOL     OW16249   2.523   3.038  14.179 -0.3676 -0.2349 -0.4669
 1596SOL    HW116250   2.513   3.112  14.238 -2.6813 -3.2367  2.8586
 1596SOL    HW216251   2.493   3.075  14.096 -1.1295  1.8751  0.7636
 1597SOL     OW16252   1.347   1.839   9.015  0.2114  0.1742  0.3260
 1597SOL    HW116253   1.411   1.772   9.038  0.4691 -0.2930 -1.6831
 1597SOL    HW216254   1.351   1.897   9.091  2.2057  0.1434  0.2640
 1598SOL     OW16255   3.534   4.123   2.088  0.0398 -0.8559 -0.0200
 1598SOL    HW116256   3.605   4.072   2.051 -0.4611 -0.7423 -1.1293
 1598SOL    HW216257   3.473   4.084   2.025  2.3389  0.6087 -3.1248
 1599SOL     OW16258   0.294   0.964  16.740  0.3267  0.1079  0.1535
 1599SOL    HW116259   0.242   1.005  16.670  0.7917 -1.1086 -0.8974
 1599SOL    HW216260   0.294   1.043  16.794  0.2446  1.7155 -2.1702
 1600SOL     OW16261   4.466   1.035  11.736  0.3562  0.4145 -0.0189
 1600SOL    HW116262   4.511   0.991  11.664  1.0993 -0.7168  1.1262
 1600SOL    HW216263   4.433   1.117  11.698  3.5338  0.7128 -2.1214
 1601SOL     OW16264   2.679   0.909   6.821 -0.0950 -0.2440 -0.3410
 1601SOL    HW116265   2.734   0.866   6.887  0.8764  0.6144 -0.5901
 1601SOL    HW216266   2.729   0.878   6.746  0.6783 -2.9756  1.2811
 1602SOL     OW16267   4.225   0.056   8.995 -0.1658  0.1207  0.3211
 1602SOL    HW116268   4.267   0.039   8.911  0.8111 -1.3478  1.1132
 1602SOL    HW216269   4.293   0.093   9.052  0.0221 -1.0646  0.8567
 1603SOL     OW16270   3.456   0.187   1.920  0.0805 -0.0718 -0.1464
 1603SOL    HW116271   3.496   0.164   1.837  3.2421 -0.8437  1.5976
 1603SOL    HW216272   3.516   0.258   1.943  1.2952  0.1157 -3.9414
 1604SOL     OW16273   0.054   0.018   2.279 -0.3891 -0.0427  0.0682
 1604SOL    HW116274   4.698   0.071   2.283 -0.8713 -0.6635 -1.3412
 1604SOL    HW216275   0.078   0.037   2.188 -0.5605 -0.1197  0.0076
 1605SOL     OW16276   2.953   3.124   4.714  0.2373 -0.0498  0.1863
 1605SOL    HW116277   2.936   3.036   4.750  2.9050  0.5167  2.8448
 1605SOL    HW216278   3.023   3.143   4.776  0.3014 -0.0630  0.1176
 1606SOL     OW16279   3.507   1.645  14.236 -0.2270  0.5428  0.4783
 1606SOL    HW116280   3.587   1.668  14.189  0.5725  1.2830  2.2015
 1606SOL    HW216281   3.490   1.718  14.296  0.5332 -0.6342  2.1123
 1607SOL     OW16282   1.505   1.212   9.039  0.1764 -0.0377  0.3837
 1607SOL    HW116283   1.556   1.204   9.119  1.0895 -1.2244 -0.3286
 1607SOL    HW216284   1.415   1.205   9.071  0.7390  0.7402  2.1426
 1608SOL     OW16285   0.619   1.915   6.149 -0.0682 -0.1132 -0.4010
 1608SOL    HW116286   0.525   1.929   6.160 -0.1977 -1.3487  0.1060
 1608SOL    HW216287   0.655   1.995   6.187  1.4538 -1.4895  1.1031
 1609SOL     OW16288   2.787   3.612   4.350  0.4161  0.0484  0.0894
 1609SOL    HW116289   2.728   3.687   4.352  1.0335  0.5590 -0.8655
 1609SOL    HW216290   2.794   3.594   4.443  0.8150 -0.9563 -0.1349
 1610SOL     OW16291   1.955   1.127   4.105 -0.0355  0.0475 -0.2527
 1610SOL    HW116292   1.989   1.073   4.033  0.7097 -0.5149  0.5191
 1610SOL    HW216293   1.940   1.063   4.174  2.4745  1.6380  1.7804
 1611SOL     OW16294   3.050   1.471   4.174  0.4375  0.0348 -0.3020
 1611SOL    HW116295   3.018   1.557   4.201 -1.4125 -0.7804  0.1110
 1611SOL    HW216296   2.976   1.449   4.117 -1.1784  0.3251  1.6673
 1612SOL     OW16297   4.331   1.224  11.546  0.4831  0.5156  0.0715
 1612SOL    HW116298   4.299   1.288  11.609 -1.6538 -1.1845  0.6948
 1612SOL    HW216299   4.413   1.267  11.522  0.7262 -1.1782 -2.0697
 1613SOL     OW16300   3.884   2.827   6.082  0.0543  0.2883 -0.2287
 1613SOL    HW116301   3.979   2.828   6.068  0.0289 -1.7324 -0.4664
 1613SOL    HW216302   3.882   2.892   6.153 -0.3591 -1.8776  1.7403
 1614SOL     OW16303   4.359   4.547   6.975 -0.2229  0.1580 -0.4838
 1614SOL    HW116304   4.394   4.501   7.051  0.8543 -0.0347 -1.0876
 1614SOL    HW216305   4.322   4.625   7.015  2.4828  1.5924 -0.7458
 1615SOL     OW16306   1.254   0.636   4.042  0.6680 -0.0467 -0.1645
 1615SOL    HW116307   1.180   0.587   4.078 -0.5637 -0.7050 -3.5849
 1615SOL    HW216308   1.272   0.700   4.111 -1.2422  1.0177 -0.6779
 1616SOL     OW16309   3.323   4.644   2.829  0.0599  0.5221  0.0127
 1616SOL    HW116310   3.245   4.612   2.783  0.9253 -1.8252  0.1954
 1616SOL    HW216311   3.391   4.578   2.814 -0.4796 -0.0625  0.1397
 1617SOL     OW16312   3.928   3.436   4.122 -0.0992 -0.3133  0.3727
 1617SOL    HW116313   4.023   3.425   4.118 -0.1467 -0.8234  0.5619
 1617SOL    HW216314   3.910   3.527   4.100 -0.3199 -0.2995  0.6122
 1618SOL     OW16315   1.660   1.019  16.545 -0.3054  0.7358 -0.1025
 1618SOL    HW116316   1.713   1.026  16.467  1.6620  0.6497  1.2317
 1618SOL    HW216317   1.571   1.036  16.512 -1.4087  0.9653  2.9685
 1619SOL     OW16318   1.771   1.186   2.575 -0.8801 -0.0302  0.5701
 1619SOL    HW116319   1.740   1.107   2.531  0.1034 -0.4595  0.6252
 1619SOL    HW216320   1.697   1.206   2.631 -2.5100  2.8291 -2.6389
 1620SOL     OW16321   1.523   1.533   2.634 -0.0033 -0.1355 -0.2039
 1620SOL    HW116322   1.540   1.498   2.721 -1.0047  1.2225  0.5196
 1620SOL    HW216323   1.603   1.583   2.621 -0.3503  0.4661 -0.0194
 1621SOL     OW16324   2.982   1.960  15.418 -0.5911 -0.2932  0.7243
 1621SOL    HW116325   2.951   1.937  15.505  0.0602 -1.6468  0.6043
 1621SOL    HW216326   2.957   1.895  15.353  1.4069 -1.3045  0.9523
 1622SOL     OW16327   2.003   1.492  11.377 -0.0379 -0.0327 -0.1825
 1622SOL    HW116328   2.069   1.423  11.371  0.7828  0.6801  0.7349
 1622SOL    HW216329   2.066   1.561  11.397  1.9393 -2.0929  0.7295
 1623SOL     OW16330   2.723   1.430  11.234 -0.0830 -0.2660  0.7961
 1623SOL    HW116331   2.749   1.390  11.317 -2.4565 -1.0526  1.1512
 1623SOL    HW216332   2.802   1.473  11.202 -0.5588  1.1026  1.4660
 1624SOL     OW16333   1.216   0.647   3.700  0.0778 -0.0771  0.4161
 1624SOL    HW116334   1.255   0.654   3.787 -2.9617  0.0582  1.7508
 1624SOL    HW216335   1.230   0.557   3.672  4.0425  0.3030  1.2131
 1625SOL     OW16336   1.243   0.879   3.105 -0.4951 -0.2729 -0.0761
 1625SOL    HW116337   1.239   0.898   3.198 -0.9398  3.8490 -0.9415
 1625SOL    HW216338   1.170   0.927   3.064  1.9826  2.6489 -1.0324
 1626SOL     OW16339   3.940   3.545   6.425  0.6694  0.6660 -0.2780
 1626SOL    HW116340   3.935   3.552   6.330 -0.5582 -2.1594 -0.4371
 1626SOL    HW216341   3.993   3.465   6.424  0.1221  0.2165  3.3174
 1627SOL     OW16342   2.662   2.742  12.092 -0.7250  0.3334 -0.2564
 1627SOL    HW116343   2.654   2.732  12.187 -0.5133 -1.1437 -0.4047
 1627SOL    HW216344   2.749   2.717  12.064  0.3994  2.3199  1.4343
 1628SOL     OW16345   3.745   4.657   6.985  0.3056 -0.0823 -0.6692
 1628SOL    HW116346   3.827   4.615   7.008  0.5903  1.0206  0.3244
 1628SOL    HW216347   3.734   4.716   7.060 -2.1376  0.5224 -1.5003
 1629SOL     OW16348   4.595   3.503  14.629  0.1961 -0.4416 -0.4366
 1629SOL    HW116349   4.561   3.487  14.541 -0.6248 -0.8511 -0.0384
 1629SOL    HW216350   4.623   3.595  14.636 -0.6500 -0.3222  1.4500
 1630SOL     OW16351   3.404   0.335  11.440 -0.0802  0.2354 -0.0387
 1630SOL    HW116352   3.468   0.353  11.509  3.2614  0.4972 -3.2200
 1630SOL    HW216353   3.430   0.386  11.363  2.7031 -0.8121  0.2061
 1631SOL     OW16354   2.891   0.994   5.641 -0.3841 -0.5921  0.6835
 1631SOL    HW116355   2.891   1.006   5.736  2.0513  1.1905  0.4455
 1631SOL    HW216356   2.828   0.923   5.628 -0.7237 -0.0504 -0.6394
 1632SOL     OW16357   0.079   3.956   1.480 -0.1122 -0.3040  0.1902
 1632SOL    HW116358   0.058   4.047   1.457  0.1373 -0.2182  0.2988
 1632SOL    HW216359   4.719   3.913   1.464 -1.0398  2.1460 -1.5583
 1633SOL     OW16360   3.886   4.107   1.889  0.2843 -0.1420  0.4815
 1633SOL    HW116361   3.917   4.186   1.933 -0.6883 -0.5450  1.8872
 1633SOL    HW216362   3.958   4.095   1.826  0.4927 -0.5416  0.7959
 1634SOL     OW16363   2.371   4.717   8.796  0.9358 -0.2360 -0.2183
 1634SOL    HW116364   2.326   4.679   8.720 -2.2739  4.6002 -0.7397
 1634SOL    HW216365   2.347   0.085   8.781 -2.2880 -0.9491  0.5187
 1635SOL     OW16366   4.661   3.348  13.752 -0.3340  0.4735 -0.6534
 1635SOL    HW116367   0.032   3.356  13.735 -0.3390 -0.8977 -1.2869
 1635SOL    HW216368   4.631   3.275  13.698 -0.7512  0.5051 -0.4616
 1636SOL     OW16369   3.399   1.485   7.226  0.1570  0.1554  0.0126
 1636SOL    HW116370   3.323   1.521   7.180 -0.0793  0.5119  0.6875
 1636SOL    HW216371   3.380   1.498   7.319 -0.1240  0.7735 -0.1325
 1637SOL     OW16372   3.368   3.721   7.035  0.2107  0.0440 -0.0916
 1637SOL    HW116373   3.436   3.764   7.085 -0.6205 -0.4546  1.4754
 1637SOL    HW216374   3.406   3.725   6.947 -0.1807 -0.4414 -0.2900
 1638SOL     OW16375   1.226   3.385  11.090 -1.2205 -0.2456 -0.1079
 1638SOL    HW116376   1.218   3.290  11.081  1.1000 -0.2793 -1.7669
 1638SOL    HW216377   1.268   3.401  11.006 -0.6267  1.1956  0.4804
 1639SOL     OW16378   1.416   2.610   1.856 -0.3822  0.7401 -0.6191
 1639SOL    HW116379   1.452   2.665   1.925 -1.2662 -0.6354  0.9338
 1639SOL    HW216380   1.494   2.606   1.799 -0.0039 -1.2248  0.0549
 1640SOL     OW16381   2.758   0.129   4.334  0.0065  0.1368  0.1929
 1640SOL    HW116382   2.807   0.049   4.315 -0.1311  0.3579 -1.1091
 1640SOL    HW216383   2.748   0.151   4.242 -0.8305 -2.2530 -0.2746
 1641SOL     OW16384   4.550   3.258   3.165  0.2354  0.1130  0.4281
 1641SOL    HW116385   4.502   3.180   3.138 -0.0780 -0.5747  2.9847
 1641SOL    HW216386   4.568   3.300   3.081  2.3109 -0.8221  0.4290
 1642SOL     OW16387   3.463   0.364   2.221 -0.6053 -0.3714 -0.1841
 1642SOL    HW116388   3.465   0.459   2.207 -0.5319 -0.8814 -3.4781
 1642SOL    HW216389   3.369   0.350   2.233 -0.9423  0.1704 -2.2185
 1643SOL     OW16390   4.608   0.047   3.365 -0.8360  0.7263  0.3058
 1643SOL    HW116391   4.670   0.073   3.297 -0.4439  1.3115  0.8852
 1643SOL    HW216392   4.645   4.685   3.384  2.0758  2.1441  0.8959
 1644SOL     OW16393   1.283   4.616  17.562  0.7404  0.0906  0.2542
 1644SOL    HW116394   1.255   4.670  17.489  0.7047 -0.4838 -0.1522
 1644SOL    HW216395   1.307   4.683  17.627  0.2004  0.2850  0.2515
 1645SOL     OW16396   3.573   3.561  16.798  0.0505 -0.5157  0.3424
 1645SOL    HW116397   3.610   3.565  16.887 -0.7243  1.0823  0.5959
 1645SOL    HW216398   3.507   3.631  16.796 -0.2745 -0.8460 -0.4899
 1646SOL     OW16399   3.194   0.326   1.892  0.4277  0.1199  0.0620
 1646SOL    HW116400   3.256   0.265   1.932 -1.4404 -2.7311 -1.4703
 1646SOL    HW216401   3.249   0.404   1.885 -1.2086  1.4599  1.8336
 1647SOL     OW16402   4.416   0.094   0.201 -0.2214 -0.2860 -0.0032
 1647SOL    HW116403   4.352   0.061   0.264 -0.3180  0.4003  0.2587
 1647SOL    HW216404   4.487   0.031   0.210 -1.2411 -1.2159  1.6329
 1648SOL     OW16405   3.579   0.329   0.137  0.0442 -0.2715  0.2119
 1648SOL    HW116406   3.497   0.374   0.158  0.4402  0.4104  0.2766
 1648SOL    HW216407   3.647   0.396   0.134 -0.8060  0.6868  2.4073
 1649SOL     OW16408   2.557   3.244  14.342 -0.4264 -0.1381 -0.3714
 1649SOL    HW116409   2.499   3.316  14.318  0.7192  0.4465 -1.3438
 1649SOL    HW216410   2.531   3.226  14.433 -0.8710  0.9591 -0.2788
 1650SOL     OW16411   0.182   2.059   8.972 -0.0062  0.0616 -0.4947
 1650SOL    HW116412   0.244   2.094   9.035  1.5335 -0.1757 -1.8821
 1650SOL    HW216413   0.204   1.968   8.990 -1.6688  0.0042  1.2893
 1651SOL     OW16414   0.940   1.588   6.166 -0.4950  0.1102  0.3303
 1651SOL    HW116415   0.850   1.558   6.182 -0.9593  0.5636 -1.4889
 1651SOL    HW216416   0.941   1.663   6.108  0.0763  0.1466  0.3899
 1652SOL     OW16417   0.372   0.438   2.817  0.3582  0.5729 -0.2045
 1652SOL    HW116418   0.416   0.512   2.859  2.3673 -1.3770  1.0959
 1652SOL    HW216419   0.438   0.370   2.819 -1.2943 -0.9610  1.7495
 1653SOL     OW16420   1.999   3.630   1.518  0.0906 -0.3596 -0.0100
 1653SOL    HW116421   1.935   3.687   1.477  2.4713  1.0881 -1.7333
 1653SOL    HW216422   1.940   3.565   1.557  1.8583 -0.3264  2.7037
 1654SOL     OW16423   1.327   2.845   5.119  0.8816  0.0429  0.3101
 1654SOL    HW116424   1.374   2.762   5.121  0.8354  0.0109  0.1066
 1654SOL    HW216425   1.343   2.875   5.029 -0.6296 -0.1642 -0.0302
 1655SOL     OW16426   1.075   3.785  16.337 -0.3869  0.0592 -0.3491
 1655SOL    HW116427   1.170   3.797  16.335 -0.2548 -0.3787  2.7351
 1655SOL    HW216428   1.080   3.708  16.394 -0.5509 -1.1702 -1.9770
 1656SOL     OW16429   4.127   0.696  11.970 -0.1177  0.2495 -0.3496
 1656SOL    HW116430   4.052   0.754  11.957  0.6802  1.0195 -1.5016
 1656SOL    HW216431   4.121   0.631  11.900  1.6111 -0.8743  0.5648
 1657SOL     OW16432   0.134   4.696   9.214 -0.8900  0.1865 -0.0339
 1657SOL    HW116433   0.162   0.032   9.145  1.0192 -1.7253 -0.8867
 1657SOL    HW216434   0.120   0.029   9.291  0.8874  0.9361 -0.2621
 1658SOL     OW16435   2.708   2.981  14.578  0.3110  0.4801 -0.4040
 1658SOL    HW116436   2.732   3.069  14.550  0.7761  0.7924  0.9788
 1658SOL    HW216437   2.623   3.010  14.610  1.3645  1.1622  1.7341
 1659SOL     OW16438   0.618   0.629   2.590  0.3283  0.3186  0.1756
 1659SOL    HW116439   0.554   0.613   2.520 -0.2273  0.6474  0.6119
 1659SOL    HW216440   0.684   0.657   2.526 -0.8618 -0.2295 -1.3087
 1660SOL     OW16441   2.185   4.595  15.625 -0.1936 -0.2971 -0.1835
 1660SOL    HW116442   2.197   4.645  15.706 -1.3299 -1.8074  0.9448
 1660SOL    HW216443   2.119   4.529  15.648 -0.4878  0.2413  0.5421
 1661SOL     OW16444   3.015   3.118   0.444 -0.4507  0.2128 -0.7640
 1661SOL    HW116445   2.936   3.145   0.396  0.5923  3.5652 -0.6212
 1661SOL    HW216446   3.001   3.027   0.468  2.8921  0.0548  0.5159
 1662SOL     OW16447   3.035   0.970   6.237 -0.4604  0.2484 -0.1882
 1662SOL    HW116448   3.114   0.965   6.182 -0.8960 -1.1406 -0.6932
 1662SOL    HW216449   2.996   0.886   6.212  2.4146 -1.5036  1.2027
 1663SOL     OW16450   2.564   0.713   8.439 -0.1173  0.4307  0.0515
 1663SOL    HW116451   2.643   0.659   8.442 -0.8346 -0.5391  1.3202
 1663SOL    HW216452   2.506   0.644   8.408  1.0501 -0.6393  0.2353
 1664SOL     OW16453   2.113   1.365  12.755 -0.1890 -0.0956 -0.0410
 1664SOL    HW116454   2.032   1.413  12.768 -0.9339 -1.7121  1.3221
 1664SOL    HW216455   2.146   1.382  12.844  1.7356 -0.2142 -0.7248
 1665SOL     OW16456   0.592   3.269   8.497  0.1669  0.4760 -0.2141
 1665SOL    HW116457   0.537   3.291   8.422  1.4703  0.4102 -1.1829
 1665SOL    HW216458   0.527   3.262   8.567  1.0820 -1.0839  0.5037
 1666SOL     OW16459   4.410   3.829   4.641 -0.0344 -0.0966  0.4397
 1666SOL    HW116460   4.321   3.860   4.624  1.5641  3.2590 -1.7312
 1666SOL    HW216461   4.420   3.873   4.726 -1.9266 -3.4498  2.4495
 1667SOL     OW16462   3.660   4.253   9.783  0.0102 -0.0805 -0.4936
 1667SOL    HW116463   3.611   4.173   9.802  0.7295 -0.7203 -1.3521
 1667SOL    HW216464   3.683   4.238   9.691 -1.1744 -0.2194 -0.7689
 1668SOL     OW16465   2.621   0.255   7.460  0.4933 -0.2224  0.0673
 1668SOL    HW116466   2.638   0.169   7.498 -1.5200 -1.2270 -1.2843
 1668SOL    HW216467   2.648   0.321   7.524  1.3053 -2.2003  1.7322
 1669SOL     OW16468   1.133   4.657   2.697  0.3636  0.1659  0.7811
 1669SOL    HW116469   1.229   4.662   2.705  0.2118 -0.5983  3.1861
 1669SOL    HW216470   1.101   4.709   2.771  3.7270  0.4511  2.0612
 1670SOL     OW16471   3.348   3.035  15.983 -0.2442  0.2154 -0.1239
 1670SOL    HW116472   3.422   2.990  16.023  0.3298  1.0929 -0.2112
 1670SOL    HW216473   3.380   3.053  15.895  1.0375  1.5924  0.6417
 1671SOL     OW16474   0.569   4.123  14.146 -0.0028  0.6845 -0.6104
 1671SOL    HW116475   0.515   4.048  14.120 -0.1997  1.0401 -1.2539
 1671SOL    HW216476   0.656   4.123  14.105  0.1812 -0.2955 -0.2310
 1672SOL     OW16477   4.646   3.447  15.581 -0.8004 -0.8468 -0.9047
 1672SOL    HW116478   4.572   3.502  15.556 -3.6353 -3.1916  2.3469
 1672SOL    HW216479   4.716   3.509  15.562 -1.6533  0.5789  0.6298
 1673SOL     OW16480   4.052   2.001   6.760  0.4459 -0.1237  0.3568
 1673SOL    HW116481   4.126   2.003   6.821  0.1710 -1.5763  0.7274
 1673SOL    HW216482   4.012   1.922   6.796  1.6167 -1.8938 -2.1955
 1674SOL     OW16483   2.451   3.319  16.753  0.2611  0.6819  0.2932
 1674SOL    HW116484   2.495   3.399  16.725 -0.7122  1.0383 -0.2332
 1674SOL    HW216485   2.361   3.352  16.765 -0.6515 -0.9961 -1.9465
 1675SOL     OW16486   4.051   0.422  14.983 -0.2341 -0.3171 -0.0564
 1675SOL    HW116487   3.958   0.432  14.963 -0.8162  1.1622  3.3187
 1675SOL    HW216488   4.047   0.465  15.068  1.1189  3.0107 -1.6669
 1676SOL     OW16489   1.717   1.485  14.913 -0.7281  0.0334 -0.1209
 1676SOL    HW116490   1.704   1.574  14.947  0.4367 -0.3971  1.4158
 1676SOL    HW216491   1.805   1.498  14.877  0.5446 -1.7140  2.3696
 1677SOL     OW16492   0.885   1.783   5.441  0.1566 -0.1402 -0.2515
 1677SOL    HW116493   0.860   1.863   5.488 -0.9448 -1.2925  1.1635
 1677SOL    HW216494   0.967   1.763   5.485 -0.7839 -0.0139  1.5759
 1678SOL     OW16495   4.478   4.722   2.299 -0.1114  0.7611  1.0514
 1678SOL    HW116496   4.473   4.634   2.336 -1.8564  0.9306  1.1948
 1678SOL    HW216497   4.426   0.040   2.368  0.2631  2.4572  0.3095
 1679SOL     OW16498   0.518   0.491   9.507 -0.3093  0.5221  0.3093
 1679SOL    HW116499   0.546   0.419   9.564  1.9288  0.1711 -1.2220
 1679SOL    HW216500   0.436   0.520   9.547  0.8111  0.0024  3.0172
 1680SOL     OW16501   2.870   3.143   3.267 -0.3359  0.4580  0.3978
 1680SOL    HW116502   2.816   3.202   3.319 -1.1483  0.0775 -0.0012
 1680SOL    HW216503   2.957   3.182   3.275 -0.7159  1.3924 -0.0312
 1681SOL     OW16504   4.533   2.447  10.687  0.9268  0.1609 -0.6167
 1681SOL    HW116505   4.554   2.373  10.744  0.0318  0.9486  0.7141
 1681SOL    HW216506   4.614   2.478  10.647 -0.3325  3.5182 -0.5334
 1682SOL     OW16507   1.638   4.629  12.432 -0.1311 -0.7707 -0.5831
 1682SOL    HW116508   1.565   4.598  12.486 -1.0144  1.4255 -0.5208
 1682SOL    HW216509   1.658   4.715  12.470 -0.9116 -0.3361 -1.1642
 1683SOL     OW16510   3.969   2.639   5.439 -0.1875  0.0970 -0.2481
 1683SOL    HW116511   3.915   2.667   5.365  0.3492  2.1120  0.1209
 1683SOL    HW216512   4.058   2.644   5.403  0.3041 -1.7688  0.6982
 1684SOL     OW16513   2.948   1.668   1.177 -0.1626  0.3416  0.4595
 1684SOL    HW116514   2.979   1.621   1.255 -3.8900 -1.2964  0.9347
 1684SOL    HW216515   2.866   1.629   1.146  0.1813 -1.2183  1.4913
 1685SOL     OW16516   3.181   1.221  14.346  0.2398 -0.0376 -0.6875
 1685SOL    HW116517   3.163   1.143  14.293 -1.9793  1.0771 -1.5322
 1685SOL    HW216518   3.108   1.279  14.327  0.9533  0.5248 -1.6659
 1686SOL     OW16519   2.050   2.457   4.502 -0.0738 -0.3642 -0.2172
 1686SOL    HW116520   2.126   2.420   4.457  1.5659  1.5384  1.0152
 1686SOL    HW216521   1.995   2.468   4.425 -2.4594  0.1402  1.5401
 1687SOL     OW16522   0.385   0.634   6.571  0.2496 -0.5228  0.2372
 1687SOL    HW116523   0.453   0.570   6.547 -0.4921 -0.4197 -2.1305
 1687SOL    HW216524   0.438   0.710   6.591  2.7608 -2.7840  2.1942
 1688SOL     OW16525   2.220   4.093  11.400 -0.1842  0.0187 -0.0381
 1688SOL    HW116526   2.138   4.046  11.414 -0.7544  1.1779  0.5968
 1688SOL    HW216527   2.249   4.092  11.491 -0.2400  0.0857 -0.0187
 1689SOL     OW16528   1.176   0.887  16.116  0.6061  0.0374 -0.1558
 1689SOL    HW116529   1.257   0.849  16.151  1.2024 -0.8567 -2.4875
 1689SOL    HW216530   1.113   0.817  16.132 -1.1773  1.2444 -1.9432
 1690SOL     OW16531   2.430   3.879   4.274 -0.6600  0.2592 -0.7896
 1690SOL    HW116532   2.435   3.959   4.222 -2.2460  0.1318 -1.1395
 1690SOL    HW216533   2.412   3.918   4.360 -0.4747  2.3750 -1.7007
 1691SOL     OW16534   4.250   3.873   5.113  0.2321  0.0423 -0.5732
 1691SOL    HW116535   4.228   3.780   5.101  3.2561 -0.7539  0.2470
 1691SOL    HW216536   4.313   3.863   5.183 -1.2180  0.5502  0.7999
 1692SOL     OW16537   2.820   3.461   7.904  0.4582 -0.6604 -0.1142
 1692SOL    HW116538   2.785   3.494   7.821  0.9850  1.6740  0.5727
 1692SOL    HW216539   2.876   3.538   7.919  0.7098 -1.3202  2.3398
 1693SOL     OW16540   0.679   1.870   8.656  0.2901 -0.0257  0.2058
 1693SOL    HW116541   0.761   1.869   8.606 -0.2538 -1.3566 -0.6632
 1693SOL    HW216542   0.620   1.889   8.583 -1.1255  1.0172  1.6374
 1694SOL     OW16543   1.972   1.206   1.985 -0.2579 -0.3964 -0.0971
 1694SOL    HW116544   1.926   1.268   1.928 -1.5274 -0.9715  0.3151
 1694SOL    HW216545   2.023   1.143   1.934 -0.2880  0.2018 -0.8696
 1695SOL     OW16546   3.153   4.676   4.299  0.5842  0.0285  0.0723
 1695SOL    HW116547   3.196   0.008   4.365  0.9372 -0.2645  0.0912
 1695SOL    HW216548   3.125   4.611   4.364  0.1876  0.6477  0.5213
 1696SOL     OW16549   1.852   3.357   6.544  0.0746  0.1449 -0.4985
 1696SOL    HW116550   1.866   3.423   6.612  0.3662 -1.0976  0.6561
 1696SOL    HW216551   1.770   3.323   6.581 -0.3746  2.7544  0.9810
 1697SOL     OW16552   3.179   0.383   2.349 -0.1856  0.3568  0.1785
 1697SOL    HW116553   3.129   0.337   2.416  1.1124  0.9308  1.5273
 1697SOL    HW216554   3.104   0.432   2.315 -0.4523  0.6184  1.1377
 1698SOL     OW16555   0.656   0.509   5.174 -0.3531  0.5683 -0.4508
 1698SOL    HW116556   0.613   0.434   5.216 -1.1443  1.3434  0.1244
 1698SOL    HW216557   0.582   0.566   5.157  0.3079  1.4547 -0.3580
 1699SOL     OW16558   0.286   3.430   2.875 -0.1661 -0.0368  0.1555
 1699SOL    HW116559   0.281   3.346   2.828  1.8176 -1.1115  1.8609
 1699SOL    HW216560   0.374   3.420   2.911 -1.3531 -0.2311  3.0422
 1700SOL     OW16561   3.111   3.570   2.424  0.3324 -0.6003 -0.0564
 1700SOL    HW116562   3.027   3.528   2.406  0.5425 -0.2245 -1.9440
 1700SOL    HW216563   3.088   3.644   2.481  0.5244 -0.7878  0.2640
 1701SOL     OW16564   2.345   2.981  13.048 -0.0563 -0.6544 -0.1457
 1701SOL    HW116565   2.345   3.040  13.123  1.0173 -0.4254 -0.3269
 1701SOL    HW216566   2.289   3.025  12.983 -1.2025 -1.6894  0.1381
 1702SOL     OW16567   2.268   4.080  14.194  0.1989  0.4305 -0.0321
 1702SOL    HW116568   2.319   4.011  14.151 -0.1919 -1.6460  2.7464
 1702SOL    HW216569   2.234   4.130  14.120  0.1752  1.8527  0.9436
 1703SOL     OW16570   0.004   1.657   4.327 -0.4089  0.5647  0.0832
 1703SOL    HW116571   0.018   1.717   4.253  2.9453  1.3446  1.3261
 1703SOL    HW216572   4.690   1.587   4.274  1.0934  0.0112 -0.2454
 1704SOL     OW16573   2.428   4.151   3.751  0.0863 -0.1950 -1.3085
 1704SOL    HW116574   2.381   4.184   3.828  0.0933 -0.1145 -1.3395
 1704SOL    HW216575   2.354   4.134   3.692 -1.6829  0.5373  0.6816
 1705SOL     OW16576   1.725   4.559   7.496  0.0778  0.7026 -0.0297
 1705SOL    HW116577   1.651   4.550   7.556  2.5394  0.2287  2.9367
 1705SOL    HW216578   1.680   4.610   7.428 -0.8360  1.2592  0.9945
 1706SOL     OW16579   2.785   3.994   2.902  0.5162  0.1101  0.2161
 1706SOL    HW116580   2.716   3.954   2.850  0.0056  0.2481  0.7890
 1706SOL    HW216581   2.828   3.913   2.930  0.4853  0.6343  1.7947
 1707SOL     OW16582   0.179   1.364  14.024 -0.0925  0.5547  0.8210
 1707SOL    HW116583   0.132   1.309  13.961  2.3138  0.2757 -0.7269
 1707SOL    HW216584   0.144   1.452  14.008  1.1522  0.6008 -1.7044
 1708SOL     OW16585   0.908   1.577  12.779  0.3862 -0.1816 -0.0260
 1708SOL    HW116586   0.815   1.559  12.767  0.1150  1.4346 -0.4024
 1708SOL    HW216587   0.900   1.621  12.865 -0.7236 -0.0069 -0.2167
 1709SOL     OW16588   2.985   2.777  15.888 -0.3999 -0.4820 -0.0414
 1709SOL    HW116589   2.985   2.772  15.984  1.3943  2.3282  0.1182
 1709SOL    HW216590   3.068   2.736  15.865  0.4427  0.4356  1.3789
 1710SOL     OW16591   1.238   2.206  16.078  0.2223  0.0839  0.0433
 1710SOL    HW116592   1.177   2.211  16.151  1.4419 -1.0275  1.1573
 1710SOL    HW216593   1.236   2.287  16.028 -1.1805 -0.5223 -0.8883
 1711SOL     OW16594   2.064   1.278   4.350 -0.3365  0.4755  0.3187
 1711SOL    HW116595   2.130   1.295   4.418  0.1365 -0.2325  0.0376
 1711SOL    HW216596   2.111   1.215   4.296  0.1847  0.6107  0.6186
 1712SOL     OW16597   1.170   1.084   3.541 -0.6683  0.9957  0.2028
 1712SOL    HW116598   1.123   1.151   3.592 -1.2686 -0.9478  2.1834
 1712SOL    HW216599   1.194   1.136   3.464 -1.6890 -0.8678 -1.3567
 1713SOL     OW16600   3.515   0.999   2.979 -0.5685 -0.5255  0.8073
 1713SOL    HW116601   3.532   0.978   2.887  0.2250  0.9775  0.6077
 1713SOL    HW216602   3.479   0.918   3.014  1.0139 -0.4024  2.7288
 1714SOL     OW16603   1.169   0.612  13.348 -0.5748 -0.0142 -0.3617
 1714SOL    HW116604   1.153   0.530  13.301 -1.3513 -0.1688  0.1693
 1714SOL    HW216605   1.212   0.656  13.275  0.9207 -0.4041  0.2815
 1715SOL     OW16606   0.512   1.408  14.597  0.2351 -0.3910 -0.4265
 1715SOL    HW116607   0.544   1.477  14.655 -0.7300  0.0796 -0.4609
 1715SOL    HW216608   0.470   1.347  14.658 -0.6275  2.0208  1.3666
 1716SOL     OW16609   3.447   1.853   2.953  0.6443  0.1317 -0.1909
 1716SOL    HW116610   3.528   1.872   2.905  0.7884 -1.0447 -0.4242
 1716SOL    HW216611   3.388   1.844   2.878 -0.3388 -2.8329  0.9271
 1717SOL     OW16612   4.030   0.087  10.188 -0.7194 -0.4227  0.0260
 1717SOL    HW116613   3.976   0.138  10.127  0.2311  0.6105  0.0613
 1717SOL    HW216614   4.113   0.091  10.142 -0.5288  0.2107  0.4163
 1718SOL     OW16615   2.136   3.566   4.589  0.3651 -0.0371 -0.4187
 1718SOL    HW116616   2.133   3.550   4.684  0.4689 -1.4977 -0.6539
 1718SOL    HW216617   2.203   3.502   4.567  2.3501  1.7928  0.2770
 1719SOL     OW16618   1.964   2.437   4.259  0.1500 -0.2316  0.3657
 1719SOL    HW116619   1.876   2.445   4.221  0.2719  1.9000  0.5446
 1719SOL    HW216620   2.027   2.425   4.188 -0.6911 -0.3451 -0.3766
 1720SOL     OW16621   0.606   1.998   1.968  0.2265 -0.3973  0.0741
 1720SOL    HW116622   0.547   2.037   2.032 -0.2780  0.4374 -0.8960
 1720SOL    HW216623   0.597   1.907   1.997 -2.9745 -0.0177  0.2491
 1721SOL     OW16624   1.176   2.323   7.393 -0.2992 -0.1192 -0.2622
 1721SOL    HW116625   1.113   2.275   7.340 -0.1296 -1.1882  0.5128
 1721SOL    HW216626   1.149   2.414   7.379  0.9646  0.2681 -0.1884
 1722SOL     OW16627   3.131   1.666   6.591 -0.4139  0.4519 -0.6798
 1722SOL    HW116628   3.072   1.681   6.665  0.0449 -1.5391  0.0795
 1722SOL    HW216629   3.207   1.724   6.601 -3.4017  3.9000  2.1076
 1723SOL     OW16630   4.675   1.890   7.366  0.0994 -0.3974  0.3139
 1723SOL    HW116631   4.717   1.962   7.412  1.9535 -0.7298 -0.8516
 1723SOL    HW216632   4.654   1.832   7.439  1.6723 -1.2646  0.0833
 1724SOL     OW16633   3.734   1.691   1.288 -0.1246 -0.1444  0.2883
 1724SOL    HW116634   3.730   1.786   1.294 -1.6683 -0.2601  1.0835
 1724SOL    HW216635   3.789   1.682   1.210 -0.2943  0.0782  0.1447
 1725SOL     OW16636   1.047   2.287   4.657  0.1790  0.3843  0.0967
 1725SOL    HW116637   1.127   2.269   4.607 -1.0027 -3.3035 -0.4994
 1725SOL    HW216638   1.025   2.199   4.689  0.3147  0.0418 -0.7410
 1726SOL     OW16639   0.989   1.931  16.179  0.0594 -0.1628  0.5642
 1726SOL    HW116640   1.054   1.996  16.205 -0.3901  0.6866 -0.4549
 1726SOL    HW216641   0.924   1.939  16.249  0.0014  0.7992  0.3993
 1727SOL     OW16642   2.078   1.125   8.785  0.4851 -0.4247  0.4327
 1727SOL    HW116643   2.080   1.040   8.828 -1.5497 -0.3163  0.7417
 1727SOL    HW216644   2.168   1.122   8.752  0.8286 -0.9585  1.4318
 1728SOL     OW16645   3.767   0.053   9.195 -0.2117  0.0235 -0.0654
 1728SOL    HW116646   3.753   0.126   9.134  0.3514 -1.1894 -1.6370
 1728SOL    HW216647   3.780   0.098   9.279  0.7842  0.5580 -0.5047
 1729SOL     OW16648   2.914   0.688   2.844 -0.2111 -0.4876 -0.0095
 1729SOL    HW116649   2.913   0.781   2.865 -0.9844 -0.1346 -1.5668
 1729SOL    HW216650   3.007   0.668   2.852  0.1008  0.2075 -1.8456
 1730SOL     OW16651   2.009   0.815   2.636  0.6915 -0.3233  0.5395
 1730SOL    HW116652   1.957   0.853   2.707 -0.1542 -0.2440 -0.1313
 1730SOL    HW216653   1.946   0.817   2.564  0.6648  0.0119  0.5684
 1731SOL     OW16654   4.499   2.757   6.440  0.5160  0.5100  1.0101
 1731SOL    HW116655   4.434   2.726   6.503 -0.0271  0.7677  0.5689
 1731SOL    HW216656   4.528   2.841   6.475  0.8393  0.9259 -0.2435
 1732SOL     OW16657   1.218   1.930   2.329 -0.2354  0.3163  0.3132
 1732SOL    HW116658   1.163   1.871   2.276 -0.2059 -0.0884  0.7312
 1732SOL    HW216659   1.259   1.991   2.268 -1.5909  1.6200  0.7166
 1733SOL     OW16660   3.725   0.969   9.473  0.0842 -0.3815 -0.0518
 1733SOL    HW116661   3.776   0.904   9.425 -0.8010 -2.0688  1.2796
 1733SOL    HW216662   3.799   1.029   9.489 -1.8081  1.4745  1.6994
 1734SOL     OW16663   0.784   2.850   6.226 -0.6220  0.1508  0.5231
 1734SOL    HW116664   0.839   2.792   6.279  0.3026  0.6828  0.1302
 1734SOL    HW216665   0.703   2.849   6.277 -1.9605  0.8612 -1.6072
 1735SOL     OW16666   0.063   1.719   3.079  0.0128 -0.0002 -0.0762
 1735SOL    HW116667   0.093   1.723   2.988  0.5165  1.0102  0.1252
 1735SOL    HW216668   4.705   1.769   3.080  1.0624  1.7422 -2.3880
 1736SOL     OW16669   3.816   0.436  17.635 -0.1085  0.2580 -0.1166
 1736SOL    HW116670   3.881   0.454  17.566 -1.0616 -0.8034 -1.2763
 1736SOL    HW216671   3.793   0.523  17.668 -0.0176  0.1419  0.2540
 1737SOL     OW16672   2.706   0.922  10.265  0.5253  0.3933  0.1256
 1737SOL    HW116673   2.627   0.927  10.211  0.4667 -1.4403  0.0273
 1737SOL    HW216674   2.701   0.839  10.311  0.1081 -0.9600 -2.3505
 1738SOL     OW16675   2.234   0.340   5.752 -0.0140 -0.4300  0.0022
 1738SOL    HW116676   2.313   0.341   5.806  1.4137 -0.9323 -2.0665
 1738SOL    HW216677   2.221   0.434   5.738 -0.1568 -0.0112  3.0880
 1739SOL     OW16678   2.445   0.573   8.033 -0.5841 -0.0840  0.0054
 1739SOL    HW116679   2.469   0.545   8.121 -1.1157  0.9291  0.4701
 1739SOL    HW216680   2.356   0.603   8.050 -0.7776  0.2029 -1.5152
 1740SOL     OW16681   3.644   0.758  15.867 -0.6559 -0.1396 -0.3260
 1740SOL    HW116682   3.599   0.740  15.784 -0.5296 -2.1955  0.0523
 1740SOL    HW216683   3.692   0.840  15.855 -0.8768 -0.1877 -1.5914
 1741SOL     OW16684   4.020   1.277   3.651  0.4014  0.0927 -0.5684
 1741SOL    HW116685   4.041   1.323   3.570 -7.1103  3.8178 -0.4873
 1741SOL    HW216686   3.926   1.281   3.671  0.0412  1.5854 -2.5222
 1742SOL     OW16687   4.361   3.432   8.529 -0.2448 -0.1914 -0.5623
 1742SOL    HW116688   4.422   3.388   8.471  0.2368  1.2471 -1.1399
 1742SOL    HW216689   4.412   3.461   8.605 -2.8257  2.0113  0.3184
 1743SOL     OW16690   2.864   4.333   9.914  0.1220 -0.4562 -0.0653
 1743SOL    HW116691   2.856   4.298   9.825 -0.0989  0.1438 -0.2831
 1743SOL    HW216692   2.940   4.284   9.944  1.4204  2.2273  0.9467
 1744SOL     OW16693   0.651   1.713   0.834  0.0938  0.5820  0.0805
 1744SOL    HW116694   0.711   1.785   0.855  2.6132 -0.4215 -3.7415
 1744SOL    HW216695   0.581   1.760   0.789 -1.4145 -2.0962 -0.3874
 1745SOL     OW16696   1.487   2.429  15.821 -0.2291  0.2964 -0.1797
 1745SOL    HW116697   1.488   2.386  15.735 -1.4650 -1.2100  0.5506
 1745SOL    HW216698   1.578   2.457  15.825  0.5196 -1.9582 -1.4117
 1746SOL     OW16699   0.350   1.934   6.157 -0.3308  0.4423  0.2540
 1746SOL    HW116700   0.267   1.920   6.110  0.0995 -0.0800 -0.3437
 1746SOL    HW216701   0.328   2.016   6.202 -2.4891  0.4684 -0.8359
 1747SOL     OW16702   0.397   3.113   2.958 -0.5254  0.2094 -0.2963
 1747SOL    HW116703   0.393   3.157   2.874 -0.7899  0.7721  0.0157
 1747SOL    HW216704   0.442   3.035   2.925  0.9725  1.6602 -1.6783
 1748SOL     OW16705   4.159   0.276   7.958 -0.0727  0.3100 -0.1371
 1748SOL    HW116706   4.191   0.244   8.042  1.2030 -1.4071 -1.2581
 1748SOL    HW216707   4.070   0.242   7.950  0.0140 -0.3021  1.5794
 1749SOL     OW16708   3.989   4.481   8.305 -0.2654  0.2853  0.2212
 1749SOL    HW116709   3.993   4.400   8.255 -0.4301  1.8614 -2.3026
 1749SOL    HW216710   3.901   4.469   8.341 -0.8587  1.3513 -0.8776
 1750SOL     OW16711   4.620   4.306   9.922 -0.0198 -0.0334 -0.0171
 1750SOL    HW116712   4.532   4.340   9.907  0.7788  1.7236 -0.7581
 1750SOL    HW216713   4.621   4.229   9.866  1.0730 -1.4230  1.9269
 1751SOL     OW16714   0.457   0.437  10.786 -0.6282 -0.1465  0.2074
 1751SOL    HW116715   0.526   0.438  10.720 -0.9322 -0.2460 -0.1120
 1751SOL    HW216716   0.507   0.432  10.868 -1.8182 -0.0448  0.9432
 1752SOL     OW16717   0.772   3.709   8.484  0.1839  0.0768 -0.3444
 1752SOL    HW116718   0.806   3.753   8.562 -0.5723  1.6734 -0.9142
 1752SOL    HW216719   0.825   3.630   8.495  2.3305  1.3381 -1.5111
 1753SOL     OW16720   2.116   1.178  10.337 -0.3568 -0.4627 -0.2559
 1753SOL    HW116721   2.192   1.123  10.319  1.9314  3.0263 -1.2320
 1753SOL    HW216722   2.104   1.156  10.430  0.7676  0.0078 -0.0008
 1754SOL     OW16723   4.083   1.525   2.493 -0.3901 -0.0878 -0.1164
 1754SOL    HW116724   4.025   1.496   2.422  1.4065 -0.2055 -1.5442
 1754SOL    HW216725   4.076   1.618   2.471  0.4404 -0.5468 -2.3931
 1755SOL     OW16726   0.467   2.027   3.737 -0.2466 -0.1193  0.4218
 1755SOL    HW116727   0.419   2.104   3.706  0.8630 -0.5320 -2.3074
 1755SOL    HW216728   0.428   2.016   3.824 -0.4209  3.4184  0.8203
 1756SOL     OW16729   4.349   3.725   8.083  0.1291 -0.1068  0.0461
 1756SOL    HW116730   4.349   3.631   8.102 -0.8965  0.0649  0.9329
 1756SOL    HW216731   4.362   3.748   8.175  1.7556 -1.1410  0.0680
 1757SOL     OW16732   1.068   1.120   4.136  0.0890 -0.1708  0.5130
 1757SOL    HW116733   1.014   1.045   4.112 -0.2592 -0.3889  1.9776
 1757SOL    HW216734   1.007   1.174   4.187  0.2157  0.4583  0.0014
 1758SOL     OW16735   3.638   4.168  12.246 -0.0351 -0.2597  0.0822
 1758SOL    HW116736   3.588   4.114  12.185  1.7464 -2.8511  0.9137
 1758SOL    HW216737   3.687   4.113  12.307 -1.8995 -1.2935  0.6528
 1759SOL     OW16738   0.557   1.960   8.384 -0.2461  0.1688  0.5863
 1759SOL    HW116739   0.468   1.962   8.349  0.6630 -1.9796 -1.8217
 1759SOL    HW216740   0.580   2.051   8.368 -1.6059  0.5057  0.4944
 1760SOL     OW16741   2.893   1.700  13.445 -0.5296 -0.1032  0.2139
 1760SOL    HW116742   2.852   1.689  13.359 -0.8021  0.4779  0.2682
 1760SOL    HW216743   2.984   1.672  13.437 -1.0181 -1.7946  0.5749
 1761SOL     OW16744   3.411   4.070   6.137  0.0665  0.3942 -0.0969
 1761SOL    HW116745   3.505   4.050   6.143 -0.4997 -2.0229  0.8784
 1761SOL    HW216746   3.410   4.164   6.122  0.7773  0.1985 -1.3860
 1762SOL     OW16747   3.148   1.644   9.858  0.1514 -0.7787 -0.4704
 1762SOL    HW116748   3.096   1.661   9.936  2.0241 -2.5872  1.2043
 1762SOL    HW216749   3.109   1.703   9.794  0.9871  0.9802  0.6396
 1763SOL     OW16750   4.555   2.213   3.244  0.2100  0.3477 -0.5502
 1763SOL    HW116751   4.587   2.150   3.179 -0.3971 -0.2317 -0.2783
 1763SOL    HW216752   4.463   2.191   3.256  1.4767 -3.9264  1.1335
 1764SOL     OW16753   0.922   3.113   3.365 -0.3356  0.5825  0.1038
 1764SOL    HW116754   0.932   3.168   3.443  0.8374 -1.4730  1.3932
 1764SOL    HW216755   1.001   3.059   3.363 -0.5267  0.3058  0.1403
 1765SOL     OW16756   2.583   4.691   6.326 -0.4660  0.3468  0.1986
 1765SOL    HW116757   2.670   0.009   6.321 -0.0175 -0.5609  0.4477
 1765SOL    HW216758   2.599   4.597   6.340 -2.5493  0.1071  0.9761
 1766SOL     OW16759   0.364   1.444   7.082  0.2975 -0.1097  0.2133
 1766SOL    HW116760   0.340   1.520   7.030  0.7342  1.0214  1.6862
 1766SOL    HW216761   0.383   1.384   7.010  0.4984  1.4018 -0.9927
 1767SOL     OW16762   0.214   3.062   0.445  0.0456  0.0086 -0.2592
 1767SOL    HW116763   0.183   3.094   0.360 -1.4491 -0.9436 -0.0619
 1767SOL    HW216764   0.146   3.002   0.477 -0.5594 -0.0643 -1.6662
 1768SOL     OW16765   1.729   0.409   2.479 -0.1652 -0.7770 -0.2666
 1768SOL    HW116766   1.718   0.442   2.568 -2.3341 -0.9253 -0.4810
 1768SOL    HW216767   1.798   0.345   2.501  1.2331  0.4015 -1.2422
 1769SOL     OW16768   1.033   0.666   5.751 -0.1546 -0.2098 -0.1554
 1769SOL    HW116769   1.110   0.684   5.696  0.2847  0.2672  0.6276
 1769SOL    HW216770   0.962   0.665   5.686 -0.1536 -0.8342 -0.1445
 1770SOL     OW16771   0.880   3.847  16.964  0.0132  0.2669  0.2520
 1770SOL    HW116772   0.842   3.924  17.007 -1.4183 -1.2230  1.6884
 1770SOL    HW216773   0.958   3.831  17.016 -0.8055  0.2012  1.4722
 1771SOL     OW16774   1.108   4.119  11.755  0.6473  0.7839 -0.0470
 1771SOL    HW116775   1.181   4.063  11.728 -2.4834 -3.0035 -0.6997
 1771SOL    HW216776   1.112   4.177  11.680  0.3903  0.5074 -0.2740
 1772SOL     OW16777   1.076   3.885  14.179 -0.4770 -0.8449 -0.2127
 1772SOL    HW116778   1.138   3.893  14.252 -0.3861 -1.1959 -0.2498
 1772SOL    HW216779   1.073   3.973  14.144  3.5330 -0.4543  0.3790
 1773SOL     OW16780   0.417   3.682   4.258 -0.1816 -0.0512  0.0998
 1773SOL    HW116781   0.380   3.627   4.328 -2.1567  0.7604 -0.3215
 1773SOL    HW216782   0.485   3.733   4.302  0.4988 -1.9491  1.2822
 1774SOL     OW16783   3.553   2.743   6.112 -0.4055 -0.1752 -0.0863
 1774SOL    HW116784   3.591   2.658   6.091 -1.7199  0.1257 -3.6072
 1774SOL    HW216785   3.582   2.757   6.202  1.5364 -0.9060 -0.6032
 1775SOL     OW16786   2.736   1.244   8.760  0.5495 -0.4962  0.2906
 1775SOL    HW116787   2.801   1.260   8.829  2.3574  1.7044 -1.9172
 1775SOL    HW216788   2.764   1.154   8.742 -1.6577 -0.9584 -0.7931
 1776SOL     OW16789   0.187   1.546  12.650  0.1978 -0.2308 -0.3195
 1776SOL    HW116790   0.162   1.625  12.698 -4.3600  0.0824 -3.1726
 1776SOL    HW216791   0.278   1.560  12.624  0.0876  0.7188 -0.1637
 1777SOL     OW16792   3.745   1.451  15.162  0.4045 -0.4903  0.0165
 1777SOL    HW116793   3.803   1.475  15.234  0.7290 -2.1329  0.3074
 1777SOL    HW216794   3.789   1.374  15.123  1.4826 -0.5720  1.4096
 1778SOL     OW16795   3.706   1.214   2.283  0.2789 -0.2602 -0.5035
 1778SOL    HW116796   3.681   1.212   2.190 -0.9088  1.8051 -0.2252
 1778SOL    HW216797   3.775   1.280   2.283 -0.3346  0.3796  0.3158
 1779SOL     OW16798   2.266   1.779   1.841 -0.0114  0.7178 -0.0465
 1779SOL    HW116799   2.349   1.802   1.800  0.9174 -0.9516  0.8868
 1779SOL    HW216800   2.207   1.808   1.771 -1.0999 -2.6452 -0.5191
 1780SOL     OW16801   3.537   4.124  13.461 -0.4576 -0.1034 -0.0792
 1780SOL    HW116802   3.444   4.144  13.471  0.2660  2.0393  2.5358
 1780SOL    HW216803   3.560   4.154  13.549  0.7784 -1.4949  0.0575
 1781SOL     OW16804   4.420   1.786  16.738  0.0724 -0.0585  0.0479
 1781SOL    HW116805   4.473   1.863  16.719 -1.2647  0.8988  0.1418
 1781SOL    HW216806   4.353   1.832  16.789  0.4385  0.4685  0.0499
 1782SOL     OW16807   3.036   1.636  16.863  0.1906  0.5189  0.0544
 1782SOL    HW116808   3.072   1.625  16.775  0.4578  2.2625 -0.0647
 1782SOL    HW216809   3.089   1.582  16.922  0.9549  2.1102  0.8288
 1783SOL     OW16810   2.936   1.537  15.069 -0.0689 -0.1291 -0.2396
 1783SOL    HW116811   2.934   1.570  14.979 -0.4967  0.0624 -0.1591
 1783SOL    HW216812   2.892   1.453  15.055 -0.1176 -0.2597  0.6847
 1784SOL     OW16813   3.796   0.032   6.253  0.2562  0.1017  0.1717
 1784SOL    HW116814   3.814   4.683   6.193 -0.2323 -0.3482  0.5611
 1784SOL    HW216815   3.758   0.095   6.191 -0.6825 -0.7316 -0.1054
 1785SOL     OW16816   0.393   3.216  17.414 -0.1370  0.5444  0.4886
 1785SOL    HW116817   0.399   3.122  17.396 -2.3967  1.3593 -4.3753
 1785SOL    HW216818   0.476   3.213  17.462  1.0003 -2.1178 -1.6177
 1786SOL     OW16819   3.415   1.194  14.171 -0.4125  0.4598  0.3722
 1786SOL    HW116820   3.321   1.191  14.191  0.1803  1.2027  3.2798
 1786SOL    HW216821   3.427   1.286  14.146  0.9116 -0.0570 -0.8556
 1787SOL     OW16822   3.945   1.407   4.363  0.1347  0.2813 -0.0933
 1787SOL    HW116823   3.936   1.440   4.274 -0.3547 -0.5734 -0.3566
 1787SOL    HW216824   3.855   1.412   4.394 -0.4431 -1.3668 -1.5081
 1788SOL     OW16825   2.299   4.693   5.268  0.5842  0.3695  0.6789
 1788SOL    HW116826   2.363   4.623   5.282 -0.8643 -1.3045 -1.1790
 1788SOL    HW216827   2.316   4.721   5.178  1.3104  0.5741  0.8787
 1789SOL     OW16828   4.442   2.962   3.636 -0.6276  0.4092 -0.3453
 1789SOL    HW116829   4.391   2.890   3.600 -0.3965 -0.5787  1.3357
 1789SOL    HW216830   4.460   3.010   3.555 -1.3024  1.1474 -0.0589
 1790SOL     OW16831   4.256   4.420   6.111  0.4722  0.1728 -0.4077
 1790SOL    HW116832   4.249   4.462   6.026 -2.0928  0.3528 -0.1185
 1790SOL    HW216833   4.212   4.475   6.176 -0.4396 -1.4064  0.3122
 1791SOL     OW16834   4.151   0.178   0.707  0.2917 -0.3460 -0.2811
 1791SOL    HW116835   4.111   0.105   0.660  0.8752 -1.7934  1.4574
 1791SOL    HW216836   4.218   0.214   0.648  0.0278 -0.0076 -0.3723
 1792SOL     OW16837   1.817   1.348  14.043 -0.4457 -0.0033 -0.4525
 1792SOL    HW116838   1.902   1.332  14.002  0.8334  1.8074  1.5214
 1792SOL    HW216839   1.816   1.275  14.105  1.2672 -0.6264 -1.1448
 1793SOL     OW16840   2.839   4.229  17.197  0.3744  0.1569 -0.6654
 1793SOL    HW116841   2.902   4.254  17.130 -1.3299  1.7124 -1.7071
 1793SOL    HW216842   2.757   4.220  17.148 -0.6595  1.7934  0.7506
 1794SOL     OW16843   1.379   2.877   4.276  0.6539 -0.5443 -0.6808
 1794SOL    HW116844   1.413   2.961   4.248  1.0741 -1.1194 -1.8941
 1794SOL    HW216845   1.300   2.896   4.327  0.8534  1.0960 -1.0125
 1795SOL     OW16846   3.989   1.881   8.269  0.5011 -0.0345  0.0827
 1795SOL    HW116847   4.072   1.835   8.257 -0.2696 -0.8116 -2.1782
 1795SOL    HW216848   3.935   1.821   8.321  0.5769  0.3798  0.6507
 1796SOL     OW16849   2.475   2.044   4.211 -0.7324 -0.1945 -0.3399
 1796SOL    HW116850   2.568   2.025   4.227 -0.6548 -1.3165 -2.1466
 1796SOL    HW216851   2.449   2.045   4.303  0.5548 -0.8684  0.0324
 1797SOL     OW16852   1.005   3.736  14.574 -0.3093 -0.1340  0.2614
 1797SOL    HW116853   1.087   3.711  14.617  0.5723  1.2739 -0.5881
 1797SOL    HW216854   0.961   3.654  14.598 -0.0774  0.1408  1.6641
 1798SOL     OW16855   3.126   0.119   8.880  0.1116 -0.0700  0.0798
 1798SOL    HW116856   3.099   0.185   8.943  1.5185 -0.6280  1.2657
 1798SOL    HW216857   3.066   0.047   8.900 -1.7269  1.2107 -0.7925
 1799SOL     OW16858   2.383   2.522   5.383  0.5815 -0.5513  0.1491
 1799SOL    HW116859   2.343   2.485   5.462 -2.6128  1.5495 -0.4832
 1799SOL    HW216860   2.332   2.603   5.380  0.9533 -0.3780 -1.6144
 1800SOL     OW16861   4.678   2.943   7.897  0.3128 -0.1092  0.4419
 1800SOL    HW116862   0.005   2.886   7.838  1.3322 -0.1836  1.3842
 1800SOL    HW216863   4.599   2.889   7.904  0.6147 -0.1193  3.7690
 1801SOL     OW16864   0.416   2.682   5.715 -0.0880 -0.3299 -0.0750
 1801SOL    HW116865   0.411   2.631   5.634 -0.1680 -1.3282  0.5586
 1801SOL    HW216866   0.434   2.770   5.683 -0.9351 -0.2497 -0.3070
 1802SOL     OW16867   3.651   2.485   6.038 -0.6288  0.1729 -0.0656
 1802SOL    HW116868   3.732   2.478   6.089 -0.9431 -0.6746  0.3103
 1802SOL    HW216869   3.685   2.449   5.956 -1.4311  1.9182 -1.1658
 1803SOL     OW16870   4.315   2.411   2.650 -0.1490  0.0757  0.2239
 1803SOL    HW116871   4.264   2.442   2.725  1.9723 -1.6024  2.3629
 1803SOL    HW216872   4.403   2.418   2.685  0.2572 -1.6925 -0.4496
 1804SOL     OW16873   3.983   3.198  15.161  0.2875 -0.5088 -0.2190
 1804SOL    HW116874   4.040   3.205  15.085  1.7366  0.8210  0.9897
 1804SOL    HW216875   4.020   3.119  15.200 -0.6363  0.1689  2.0745
 1805SOL     OW16876   1.722   4.389   0.283 -0.5675  0.1033 -0.3362
 1805SOL    HW116877   1.749   4.401   0.374 -0.9297  1.0442 -0.3461
 1805SOL    HW216878   1.803   4.384   0.231 -0.0868  2.2132  0.1685
 1806SOL     OW16879   4.604   4.399   7.568 -0.1476  0.2584 -0.3249
 1806SOL    HW116880   4.590   4.319   7.618  1.4981  0.2559  0.1396
 1806SOL    HW216881   4.529   4.456   7.586 -0.8121 -0.7772  0.1662
 1807SOL     OW16882   2.573   3.837   3.347 -0.3707  0.4142  0.4747
 1807SOL    HW116883   2.550   3.858   3.437 -1.1578  0.4925  0.2558
 1807SOL    HW216884   2.646   3.895   3.327  0.7326 -0.3281  2.4068
 1808SOL     OW16885   1.717   3.486   8.767  0.0974  0.0323  0.3110
 1808SOL    HW116886   1.702   3.391   8.767 -0.8553  0.1946 -2.1493
 1808SOL    HW216887   1.715   3.500   8.862  0.7636  1.2356  0.1525
 1809SOL     OW16888   1.401   0.749  12.803 -0.3810  0.3245  0.6313
 1809SOL    HW116889   1.327   0.766  12.861 -2.0513  1.6402 -1.9175
 1809SOL    HW216890   1.368   0.707  12.723 -1.7255 -1.8039  2.2965
 1810SOL     OW16891   2.016   0.590   3.639 -0.0122  0.1431 -0.0745
 1810SOL    HW116892   2.065   0.638   3.572  1.6195  1.0162  1.7578
 1810SOL    HW216893   1.939   0.575   3.584 -0.3766  0.7935  0.2567
 1811SOL     OW16894   1.369   3.239  17.505  0.1627 -0.5381 -0.8748
 1811SOL    HW116895   1.460   3.233  17.479  0.8566 -0.2172  1.4952
 1811SOL    HW216896   1.351   3.155  17.545  2.3330  0.6442  2.5621
 1812SOL     OW16897   2.744   2.159   9.278 -0.2177  0.2951  0.2462
 1812SOL    HW116898   2.652   2.137   9.265  0.0018 -0.7334  0.4466
 1812SOL    HW216899   2.761   2.204   9.195 -1.1622 -0.0282 -0.1285
 1813SOL     OW16900   3.750   0.745   5.030 -0.0639  0.1266  0.2661
 1813SOL    HW116901   3.789   0.706   5.109 -0.2117  1.7839  1.1556
 1813SOL    HW216902   3.723   0.829   5.066  0.4712  0.0251  0.9038
 1814SOL     OW16903   0.957   4.348  17.365 -0.6082  0.0404  0.4118
 1814SOL    HW116904   1.008   4.300  17.300  1.4302  0.9881  1.3204
 1814SOL    HW216905   0.982   4.302  17.445  3.1584 -1.4505 -1.6352
 1815SOL     OW16906   4.333   3.891   7.852  0.8691 -0.2050 -0.6080
 1815SOL    HW116907   4.353   3.814   7.904  0.1039 -0.5936 -0.8855
 1815SOL    HW216908   4.290   3.844   7.780 -0.5693  0.1603  0.0129
 1816SOL     OW16909   0.261   4.536   7.297 -0.6435 -0.1708 -0.1165
 1816SOL    HW116910   0.265   4.547   7.202 -1.8038  0.1628 -0.1326
 1816SOL    HW216911   0.331   4.594   7.327  1.0431 -1.6966 -1.1028
 1817SOL     OW16912   4.331   2.595  16.143  0.3200  0.0485 -0.4045
 1817SOL    HW116913   4.253   2.650  16.139 -0.3788 -0.8994  0.3435
 1817SOL    HW216914   4.306   2.509  16.177  2.1009 -0.8069 -1.2533
 1818SOL     OW16915   4.163   0.121   9.850 -0.3653  0.3651  0.6042
 1818SOL    HW116916   4.105   0.046   9.860 -1.2628  0.8580 -1.0022
 1818SOL    HW216917   4.217   0.112   9.929  0.6555  0.3885 -0.0828
 1819SOL     OW16918   4.487   2.364  11.950 -0.1948  0.2144 -0.3716
 1819SOL    HW116919   4.527   2.357  11.863  0.1282  0.9470 -0.2863
 1819SOL    HW216920   4.437   2.444  11.936  2.0250  1.5967 -0.4578
 1820SOL     OW16921   2.039   1.620   9.083  0.4180 -0.2735  0.1095
 1820SOL    HW116922   2.022   1.528   9.103 -1.7942  0.2225  0.4579
 1820SOL    HW216923   2.028   1.618   8.988 -1.0663 -0.4748  0.2892
 1821SOL     OW16924   2.029   4.643  10.861 -0.0351  0.6643  0.1132
 1821SOL    HW116925   2.102   4.633  10.922  1.8101  1.5156 -1.9760
 1821SOL    HW216926   2.003   0.006  10.893  2.3206  1.8375 -1.2308
 1822SOL     OW16927   4.340   2.021   2.846  0.7763  0.0676 -0.3800
 1822SOL    HW116928   4.385   2.040   2.764  0.7731  2.4803  0.1633
 1822SOL    HW216929   4.264   2.079   2.853  0.3017 -0.4617 -1.2119
 1823SOL     OW16930   0.620   1.834   5.868  0.2133 -0.5455 -0.3764
 1823SOL    HW116931   0.602   1.909   5.812  0.7025  0.1267  0.3769
 1823SOL    HW216932   0.633   1.876   5.953  1.8738  2.2443 -2.0019
 1824SOL     OW16933   2.939   1.068   3.433  0.3872  0.1519  0.6335
 1824SOL    HW116934   2.903   1.152   3.404  1.4029  1.4050  2.9199
 1824SOL    HW216935   2.894   1.012   3.371 -0.5232  0.4386  1.0300
 1825SOL     OW16936   3.963   0.069   4.048  0.0581 -0.0236 -0.5128
 1825SOL    HW116937   3.929   4.707   4.077 -3.0846  1.0935 -0.9242
 1825SOL    HW216938   3.907   0.122   4.105 -0.7374  0.6449 -1.9184
 1826SOL     OW16939   4.519   1.306  15.259 -0.0170 -0.0217  0.2664
 1826SOL    HW116940   4.562   1.252  15.193 -0.9834  0.8894 -1.0808
 1826SOL    HW216941   4.578   1.381  15.262  1.8261 -1.4962  0.5174
 1827SOL     OW16942   2.743   3.218  14.112 -0.0688 -0.1526  0.2825
 1827SOL    HW116943   2.724   3.214  14.206  0.5242 -0.1639  0.4031
 1827SOL    HW216944   2.656   3.241  14.081 -0.4398  0.3210  1.6505
 1828SOL     OW16945   1.779   1.039  17.077 -0.0695  0.5481  0.1150
 1828SOL    HW116946   1.866   1.055  17.113 -0.9457 -0.0723  2.5036
 1828SOL    HW216947   1.797   1.034  16.983  1.5873 -3.1489  0.6449
 1829SOL     OW16948   0.114   0.992   6.202 -0.2865  0.1796  0.1503
 1829SOL    HW116949   0.041   1.016   6.146 -0.2374  0.2562  0.1193
 1829SOL    HW216950   0.085   0.901   6.211 -2.4288  1.0419  2.0857
 1830SOL     OW16951   1.167   4.039   5.445 -0.1045  0.6391  0.1101
 1830SOL    HW116952   1.208   4.001   5.522  0.2965  2.8671  0.9831
 1830SOL    HW216953   1.170   4.132   5.467  0.9713  0.9133 -1.2400
 1831SOL     OW16954   0.432   0.755   4.910 -0.4305  0.5266  0.0896
 1831SOL    HW116955   0.458   0.795   4.827 -3.2492  2.3026  0.0471
 1831SOL    HW216956   0.358   0.810   4.937  0.7542  1.8458  0.6923
 1832SOL     OW16957   3.302   2.796  14.806  0.1125 -0.5870 -0.1658
 1832SOL    HW116958   3.328   2.721  14.753  1.8110 -1.0638  1.3442
 1832SOL    HW216959   3.230   2.765  14.862  0.1603  1.8069  1.2185
 1833SOL     OW16960   1.448   3.339   8.612 -0.4399 -0.0098  0.1864
 1833SOL    HW116961   1.534   3.320   8.649  1.7399  2.2196 -3.6949
 1833SOL    HW216962   1.401   3.257   8.625 -0.0548 -0.3268 -0.3845
 1834SOL     OW16963   2.884   0.562   0.792 -0.5497  0.3817  0.2494
 1834SOL    HW116964   2.830   0.509   0.850  0.8826 -0.6772  0.6317
 1834SOL    HW216965   2.972   0.548   0.826 -1.6372  2.4152  3.8639
 1835SOL     OW16966   3.665   1.669  12.873  0.8750  0.1682 -0.0060
 1835SOL    HW116967   3.748   1.646  12.831  0.6271 -0.5311 -0.1278
 1835SOL    HW216968   3.629   1.721  12.802 -0.4339 -0.1019  0.4623
 1836SOL     OW16969   0.270   1.165  16.937  0.1240  0.1852  0.2561
 1836SOL    HW116970   0.186   1.119  16.937  0.3902 -0.3186 -1.6314
 1836SOL    HW216971   0.272   1.221  17.014  1.3067 -0.0288  0.3784
 1837SOL     OW16972   2.296   1.764   5.576 -0.3773 -0.4552 -0.0776
 1837SOL    HW116973   2.308   1.674   5.608 -1.2783 -1.3514 -2.2186
 1837SOL    HW216974   2.319   1.814   5.654  1.4999 -0.2844 -0.7338
 1838SOL     OW16975   1.183   0.229   4.288 -0.0719 -0.2907 -0.0432
 1838SOL    HW116976   1.261   0.283   4.298 -0.3948 -0.1291  1.5708
 1838SOL    HW216977   1.157   0.238   4.380 -0.5041  0.1480 -0.2059
 1839SOL     OW16978   0.842   0.842   2.053  0.2188 -0.2770 -0.2842
 1839SOL    HW116979   0.893   0.897   1.993 -2.3446  0.5495 -1.6701
 1839SOL    HW216980   0.907   0.846   2.123  0.9314  0.6523 -0.9925
 1840SOL     OW16981   2.098   1.607  13.341 -0.5507  0.1593 -1.1486
 1840SOL    HW116982   2.078   1.622  13.248 -0.4806 -0.9749 -1.3471
 1840SOL    HW216983   2.145   1.689  13.358 -0.3521 -0.0975 -0.4885
 1841SOL     OW16984   0.683   1.248   2.133 -0.0270 -0.0211 -0.0242
 1841SOL    HW116985   0.728   1.238   2.049 -0.0934  0.1159 -0.0750
 1841SOL    HW216986   0.700   1.338   2.158  0.2747 -0.0155 -0.2574
 1842SOL     OW16987   3.848   0.670   8.561 -0.1021 -0.4620 -0.0078
 1842SOL    HW116988   3.910   0.742   8.543 -0.6150 -0.5557 -2.1720
 1842SOL    HW216989   3.800   0.676   8.478  0.7210 -1.6055 -0.5647
 1843SOL     OW16990   0.990   1.999   0.255 -0.2281 -0.0840  0.3339
 1843SOL    HW116991   1.077   1.976   0.287 -1.0492  0.6996  3.1432
 1843SOL    HW216992   0.968   2.081   0.300 -1.2172 -0.3334  0.3199
 1844SOL     OW16993   2.014   2.429   5.747  0.0073  0.3167 -0.1442
 1844SOL    HW116994   1.973   2.366   5.689  1.0183 -0.5175  0.0564
 1844SOL    HW216995   1.930   2.466   5.777 -0.8227 -1.0940 -0.7546
 1845SOL     OW16996   2.243   3.244   8.301 -0.4762  0.2218 -0.0261
 1845SOL    HW116997   2.320   3.228   8.246  1.5091  1.8408  2.3212
 1845SOL    HW216998   2.229   3.335   8.277  0.9203  0.2743 -0.5996
 1846SOL     OW16999   1.928   2.480   8.451 -0.2162  0.3639  0.4237
 1846SOL    HW117000   1.847   2.512   8.410 -0.9672 -0.9086  0.9331
 1846SOL    HW217001   1.920   2.529   8.533 -0.2476 -0.4000  0.8713
 1847SOL     OW17002   2.029   0.293   1.624  0.7414  0.0458  0.2268
 1847SOL    HW117003   2.006   0.212   1.578 -2.0298  0.8783  0.1901
 1847SOL    HW217004   2.000   0.361   1.564  3.0148 -0.2426 -1.2210
 1848SOL     OW17005   3.437   1.412   9.207 -0.4611  0.3906  0.1214
 1848SOL    HW117006   3.356   1.443   9.246  0.6737 -0.3742  3.0849
 1848SOL    HW217007   3.437   1.325   9.247  1.9096  0.7936  0.9545
 1849SOL     OW17008   1.813   3.578  11.658  0.4696 -0.3894 -0.0450
 1849SOL    HW117009   1.813   3.621  11.572 -2.4463  0.9899  0.6570
 1849SOL    HW217010   1.873   3.636  11.704  3.0035 -2.7125 -0.4043
 1850SOL     OW17011   2.158   0.593   6.194  0.5042 -0.4542 -0.1547
 1850SOL    HW117012   2.217   0.548   6.254  0.3214 -0.0240  0.3473
 1850SOL    HW217013   2.216   0.601   6.118  1.8354  1.1396  1.0186
 1851SOL     OW17014   2.061   3.549  11.190 -0.0346 -0.2093 -0.3812
 1851SOL    HW117015   1.973   3.511  11.190  0.2701 -0.9254  0.2562
 1851SOL    HW217016   2.062   3.593  11.275 -1.4336  0.1239 -0.5265
 1852SOL     OW17017   3.679   1.408  14.895  0.4789  0.6590 -0.7823
 1852SOL    HW117018   3.584   1.398  14.898  0.5156  0.7850  0.6001
 1852SOL    HW217019   3.691   1.430  14.987 -0.0233  3.1481 -1.3120
 1853SOL     OW17020   2.834   3.486   5.859 -0.0353 -0.0501  0.2505
 1853SOL    HW117021   2.849   3.443   5.943 -2.5044  0.8638  1.1728
 1853SOL    HW217022   2.858   3.575   5.884  1.0993 -0.6116  1.1675
 1854SOL     OW17023   1.733   4.102  14.702 -0.2882  0.0798 -0.4233
 1854SOL    HW117024   1.650   4.058  14.684 -0.6376  0.2154  0.8772
 1854SOL    HW217025   1.751   4.165  14.631 -0.1661  0.5429  0.0199
 1855SOL     OW17026   2.318   3.903  16.807  0.3822  0.2802 -0.1216
 1855SOL    HW117027   2.309   3.926  16.899  2.2922  1.1106 -0.1551
 1855SOL    HW217028   2.357   3.980  16.767  0.2927  1.0879  1.3413
 1856SOL     OW17029   0.604   1.037   9.021  0.0328 -0.3309 -0.3883
 1856SOL    HW117030   0.671   1.081   9.073  0.8222 -2.7480  0.6485
 1856SOL    HW217031   0.530   1.097   9.023  0.1621 -0.2077  0.9726
 1857SOL     OW17032   1.268   3.232  10.864 -0.3485 -0.8822 -0.5002
 1857SOL    HW117033   1.354   3.206  10.896  0.1458 -1.3678 -2.2260
 1857SOL    HW217034   1.283   3.256  10.773  1.8509 -1.0894 -0.1842
 1858SOL     OW17035   0.718   0.020  13.650 -0.2105 -0.1381 -0.1490
 1858SOL    HW117036   0.733   4.651  13.668  1.3781 -0.0827 -1.1959
 1858SOL    HW217037   0.648   0.018  13.585  1.5082 -0.9128 -1.9556
 1859SOL     OW17038   1.432   4.570   7.607  0.1128  0.3756  0.2663
 1859SOL    HW117039   1.469   4.560   7.695  0.8798  0.5838 -0.0294
 1859SOL    HW217040   1.416   4.664   7.602 -1.3640  0.1203  0.2401
 1860SOL     OW17041   1.186   3.471   5.698  0.3865  0.1220 -0.1162
 1860SOL    HW117042   1.180   3.555   5.744 -1.8609 -0.1139  0.0356
 1860SOL    HW217043   1.097   3.440   5.716  0.5371 -0.6034 -0.6461
 1861SOL     OW17044   2.187   1.939   3.687 -0.7241 -0.5420 -0.1614
 1861SOL    HW117045   2.261   1.961   3.632 -1.2414 -1.9062 -1.3870
 1861SOL    HW217046   2.121   1.984   3.634 -0.5716  0.6444  0.6278
 1862SOL     OW17047   3.010   4.068   9.832 -0.3041 -0.4022  0.2122
 1862SOL    HW117048   3.060   4.015   9.894 -1.5598 -0.4077  1.2069
 1862SOL    HW217049   2.984   4.003   9.767 -1.4963  1.4002 -1.1193
 1863SOL     OW17050   2.484   1.288   8.840  0.1126 -0.4215 -0.1772
 1863SOL    HW117051   2.521   1.244   8.917 -1.7800  1.6144  1.9019
 1863SOL    HW217052   2.558   1.271   8.782 -0.1087 -0.2784 -0.4978
 1864SOL     OW17053   3.622   1.879   0.560  0.2741  0.1602  0.0921
 1864SOL    HW117054   3.536   1.914   0.580  0.4248  1.7246 -2.0155
 1864SOL    HW217055   3.594   1.817   0.492 -0.7158 -1.0367  1.5806
 1865SOL     OW17056   1.678   1.613   7.139 -0.0843 -0.0113  0.9105
 1865SOL    HW117057   1.747   1.597   7.204 -0.3073 -2.6398  0.5181
 1865SOL    HW217058   1.721   1.621   7.054 -1.3817 -0.7912  0.1846
 1866SOL     OW17059   1.516   2.145   4.265  0.1514 -0.0433 -0.2848
 1866SOL    HW117060   1.543   2.061   4.301 -0.7376 -0.2295 -0.0711
 1866SOL    HW217061   1.538   2.206   4.335  0.9190 -0.3928 -0.2155
 1867SOL     OW17062   4.658   3.152   6.311  0.3841  0.0477  0.4389
 1867SOL    HW117063   4.698   3.066   6.325 -0.3196 -0.1550  1.1913
 1867SOL    HW217064   4.592   3.123   6.248 -0.0681  1.8160  0.1036
 1868SOL     OW17065   0.534   2.347  12.677 -0.3960  0.0570 -0.1551
 1868SOL    HW117066   0.511   2.430  12.636 -1.4996  0.0826  0.5225
 1868SOL    HW217067   0.595   2.370  12.747  0.8779 -1.7581 -0.6301
 1869SOL     OW17068   2.229   4.484  12.508 -0.1728 -0.4137  0.1342
 1869SOL    HW117069   2.262   4.399  12.538 -1.3642 -1.0403 -0.3146
 1869SOL    HW217070   2.260   4.547  12.573 -2.5540  0.1679  0.7235
 1870SOL     OW17071   1.820   2.858  10.562 -0.1480  0.0529  0.7443
 1870SOL    HW117072   1.827   2.774  10.608 -0.7305 -1.1029 -1.2888
 1870SOL    HW217073   1.879   2.914  10.612 -0.3029  1.0415 -0.2069
 1871SOL     OW17074   1.943   0.436   6.314  0.3907 -0.2274  0.3277
 1871SOL    HW117075   1.879   0.396   6.255 -0.4443  1.2022  0.2704
 1871SOL    HW217076   1.990   0.487   6.247 -2.2559  1.3173 -0.3193
 1872SOL     OW17077   2.695   1.438   8.152 -0.2099  0.2970  0.1667
 1872SOL    HW117078   2.772   1.380   8.153 -0.4784 -0.0595 -0.5375
 1872SOL    HW217079   2.669   1.428   8.244  0.8149  3.4833  0.8127
 1873SOL     OW17080   3.717   2.414   6.820  0.0635 -0.1038 -0.3374
 1873SOL    HW117081   3.725   2.482   6.886 -0.1091 -1.3650  0.9934
 1873SOL    HW217082   3.686   2.334   6.862 -5.3820  1.3367 -1.6647
 1874SOL     OW17083   1.990   0.251   9.811  0.2524  0.3170 -0.5995
 1874SOL    HW117084   2.025   0.163   9.799 -0.2453  0.1200 -0.6024
 1874SOL    HW217085   1.979   0.287   9.723 -1.4169  0.1756 -0.4473
 1875SOL     OW17086   0.479   2.371   9.499 -0.0577  0.1149  0.1071
 1875SOL    HW117087   0.543   2.387   9.430 -0.4158 -0.1638 -0.2890
 1875SOL    HW217088   0.415   2.317   9.453  1.3088 -0.9801 -0.5211
 1876SOL     OW17089   1.187   3.755   4.265 -0.0855 -0.0481 -0.1016
 1876SOL    HW117090   1.220   3.833   4.222 -0.6864  0.2805  0.0316
 1876SOL    HW217091   1.130   3.801   4.326  0.2601  3.4991 -2.5034
 1877SOL     OW17092   4.310   3.503   4.619 -0.1496 -0.1536  0.2544
 1877SOL    HW117093   4.267   3.519   4.704  0.1412  1.3472  0.1136
 1877SOL    HW217094   4.385   3.562   4.628 -0.0809 -0.6460  2.9757
 1878SOL     OW17095   0.227   4.019   5.154  0.0323 -0.1281 -0.1193
 1878SOL    HW117096   0.221   4.114   5.139 -2.2006 -0.2624 -0.1049
 1878SOL    HW217097   0.293   3.989   5.093 -1.0757 -0.9870 -0.8894
 1879SOL     OW17098   1.157   2.903   7.946  0.1116 -0.6289 -0.2080
 1879SOL    HW117099   1.222   2.842   7.983  1.9307  0.7419 -1.1796
 1879SOL    HW217100   1.151   2.884   7.853 -0.5267 -0.5922 -0.1752
 1880SOL     OW17101   4.320   0.969   7.754  0.1735 -0.3771 -0.3660
 1880SOL    HW117102   4.381   0.898   7.774 -0.5680 -0.5596  1.2548
 1880SOL    HW217103   4.377   1.028   7.705  1.9409 -0.5976  1.3828
 1881SOL     OW17104   3.432   2.575   6.745 -0.4609  0.0972 -0.2254
 1881SOL    HW117105   3.499   2.624   6.791 -0.1850  0.7956 -1.3542
 1881SOL    HW217106   3.481   2.538   6.671 -0.6294 -0.1787 -0.2005
 1882SOL     OW17107   3.149   2.017   7.249  0.6757 -0.1563 -0.1523
 1882SOL    HW117108   3.200   1.941   7.277 -0.7212 -1.6284 -1.6611
 1882SOL    HW217109   3.188   2.082   7.308 -1.1059  2.0699 -1.4012
 1883SOL     OW17110   2.294   0.915   7.103 -0.2830  0.0231  0.5972
 1883SOL    HW117111   2.305   1.010   7.101 -0.8066  0.1028  1.4693
 1883SOL    HW217112   2.231   0.907   7.175 -0.6501 -1.4472  0.1130
 1884SOL     OW17113   2.540   0.312  11.140 -0.2934  0.4826 -0.1898
 1884SOL    HW117114   2.509   0.303  11.050 -0.0558  0.2417 -0.2495
 1884SOL    HW217115   2.541   0.408  11.149  1.0146  0.5259 -0.7031
 1885SOL     OW17116   1.569   1.592   4.459  0.2408 -0.4007  0.1666
 1885SOL    HW117117   1.657   1.623   4.440  0.8205 -0.9271  1.9319
 1885SOL    HW217118   1.523   1.593   4.375 -0.6137  1.7510  0.6447
 1886SOL     OW17119   4.565   1.889   3.945  0.2238  0.4160  0.0962
 1886SOL    HW117120   4.489   1.947   3.951 -0.7157 -0.8363  0.2333
 1886SOL    HW217121   4.518   1.806   3.942  3.8289 -1.6413  0.7012
 1887SOL     OW17122   1.899   1.544   7.274 -0.5311 -0.1178  0.5991
 1887SOL    HW117123   1.906   1.549   7.369 -0.9436  0.8571  0.5792
 1887SOL    HW217124   1.989   1.574   7.264 -0.2025 -0.3899  2.7306
 1888SOL     OW17125   2.609   3.116   7.351  0.2711  0.1241 -0.1719
 1888SOL    HW117126   2.519   3.148   7.342 -0.0539  0.0813  2.7418
 1888SOL    HW217127   2.650   3.180   7.293  1.3679  0.5972  1.1198
 1889SOL     OW17128   1.193   2.606   3.695  0.0916  0.4802 -0.7142
 1889SOL    HW117129   1.174   2.513   3.696  1.3710  0.2169  0.1325
 1889SOL    HW217130   1.286   2.617   3.676  0.2327  0.1749 -0.2106
 1890SOL     OW17131   0.343   4.070   3.720 -0.2508  0.0733 -0.1450
 1890SOL    HW117132   0.318   3.991   3.673  1.5618  0.0180 -1.0449
 1890SOL    HW217133   0.258   4.114   3.725  0.2037  0.9343  0.1669
 1891SOL     OW17134   1.591   4.142  10.043 -0.0371 -0.0372  0.0293
 1891SOL    HW117135   1.541   4.094  10.109  1.2409  0.5389  1.4352
 1891SOL    HW217136   1.662   4.079  10.034 -1.4220 -1.5212 -0.4743
 1892SOL     OW17137   2.380   2.219   7.514 -0.4403 -0.2376  0.4213
 1892SOL    HW117138   2.344   2.221   7.425 -0.9017  0.1319  0.6206
 1892SOL    HW217139   2.437   2.143   7.529 -1.3221 -1.4813 -2.5188
 1893SOL     OW17140   3.456   4.695   8.076 -0.2916  0.3563  0.4359
 1893SOL    HW117141   3.497   4.617   8.040  0.3603  1.6147 -1.5344
 1893SOL    HW217142   3.376   4.663   8.118  0.0280 -1.3158 -0.2296
 1894SOL     OW17143   0.884   3.649   0.341  0.4871 -0.3623  0.3697
 1894SOL    HW117144   0.881   3.719   0.406 -0.3569 -0.3755  0.3454
 1894SOL    HW217145   0.866   3.700   0.262  0.1749 -0.5045  0.3481
 1895SOL     OW17146   1.792   3.235  10.948  0.3857 -0.4838 -0.1597
 1895SOL    HW117147   1.814   3.313  11.000  1.1662 -1.7346  1.3841
 1895SOL    HW217148   1.863   3.171  10.952  0.7087 -0.0583  0.9176
 1896SOL     OW17149   0.941   4.170   8.848 -0.3094  0.3660  0.5042
 1896SOL    HW117150   0.978   4.258   8.841 -1.8901  1.0063  0.2527
 1896SOL    HW217151   1.012   4.112   8.873 -0.5748 -0.1210  0.1334
 1897SOL     OW17152   3.643   4.118   5.055 -0.1863  0.3653  0.3839
 1897SOL    HW117153   3.551   4.096   5.071 -0.6788  0.6309 -2.0761
 1897SOL    HW217154   3.654   4.089   4.964  1.0950  0.8666  0.3691
 1898SOL     OW17155   0.377   0.630   2.083 -0.0574 -0.0284  0.3071
 1898SOL    HW117156   0.363   0.578   2.004  0.4837  0.8554 -0.3703
 1898SOL    HW217157   0.449   0.687   2.056  2.0562 -2.2083  1.3443
 1899SOL     OW17158   3.847   4.180   8.406  0.0754 -0.0499  0.0528
 1899SOL    HW117159   3.753   4.185   8.424  0.4701 -0.5259  2.2617
 1899SOL    HW217160   3.877   4.136   8.486 -0.0047 -0.2576 -0.0325
 1900SOL     OW17161   3.874   0.557   6.399 -0.2661  1.0020  0.1421
 1900SOL    HW117162   3.954   0.517   6.433  0.1323 -0.3402 -2.3628
 1900SOL    HW217163   3.812   0.539   6.469 -1.8084 -0.4667 -1.5972
 1901SOL     OW17164   2.053   0.804   8.464 -0.2633 -0.2581 -0.2323
 1901SOL    HW117165   1.959   0.804   8.485 -0.4983 -2.6411 -1.3277
 1901SOL    HW217166   2.083   0.783   8.552 -0.7372  2.3006  0.5607
 1902SOL     OW17167   0.160   1.423   8.584 -0.1478  0.4928 -0.3477
 1902SOL    HW117168   0.184   1.423   8.491 -2.0694  0.1928 -0.8474
 1902SOL    HW217169   0.139   1.515   8.596 -1.0492  0.3059 -0.4632
 1903SOL     OW17170   2.977   2.387   4.055 -0.1692 -0.4491  0.1648
 1903SOL    HW117171   2.965   2.293   4.072  0.4809 -0.4016  0.9136
 1903SOL    HW217172   2.894   2.404   4.010 -0.2164  0.3463  0.5581
 1904SOL     OW17173   4.723   3.983   7.273 -0.6532  0.0723  0.3480
 1904SOL    HW117174   0.074   4.030   7.309 -2.4069  1.6792  1.9054
 1904SOL    HW217175   4.718   3.898   7.317 -1.4561 -0.3233 -0.4900
 1905SOL     OW17176   3.264   4.094   1.047 -0.2889 -0.4146  0.5755
 1905SOL    HW117177   3.296   4.016   1.092  2.3194  1.4170  1.8812
 1905SOL    HW217178   3.245   4.154   1.119  1.5283  2.7284 -1.6134
 1906SOL     OW17179   1.175   0.299   8.248  0.6816 -0.2422 -0.2766
 1906SOL    HW117180   1.139   0.370   8.300  1.1510  0.8012 -1.3630
 1906SOL    HW217181   1.267   0.301   8.277  0.8392 -0.9178 -0.7246
 1907SOL     OW17182   2.998   3.965   3.172  0.3012  0.1395  0.5067
 1907SOL    HW117183   2.990   3.900   3.102  2.7487  2.1662 -1.6471
 1907SOL    HW217184   2.959   3.922   3.249 -0.7248 -0.7551 -0.5164
 1908SOL     OW17185   3.488   2.615  16.731  0.1177  0.0546 -0.0043
 1908SOL    HW117186   3.427   2.629  16.659 -0.0492 -1.1497 -0.1012
 1908SOL    HW217187   3.569   2.640  16.687 -1.3964 -1.4545 -3.5709
 1909SOL     OW17188   3.723   1.514   5.285  0.1029  0.3840 -0.2360
 1909SOL    HW117189   3.642   1.536   5.330 -0.2931 -0.8469 -0.3399
 1909SOL    HW217190   3.795   1.518   5.349 -1.1288  0.6726  1.1280
 1910SOL     OW17191   4.094   4.369   7.178 -0.3878 -0.2431 -0.2188
 1910SOL    HW117192   4.083   4.454   7.220 -0.9857 -0.9094  0.9752
 1910SOL    HW217193   4.023   4.327   7.227 -1.5346  0.3784 -1.3620
 1911SOL     OW17194   2.339   3.977   3.166 -0.4966 -0.6027  0.5126
 1911SOL    HW117195   2.299   3.971   3.253 -1.7907 -0.4557 -0.0726
 1911SOL    HW217196   2.424   4.013   3.191 -0.1107  0.3039 -2.1247
 1912SOL     OW17197   4.581   3.087   4.871 -0.3614 -0.0499  0.3009
 1912SOL    HW117198   4.557   3.123   4.957  0.7621  0.2900  0.4867
 1912SOL    HW217199   4.543   3.000   4.871 -2.5718  0.9150  1.5836
 1913SOL     OW17200   3.191   1.936   3.796  0.2031 -0.0513  0.1897
 1913SOL    HW117201   3.251   1.860   3.795 -1.1901 -1.1468  0.2397
 1913SOL    HW217202   3.182   1.966   3.706  1.0783 -2.4014 -0.6911
 1914SOL     OW17203   1.137   0.337   7.285  0.1859  0.3233  0.5145
 1914SOL    HW117204   1.160   0.430   7.285 -0.9307  0.5970 -0.8440
 1914SOL    HW217205   1.051   0.344   7.326 -0.2313 -0.8516 -0.1462
 1915SOL     OW17206   3.424   2.124   6.897 -0.6742 -0.5411 -0.0108
 1915SOL    HW117207   3.358   2.193   6.892 -0.3735 -0.1554  1.2237
 1915SOL    HW217208   3.383   2.068   6.832  0.4329  2.3982 -3.2438
 1916SOL     OW17209   1.114   0.057   6.097  0.8680  0.6661 -0.6825
 1916SOL    HW117210   1.121   0.041   6.002 -1.2152 -1.3112 -0.4960
 1916SOL    HW217211   1.081   0.147   6.102 -0.6171  0.0800  0.1781
 1917SOL     OW17212   2.133   3.716   3.388 -0.7099 -0.3106 -0.5052
 1917SOL    HW117213   2.158   3.798   3.430  3.3131 -2.5772  1.5806
 1917SOL    HW217214   2.219   3.674   3.375 -0.4011 -0.1446  1.0056
 1918SOL     OW17215   3.199   2.416   5.821  0.0073 -0.3347 -0.3460
 1918SOL    HW117216   3.265   2.445   5.884  0.3799  2.1856 -1.9085
 1918SOL    HW217217   3.199   2.322   5.842 -1.3070 -0.2281  0.1387
 1919SOL     OW17218   4.204   0.198   3.398 -0.7356  0.1709  0.0123
 1919SOL    HW117219   4.264   0.163   3.463 -2.0624  0.5773  1.4466
 1919SOL    HW217220   4.184   0.287   3.427 -0.3109 -0.3873  1.9894
 1920SOL     OW17221   4.436   1.276   4.876  0.7153 -0.0530  0.3130
 1920SOL    HW117222   4.401   1.255   4.789  1.4562  0.0994 -0.0260
 1920SOL    HW217223   4.428   1.188   4.912  0.0177 -0.9153 -1.9398
 1921SOL     OW17224   2.813   4.310  11.785 -0.2207  0.3416  0.2260
 1921SOL    HW117225   2.736   4.313  11.728  1.1433 -1.3267 -1.7282
 1921SOL    HW217226   2.864   4.360  11.721  0.8718 -0.6378  0.3407
 1922SOL     OW17227   0.091   1.570   4.565  0.0160 -0.2948 -0.1277
 1922SOL    HW117228   0.006   1.530   4.583 -0.2519 -0.0841 -0.9369
 1922SOL    HW217229   0.066   1.619   4.487 -0.1497  0.4446  0.3867
 1923SOL     OW17230   1.820   0.721   4.312  0.1089  0.0472  0.6065
 1923SOL    HW117231   1.758   0.714   4.239  3.9177 -1.5954 -2.4828
 1923SOL    HW217232   1.848   0.812   4.299  4.4584 -1.2878  0.5716
 1924SOL     OW17233   1.763   2.783  17.338 -0.2551  0.2211 -0.5846
 1924SOL    HW117234   1.686   2.838  17.323 -1.5087 -1.3433  0.1171
 1924SOL    HW217235   1.759   2.764  17.432  1.6948  2.0037 -0.1463
 1925SOL     OW17236   0.826   1.562  14.229 -0.1220  0.2002  0.4002
 1925SOL    HW117237   0.808   1.511  14.308  0.4150 -0.1683  0.2839
 1925SOL    HW217238   0.873   1.498  14.176 -0.1931  0.8883 -0.4911
 1926SOL     OW17239   1.817   1.921   7.248  0.0991  0.1175  0.1381
 1926SOL    HW117240   1.818   1.977   7.325  0.9063  1.5382 -0.9041
 1926SOL    HW217241   1.902   1.877   7.251 -0.2450 -0.5957 -0.4550
 1927SOL     OW17242   0.366   3.744   5.739 -0.6760  0.2854  0.1444
 1927SOL    HW117243   0.354   3.650   5.727 -0.1878  0.4629 -1.6600
 1927SOL    HW217244   0.420   3.743   5.818  0.5704  1.7338 -0.6984
 1928SOL     OW17245   2.972   1.744   6.927 -0.0519  0.4288 -0.2382
 1928SOL    HW117246   2.878   1.754   6.939 -0.6112 -1.2921 -3.3472
 1928SOL    HW217247   2.982   1.650   6.912  1.2949  0.5553 -0.1367
 1929SOL     OW17248   2.314   0.307   7.585  0.1629 -0.4796  0.3282
 1929SOL    HW117249   2.389   0.296   7.527 -1.0677 -1.1187 -1.1384
 1929SOL    HW217250   2.356   0.344   7.663  0.9735  0.9222 -0.7886
 1930SOL     OW17251   4.156   2.860   6.138 -0.2702 -0.7659 -0.0745
 1930SOL    HW117252   4.115   2.839   6.222  1.5498 -0.8085  0.8221
 1930SOL    HW217253   4.244   2.873   6.173 -0.8732 -0.4808  1.3494
 1931SOL     OW17254   3.948   2.063   9.390  0.2973  0.0910  0.6576
 1931SOL    HW117255   4.028   2.115   9.381  0.3077 -0.0145  0.1578
 1931SOL    HW217256   3.883   2.132   9.400 -1.7606 -1.7677  0.1304
 1932SOL     OW17257   4.194   0.131   1.113  0.1082 -0.1136  0.0404
 1932SOL    HW117258   4.162   0.073   1.182 -2.1526  0.3260 -0.6474
 1932SOL    HW217259   4.289   0.117   1.119  0.0268 -0.8890 -0.5795
 1933SOL     OW17260   4.373   3.869   3.076 -0.0073  0.1198 -0.3735
 1933SOL    HW117261   4.354   3.781   3.108 -0.0647 -0.5153 -2.2089
 1933SOL    HW217262   4.288   3.912   3.086  1.0794  2.1095  0.4661
 1934SOL     OW17263   1.459   1.659   1.783 -0.0512 -0.1532 -0.2150
 1934SOL    HW117264   1.547   1.637   1.812  0.5707  1.4242 -0.9250
 1934SOL    HW217265   1.426   1.573   1.757  1.7469 -0.9038  0.0140
 1935SOL     OW17266   2.566   0.579  16.601  0.7465  0.8031  0.8068
 1935SOL    HW117267   2.644   0.608  16.649  0.3147  0.1625  1.8899
 1935SOL    HW217268   2.532   0.513  16.661  3.2078 -1.5781 -0.4178
 1936SOL     OW17269   3.726   1.658  13.900 -0.0719 -0.4129  0.1001
 1936SOL    HW117270   3.749   1.611  13.981  1.3277 -0.1111 -0.1094
 1936SOL    HW217271   3.646   1.614  13.875 -0.6906  0.3166  0.7811
 1937SOL     OW17272   2.013   0.201  13.483  0.0020 -0.0576  0.3912
 1937SOL    HW117273   1.918   0.189  13.480  0.2752 -2.7044  2.9083
 1937SOL    HW217274   2.043   0.129  13.539 -0.4378 -0.8945 -0.4395
 1938SOL     OW17275   3.350   3.546   6.299 -0.2406 -0.1632 -0.0978
 1938SOL    HW117276   3.437   3.544   6.339  0.6562  0.1046 -2.0187
 1938SOL    HW217277   3.365   3.477   6.235  1.0098  0.8189 -0.8770
 1939SOL     OW17278   1.000   2.316   3.488 -0.1100  0.1663  0.2663
 1939SOL    HW117279   0.996   2.222   3.469  1.7918  0.4810 -1.5809
 1939SOL    HW217280   0.907   2.339   3.479 -0.7820 -2.2640  0.7497
 1940SOL     OW17281   0.177   0.866   9.793 -0.8557  0.4838 -0.3060
 1940SOL    HW117282   0.152   0.949   9.833  0.9999  0.8768  0.0450
 1940SOL    HW217283   0.226   0.818   9.860  0.4526  2.1936 -0.0617
 1941SOL     OW17284   3.144   4.381  10.907 -0.8262  0.5447 -0.5909
 1941SOL    HW117285   3.181   4.326  10.976 -3.0627  2.2911  2.0547
 1941SOL    HW217286   3.182   4.466  10.928  2.7900 -1.0693 -0.6773
 1942SOL     OW17287   0.018   0.110  13.665 -0.2389 -0.5302 -0.1846
 1942SOL    HW117288   0.056   0.194  13.692  0.8067 -0.7528 -0.9339
 1942SOL    HW217289   4.648   0.123  13.681 -0.1689  0.1497 -0.3366
 1943SOL     OW17290   3.798   0.888   7.338  0.1053  0.0526  0.3307
 1943SOL    HW117291   3.826   0.977   7.362  0.2609 -0.2220  1.1722
 1943SOL    HW217292   3.871   0.826   7.344 -1.0246 -1.2292  0.8337
 1944SOL     OW17293   2.397   3.217   4.527  0.4526 -0.4788 -0.0381
 1944SOL    HW117294   2.477   3.181   4.489  1.0317 -2.3014  2.9254
 1944SOL    HW217295   2.393   3.304   4.486  1.5982 -0.7999 -0.8154
 1945SOL     OW17296   2.211   0.605   9.884 -0.1988 -0.8023  0.2462
 1945SOL    HW117297   2.129   0.647   9.909  0.4579  1.3151 -1.1867
 1945SOL    HW217298   2.189   0.513   9.868 -2.4193 -0.2844  0.2769
 1946SOL     OW17299   2.403   1.620   2.504  0.4207 -0.3538 -1.0950
 1946SOL    HW117300   2.349   1.545   2.477 -0.3707  0.7044 -2.4725
 1946SOL    HW217301   2.404   1.681   2.430 -0.8794  0.9213 -0.0715
 1947SOL     OW17302   0.785   2.590   0.728 -0.5254 -0.3935  0.2634
 1947SOL    HW117303   0.786   2.615   0.820  1.8038  2.1233 -0.4306
 1947SOL    HW217304   0.727   2.656   0.690  0.0116 -0.3132 -0.4281
 1948SOL     OW17305   2.221   4.346   4.959  0.2335  0.7464 -0.5156
 1948SOL    HW117306   2.177   4.355   5.044 -0.1562  1.5100 -0.7953
 1948SOL    HW217307   2.311   4.364   4.985  0.1381  0.5950 -0.0793
 1949SOL     OW17308   2.037   4.485   6.946  0.2495 -0.2370  0.5736
 1949SOL    HW117309   1.998   4.490   7.033  2.4650 -2.0809  1.6581
 1949SOL    HW217310   1.974   4.547   6.909 -1.2623 -1.3929  1.1957
 1950SOL     OW17311   0.565   3.379   9.355 -0.0161 -0.0562  0.0346
 1950SOL    HW117312   0.632   3.434   9.395 -0.1121  0.8687 -1.0638
 1950SOL    HW217313   0.606   3.295   9.337 -2.0055 -0.8868 -0.6612
 1951SOL     OW17314   0.483   0.432   3.984  0.1852 -0.4665  0.4528
 1951SOL    HW117315   0.430   0.420   3.906 -2.0699  0.2142  1.8738
 1951SOL    HW217316   0.455   0.513   4.027 -1.1921 -1.0478  0.6465
 1952SOL     OW17317   3.340   4.382   3.183 -0.4288  0.1301 -0.1796
 1952SOL    HW117318   3.366   4.472   3.203  0.1111 -0.0185 -0.2231
 1952SOL    HW217319   3.276   4.363   3.252  0.5859  0.2229  0.7790
 1953SOL     OW17320   4.610   1.988   7.104  0.4953 -0.3002  0.0587
 1953SOL    HW117321   4.617   1.935   7.183  0.1049  1.4882  1.3020
 1953SOL    HW217322   4.544   1.940   7.054  0.1893  0.1058  0.0686
 1954SOL     OW17323   0.428   1.686  16.034 -0.2993 -0.9730 -0.3159
 1954SOL    HW117324   0.484   1.727  15.968 -0.5001 -0.3393 -0.0976
 1954SOL    HW217325   0.411   1.597  16.003  0.1564 -0.8086 -1.0473
 1955SOL     OW17326   3.966   4.026   2.198 -0.0327  0.3241 -0.5691
 1955SOL    HW117327   3.975   3.942   2.152 -2.0742  0.6963 -1.6131
 1955SOL    HW217328   3.996   4.089   2.133 -0.5064 -0.3769 -1.4626
 1956SOL     OW17329   2.457   1.700   8.493 -0.2610 -0.3468 -0.1204
 1956SOL    HW117330   2.490   1.611   8.477 -2.1207 -0.9227 -0.8516
 1956SOL    HW217331   2.461   1.706   8.588 -0.7175 -3.3859  0.0907
 1957SOL     OW17332   3.782   4.561   7.624 -0.3058  0.0763 -0.1244
 1957SOL    HW117333   3.754   4.471   7.609 -1.7693 -0.0637  3.5726
 1957SOL    HW217334   3.743   4.584   7.708 -0.6046 -1.7007  0.2249
 1958SOL     OW17335   2.538   3.482   2.510  0.5361 -0.2650 -0.6440
 1958SOL    HW117336   2.454   3.520   2.484 -0.1498 -1.3776 -0.0163
 1958SOL    HW217337   2.593   3.545   2.463  0.2517  0.2770 -0.2449
 1959SOL     OW17338   1.364   3.568   8.768 -0.6696  0.1313 -0.4150
 1959SOL    HW117339   1.299   3.528   8.711 -0.6208  3.5466 -2.8151
 1959SOL    HW217340   1.444   3.539   8.724 -0.1574  0.4423  0.3125
 1960SOL     OW17341   3.740   2.797   5.832 -0.4079 -0.0960  0.0004
 1960SOL    HW117342   3.787   2.869   5.789 -2.9075  1.5548  0.0404
 1960SOL    HW217343   3.782   2.799   5.918  0.1441 -1.1071 -0.2493
 1961SOL     OW17344   2.817   1.887   8.818 -0.0603  0.4082  0.1329
 1961SOL    HW117345   2.759   1.882   8.894  1.8569  1.1111  1.6312
 1961SOL    HW217346   2.878   1.951   8.854  1.1581 -0.7845  0.1698
 1962SOL     OW17347   1.504   4.121   2.301  0.7762  0.1177 -0.0005
 1962SOL    HW117348   1.488   4.105   2.394  0.2343 -2.5141 -0.5536
 1962SOL    HW217349   1.499   4.217   2.305 -0.2530 -0.0556  2.5553
 1963SOL     OW17350   0.875   0.439  10.954 -0.0450  0.5417 -0.0259
 1963SOL    HW117351   0.937   0.506  10.984 -1.2195  2.0881 -1.0658
 1963SOL    HW217352   0.793   0.484  10.972 -0.2638  0.4173 -0.7164
 1964SOL     OW17353   1.225   0.294   9.942 -0.2674  0.3739 -0.1937
 1964SOL    HW117354   1.174   0.324  10.017  1.3373  1.3962  0.4934
 1964SOL    HW217355   1.291   0.234   9.976 -0.4771  0.4002  0.2511
 1965SOL     OW17356   0.069   4.331   8.067 -0.3580  0.0455 -0.5059
 1965SOL    HW117357   0.016   4.410   8.078 -0.4348  0.1594 -1.6856
 1965SOL    HW217358   0.106   4.346   7.980  0.0012  1.0340 -0.1877
 1966SOL     OW17359   4.700   2.873   6.290 -0.4581 -0.3060 -0.6071
 1966SOL    HW117360   4.625   2.885   6.231 -0.5581  3.0988  0.2326
 1966SOL    HW217361   4.656   2.808   6.344 -1.3288 -1.9467 -3.2593
 1967SOL     OW17362   3.569   0.666   8.962  0.0103 -0.0003 -0.1860
 1967SOL    HW117363   3.632   0.598   8.936  0.3131  0.8611 -1.7194
 1967SOL    HW217364   3.488   0.615   8.962  0.0970 -0.1302  1.0880
 1968SOL     OW17365   1.218   4.443  13.053  0.5340 -0.0753 -0.5309
 1968SOL    HW117366   1.293   4.395  13.089  0.0185 -1.3794 -1.2147
 1968SOL    HW217367   1.260   4.528  13.069 -0.3960  0.8010 -2.8912
 1969SOL     OW17368   0.659   1.802  13.053 -0.1872 -0.2620 -0.2910
 1969SOL    HW117369   0.604   1.758  13.117  0.9382  0.1443  0.9518
 1969SOL    HW217370   0.738   1.749  13.052  0.3844  0.6022 -0.3387
 1970SOL     OW17371   0.799   0.544   2.119 -0.9212 -0.1974 -0.1506
 1970SOL    HW117372   0.807   0.463   2.069 -0.5771 -1.1716  1.4800
 1970SOL    HW217373   0.780   0.600   2.044 -0.7168 -1.7264 -1.3368
 1971SOL     OW17374   1.859   2.477   7.495 -0.0738  0.2675  0.6862
 1971SOL    HW117375   1.783   2.420   7.483 -2.1220  2.4637  3.1525
 1971SOL    HW217376   1.847   2.522   7.579 -0.9329  0.3771  0.4986
 1972SOL     OW17377   2.467   4.360   8.637  0.6849  0.1791 -0.0862
 1972SOL    HW117378   2.542   4.354   8.579  0.2278  0.9915 -0.7492
 1972SOL    HW217379   2.508   4.356   8.724 -0.3114 -0.1740  0.3795
 1973SOL     OW17380   0.121   3.666  15.826 -0.5411  0.0110 -0.4698
 1973SOL    HW117381   0.072   3.645  15.746  0.6866 -2.2919 -0.5846
 1973SOL    HW217382   0.089   3.756  15.835 -0.7826 -0.3451  2.1065
 1974SOL     OW17383   4.092   2.146  14.550 -0.2633 -0.4037  0.3623
 1974SOL    HW117384   4.059   2.235  14.559 -2.4538 -1.0997 -0.7663
 1974SOL    HW217385   4.024   2.095  14.594 -1.5902 -1.7717 -3.2584
 1975SOL     OW17386   2.435   4.338  15.523  0.0747 -0.2754 -0.2180
 1975SOL    HW117387   2.367   4.374  15.580  0.1784 -1.4418  0.6323
 1975SOL    HW217388   2.397   4.366  15.439 -1.8759 -0.4786  0.5956
 1976SOL     OW17389   4.454   0.758   6.840 -0.1422 -0.1854  0.0816
 1976SOL    HW117390   4.459   0.845   6.881 -1.3003  1.2617 -2.8609
 1976SOL    HW217391   4.493   0.773   6.754 -1.5542 -0.2790 -0.5751
 1977SOL     OW17392   1.215   3.399   7.089  0.7880 -0.5433 -0.2880
 1977SOL    HW117393   1.221   3.417   6.995 -1.8099  1.3351 -0.0808
 1977SOL    HW217394   1.215   3.489   7.120 -0.1211 -0.1473 -1.4573
 1978SOL     OW17395   2.803   4.114   6.688  0.2433  0.5965 -0.4195
 1978SOL    HW117396   2.872   4.052   6.710  1.9099  2.3415 -0.7420
 1978SOL    HW217397   2.823   4.171   6.762  1.8309  0.3965 -0.7052
 1979SOL     OW17398   1.053   2.659   9.411  0.0729  0.3898  0.3657
 1979SOL    HW117399   0.964   2.694   9.413 -0.2389 -0.4967  1.8249
 1979SOL    HW217400   1.106   2.714   9.353  1.2453  1.7629  2.7587
 1980SOL     OW17401   1.028   3.169   5.352 -0.5568  0.3090 -0.5569
 1980SOL    HW117402   1.003   3.077   5.346  0.3802 -0.0118  0.4536
 1980SOL    HW217403   1.069   3.167   5.438 -0.4375  1.0234 -0.5964
 1981SOL     OW17404   2.801   1.209   4.838 -0.2611  0.8681  0.2572
 1981SOL    HW117405   2.870   1.188   4.775  0.8415 -0.4987  1.9331
 1981SOL    HW217406   2.757   1.273   4.782 -1.7227 -1.2361 -1.0134
 1982SOL     OW17407   1.125   3.335   4.446  0.2473  0.2940  0.6693
 1982SOL    HW117408   1.140   3.241   4.455 -2.5977  0.1491  3.8505
 1982SOL    HW217409   1.097   3.337   4.355 -1.8755  1.8862  1.3615
 1983SOL     OW17410   4.090   2.874   7.515  0.8787 -0.5814 -0.0390
 1983SOL    HW117411   4.185   2.862   7.509  0.3540 -2.4041 -4.6824
 1983SOL    HW217412   4.070   2.781   7.503 -0.1282 -0.4490  0.6744
 1984SOL     OW17413   1.820   3.797   3.186  0.2007 -0.0778 -0.5239
 1984SOL    HW117414   1.797   3.709   3.155  1.9017 -0.7300  0.0485
 1984SOL    HW217415   1.852   3.787   3.275  2.0573  1.4338 -1.0254
 1985SOL     OW17416   2.022   1.162  10.806  0.5461 -0.0088 -0.1857
 1985SOL    HW117417   1.976   1.090  10.850  2.0121  0.3301  1.9005
 1985SOL    HW217418   1.987   1.239  10.851  1.2307  0.4701 -0.4830
 1986SOL     OW17419   2.304   0.654   6.792 -0.1680  1.0722  0.0472
 1986SOL    HW117420   2.246   0.578   6.784 -0.0776  1.3497 -3.1447
 1986SOL    HW217421   2.276   0.704   6.868  0.1299  0.1825  0.7467
 1987SOL     OW17422   4.380   4.510   5.131 -0.1299 -0.8831  0.5293
 1987SOL    HW117423   4.338   4.499   5.216 -0.1922 -1.3264  0.4431
 1987SOL    HW217424   4.314   4.484   5.067  0.3477 -0.0177 -0.3118
 1988SOL     OW17425   0.758   4.687   3.434  0.3061 -0.0629  0.1615
 1988SOL    HW117426   0.760   4.709   3.527  1.4411 -2.1557  0.6367
 1988SOL    HW217427   0.843   4.718   3.403 -0.7356  1.1678 -1.4656
 1989SOL     OW17428   1.213   4.060   5.184  0.5511 -0.1459  0.4025
 1989SOL    HW117429   1.183   4.141   5.144  1.5698  0.1425  0.2476
 1989SOL    HW217430   1.189   4.064   5.277 -0.6986  2.4849 -0.0416
 1990SOL     OW17431   4.455   0.978   1.824  0.3229  0.4269 -0.0098
 1990SOL    HW117432   4.465   0.890   1.860 -0.4521 -0.3289 -1.6538
 1990SOL    HW217433   4.535   1.005   1.780  0.4674  1.4181  0.8666
 1991SOL     OW17434   2.325   2.003   6.667  0.9961  0.6490 -0.3333
 1991SOL    HW117435   2.380   2.022   6.743 -0.6615  1.1586  0.7374
 1991SOL    HW217436   2.260   2.072   6.680  1.2725  1.0631 -1.1303
 1992SOL     OW17437   1.448   3.796   7.711  0.2454 -0.6945 -0.1833
 1992SOL    HW117438   1.415   3.876   7.669  0.3319  0.0865  1.2320
 1992SOL    HW217439   1.534   3.827   7.737  0.2706 -1.1815  0.3085
 1993SOL     OW17440   3.664   1.154   6.252 -0.1207  0.1801 -0.2468
 1993SOL    HW117441   3.663   1.241   6.213  1.1610 -0.1515 -1.0184
 1993SOL    HW217442   3.620   1.105   6.183 -0.9080 -0.6213  0.8354
 1994SOL     OW17443   3.893   4.635   3.530  0.3227  0.4122 -0.0537
 1994SOL    HW117444   3.973   4.590   3.503  1.1138  1.0216  1.3305
 1994SOL    HW217445   3.900   4.650   3.624 -1.5521 -1.0000  0.3183
 1995SOL     OW17446   4.248   2.204  13.123  0.6334 -0.1484 -0.0096
 1995SOL    HW117447   4.298   2.156  13.056 -0.3398 -2.4565  0.9434
 1995SOL    HW217448   4.178   2.142  13.142  1.3693 -1.2048 -0.7255
 1996SOL     OW17449   0.589   2.802   9.627  0.0417 -0.0023 -0.0940
 1996SOL    HW117450   0.610   2.877   9.572 -0.0073 -0.4996 -0.7843
 1996SOL    HW217451   0.658   2.738   9.615 -0.6241 -0.9728  1.2600
 1997SOL     OW17452   4.135   0.055  12.300  0.3580  0.4070  0.1712
 1997SOL    HW117453   4.070   0.071  12.369  3.1897  2.1585  2.4564
 1997SOL    HW217454   4.072   0.013  12.242  1.6966  0.4901 -1.3278
 1998SOL     OW17455   2.624   1.603   7.324  0.1205 -0.3748  0.3156
 1998SOL    HW117456   2.693   1.664   7.299 -0.2013 -0.6964 -1.3458
 1998SOL    HW217457   2.596   1.640   7.408  1.4175 -0.5361  0.8217
 1999SOL     OW17458   0.332   1.282   9.448  0.3217  0.2000 -0.2127
 1999SOL    HW117459   0.243   1.272   9.415 -0.1433  1.1354  0.7753
 1999SOL    HW217460   0.368   1.194   9.460  1.0685  0.6242  0.6874
 2000SOL     OW17461   3.308   1.662   3.749  0.0040  0.0061  0.7648
 2000SOL    HW117462   3.269   1.604   3.814  1.2878 -0.9489  0.6587
 2000SOL    HW217463   3.398   1.668   3.782 -0.2532 -0.5178  1.5588
 2001SOL     OW17464   2.092   4.210   6.974 -0.6491  0.2670  0.1095
 2001SOL    HW117465   2.017   4.150   6.975 -1.7186  1.6365  1.0033
 2001SOL    HW217466   2.046   4.290   6.950 -0.8096  0.5579  1.4031
 2002SOL     OW17467   0.851   3.870   8.034 -0.1412  0.5663 -0.2737
 2002SOL    HW117468   0.878   3.819   8.110 -0.9831  0.2990 -0.1551
 2002SOL    HW217469   0.779   3.918   8.074 -1.3388 -0.4029 -1.2860
 2003SOL     OW17470   2.194   0.358   8.533  0.0288  0.4045 -0.1689
 2003SOL    HW117471   2.164   0.286   8.588  0.6451  0.9879  0.9235
 2003SOL    HW217472   2.117   0.382   8.481  1.9029  0.8748 -2.7294
 2004SOL     OW17473   1.405   4.050   4.336  0.0276  0.3924  0.1558
 2004SOL    HW117474   1.394   4.122   4.398  1.2530  1.1870 -0.5366
 2004SOL    HW217475   1.349   3.987   4.381  0.2694 -0.0515 -0.1658
 2005SOL     OW17476   3.252   4.303  13.791  0.1600  0.0349  0.2236
 2005SOL    HW117477   3.295   4.245  13.728  0.9650 -0.5622  1.3366
 2005SOL    HW217478   3.312   4.378  13.785  0.6281 -0.3069  0.6646
 2006SOL     OW17479   2.958   2.046   6.738  0.3376 -0.3596 -0.3569
 2006SOL    HW117480   2.918   2.003   6.662  0.3499 -1.1128  0.0659
 2006SOL    HW217481   3.010   2.119   6.703  0.3458 -0.7903 -1.2520
 2007SOL     OW17482   3.007   2.549   6.173 -0.9604 -0.0553  0.2387
 2007SOL    HW117483   2.996   2.454   6.175 -0.2954 -0.1441 -0.2797
 2007SOL    HW217484   3.096   2.562   6.142 -0.5183 -4.4648 -0.3167
 2008SOL     OW17485   4.660   3.693   9.939 -0.1976  0.3575 -0.4339
 2008SOL    HW117486   0.014   3.642   9.914  1.8131  2.8057  0.7996
 2008SOL    HW217487   4.609   3.674   9.860 -1.8291 -0.2285  0.7532
 2009SOL     OW17488   2.500   0.387  16.809 -0.6382 -0.0521 -0.4251
 2009SOL    HW117489   2.487   0.294  16.823  0.6442 -0.0993  0.4711
 2009SOL    HW217490   2.478   0.430  16.892  3.3810 -0.3947  0.8493
 2010SOL     OW17491   3.338   1.974   5.339  0.1104  0.1031 -0.0475
 2010SOL    HW117492   3.376   1.989   5.253 -1.2317 -0.1941 -0.6833
 2010SOL    HW217493   3.273   2.043   5.344  0.7047  0.4391  3.1267
 2011SOL     OW17494   4.381   1.359  11.790  0.1702  0.0441 -0.1116
 2011SOL    HW117495   4.474   1.363  11.812  0.3775  1.1167 -1.1537
 2011SOL    HW217496   4.346   1.444  11.815  0.6053 -0.2040  1.3647
 2012SOL     OW17497   0.740   3.154   4.354  0.5072  0.2146 -0.3637
 2012SOL    HW117498   0.765   3.093   4.285 -2.1367 -0.8896 -0.3473
 2012SOL    HW217499   0.739   3.233   4.302  0.9665  0.1881 -0.4154
 2013SOL     OW17500   1.057   1.947   3.531  0.2336 -0.0059 -0.2275
 2013SOL    HW117501   0.984   1.886   3.531  0.8417 -0.7277 -0.2209
 2013SOL    HW217502   1.043   1.975   3.621  0.4849 -0.7925  0.0522
 2014SOL     OW17503   1.977   4.321   8.484 -0.7533  0.3515 -0.1745
 2014SOL    HW117504   2.067   4.308   8.452 -1.6597 -2.2612 -1.6718
 2014SOL    HW217505   1.992   4.347   8.575  1.4636  1.2805 -0.7855
 2015SOL     OW17506   4.225   3.968  16.392 -0.3063  0.0773 -0.3293
 2015SOL    HW117507   4.285   3.893  16.400 -1.6561 -1.1205 -1.6314
 2015SOL    HW217508   4.266   4.016  16.320 -0.9202  1.0175 -0.0532
 2016SOL     OW17509   3.909   2.928   5.491  0.2095  0.4852 -0.4253
 2016SOL    HW117510   3.994   2.961   5.460 -0.8339  3.7802  0.1705
 2016SOL    HW217511   3.922   2.836   5.511 -2.6603 -0.0011 -0.8847
 2017SOL     OW17512   2.508   4.106   5.183  0.0385  0.0569  0.0156
 2017SOL    HW117513   2.576   4.130   5.246 -1.8677 -1.5805  2.6804
 2017SOL    HW217514   2.492   4.190   5.139 -0.6161  0.8536  1.7684
 2018SOL     OW17515   2.085   1.504  15.270  0.1595  0.0882 -0.1664
 2018SOL    HW117516   2.013   1.471  15.215  0.0971 -0.4840  0.2592
 2018SOL    HW217517   2.103   1.578  15.212 -0.6361  0.2254 -0.2430
 2019SOL     OW17518   3.065   3.101   7.784 -0.4286  0.6579  0.4541
 2019SOL    HW117519   3.099   3.185   7.815 -0.5969  0.6728  0.5986
 2019SOL    HW217520   2.971   3.121   7.789 -0.1798  0.8310  3.8839
 2020SOL     OW17521   4.666   3.805   3.426 -0.3993  0.1787  0.2554
 2020SOL    HW117522   0.033   3.835   3.441  0.5320 -2.3772 -0.1432
 2020SOL    HW217523   4.640   3.866   3.357  2.4134 -1.0668 -1.9495
 2021SOL     OW17524   2.443   2.869  10.242  0.2887 -0.3036 -0.0115
 2021SOL    HW117525   2.402   2.801  10.295  1.5204 -0.6926  0.4477
 2021SOL    HW217526   2.396   2.944  10.278 -2.2199 -1.3985 -1.0455
 2022SOL     OW17527   0.143   1.808   6.580  0.6316 -0.1186  0.0867
 2022SOL    HW117528   0.050   1.829   6.593  0.1883 -1.0423 -1.6364
 2022SOL    HW217529   0.155   1.757   6.660  0.6417 -1.4854 -0.7849
 2023SOL     OW17530   3.384   2.393   9.198 -0.3587 -0.6375  0.2211
 2023SOL    HW117531   3.379   2.300   9.217  1.0313 -0.9039 -0.6732
 2023SOL    HW217532   3.428   2.433   9.273 -0.5359 -0.9213  0.4746
 2024SOL     OW17533   0.829   0.129  10.626  0.4475 -0.1018  0.0783
 2024SOL    HW117534   0.894   0.115  10.557  1.6237 -0.8427  1.3228
 2024SOL    HW217535   0.761   0.159  10.566 -0.1053 -1.5594 -0.0315
 2025SOL     OW17536   3.684   1.356   7.238  0.3186  0.8600  0.1915
 2025SOL    HW117537   3.722   1.440   7.262  1.8639 -0.2972  1.7718
 2025SOL    HW217538   3.594   1.382   7.217  0.2206 -0.6446 -1.3206
 2026SOL     OW17539   2.044   0.844   6.232  0.2520  0.5659 -0.2342
 2026SOL    HW117540   2.090   0.760   6.223  0.1932  0.7236 -2.0700
 2026SOL    HW217541   2.089   0.889   6.161  1.1603  0.4601  0.2721
 2027SOL     OW17542   3.172   3.226   9.632 -0.5343 -0.5167  0.5382
 2027SOL    HW117543   3.222   3.307   9.624  1.2315 -1.9402 -2.8083
 2027SOL    HW217544   3.145   3.215   9.541 -2.1263  0.8215  0.8574
 2028SOL     OW17545   1.664   1.625   5.133 -0.2443 -0.2559 -0.5385
 2028SOL    HW117546   1.573   1.647   5.114  0.1603  1.9147  0.1014
 2028SOL    HW217547   1.666   1.533   5.105  2.2384 -0.6384  0.8849
 2029SOL     OW17548   2.338   2.560   7.361 -0.2607  0.6370  0.2536
 2029SOL    HW117549   2.379   2.570   7.448  1.0826 -1.3508 -0.1424
 2029SOL    HW217550   2.253   2.532   7.395  2.3947 -1.5776  5.0236
 2030SOL     OW17551   3.262   2.041   4.565  0.7394  0.0433 -0.2593
 2030SOL    HW117552   3.299   2.004   4.485 -1.8628  0.6913 -1.7748
 2030SOL    HW217553   3.190   2.099   4.538 -0.7941 -1.1856  1.1886
 2031SOL     OW17554   3.974   4.588   9.632 -0.2249  0.2895 -0.0228
 2031SOL    HW117555   3.936   4.508   9.597  2.1335 -0.9659  0.2477
 2031SOL    HW217556   4.042   4.601   9.565  1.9163 -5.1194  1.0811
 2032SOL     OW17557   0.976   1.323   4.655 -0.0758  0.6335  0.7665
 2032SOL    HW117558   0.917   1.399   4.648  0.1656  0.7954  0.4779
 2032SOL    HW217559   0.912   1.252   4.662  0.0347  0.5115  0.5330
 2033SOL     OW17560   3.069   4.112   5.336 -0.3312  0.1738 -0.4142
 2033SOL    HW117561   3.079   4.023   5.303  1.7157  0.4054 -0.4149
 2033SOL    HW217562   3.021   4.149   5.262  0.3782  1.6877 -0.1333
 2034SOL     OW17563   1.340   3.545   7.671 -0.4294 -0.2420  0.2466
 2034SOL    HW117564   1.403   3.486   7.714  1.0690  1.2423  0.0975
 2034SOL    HW217565   1.362   3.633   7.701 -0.3204 -0.1800 -0.0077
 2035SOL     OW17566   2.477   3.392   7.581  0.0446  0.2190 -0.1049
 2035SOL    HW117567   2.464   3.315   7.635 -0.9088 -2.0800 -3.6295
 2035SOL    HW217568   2.485   3.460   7.649  3.1153  0.9225 -1.1468
 2036SOL     OW17569   0.811   4.463   3.699 -0.2104 -0.0370  0.7734
 2036SOL    HW117570   0.907   4.453   3.693 -0.1165 -0.0255  2.2843
 2036SOL    HW217571   0.804   4.553   3.729  2.6824  0.1432  0.9454
 2037SOL     OW17572   2.990   3.421  14.156 -0.3289 -0.1171 -0.8406
 2037SOL    HW117573   2.898   3.406  14.176  0.2701  0.2664  2.1673
 2037SOL    HW217574   2.972   3.478  14.082 -1.6579  0.6877  0.1176
 2038SOL     OW17575   3.378   1.818   5.092 -0.5160 -0.0266 -0.5102
 2038SOL    HW117576   3.308   1.766   5.054 -0.9083 -0.8554  1.3754
 2038SOL    HW217577   3.408   1.876   5.021  1.2449  1.1504  1.1910
 2039SOL     OW17578   3.076   3.173   5.848  0.1944  0.0104 -0.0361
 2039SOL    HW117579   2.989   3.137   5.838 -0.0601  0.5132  0.3437
 2039SOL    HW217580   3.099   3.120   5.924 -4.4937  0.8432  1.9623
 2040SOL     OW17581   1.773   1.834   8.952 -0.0846 -0.1281 -0.5846
 2040SOL    HW117582   1.761   1.880   8.869  1.0045  0.3079 -0.4978
 2040SOL    HW217583   1.733   1.892   9.017 -0.4738  0.6577 -1.5290
 2041SOL     OW17584   2.384   3.478   6.283  0.0330  0.0753 -0.3493
 2041SOL    HW117585   2.420   3.441   6.203  1.5559  1.1725 -0.1764
 2041SOL    HW217586   2.412   3.569   6.274 -1.6905  0.5855 -0.4886
 2042SOL     OW17587   1.007   0.153  12.069 -0.4295 -0.1822 -0.3154
 2042SOL    HW117588   0.918   0.139  12.099 -0.6962  1.5733 -0.2810
 2042SOL    HW217589   1.044   0.074  12.110 -2.5710  0.0878  2.1137
 2043SOL     OW17590   4.704   3.311   9.492 -0.0465 -0.2097 -0.3540
 2043SOL    HW117591   0.070   3.329   9.462  0.5827 -1.3253  0.8694
 2043SOL    HW217592   4.673   3.259   9.418  1.1424 -0.2184 -0.8448
 2044SOL     OW17593   1.849   1.239   9.170 -0.3355  0.1401  0.2906
 2044SOL    HW117594   1.759   1.258   9.198 -0.3554  2.5901 -1.4924
 2044SOL    HW217595   1.860   1.299   9.097 -0.9056  0.3050  0.3402
 2045SOL     OW17596   3.166   3.712  10.620  0.4155 -0.2240 -0.1508
 2045SOL    HW117597   3.245   3.724  10.672  1.1436  0.1337 -1.3356
 2045SOL    HW217598   3.122   3.784  10.664  3.4586  0.3486  1.9382
 2046SOL     OW17599   4.709   1.044  17.255 -0.1854 -0.0550 -0.0395
 2046SOL    HW117600   4.703   1.022  17.162  1.4299 -0.2126 -0.0908
 2046SOL    HW217601   4.687   1.137  17.246  0.1260  0.4829  4.7668
 2047SOL     OW17602   3.614   3.658  12.116 -0.3782 -0.1361  0.3464
 2047SOL    HW117603   3.635   3.681  12.207 -1.2521 -1.8319  0.9743
 2047SOL    HW217604   3.695   3.693  12.080 -0.3822  1.0422  1.4549
 2048SOL     OW17605   0.121   2.255   5.555  0.4335  0.0816  0.3613
 2048SOL    HW117606   0.213   2.263   5.532 -0.4468 -0.4651 -3.2901
 2048SOL    HW217607   0.098   2.172   5.514  1.0952 -0.8363  1.8260
 2049SOL     OW17608   4.604   2.785   8.225 -0.6359  0.6261  0.4434
 2049SOL    HW117609   4.538   2.852   8.209 -0.3266  1.5095  2.8055
 2049SOL    HW217610   4.577   2.766   8.315  0.0660 -1.9543  0.1249
 2050SOL     OW17611   1.166   1.227  15.848  0.6718  0.2503  0.4810
 2050SOL    HW117612   1.183   1.319  15.826  3.7789 -0.7579 -1.2801
 2050SOL    HW217613   1.096   1.199  15.789  0.8601  1.6329 -0.4039
 2051SOL     OW17614   3.349   1.281   0.208  0.3280 -0.0394  0.1019
 2051SOL    HW117615   3.402   1.256   0.283  0.1826 -2.2408 -0.5330
 2051SOL    HW217616   3.385   1.366   0.182 -0.5717  0.0167 -0.9644
 2052SOL     OW17617   1.283   3.220  15.655 -0.2227  0.1289  0.2472
 2052SOL    HW117618   1.322   3.209  15.568  0.2249 -1.4454  0.6417
 2052SOL    HW217619   1.249   3.309  15.642  1.5759  1.3051  3.7593
 2053SOL     OW17620   0.356   4.493   5.180 -0.3486 -0.4395  0.0736
 2053SOL    HW117621   0.427   4.557   5.174 -0.1338 -0.7084 -0.2305
 2053SOL    HW217622   0.337   4.510   5.272  0.3573 -1.2605  0.3771
 2054SOL     OW17623   3.448   1.800   3.329  0.2673  0.1126  0.0833
 2054SOL    HW117624   3.390   1.802   3.253 -0.1448 -1.2864  0.3525
 2054SOL    HW217625   3.377   1.791   3.393  0.3294  0.6288  0.2205
 2055SOL     OW17626   0.013   0.756   4.338 -0.1388 -0.0304 -0.5960
 2055SOL    HW117627   4.669   0.822   4.326 -1.7704 -1.8967 -1.7016
 2055SOL    HW217628   4.685   0.690   4.385  0.2793 -0.1892 -0.3572
 2056SOL     OW17629   1.842   2.513   0.699 -0.3703 -0.4270  0.4034
 2056SOL    HW117630   1.881   2.598   0.682  2.4594 -1.1915  3.0669
 2056SOL    HW217631   1.754   2.539   0.672 -0.3132 -0.2205  0.4172
 2057SOL     OW17632   1.884   0.174   4.873  0.2763  0.6636  0.7863
 2057SOL    HW117633   1.872   0.266   4.850  4.6831  1.5364  2.1128
 2057SOL    HW217634   1.943   0.134   4.809 -1.1298 -1.1216  0.6090
 2058SOL     OW17635   4.607   4.457   4.799 -0.0325  0.2143  0.2278
 2058SOL    HW117636   4.689   4.494   4.765  0.5375 -1.7650 -0.5579
 2058SOL    HW217637   4.553   4.530   4.828  0.4141 -0.0511  1.7041
 2059SOL     OW17638   4.707   0.321   5.263 -0.3077  0.4905  0.0311
 2059SOL    HW117639   4.672   0.408   5.247  1.9287  1.1833 -1.0346
 2059SOL    HW217640   4.625   0.280   5.291 -0.1040  0.4789  0.6176
 2060SOL     OW17641   3.777   4.346   2.946  0.0073  0.5768 -0.7685
 2060SOL    HW117642   3.793   4.413   2.880  0.1189  0.2968 -1.0232
 2060SOL    HW217643   3.683   4.363   2.951  0.3059  2.0301 -0.0215
 2061SOL     OW17644   0.116   3.431  16.615 -0.3531  0.2602  0.4906
 2061SOL    HW117645   0.117   3.519  16.654  2.9523 -0.3563  1.7565
 2061SOL    HW217646   0.210   3.430  16.600 -0.3564  0.3972  0.4569
 2062SOL     OW17647   1.586   0.347   3.919 -0.5368 -0.2104  0.4687
 2062SOL    HW117648   1.679   0.352   3.941 -0.1106 -0.4606 -1.3281
 2062SOL    HW217649   1.565   0.432   3.881 -1.0991 -0.7697 -0.4880
 2063SOL     OW17650   3.069   1.767  14.644 -0.1462 -0.2057 -0.5776
 2063SOL    HW117651   3.096   1.812  14.724 -1.6079  0.8153 -0.6606
 2063SOL    HW217652   3.134   1.697  14.643  0.7925  0.6668 -0.6268
 2064SOL     OW17653   3.452   4.451   7.103  0.9545  0.3829 -0.2106
 2064SOL    HW117654   3.444   4.519   7.036 -0.2388  1.2251  0.7866
 2064SOL    HW217655   3.364   4.460   7.141  0.2753 -0.2664 -1.6085
 2065SOL     OW17656   3.161   0.497   1.585  0.2035 -0.2676  0.2548
 2065SOL    HW117657   3.141   0.406   1.561 -2.1829  0.1547  0.5703
 2065SOL    HW217658   3.125   0.545   1.511 -0.0856  0.3765  0.8101
 2066SOL     OW17659   0.418   3.850   6.357  0.0408 -0.2513 -0.1882
 2066SOL    HW117660   0.388   3.785   6.421  0.0688  1.6616  1.7897
 2066SOL    HW217661   0.353   3.830   6.290 -0.8918  0.8095  0.3981
 2067SOL     OW17662   1.949   1.046  14.477  0.3331  0.1244 -0.1702
 2067SOL    HW117663   1.958   0.975  14.542  1.9469 -1.1977 -1.8601
 2067SOL    HW217664   2.034   1.038  14.435  0.9803 -1.0787  1.3414
 2068SOL     OW17665   2.272   3.951   1.042 -0.0533 -0.1850 -0.3999
 2068SOL    HW117666   2.236   4.039   1.040 -2.3394 -1.1152 -0.5892
 2068SOL    HW217667   2.275   3.930   1.136 -0.4959 -1.4371 -0.6597
 2069SOL     OW17668   4.108   2.663   0.722 -0.2120 -0.2473 -0.1433
 2069SOL    HW117669   4.072   2.587   0.676 -0.0079 -0.6599  0.3668
 2069SOL    HW217670   4.034   2.722   0.737 -0.5186 -0.2492 -1.7058
 2070SOL     OW17671   3.278   4.295   2.533  0.2870 -0.5292  0.2106
 2070SOL    HW117672   3.190   4.293   2.497  0.1408  0.7799  0.5053
 2070SOL    HW217673   3.338   4.261   2.466 -0.2476 -0.4002 -0.3301
 2071SOL     OW17674   4.244   0.735   5.536 -1.0231 -0.2579  0.7860
 2071SOL    HW117675   4.298   0.811   5.559 -0.2931 -0.7252  0.6156
 2071SOL    HW217676   4.304   0.696   5.473 -0.5892  0.2286  0.8954
 2072SOL     OW17677   3.591   1.762  10.560 -0.2478 -0.9142  0.3374
 2072SOL    HW117678   3.579   1.848  10.599  0.3692 -0.2171 -1.0113
 2072SOL    HW217679   3.594   1.707  10.638 -0.7262 -1.1679  0.1756
 2073SOL     OW17680   3.113   3.937  15.462 -0.3139  0.0901 -0.0981
 2073SOL    HW117681   3.086   4.028  15.475  1.2072  0.2597  1.8793
 2073SOL    HW217682   3.171   3.930  15.538 -0.6870  0.5590  0.2360
 2074SOL     OW17683   3.553   3.635   3.778  0.0059  0.3110 -0.4322
 2074SOL    HW117684   3.496   3.586   3.838  0.3754 -0.4020 -0.6618
 2074SOL    HW217685   3.612   3.567   3.746  1.8511  1.3644  0.7868
 2075SOL     OW17686   4.220   2.634  11.213 -0.4340  0.1077  0.2566
 2075SOL    HW117687   4.127   2.632  11.192  0.3357 -2.2585 -2.9414
 2075SOL    HW217688   4.252   2.553  11.174  1.7358  0.4619  1.2600
 2076SOL     OW17689   4.557   0.850   0.264  0.6100 -0.0487  0.2319
 2076SOL    HW117690   4.602   0.931   0.288 -0.5673  0.9746 -1.0137
 2076SOL    HW217691   4.466   0.869   0.287  1.0115  2.8024 -0.5637
 2077SOL     OW17692   1.430   4.017   1.994 -0.7235 -0.2665 -0.2937
 2077SOL    HW117693   1.479   4.003   2.076  0.1147  0.3652 -0.6920
 2077SOL    HW217694   1.485   3.963   1.937  0.3314 -0.6541  1.0751
 2078SOL     OW17695   2.015   3.583   1.239  0.0949 -0.4447 -0.0996
 2078SOL    HW117696   2.059   3.538   1.311 -0.3438 -0.4052  0.1924
 2078SOL    HW217697   1.937   3.528   1.239 -1.6988  2.0769  1.0807
 2079SOL     OW17698   4.006   0.882   6.821  0.0509  0.2259 -0.5790
 2079SOL    HW117699   4.011   0.795   6.782 -1.4040 -0.8746  1.6455
 2079SOL    HW217700   3.965   0.932   6.750  2.2047  1.0679 -1.2271
 2080SOL     OW17701   4.692   4.604  13.523 -0.2121 -0.5818 -0.2650
 2080SOL    HW117702   4.719   4.686  13.565 -1.9734 -0.7100  1.1769
 2080SOL    HW217703   4.598   4.622  13.512 -0.4289 -2.0091 -0.7155
 2081SOL     OW17704   0.179   3.605   9.768  0.1683  0.0964  0.1669
 2081SOL    HW117705   0.222   3.541   9.825 -1.6529 -0.2706  1.1454
 2081SOL    HW217706   0.197   3.574   9.680 -0.6485  0.2034 -0.0421
 2082SOL     OW17707   0.964   0.562  12.722 -0.2468 -0.1983 -0.2083
 2082SOL    HW117708   1.034   0.626  12.716  0.1045 -0.3105  2.6464
 2082SOL    HW217709   0.896   0.609  12.771  0.4182  2.0254 -1.4107
 2083SOL     OW17710   1.835   1.369   7.893  0.0940  0.5028 -0.9971
 2083SOL    HW117711   1.922   1.330   7.885 -0.7514 -1.3123 -1.3221
 2083SOL    HW217712   1.816   1.351   7.800 -1.3770 -1.9035 -0.2301
 2084SOL     OW17713   4.061   1.666   9.486  0.6797 -0.0145  0.0227
 2084SOL    HW117714   4.117   1.736   9.519  0.0323  0.1332  0.8280
 2084SOL    HW217715   4.044   1.701   9.399  0.0754 -0.2763  0.0338
 2085SOL     OW17716   1.251   0.434  12.836 -0.0602 -0.5361 -0.0543
 2085SOL    HW117717   1.177   0.473  12.790 -0.6973  0.8899  2.1337
 2085SOL    HW217718   1.331   0.449  12.785  0.7266 -1.3705  0.9254
 2086SOL     OW17719   1.470   4.206   3.734  0.3906 -0.0289 -0.2335
 2086SOL    HW117720   1.380   4.186   3.710  0.5091  1.1525 -1.6498
 2086SOL    HW217721   1.467   4.288   3.783  0.5755  0.8027 -1.6174
 2087SOL     OW17722   0.579   0.851  12.088 -0.5066  0.2027  0.1805
 2087SOL    HW117723   0.673   0.867  12.091 -0.8105  1.2731  3.8557
 2087SOL    HW217724   0.561   0.867  12.181 -1.0743 -0.1064  0.1239
 2088SOL     OW17725   1.363   2.263   6.852  0.4278  0.4754 -0.0913
 2088SOL    HW117726   1.308   2.292   6.925 -0.0891 -1.2096  0.1904
 2088SOL    HW217727   1.410   2.340   6.822 -0.0247  1.2620  1.2478
 2089SOL     OW17728   1.109   1.029   7.531  0.4153 -0.3468  0.4858
 2089SOL    HW117729   1.138   0.986   7.451 -0.8918 -0.8050  0.2617
 2089SOL    HW217730   1.192   1.042   7.577 -0.8671  1.6317  2.2797
 2090SOL     OW17731   3.741   0.218  15.279 -0.8623  0.1435  0.1333
 2090SOL    HW117732   3.712   0.309  15.279  1.3289  0.8283 -0.0941
 2090SOL    HW217733   3.665   0.167  15.308 -0.0866 -0.6714  0.7109
 2091SOL     OW17734   2.919   0.363   0.461  0.3257  0.0159  0.2240
 2091SOL    HW117735   2.975   0.421   0.512 -2.1159  1.4105  1.2948
 2091SOL    HW217736   2.839   0.414   0.450  0.7073  0.6256  0.2648
 2092SOL     OW17737   0.312   2.978  10.520  0.4003  0.0189  0.0711
 2092SOL    HW117738   0.359   3.060  10.535 -3.0729  2.5730 -2.8961
 2092SOL    HW217739   0.278   2.953  10.606 -1.1772  0.3308 -0.4640
 2093SOL     OW17740   3.507   2.663   5.124  0.1618 -0.8578  0.4356
 2093SOL    HW117741   3.449   2.588   5.139  0.1753 -0.9775 -0.0973
 2093SOL    HW217742   3.451   2.741   5.131 -1.1096 -1.6477 -0.8224
 2094SOL     OW17743   2.339   0.244   3.320  0.4366 -0.1043  0.4674
 2094SOL    HW117744   2.411   0.193   3.358 -0.6514 -1.1205  1.1693
 2094SOL    HW217745   2.299   0.166   3.280  0.0885  1.7791 -2.8782
 2095SOL     OW17746   2.544   3.923   4.988  0.4933  0.0137  0.4078
 2095SOL    HW117747   2.462   3.966   4.968  0.3542  0.1989  1.3898
 2095SOL    HW217748   2.576   3.989   5.049  1.1464 -0.1724  0.2709
 2096SOL     OW17749   4.122   1.083   7.953 -0.1439  0.2943  0.3503
 2096SOL    HW117750   4.163   1.028   7.886  1.7387  2.0183  0.0667
 2096SOL    HW217751   4.196   1.140   7.973 -0.3705  0.5299  0.5011
 2097SOL     OW17752   1.165   4.531   4.494 -0.1376  0.1759 -0.1523
 2097SOL    HW117753   1.233   4.523   4.427  0.6638 -2.1034  0.9164
 2097SOL    HW217754   1.213   4.586   4.557  1.1500 -1.3419  0.2053
 2098SOL     OW17755   3.495   1.632   2.049 -0.0834  0.1495  0.2402
 2098SOL    HW117756   3.406   1.601   2.065 -1.3434  3.0749 -1.0875
 2098SOL    HW217757   3.523   1.576   1.976 -1.0288 -0.1232  0.0882
 2099SOL     OW17758   1.454   1.335  10.482  0.3802  0.2359  0.5835
 2099SOL    HW117759   1.374   1.388  10.478 -0.7039 -1.4075  0.2908
 2099SOL    HW217760   1.454   1.303  10.572 -0.3706  0.3375  0.6169
 2100SOL     OW17761   3.669   3.645   3.419 -0.1029  0.0703  0.3073
 2100SOL    HW117762   3.674   3.613   3.330 -2.9430 -0.6740  0.3984
 2100SOL    HW217763   3.603   3.589   3.460 -0.2465 -0.7971 -1.1526
 2101SOL     OW17764   0.457   1.545  12.534 -0.1140  0.0974  0.4970
 2101SOL    HW117765   0.506   1.605  12.478 -0.2217  1.7758  2.2361
 2101SOL    HW217766   0.422   1.485  12.467 -0.4660  0.1631  0.6215
 2102SOL     OW17767   3.723   2.646   3.726 -0.2623 -0.1500 -0.0774
 2102SOL    HW117768   3.810   2.654   3.688  0.4391  0.2874  1.6337
 2102SOL    HW217769   3.686   2.726   3.688 -0.7380 -0.6934 -0.7612
 2103SOL     OW17770   1.114   0.492   4.586  0.6842  0.8860 -0.3128
 2103SOL    HW117771   1.114   0.424   4.653  2.2622  1.1187 -0.0957
 2103SOL    HW217772   1.065   0.560   4.634 -1.1631 -0.3903 -0.3968
 2104SOL     OW17773   3.753   1.284   3.667  0.1117  0.4234  0.5844
 2104SOL    HW117774   3.698   1.264   3.742  0.7153  0.3149  0.9966
 2104SOL    HW217775   3.707   1.237   3.597 -0.5582 -0.9673  1.9721
 2105SOL     OW17776   0.398   3.688   3.134 -0.0279 -0.6934 -0.2192
 2105SOL    HW117777   0.443   3.609   3.105 -0.5045 -1.7442  1.9424
 2105SOL    HW217778   0.312   3.647   3.140  0.2594 -1.2640 -0.0617
 2106SOL     OW17779   2.937   2.822   0.803 -0.1859 -0.1296  0.2836
 2106SOL    HW117780   2.877   2.895   0.791  3.5477  3.1058  1.3753
 2106SOL    HW217781   2.912   2.787   0.889  1.4271 -1.9720  0.0249
 2107SOL     OW17782   1.098   0.055  11.832 -0.0213  0.1616 -0.1484
 2107SOL    HW117783   1.066   4.688  11.837  1.1076 -0.1801  1.2677
 2107SOL    HW217784   1.063   0.095  11.912  0.0358 -0.7771  0.3503
 2108SOL     OW17785   3.168   0.161   4.483 -0.2045  0.2255  0.8715
 2108SOL    HW117786   3.182   0.210   4.564 -1.3447 -0.1962  1.3104
 2108SOL    HW217787   3.123   0.228   4.431 -0.9488 -0.8121  0.1981
 2109SOL     OW17788   4.642   3.533   8.562  0.1759  0.4562  0.5262
 2109SOL    HW117789   4.703   3.598   8.595  1.0402 -0.0759 -0.0435
 2109SOL    HW217790   4.666   3.453   8.609 -0.9635 -0.4985 -0.4911
 2110SOL     OW17791   4.110   3.597   8.918 -0.2350  0.3190  0.3468
 2110SOL    HW117792   4.051   3.524   8.899 -1.7619  1.5902  0.2404
 2110SOL    HW217793   4.063   3.632   8.994 -0.7680 -1.0164  0.6394
 2111SOL     OW17794   0.911   0.491   8.031 -0.0716 -0.3942 -0.2216
 2111SOL    HW117795   0.890   0.545   7.954 -0.1047  1.0507  0.7906
 2111SOL    HW217796   1.005   0.489   8.015 -0.2944 -0.9062 -1.4585
 2112SOL     OW17797   3.616   2.875   1.860 -0.4483  0.0093  0.7816
 2112SOL    HW117798   3.680   2.805   1.850 -0.0885  0.4796 -0.2913
 2112SOL    HW217799   3.669   2.948   1.892  0.0491  0.1875 -0.4267
 2113SOL     OW17800   2.736   3.127   3.629 -0.0473 -0.0963 -0.7082
 2113SOL    HW117801   2.800   3.185   3.670 -0.0175  0.1419 -1.0890
 2113SOL    HW217802   2.725   3.161   3.540  1.6547  2.3049  0.0131
 2114SOL     OW17803   3.377   0.838   9.354  0.4494  0.5601  0.2790
 2114SOL    HW117804   3.429   0.771   9.309 -0.4005  0.5516 -0.7047
 2114SOL    HW217805   3.401   0.918   9.307  0.0565 -0.5925 -1.8632
 2115SOL     OW17806   3.705   4.198   8.150 -0.2181 -0.2574 -0.2828
 2115SOL    HW117807   3.632   4.174   8.207 -1.1608 -0.0242 -1.3703
 2115SOL    HW217808   3.783   4.188   8.203 -1.7626  2.6133  2.5116
 2116SOL     OW17809   0.457   0.851  11.820 -0.0129 -0.2494  0.0272
 2116SOL    HW117810   0.551   0.834  11.821  0.3329  1.6580 -0.2665
 2116SOL    HW217811   0.418   0.813  11.741  1.6883 -1.4767 -0.2244
 2117SOL     OW17812   4.152   4.437   4.983  0.1897 -0.3013  0.4604
 2117SOL    HW117813   4.068   4.465   5.019 -0.3618 -0.9124 -0.3739
 2117SOL    HW217814   4.116   4.435   4.895  0.5529 -3.1705  0.3765
 2118SOL     OW17815   2.260   1.440   2.374 -0.1554  0.5172  0.4105
 2118SOL    HW117816   2.244   1.357   2.328 -0.9480  2.0613 -2.0860
 2118SOL    HW217817   2.218   1.503   2.316  0.1507  0.0040 -0.3734
 2119SOL     OW17818   2.682   1.187   7.747 -0.6671 -0.3528  0.2989
 2119SOL    HW117819   2.668   1.236   7.666  1.0844  0.8455  0.7245
 2119SOL    HW217820   2.714   1.104   7.711 -2.2417 -1.0836  0.5887
 2120SOL     OW17821   3.098   3.503  16.029  0.1204 -0.3857  0.3550
 2120SOL    HW117822   3.168   3.555  16.069 -0.7970  0.7486  0.4806
 2120SOL    HW217823   3.126   3.487  15.939  0.0441 -1.8769  0.6030
 2121SOL     OW17824   4.548   0.446   2.775  0.2417 -0.1311  0.0276
 2121SOL    HW117825   4.557   0.351   2.775 -2.4924 -0.3653 -1.2955
 2121SOL    HW217826   4.597   0.463   2.856  0.0167  2.0386 -0.2994
 2122SOL     OW17827   3.412   4.175   0.812 -0.5336 -0.3556  0.4141
 2122SOL    HW117828   3.370   4.142   0.892  1.0705 -2.5656  0.3477
 2122SOL    HW217829   3.386   4.267   0.814  3.1878  0.7156 -1.7911
 2123SOL     OW17830   3.371   1.968   2.022 -0.4046 -0.5448  0.5612
 2123SOL    HW117831   3.454   1.944   1.981 -0.5914  0.3981 -0.3705
 2123SOL    HW217832   3.398   1.977   2.113  1.6110  1.8109 -0.2878
 2124SOL     OW17833   2.137   3.177   3.315  0.0979  0.6484 -0.3728
 2124SOL    HW117834   2.061   3.197   3.260  0.1343  0.4102 -0.5069
 2124SOL    HW217835   2.191   3.122   3.259  0.1667  0.3687 -0.0318
 2125SOL     OW17836   2.491   2.593  15.287 -0.1540  0.0743  0.2524
 2125SOL    HW117837   2.581   2.594  15.255  0.7584  1.8077  2.8259
 2125SOL    HW217838   2.457   2.508  15.261  0.1016  0.2409 -0.5996
 2126SOL     OW17839   0.327   1.521   9.927 -0.9857 -0.2102 -0.0463
 2126SOL    HW117840   0.232   1.518   9.938 -0.7627  0.9937  2.1885
 2126SOL    HW217841   0.358   1.436   9.955  1.3818  0.7933  0.3794
 2127SOL     OW17842   0.892   1.933   1.418 -0.0372 -0.0176 -1.0204
 2127SOL    HW117843   0.939   2.012   1.447 -1.1804  0.6805 -1.0667
 2127SOL    HW217844   0.835   1.909   1.490 -0.3613  1.3424 -0.8202
 2128SOL     OW17845   4.219   2.535   5.043 -0.1430  0.0433 -0.9956
 2128SOL    HW117846   4.177   2.571   5.121  2.7117  0.1734  0.4950
 2128SOL    HW217847   4.199   2.602   4.978  0.7998 -1.9659 -3.3505
 2129SOL     OW17848   2.786   4.123  11.501  0.6298 -0.4151  0.0358
 2129SOL    HW117849   2.720   4.066  11.462  0.3409 -0.1498  0.1358
 2129SOL    HW217850   2.796   4.072  11.582  1.0121  3.4168  2.4035
 2130SOL     OW17851   2.895   1.770   9.457  0.0413 -0.1637 -0.1120
 2130SOL    HW117852   2.800   1.763   9.468 -0.0252  0.5345 -0.2308
 2130SOL    HW217853   2.920   1.686   9.497 -0.5283  0.5732  1.7807
 2131SOL     OW17854   4.041   0.034  15.199  0.4549 -0.1895  0.9196
 2131SOL    HW117855   4.117   4.708  15.232  0.2766 -0.2537  1.2379
 2131SOL    HW217856   3.968   4.705  15.232 -0.1237  1.0019  1.5381
 2132SOL     OW17857   2.167   0.197  15.592 -0.0868 -0.1527  0.0629
 2132SOL    HW117858   2.159   0.141  15.670 -1.5925  0.6569  0.4878
 2132SOL    HW217859   2.195   0.135  15.524 -1.9029  0.2454 -1.0343
 2133SOL     OW17860   2.130   1.851   4.727 -0.2254 -0.3759 -0.4131
 2133SOL    HW117861   2.060   1.860   4.791 -2.7599  2.5029 -3.5771
 2133SOL    HW217862   2.113   1.926   4.669 -1.6174 -0.7811 -0.5188
 2134SOL     OW17863   3.696   3.051   3.371 -0.0292 -0.0295 -0.7107
 2134SOL    HW117864   3.744   3.108   3.312  0.2727 -0.7089 -1.1192
 2134SOL    HW217865   3.677   2.990   3.299 -1.4986 -0.3248 -0.0820
 2135SOL     OW17866   2.583   1.068  12.601 -0.4083 -0.1254 -0.7245
 2135SOL    HW117867   2.519   1.084  12.671  0.9935 -2.0774  0.9659
 2135SOL    HW217868   2.613   0.978  12.609  1.5934  0.5890 -0.2594
 2136SOL     OW17869   2.587   2.538   6.867  0.2746 -0.0594  0.2369
 2136SOL    HW117870   2.569   2.507   6.956  0.5361 -0.1135  0.2700
 2136SOL    HW217871   2.667   2.486   6.858  0.2919 -0.0720  0.4499
 2137SOL     OW17872   3.135   1.258   5.304 -0.2942  0.5388  0.2437
 2137SOL    HW117873   3.052   1.257   5.353 -0.4915 -2.6797 -0.1847
 2137SOL    HW217874   3.121   1.176   5.258 -0.2279  0.3577  0.5487
 2138SOL     OW17875   0.118   3.083   6.822  0.5952 -0.7943 -0.1921
 2138SOL    HW117876   0.098   3.119   6.909  0.5241 -1.8020  0.2182
 2138SOL    HW217877   0.038   3.120   6.784 -1.1925 -0.7878  3.5095
 2139SOL     OW17878   0.205   3.495   3.213  0.2166 -0.0311 -0.1169
 2139SOL    HW117879   0.204   3.402   3.188  0.3338 -0.0279 -0.1314
 2139SOL    HW217880   0.111   3.514   3.213 -0.1800 -1.9000  1.7682
 2140SOL     OW17881   2.840   0.687  12.444  0.5620 -0.3080  0.2603
 2140SOL    HW117882   2.914   0.705  12.386  2.3236 -2.7415  1.7887
 2140SOL    HW217883   2.847   0.594  12.462 -0.2915 -0.4782 -0.3103
 2141SOL     OW17884   4.143   2.213   2.834  0.0152  0.0817  0.2968
 2141SOL    HW117885   4.111   2.246   2.750 -1.3221 -2.8262 -0.3211
 2141SOL    HW217886   4.064   2.167   2.861 -0.1041 -1.0166 -1.9299
 2142SOL     OW17887   2.032   0.751   5.480 -0.2417  0.4866  0.1432
 2142SOL    HW117888   2.107   0.780   5.429 -0.7193  2.8101  0.8000
 2142SOL    HW217889   2.003   0.833   5.518  0.6195  1.4462 -1.2941
 2143SOL     OW17890   3.966   1.106  14.866  0.0528 -0.5883 -0.8540
 2143SOL    HW117891   3.972   1.060  14.782 -1.7370 -1.4091 -0.5318
 2143SOL    HW217892   4.043   1.060  14.899 -1.5971 -2.1878  0.7538
 2144SOL     OW17893   0.903   2.130  10.055  0.1733  0.1831 -0.5012
 2144SOL    HW117894   0.864   2.131  10.143 -0.0284 -0.8716 -0.5760
 2144SOL    HW217895   0.829   2.150   9.997  0.2157 -2.2174 -1.3787
 2145SOL     OW17896   2.885   2.556   5.184 -0.3789  0.5520 -0.2778
 2145SOL    HW117897   2.858   2.642   5.151 -2.4549  0.3201  0.8532
 2145SOL    HW217898   2.807   2.532   5.233 -0.4024  1.8290  0.3116
 2146SOL     OW17899   3.498   1.322   4.194  0.0464  0.0941  0.3203
 2146SOL    HW117900   3.480   1.382   4.266  2.3435 -0.5975  1.4788
 2146SOL    HW217901   3.411   1.292   4.171  0.9997 -1.2803 -1.5533
 2147SOL     OW17902   2.787   0.139   6.866 -0.5654 -0.5500  0.2685
 2147SOL    HW117903   2.772   0.096   6.950 -1.5690 -3.0243 -1.1720
 2147SOL    HW217904   2.879   0.114   6.859 -0.3092  0.4285  0.1805
 2148SOL     OW17905   0.556   4.111   4.337 -0.0806  0.2154  0.6812
 2148SOL    HW117906   0.575   4.185   4.394  2.4060  0.9225 -1.0623
 2148SOL    HW217907   0.469   4.088   4.369 -0.4405 -0.9803 -1.1044
 2149SOL     OW17908   3.075   3.620  14.879 -0.1333 -0.6029 -0.8993
 2149SOL    HW117909   3.169   3.632  14.894 -1.0955  2.2452  2.8690
 2149SOL    HW217910   3.054   3.703  14.837  1.8531  0.6547  0.5942
 2150SOL     OW17911   0.572   0.453   3.059  0.6551  0.8050  0.7189
 2150SOL    HW117912   0.525   0.532   3.032 -0.9117 -0.4031 -0.0580
 2150SOL    HW217913   0.632   0.480   3.129  0.2542  0.7506  1.0812
 2151SOL     OW17914   3.665   1.086   4.878 -0.2227 -0.2285  0.0172
 2151SOL    HW117915   3.677   1.110   4.970 -0.8878  0.3094 -0.0418
 2151SOL    HW217916   3.751   1.054   4.851  0.6288  2.6326 -0.6675
 2152SOL     OW17917   4.634   3.634   2.374 -0.0087 -0.4240 -0.0133
 2152SOL    HW117918   4.715   3.590   2.350  0.6534  1.0909 -0.5608
 2152SOL    HW217919   4.590   3.560   2.416  0.0839 -0.7338 -0.4739
 2153SOL     OW17920   2.695   2.854   5.415  0.1133 -0.0841  0.2171
 2153SOL    HW117921   2.789   2.869   5.412  0.3263 -1.3820  0.0340
 2153SOL    HW217922   2.694   2.796   5.492  2.8721  0.9012  0.9799
 2154SOL     OW17923   1.868   2.829   4.035  0.5347  0.0604 -0.1515
 2154SOL    HW117924   1.871   2.747   4.085  0.0162 -0.0204 -0.2586
 2154SOL    HW217925   1.932   2.878   4.087  1.5021 -2.4005  1.0268
 2155SOL     OW17926   1.733   3.277  11.358  0.6064  0.5558  0.0753
 2155SOL    HW117927   1.736   3.187  11.325 -0.1987  0.0023  1.5474
 2155SOL    HW217928   1.640   3.298  11.352  0.4962  0.5123  1.6373
 2156SOL     OW17929   4.391   1.569   4.878 -0.0607 -0.0122  0.8129
 2156SOL    HW117930   4.429   1.483   4.861 -2.4267 -1.1984  1.5921
 2156SOL    HW217931   4.462   1.628   4.853 -0.7860  0.6951  0.4233
 2157SOL     OW17932   2.677   2.162   2.060 -0.4435 -0.4791  0.1338
 2157SOL    HW117933   2.743   2.140   1.995  0.4598 -0.9892  1.2124
 2157SOL    HW217934   2.725   2.213   2.125 -1.1998  0.8269 -0.3450
 2158SOL     OW17935   2.901   0.536   3.392  0.3216 -0.0053  0.1940
 2158SOL    HW117936   2.867   0.457   3.351  0.7343  0.5367 -1.1989
 2158SOL    HW217937   2.937   0.580   3.315  1.4976 -1.7431 -0.2566
 2159SOL     OW17938   1.175   3.612  10.799  0.5457 -0.0420  0.5422
 2159SOL    HW117939   1.101   3.565  10.837  0.5066 -0.9461 -0.6530
 2159SOL    HW217940   1.172   3.573  10.711  1.5066  1.0371  0.0405
 2160SOL     OW17941   2.636   3.897   2.643 -0.4991  0.0990  0.2202
 2160SOL    HW117942   2.655   3.806   2.667  0.7442  0.3464  0.1515
 2160SOL    HW217943   2.660   3.895   2.550  1.6840  1.2179  0.7594
 2161SOL     OW17944   0.252   3.373   7.674  0.0603 -0.4302  0.4289
 2161SOL    HW117945   0.221   3.436   7.739  0.3171  1.7159 -1.5698
 2161SOL    HW217946   0.335   3.348   7.714  0.0862  1.4928  1.5797
 2162SOL     OW17947   0.607   0.287   8.603 -0.8881 -0.1182 -0.4091
 2162SOL    HW117948   0.698   0.263   8.619 -1.4885 -0.0191  3.0225
 2162SOL    HW217949   0.623   0.362   8.546  2.7383 -0.6382 -0.0766
 2163SOL     OW17950   0.443   4.473   9.405  0.0057  0.1441  0.0229
 2163SOL    HW117951   0.431   4.561   9.442  0.0473  1.7398 -3.8053
 2163SOL    HW217952   0.428   4.486   9.312 -1.0044 -0.3479  0.1166
 2164SOL     OW17953   3.601   4.324   5.382 -0.2477  0.0550  0.7989
 2164SOL    HW117954   3.609   4.231   5.403  1.7441  0.1449  0.5197
 2164SOL    HW217955   3.508   4.338   5.368 -0.8178 -0.9989  3.7430
 2165SOL     OW17956   2.972   1.368   7.240 -0.1603  0.3127 -0.1037
 2165SOL    HW117957   2.992   1.461   7.231  0.1522  0.4158  1.6972
 2165SOL    HW217958   2.882   1.374   7.206 -0.6647 -2.5320  0.7010
 2166SOL     OW17959   1.813   0.474   0.484  0.4892 -0.1379 -0.4685
 2166SOL    HW117960   1.826   0.491   0.391 -1.2960  1.4864 -0.4241
 2166SOL    HW217961   1.722   0.445   0.490  1.3328 -2.7944 -0.8039
 2167SOL     OW17962   2.893   2.914   7.955  0.3870 -0.2478 -0.0419
 2167SOL    HW117963   2.959   2.847   7.975  1.8035  1.4561  0.9625
 2167SOL    HW217964   2.946   2.993   7.954  3.0252 -2.0498 -1.4774
 2168SOL     OW17965   2.070   0.862   9.701 -0.2331  0.1531  0.0753
 2168SOL    HW117966   2.165   0.875   9.703 -0.2879  0.8772 -2.2959
 2168SOL    HW217967   2.051   0.822   9.786 -3.4359  1.1259 -0.2052
 2169SOL     OW17968   3.478   1.452  15.253 -0.0601 -0.4279  0.0277
 2169SOL    HW117969   3.567   1.489  15.249 -0.4993  0.6647  0.1770
 2169SOL    HW217970   3.444   1.469  15.341 -0.6210  2.3332 -0.7083
 2170SOL     OW17971   1.980   0.428   8.177  0.2560 -0.2901 -0.3055
 2170SOL    HW117972   1.927   0.350   8.164 -1.5477  0.7246  0.9182
 2170SOL    HW217973   2.062   0.381   8.185  0.5452  0.3014  0.2354
 2171SOL     OW17974   4.642   0.486   6.325  0.4225  1.0926  0.0718
 2171SOL    HW117975   4.567   0.543   6.338  0.7723  1.2704  1.2789
 2171SOL    HW217976   4.722   0.532   6.351  1.0916 -0.6457  1.0611
 2172SOL     OW17977   3.289   3.697   3.472  0.2867  0.0637  0.1648
 2172SOL    HW117978   3.315   3.762   3.537 -0.7100 -1.7632  2.3708
 2172SOL    HW217979   3.330   3.614   3.496 -0.9159 -0.1981  1.2686
 2173SOL     OW17980   3.037   4.032  13.211  0.4473  0.4555  0.0026
 2173SOL    HW117981   3.069   3.960  13.265  0.5044  1.3347  1.1417
 2173SOL    HW217982   2.949   4.050  13.243 -0.4790 -0.0476 -2.2497
 2174SOL     OW17983   3.220   2.714  10.070  0.0339  0.0287 -0.0446
 2174SOL    HW117984   3.254   2.751   9.989  0.6459 -1.1991 -0.3462
 2174SOL    HW217985   3.149   2.778  10.078  0.2621  0.4765 -1.5701
 2175SOL     OW17986   2.491   2.154   8.844  0.8332  0.0181  0.1572
 2175SOL    HW117987   2.553   2.179   8.775 -0.3097 -1.3858 -1.3886
 2175SOL    HW217988   2.441   2.096   8.786  0.2483  1.7814 -1.1066
 2176SOL     OW17989   1.692   3.562   0.673  0.6256 -0.3633 -0.2222
 2176SOL    HW117990   1.743   3.642   0.661  0.0276  0.3904  2.3534
 2176SOL    HW217991   1.603   3.586   0.646  1.1160  1.1318 -0.5476
 2177SOL     OW17992   4.532   4.382   7.134  0.1032 -0.4621  0.3168
 2177SOL    HW117993   4.460   4.321   7.149 -1.2329  0.6150 -1.7491
 2177SOL    HW217994   4.588   4.330   7.077  1.7629 -1.0126  2.4491
 2178SOL     OW17995   1.463   0.498   1.658  0.1355  0.1515 -0.2229
 2178SOL    HW117996   1.427   0.410   1.659 -0.1112  0.2679  0.9132
 2178SOL    HW217997   1.519   0.492   1.581 -0.5804  0.3409 -0.7658
 2179SOL     OW17998   0.555   2.933   6.738  0.1788  0.5094 -0.2664
 2179SOL    HW117999   0.645   2.918   6.768  0.4243 -0.1442 -1.3240
 2179SOL    HW218000   0.565   3.024   6.709 -0.9482  0.5580 -0.5010
 2180SOL     OW18001   3.580   0.829   8.690 -0.8779 -0.5158  0.2949
 2180SOL    HW118002   3.537   0.772   8.626 -2.7706  0.3122  0.8050
 2180SOL    HW218003   3.668   0.792   8.697 -0.5789 -0.2726 -2.1347
 2181SOL     OW18004   1.578   1.797   7.352 -0.2839 -0.3648  0.1210
 2181SOL    HW118005   1.654   1.833   7.307  0.0499 -1.7665 -0.4383
 2181SOL    HW218006   1.588   1.710   7.312 -0.5947 -0.4242  0.1755
 2182SOL     OW18007   4.025   1.534  11.744  0.4711  0.5368 -0.0694
 2182SOL    HW118008   3.973   1.548  11.665  0.2751 -1.0903 -0.2239
 2182SOL    HW218009   4.075   1.616  11.748 -2.0464  2.0807 -0.2573
 2183SOL     OW18010   3.957   3.343   3.504 -0.4934 -0.0274 -0.4687
 2183SOL    HW118011   3.909   3.327   3.422 -1.2463  0.2256 -0.0746
 2183SOL    HW218012   3.989   3.432   3.492  0.8999 -0.8254 -2.6672
 2184SOL     OW18013   1.966   1.898  12.422  0.1359 -0.6479  0.3114
 2184SOL    HW118014   1.988   1.917  12.513  0.3906 -0.4331  0.2053
 2184SOL    HW218015   1.935   1.982  12.390  1.1466 -0.6440 -0.6438
 2185SOL     OW18016   3.289   3.182  12.342 -0.1660 -0.1604  0.4720
 2185SOL    HW118017   3.255   3.118  12.279  1.7110 -0.4697 -0.2482
 2185SOL    HW218018   3.268   3.147  12.428 -4.4020  1.1940 -0.0493
 2186SOL     OW18019   3.896   1.279   0.798 -0.0363  0.1571  0.2241
 2186SOL    HW118020   3.934   1.216   0.860  1.2795  0.8292  0.1055
 2186SOL    HW218021   3.977   1.327   0.777  1.5496 -1.3582  2.8272
 2187SOL     OW18022   2.664   2.476   5.316  0.0457 -0.7142 -0.0340
 2187SOL    HW118023   2.710   2.472   5.399  0.8502 -0.4691 -0.4661
 2187SOL    HW218024   2.571   2.476   5.342  0.8430 -1.1958  2.7912
 2188SOL     OW18025   2.702   4.051  14.488  0.4554  0.2205 -1.0530
 2188SOL    HW118026   2.711   4.135  14.535  1.1297 -0.1595 -0.5149
 2188SOL    HW218027   2.788   4.010  14.491  0.7215  0.7963 -0.7197
 2189SOL     OW18028   3.841   2.364  15.909  0.1149 -0.1061 -0.3509
 2189SOL    HW118029   3.932   2.392  15.912  0.0868 -0.2330  1.6684
 2189SOL    HW218030   3.804   2.441  15.865 -0.3115  0.8294  1.6275
 2190SOL     OW18031   0.748   2.321   0.935  0.4471  0.2868 -0.2075
 2190SOL    HW118032   0.672   2.341   0.880  0.6838 -1.7231 -1.2771
 2190SOL    HW218033   0.761   2.411   0.967  0.0837 -0.2265  1.3873
 2191SOL     OW18034   3.780   0.057   9.474 -0.1723  0.0791 -0.6119
 2191SOL    HW118035   3.865   0.015   9.488 -0.8549 -1.9703 -2.7034
 2191SOL    HW218036   3.711   4.719   9.499 -1.6683  2.2123  0.4961
 2192SOL     OW18037   1.580   3.880   8.280  0.4790  0.1541 -0.3409
 2192SOL    HW118038   1.640   3.949   8.251  2.0576 -1.5117 -1.0281
 2192SOL    HW218039   1.649   3.815   8.287  0.5234  0.2672  0.2245
 2193SOL     OW18040   3.497   2.285  14.242 -0.0783 -0.3083 -0.0356
 2193SOL    HW118041   3.552   2.207  14.242  0.1892 -0.1167 -0.7684
 2193SOL    HW218042   3.412   2.257  14.210 -1.8281  2.7737  1.8504
 2194SOL     OW18043   3.683   0.699   6.942  0.6991 -0.0922 -0.5647
 2194SOL    HW118044   3.671   0.784   6.986  0.2283  0.4031 -1.6627
 2194SOL    HW218045   3.727   0.642   7.006 -0.5544 -1.1330 -0.6368
 2195SOL     OW18046   2.944   3.739   5.956  0.1384 -0.4905 -0.2047
 2195SOL    HW118047   3.016   3.796   5.927  0.1301 -1.2682 -1.7814
 2195SOL    HW218048   2.874   3.804   5.961  0.6671  0.2344 -2.0743
 2196SOL     OW18049   2.368   0.118   8.511 -0.0899  0.3737 -0.4805
 2196SOL    HW118050   2.317   0.040   8.494 -0.3220  0.1534  1.1921
 2196SOL    HW218051   2.309   0.181   8.470 -1.4295 -0.5266  0.0687
 2197SOL     OW18052   0.837   1.844   6.742  0.2198 -0.0319  0.6454
 2197SOL    HW118053   0.927   1.842   6.709 -0.8467 -1.2849 -2.1642
 2197SOL    HW218054   0.861   1.820   6.832 -1.0373  0.6809  1.1532
 2198SOL     OW18055   0.733   4.033   6.208 -0.4068 -0.3495  0.0388
 2198SOL    HW118056   0.825   4.028   6.185 -0.2379  2.0788  0.2572
 2198SOL    HW218057   0.700   4.036   6.118 -3.3355  2.0320  1.1953
 2199SOL     OW18058   2.634   0.887   3.709  0.0286  0.0264 -0.0931
 2199SOL    HW118059   2.592   0.929   3.634  0.6418  3.0620  1.2960
 2199SOL    HW218060   2.687   0.824   3.660  2.0110  1.5391  0.1227
 2200SOL     OW18061   1.310   4.642   2.271 -0.2677 -0.1764  0.7833
 2200SOL    HW118062   1.303   4.547   2.260 -0.5322 -0.1937  1.0936
 2200SOL    HW218063   1.402   4.650   2.244 -0.5589  1.3125  0.2706
 2201SOL     OW18064   3.268   0.933   3.665 -0.0555  0.2370 -0.6136
 2201SOL    HW118065   3.362   0.949   3.667 -0.1765  0.8701 -0.0882
 2201SOL    HW218066   3.260   0.838   3.657 -2.0464  0.2907  0.7851
 2202SOL     OW18067   2.683   1.992   4.415  0.0818  0.2858 -0.6042
 2202SOL    HW118068   2.700   2.084   4.437  1.6793 -0.4591  1.2304
 2202SOL    HW218069   2.601   1.968   4.458  0.8306 -1.2528 -0.0470
 2203SOL     OW18070   0.051   1.317   5.514  0.4310  0.0333  0.2050
 2203SOL    HW118071   0.054   1.292   5.606  0.0479  1.1110  0.5067
 2203SOL    HW218072   0.014   1.238   5.474 -0.2103 -0.7168  2.3026
 2204SOL     OW18073   4.397   0.504  10.596  0.7732 -0.1812  0.5905
 2204SOL    HW118074   4.369   0.583  10.551 -1.8749 -0.4829  1.6876
 2204SOL    HW218075   4.457   0.468  10.531 -0.4765 -0.8634 -0.2034
 2205SOL     OW18076   4.290   3.568   6.781  0.2166  0.6581 -0.2398
 2205SOL    HW118077   4.259   3.633   6.718 -0.5577 -1.1391 -1.7177
 2205SOL    HW218078   4.384   3.585   6.794  0.7793 -0.7886 -2.3507
 2206SOL     OW18079   4.474   2.349  13.474  0.3698  0.0928  0.2258
 2206SOL    HW118080   4.485   2.323  13.566 -2.2430 -1.5411  0.0813
 2206SOL    HW218081   4.514   2.286  13.414 -1.3253 -0.2171 -0.5850
 2207SOL     OW18082   1.913   1.741  16.670 -0.0762 -1.0380  0.2437
 2207SOL    HW118083   1.827   1.747  16.628 -0.9929  1.8304  2.5321
 2207SOL    HW218084   1.885   1.696  16.750  1.3948 -3.0972 -0.3932
 2208SOL     OW18085   1.702   0.409   6.200 -0.0471 -0.0524  0.2193
 2208SOL    HW118086   1.611   0.388   6.223 -0.2371 -1.5921 -1.9917
 2208SOL    HW218087   1.697   0.501   6.175 -1.1794 -0.4321 -0.9717
 2209SOL     OW18088   4.348   1.098   8.893 -0.2155  0.5235  0.0776
 2209SOL    HW118089   4.439   1.126   8.903 -0.1520 -0.2686  1.7549
 2209SOL    HW218090   4.327   1.066   8.981 -1.4963  3.7698  0.9646
 2210SOL     OW18091   4.602   3.975   8.092 -0.2814 -0.0650  0.4176
 2210SOL    HW118092   4.664   3.915   8.134 -1.0977  0.1459  1.9268
 2210SOL    HW218093   4.568   3.922   8.019  0.2442 -0.0733  0.1809
 2211SOL     OW18094   1.239   2.404   1.853  0.0004 -0.0174  0.1863
 2211SOL    HW118095   1.230   2.417   1.759  2.9321 -0.2435 -0.1290
 2211SOL    HW218096   1.294   2.481   1.868 -0.3625 -0.2172  2.4956
 2212SOL     OW18097   4.556   1.582   0.301  0.3280  0.2695  0.1602
 2212SOL    HW118098   4.602   1.658   0.336  1.6541 -0.4110 -0.1211
 2212SOL    HW218099   4.630   1.534   0.264 -0.3784 -1.6774  1.2741
 2213SOL     OW18100   2.521   0.334  14.657 -0.1465 -0.4176 -0.2800
 2213SOL    HW118101   2.478   0.405  14.704  0.4993 -0.7470  0.8023
 2213SOL    HW218102   2.488   0.337  14.568  1.8011 -0.5469 -1.0142
 2214SOL     OW18103   3.884   0.207   3.575 -0.3928  0.0435 -0.4105
 2214SOL    HW118104   3.975   0.232   3.561 -0.3589  0.7294  0.9925
 2214SOL    HW218105   3.886   0.112   3.573 -1.5755  0.0830 -3.1557
 2215SOL     OW18106   3.984   4.328   2.022  0.0192  0.0579  0.1893
 2215SOL    HW118107   4.040   4.401   1.996  1.5520 -0.6589  1.4840
 2215SOL    HW218108   3.963   4.344   2.114 -0.8304  0.0643 -0.0046
 2216SOL     OW18109   3.785   4.130  12.918  0.1700 -0.1445  0.5854
 2216SOL    HW118110   3.753   4.055  12.868  2.3916 -0.4648 -0.3943
 2216SOL    HW218111   3.705   4.151  12.965 -0.1141  0.8323 -0.3281
 2217SOL     OW18112   1.075   3.601   6.633  0.1819  0.0156  0.2633
 2217SOL    HW118113   1.142   3.625   6.569  0.8983 -1.1469  0.5761
 2217SOL    HW218114   0.996   3.610   6.579  0.8751 -0.2698 -0.7942
 2218SOL     OW18115   3.194   4.684  12.376 -0.2992 -0.3379  0.0911
 2218SOL    HW118116   3.186   4.666  12.282  1.5038  0.9999 -0.3305
 2218SOL    HW218117   3.265   4.624  12.397  0.3599 -0.5602 -2.7196
 2219SOL     OW18118   2.998   1.677   9.190  0.0581 -0.0550  0.0098
 2219SOL    HW118119   2.964   1.637   9.110 -0.0666  1.7336 -0.8249
 2219SOL    HW218120   2.938   1.750   9.208  0.7212  0.4349  0.2483
 2220SOL     OW18121   0.763   1.299  10.136 -0.5929 -0.0741  0.3972
 2220SOL    HW118122   0.748   1.321  10.044 -0.0020  2.5263  0.9167
 2220SOL    HW218123   0.800   1.211  10.127 -2.1820 -0.7315  0.3082
 2221SOL     OW18124   2.963   1.906  16.833  0.2346 -0.4105 -0.1386
 2221SOL    HW118125   2.954   1.890  16.739  1.3489  1.5150 -0.5676
 2221SOL    HW218126   2.981   1.817  16.865  1.8617 -0.0564 -0.0706
 2222SOL     OW18127   1.344   1.145  10.275 -0.1514 -0.1129 -0.0089
 2222SOL    HW118128   1.410   1.127  10.209  1.5482  2.9094  0.8465
 2222SOL    HW218129   1.386   1.216  10.325  1.2158  0.0350 -1.3653
 2223SOL     OW18130   2.077   2.020  13.811  0.2019  0.3612 -0.1637
 2223SOL    HW118131   2.148   1.980  13.762 -0.1838 -0.5136 -0.0192
 2223SOL    HW218132   2.012   2.024  13.741 -0.8080  0.5738  0.7813
 2224SOL     OW18133   0.223   3.253  10.381 -0.4185 -0.4385 -0.5029
 2224SOL    HW118134   0.276   3.221  10.454 -2.4217  2.3004  2.1921
 2224SOL    HW218135   0.137   3.213  10.393 -0.3663 -0.7914 -1.3093
 2225SOL     OW18136   3.966   4.618   4.530  0.1281 -0.4236 -0.2816
 2225SOL    HW118137   3.879   4.654   4.546  1.0590  0.1264  3.6127
 2225SOL    HW218138   3.942   4.536   4.486 -1.4279  1.5422 -3.1147
 2226SOL     OW18139   2.170   1.468   4.715  0.3031 -0.0815 -0.0485
 2226SOL    HW118140   2.086   1.514   4.705  0.4242 -0.2393 -1.7961
 2226SOL    HW218141   2.152   1.438   4.804 -0.2470  0.2605 -0.0379
 2227SOL     OW18142   2.173   2.149   5.703 -0.1208 -0.5073 -0.6089
 2227SOL    HW118143   2.165   2.172   5.610 -0.8471  0.5561 -0.2792
 2227SOL    HW218144   2.086   2.109   5.702  0.5840 -2.0423 -1.2185
 2228SOL     OW18145   1.332   1.098   7.635 -1.0267  0.2747  0.3754
 2228SOL    HW118146   1.410   1.062   7.592 -0.4559  0.4390  1.2778
 2228SOL    HW218147   1.375   1.134   7.713 -0.4738 -2.7916  1.4889
 2229SOL     OW18148   2.916   2.708   1.506 -0.1816  0.6859  0.3143
 2229SOL    HW118149   2.906   2.653   1.583 -1.6727 -0.5775 -0.7745
 2229SOL    HW218150   2.825   2.731   1.489  0.0132  0.6017 -0.8174
 2230SOL     OW18151   2.738   3.516  15.133  0.2217  0.1546 -0.0469
 2230SOL    HW118152   2.644   3.525  15.152 -0.0857 -2.7444 -0.1659
 2230SOL    HW218153   2.758   3.437  15.185 -0.9546  1.4151  2.3242
 2231SOL     OW18154   2.889   3.518   8.575  0.5206 -0.2491 -0.5401
 2231SOL    HW118155   2.873   3.423   8.576 -1.6339  0.1077  2.1256
 2231SOL    HW218156   2.832   3.555   8.508 -1.1962  0.0583  1.0790
 2232SOL     OW18157   1.993   1.997  14.078 -0.4490  0.7165  0.1095
 2232SOL    HW118158   2.080   2.009  14.115 -0.2406  0.6429 -0.3535
 2232SOL    HW218159   2.018   2.003  13.986 -1.2728 -0.1329 -0.1667
 2233SOL     OW18160   2.503   1.694   9.357 -0.3031  0.0138 -0.4140
 2233SOL    HW118161   2.519   1.603   9.330 -1.5527 -0.3785  0.1511
 2233SOL    HW218162   2.457   1.671   9.437 -0.0822  2.7314  0.4633
 2234SOL     OW18163   0.775   0.194   7.350  0.7795 -0.3416 -0.7151
 2234SOL    HW118164   0.797   0.286   7.368  1.9694 -1.0957  1.7503
 2234SOL    HW218165   0.680   0.195   7.354  0.8287 -0.7350  0.3966
 2235SOL     OW18166   2.377   1.955   5.784  0.3307 -0.0553  0.1056
 2235SOL    HW118167   2.464   1.994   5.793  0.2602  0.1741 -0.2492
 2235SOL    HW218168   2.318   2.027   5.804  1.0480  0.0515  1.9087
 2236SOL     OW18169   3.762   2.562   7.061 -0.0083 -0.3552  0.3953
 2236SOL    HW118170   3.761   2.657   7.056 -0.2197 -0.2749  1.7503
 2236SOL    HW218171   3.714   2.552   7.144 -0.0611 -1.0071  0.2904
 2237SOL     OW18172   1.993   1.574   1.668  0.6728  0.1046  0.4371
 2237SOL    HW118173   2.005   1.479   1.670  0.4747  0.0609 -0.9320
 2237SOL    HW218174   2.080   1.606   1.647 -0.3692  1.5900 -1.5634
 2238SOL     OW18175   2.108   4.145  10.295  0.0535  0.1706  0.1030
 2238SOL    HW118176   2.170   4.201  10.246 -0.0100 -1.6760 -2.1029
 2238SOL    HW218177   2.038   4.139  10.230  0.2781  2.4204 -0.3479
 2239SOL     OW18178   3.294   2.597  15.071 -0.0195 -0.0600  0.9413
 2239SOL    HW118179   3.244   2.669  15.034 -1.1295 -0.6995  1.2013
 2239SOL    HW218180   3.239   2.520  15.057  1.2648 -0.3691 -2.4924
 2240SOL     OW18181   0.609   1.088   8.643 -0.2037  0.1343 -0.1781
 2240SOL    HW118182   0.529   1.085   8.695 -0.1380  0.3055 -0.0644
 2240SOL    HW218183   0.669   1.111   8.714 -2.0646  2.0236  0.7928
 2241SOL     OW18184   4.088   4.028   7.615  0.8318 -0.3020 -0.5153
 2241SOL    HW118185   4.016   4.083   7.644  1.5578 -0.6213  1.8476
 2241SOL    HW218186   4.126   4.079   7.543 -0.1269  0.4930 -0.4409
 2242SOL     OW18187   1.503   1.509   9.186 -0.3170 -0.4668  0.0383
 2242SOL    HW118188   1.565   1.517   9.113 -0.2613  0.2256  0.1594
 2242SOL    HW218189   1.533   1.426   9.223 -0.0112  0.5215  1.9825
 2243SOL     OW18190   2.928   1.173   5.443 -0.6739  0.1727  0.1684
 2243SOL    HW118191   2.936   1.243   5.508  0.0462 -0.1244  0.4013
 2243SOL    HW218192   2.917   1.102   5.506 -1.4911 -1.2059 -1.5489
 2244SOL     OW18193   1.585   3.797   4.285 -0.2586  0.1531  0.5307
 2244SOL    HW118194   1.644   3.731   4.321 -1.0603 -0.7947  0.0938
 2244SOL    HW218195   1.532   3.748   4.223 -1.1566  1.9709 -0.1314
 2245SOL     OW18196   3.999   1.040   1.816 -0.2491 -0.1258  0.3613
 2245SOL    HW118197   3.991   1.006   1.727  1.4337  2.0940 -0.6624
 2245SOL    HW218198   4.078   1.093   1.803  0.7712 -1.9798 -0.9800
 2246SOL     OW18199   1.804   3.988   5.455  0.0471  0.0196 -0.2280
 2246SOL    HW118200   1.809   4.069   5.506  2.9377 -1.0300  1.1064
 2246SOL    HW218201   1.793   3.925   5.525 -0.3493 -1.9557 -2.0629
 2247SOL     OW18202   2.501   1.367   7.252  0.2277  0.4342  0.2651
 2247SOL    HW118203   2.451   1.369   7.333  0.1088 -3.1338  0.2476
 2247SOL    HW218204   2.550   1.448   7.269  0.0426  0.5336  0.3218
 2248SOL     OW18205   3.279   1.474   5.256 -0.3007  0.1095  0.3184
 2248SOL    HW118206   3.245   1.394   5.295 -1.9091  0.3454 -0.6375
 2248SOL    HW218207   3.196   1.520   5.246  0.2887  1.1200  0.0547
 2249SOL     OW18208   3.438   0.732   0.117  0.3908 -0.2484 -0.6161
 2249SOL    HW118209   3.455   0.820   0.150 -0.5942 -0.3342  0.1106
 2249SOL    HW218210   3.347   0.749   0.093  0.4322 -0.4583 -0.9249
 2250SOL     OW18211   4.084   3.028  16.921 -0.0488  0.0024 -0.1669
 2250SOL    HW118212   4.124   3.115  16.914 -1.6102  0.5798 -1.8156
 2250SOL    HW218213   4.126   3.005  17.004 -1.0804 -2.0290 -0.2078
 2251SOL     OW18214   1.344   3.827  16.268  1.0755 -0.3830 -0.5409
 2251SOL    HW118215   1.368   3.919  16.274 -0.4618 -0.0507  0.5202
 2251SOL    HW218216   1.433   3.791  16.269  0.0780 -2.8612  1.4292
 2252SOL     OW18217   0.483   1.461   2.757  0.0948 -0.2466 -0.2755
 2252SOL    HW118218   0.487   1.406   2.836 -0.7208 -0.5615 -0.4567
 2252SOL    HW218219   0.398   1.448   2.715  0.7861  0.3385 -1.8438
 2253SOL     OW18220   4.589   4.202   0.502 -0.3211  0.3637  0.0918
 2253SOL    HW118221   4.569   4.153   0.582 -1.2994  0.9733  0.2270
 2253SOL    HW218222   4.662   4.260   0.520  0.5372 -0.9496  0.8537
 2254SOL     OW18223   3.311   3.421   0.907  0.2058  0.2930  0.9274
 2254SOL    HW118224   3.218   3.410   0.888  0.8117  0.6725 -2.3318
 2254SOL    HW218225   3.311   3.504   0.953 -0.5443  0.8436 -0.0723
 2255SOL     OW18226   2.798   3.387   2.669  0.0837  0.2590  0.0033
 2255SOL    HW118227   2.846   3.304   2.674 -1.7167 -0.7422  0.7486
 2255SOL    HW218228   2.707   3.363   2.687  0.0801  1.8973  2.1265
 2256SOL     OW18229   1.181   4.280  16.513  0.4656  0.6580 -0.3025
 2256SOL    HW118230   1.182   4.275  16.608 -1.5803  0.2592 -0.2985
 2256SOL    HW218231   1.206   4.371  16.497  2.5409  0.0924 -0.1782
 2257SOL     OW18232   3.905   3.539  11.079 -0.0377  0.3599  0.1795
 2257SOL    HW118233   3.897   3.531  10.984 -2.0996 -3.8147  0.7156
 2257SOL    HW218234   3.826   3.590  11.099  0.4687  0.0510  3.0141
 2258SOL     OW18235   4.323   4.510   6.517  0.0312  0.0170 -0.2445
 2258SOL    HW118236   4.369   4.574   6.463 -1.9078  0.8882 -0.8294
 2258SOL    HW218237   4.237   4.550   6.518  1.0076  2.0989  2.8603
 2259SOL     OW18238   2.939   4.575  14.689  0.3543 -0.2751  0.5468
 2259SOL    HW118239   2.843   4.578  14.687  0.3583  0.1118  0.9450
 2259SOL    HW218240   2.950   4.532  14.604  1.1916  3.6920 -1.3875
 2260SOL     OW18241   2.189   1.139   7.475  0.5650 -0.0961 -0.2986
 2260SOL    HW118242   2.105   1.165   7.513  1.3647  1.3571  0.4875
 2260SOL    HW218243   2.171   1.104   7.388 -1.0371 -1.8945  0.7587
 2261SOL     OW18244   1.762   1.490  15.188 -0.7822 -0.3022 -0.0180
 2261SOL    HW118245   1.750   1.469  15.096 -0.0283 -0.8836  0.0070
 2261SOL    HW218246   1.681   1.454  15.224 -1.2480  0.7678 -0.0130
 2262SOL     OW18247   3.976   1.599  17.339  0.7628  0.0341  0.2641
 2262SOL    HW118248   3.931   1.585  17.256  1.2781  1.0192 -0.1811
 2262SOL    HW218249   3.998   1.511  17.368 -0.7291 -0.1497  0.8302
 2263SOL     OW18250   1.464   0.182  12.876 -0.5637 -0.3591  1.0620
 2263SOL    HW118251   1.437   0.210  12.789  0.2314  1.2498  1.3397
 2263SOL    HW218252   1.505   0.261  12.912  1.8855 -0.4361 -1.5821
 2264SOL     OW18253   2.595   0.082   5.786  0.0648  0.0448  1.1434
 2264SOL    HW118254   2.684   0.109   5.765 -1.1975  3.5149  0.1833
 2264SOL    HW218255   2.615   0.002   5.833  2.1249  0.9844  1.8777
 2265SOL     OW18256   2.554   1.023   9.036  0.1310  0.3845 -0.0926
 2265SOL    HW118257   2.512   0.948   8.994 -0.1305  0.2656  0.3878
 2265SOL    HW218258   2.606   0.964   9.090  1.4964  1.2110 -0.5227
 2266SOL     OW18259   1.546   1.086  13.183  0.3636  0.2204  0.3594
 2266SOL    HW118260   1.477   1.124  13.129 -0.9274 -0.7347  1.3362
 2266SOL    HW218261   1.620   1.141  13.156  0.7732 -0.0721  0.8877
 2267SOL     OW18262   4.503   4.186   4.107 -0.5132 -0.4493  0.4295
 2267SOL    HW118263   4.584   4.236   4.121 -1.2279  0.9681 -0.6591
 2267SOL    HW218264   4.491   4.137   4.189 -0.0135 -0.6095  0.4104
 2268SOL     OW18265   0.296   0.662   7.407  0.0185  0.1541  0.1960
 2268SOL    HW118266   0.347   0.657   7.327 -1.0729 -0.0080 -0.4919
 2268SOL    HW218267   0.304   0.573   7.441 -0.9750 -0.3670 -0.9299
 2269SOL     OW18268   2.314   1.506   3.784  0.6882 -0.3154  0.9071
 2269SOL    HW118269   2.265   1.426   3.766 -1.7253  1.4811 -0.4231
 2269SOL    HW218270   2.349   1.529   3.698  0.2316  2.4235  1.4553
 2270SOL     OW18271   0.460   2.416   8.626  0.3664  0.0266  0.2474
 2270SOL    HW118272   0.390   2.483   8.626  0.7142  0.3916  0.3333
 2270SOL    HW218273   0.436   2.370   8.707  3.2567  0.5469  1.3901
 2271SOL     OW18274   0.927   2.589   3.374 -0.3452 -0.4319 -0.2777
 2271SOL    HW118275   0.895   2.519   3.431  1.4926 -1.8433 -1.0178
 2271SOL    HW218276   0.971   2.547   3.301 -1.2236  0.8617 -1.5519
 2272SOL     OW18277   2.387   3.244   8.891 -0.2932 -0.0423  0.0688
 2272SOL    HW118278   2.361   3.207   8.807 -0.7025  1.2153 -0.3561
 2272SOL    HW218279   2.319   3.198   8.941 -0.2362 -1.1021 -0.8354
 2273SOL     OW18280   2.757   3.352   2.191  0.1989  0.7300 -0.2277
 2273SOL    HW118281   2.801   3.299   2.124 -0.7896 -0.1889 -0.1582
 2273SOL    HW218282   2.671   3.354   2.149 -0.2394 -2.7369  0.4473
 2274SOL     OW18283   4.277   2.012   6.908 -0.2413  0.2621  0.3280
 2274SOL    HW118284   4.292   2.079   6.974 -0.0748  0.3770  0.1761
 2274SOL    HW218285   4.329   1.938   6.939 -2.6074 -1.3380  0.4512
 2275SOL     OW18286   1.015   4.681   9.912  0.0921 -0.2871 -0.5249
 2275SOL    HW118287   0.996   4.591   9.882  1.0077 -0.1346 -1.5718
 2275SOL    HW218288   1.106   4.686   9.941 -0.1137  1.0483 -0.1458
 2276SOL     OW18289   2.427   4.667  15.996  0.3493  0.1766  0.1907
 2276SOL    HW118290   2.409   4.627  16.081 -0.0571 -0.2157 -0.0806
 2276SOL    HW218291   2.486   0.016  16.019 -0.0389  1.0067 -1.4002
 2277SOL     OW18292   0.047   2.845   7.674 -0.6967 -0.7299  0.0488
 2277SOL    HW118293   4.708   2.875   7.607  1.8905 -0.4554 -2.2299
 2277SOL    HW218294   0.123   2.817   7.623 -0.9907  0.1686 -0.8928
 2278SOL     OW18295   3.825   0.916  10.986 -0.1226 -0.5956  0.1432
 2278SOL    HW118296   3.836   0.944  11.077  0.1957  0.7015 -0.3073
 2278SOL    HW218297   3.902   0.960  10.951 -0.0982 -1.2271 -0.5977
 2279SOL     OW18298   3.628   3.037   7.127 -0.3105  0.1975 -0.1026
 2279SOL    HW118299   3.692   2.987   7.077  0.6513 -1.4181  2.7315
 2279SOL    HW218300   3.668   3.066   7.210  0.9556  1.9927 -1.3274
 2280SOL     OW18301   2.716   2.026  15.643  0.1952  0.1150  0.3574
 2280SOL    HW118302   2.804   1.991  15.655  0.2504  0.0583 -0.1934
 2280SOL    HW218303   2.669   1.945  15.626  0.9214 -0.3539  0.5965
 2281SOL     OW18304   3.623   4.623   9.828 -0.0079 -0.7657 -0.1759
 2281SOL    HW118305   3.648   4.702   9.779  1.1352 -0.2075  1.3268
 2281SOL    HW218306   3.575   4.565   9.769 -0.5559  0.2637 -0.7662
 2282SOL     OW18307   4.567   0.788   9.181 -0.1336  0.0207  0.1249
 2282SOL    HW118308   4.497   0.773   9.245 -1.0874 -2.3703 -1.4820
 2282SOL    HW218309   4.547   0.732   9.107 -1.7310  0.1964  0.4231
 2283SOL     OW18310   3.987   0.487   3.852 -0.8628  0.2864  0.3248
 2283SOL    HW118311   3.911   0.484   3.795  0.3402  0.0764 -1.2756
 2283SOL    HW218312   3.942   0.467   3.934 -1.4601  1.0057  0.1694
 2284SOL     OW18313   1.956   1.176  10.550  0.0452  0.1022  0.3326
 2284SOL    HW118314   1.902   1.255  10.541 -2.3099 -1.4619  0.6671
 2284SOL    HW218315   1.964   1.182  10.645  1.4870  0.1185  0.2111
 2285SOL     OW18316   1.748   1.419   5.784 -0.3944 -0.2871 -0.0994
 2285SOL    HW118317   1.758   1.498   5.837 -0.2436  1.2121 -2.3363
 2285SOL    HW218318   1.655   1.417   5.761 -0.3076 -0.2144 -0.4619
 2286SOL     OW18319   0.675   3.793   5.398  0.2823  0.0484 -0.2088
 2286SOL    HW118320   0.756   3.836   5.426  0.7187 -1.3799  0.7272
 2286SOL    HW218321   0.710   3.708   5.372  0.6137  0.0224  0.3218
 2287SOL     OW18322   1.165   2.914  10.594  0.1906 -0.3302 -0.0248
 2287SOL    HW118323   1.100   2.981  10.570 -1.3041 -0.3409  3.9379
 2287SOL    HW218324   1.103   2.849  10.627  0.9654 -1.4228 -0.7341
 2288SOL     OW18325   2.489   3.495   6.025 -0.2333 -0.0915  1.2016
 2288SOL    HW118326   2.514   3.479   5.934 -2.5734 -0.3228  0.6256
 2288SOL    HW218327   2.576   3.496   6.066 -0.1225 -0.9253  0.9835
 2289SOL     OW18328   3.151   4.475   7.269  0.2303 -0.3078 -0.0560
 2289SOL    HW118329   3.181   4.405   7.327 -3.2226 -2.1337 -0.4801
 2289SOL    HW218330   3.117   4.539   7.332 -1.5146  0.3592 -1.6878
 2290SOL     OW18331   4.327   0.606   4.586 -0.0404 -0.0586 -0.2983
 2290SOL    HW118332   4.332   0.632   4.678 -2.4292  0.6046 -0.3551
 2290SOL    HW218333   4.314   0.511   4.591 -0.1965  0.0831  1.9322
 2291SOL     OW18334   3.603   3.937  10.571  0.2691  0.1141 -0.0599
 2291SOL    HW118335   3.614   4.028  10.546 -3.2053  0.6943  0.5324
 2291SOL    HW218336   3.512   3.936  10.602  0.0339 -1.0908 -0.7846
 2292SOL     OW18337   3.100   3.636   3.277  0.1674 -0.1053 -0.4466
 2292SOL    HW118338   3.161   3.663   3.345  0.7819  1.2194 -1.5163
 2292SOL    HW218339   3.148   3.645   3.195  0.0324 -0.7217 -0.5987
 2293SOL     OW18340   1.670   2.000   9.176  0.2230  0.1248  0.0799
 2293SOL    HW118341   1.586   1.966   9.206  0.3269  1.4124  1.8622
 2293SOL    HW218342   1.721   1.977   9.254 -1.5411 -3.1872  0.2471
 2294SOL     OW18343   0.809   2.284  12.853  0.1933  0.2670  0.0593
 2294SOL    HW118344   0.783   2.204  12.898  0.6714  0.0423 -0.0666
 2294SOL    HW218345   0.837   2.335  12.928 -0.5279  0.8987 -0.1005
 2295SOL     OW18346   0.432   3.430   5.211  0.0110 -0.7761  0.1452
 2295SOL    HW118347   0.420   3.463   5.300  2.7325  1.1324 -0.1927
 2295SOL    HW218348   0.451   3.337   5.229 -1.3807 -0.7787  1.6637
 2296SOL     OW18349   1.078   2.459   2.854  0.0387 -0.6724 -0.0186
 2296SOL    HW118350   1.021   2.530   2.822 -1.1035 -0.9138  1.4262
 2296SOL    HW218351   1.041   2.384   2.808  1.7459 -1.6667  0.2443
 2297SOL     OW18352   1.866   2.591   2.101 -0.1239  0.2938 -0.0334
 2297SOL    HW118353   1.886   2.597   2.194  2.6421  1.2505 -0.6872
 2297SOL    HW218354   1.919   2.514   2.083 -0.2902 -0.3969  2.4096
 2298SOL     OW18355   2.400   0.493   8.597 -0.4464  0.2023 -0.4334
 2298SOL    HW118356   2.398   0.467   8.689 -0.2969  2.8451  0.3316
 2298SOL    HW218357   2.324   0.442   8.571 -0.7992  0.0147  0.9467
 2299SOL     OW18358   2.587   1.447   6.537 -0.0648 -0.2424 -0.6762
 2299SOL    HW118359   2.663   1.425   6.483  1.4424  1.4359  0.7536
 2299SOL    HW218360   2.621   1.481   6.620  3.1621 -2.1891 -1.1768
 2300SOL     OW18361   1.947   4.376   0.165 -0.2831  0.6654  0.0855
 2300SOL    HW118362   2.006   4.435   0.213  0.9119 -0.5326  0.1030
 2300SOL    HW218363   2.006   4.306   0.137  1.1618  1.2305  1.6475
 2301SOL     OW18364   3.649   0.973   5.799 -0.1478 -0.6254 -0.1475
 2301SOL    HW118365   3.725   1.032   5.794  1.4041 -2.5575  0.7503
 2301SOL    HW218366   3.613   0.984   5.711 -0.2231 -1.7310 -0.2515
 2302SOL     OW18367   1.564   3.957   9.448 -0.4766 -0.1773  0.5394
 2302SOL    HW118368   1.549   4.052   9.448  0.7418  0.0132  0.0128
 2302SOL    HW218369   1.567   3.942   9.542  0.8881 -0.8194  0.3817
 2303SOL     OW18370   2.325   4.654  16.652 -0.2922  0.3556  0.0302
 2303SOL    HW118371   2.336   0.008  16.708  0.5909  1.0978 -1.1695
 2303SOL    HW218372   2.250   4.611  16.693  0.4700 -0.2451  0.7814
 2304SOL     OW18373   1.809   1.761   2.006 -0.6039 -0.2844 -0.2175
 2304SOL    HW118374   1.756   1.723   2.076  1.9618  0.6156  2.2094
 2304SOL    HW218375   1.880   1.798   2.059  0.0291 -0.1220 -1.1833
 2305SOL     OW18376   3.946   3.012   5.826  0.4845  0.1417  0.0098
 2305SOL    HW118377   4.005   3.071   5.873  0.4313 -0.2186  0.5275
 2305SOL    HW218378   3.865   3.058   5.848 -0.6232 -1.2853 -1.0792
 2306SOL     OW18379   3.404   1.100   7.009  0.0429  0.1374  0.2631
 2306SOL    HW118380   3.480   1.159   7.008  1.9055 -2.2931  0.3656
 2306SOL    HW218381   3.390   1.102   7.104 -1.4791  0.4648  0.0371
 2307SOL     OW18382   0.065   3.826   5.017  0.6660  0.6058 -0.2329
 2307SOL    HW118383   0.086   3.914   5.049  0.7430  0.6061 -0.2877
 2307SOL    HW218384   0.150   3.784   5.006 -1.2592 -2.9652 -1.4624
 2308SOL     OW18385   2.377   1.980   6.369 -0.0089 -0.4206  0.7111
 2308SOL    HW118386   2.380   1.970   6.464 -0.1019 -3.6653  0.3781
 2308SOL    HW218387   2.424   2.062   6.353 -1.9659  0.3835 -0.9653
 2309SOL     OW18388   3.642   3.707   4.548  0.0670  0.6496 -0.0322
 2309SOL    HW118389   3.636   3.621   4.506 -1.6792  0.0933  1.3847
 2309SOL    HW218390   3.710   3.694   4.614 -0.7282 -2.1447  0.2275
 2310SOL     OW18391   4.690   2.169   2.474 -0.1934  0.3886 -0.1013
 2310SOL    HW118392   4.710   2.149   2.382 -0.2011 -1.1737  0.2339
 2310SOL    HW218393   0.047   2.131   2.510 -0.9538 -1.6506 -0.5395
 2311SOL     OW18394   3.755   1.295  17.256 -0.0360  0.8757 -0.0107
 2311SOL    HW118395   3.759   1.382  17.218  1.2552  1.2963  1.0752
 2311SOL    HW218396   3.850   1.291  17.270 -0.1815  3.0265  1.6563
 2312SOL     OW18397   2.271   4.478  11.238 -0.7003  0.3731  0.5789
 2312SOL    HW118398   2.277   4.534  11.160  0.0914 -1.5304 -0.7207
 2312SOL    HW218399   2.184   4.516  11.252 -0.3813  1.5896 -0.6461
 2313SOL     OW18400   0.345   1.705   8.721 -0.2089  0.6365 -0.5400
 2313SOL    HW118401   0.421   1.755   8.690  0.1631  0.8276  0.6874
 2313SOL    HW218402   0.387   1.644   8.782  0.9384  0.0777 -1.8618
 2314SOL     OW18403   4.589   0.556  12.470  0.2641  0.2764 -0.4033
 2314SOL    HW118404   4.540   0.490  12.520  0.5835  0.1964 -0.2002
 2314SOL    HW218405   4.507   0.599  12.444  0.1119  0.1434 -0.1523
 2315SOL     OW18406   2.295   2.825   5.740 -0.6309  0.5486  0.4631
 2315SOL    HW118407   2.218   2.785   5.700  1.4132 -1.8629 -1.1364
 2315SOL    HW218408   2.331   2.868   5.663 -1.2505  0.3598  0.0703
 2316SOL     OW18409   2.552   3.102   8.557 -0.0280  0.0915  0.0174
 2316SOL    HW118410   2.622   3.038   8.553 -1.5696 -1.5508 -0.5429
 2316SOL    HW218411   2.481   3.053   8.515 -1.7979  1.6135  1.2250
 2317SOL     OW18412   1.958   2.886   3.785  0.6877 -0.1962 -0.1985
 2317SOL    HW118413   1.942   2.847   3.871  1.1010 -1.3815 -0.6718
 2317SOL    HW218414   1.940   2.976   3.813  2.3224 -0.0522  0.4092
 2318SOL     OW18415   3.129   1.038   5.150  0.6922 -0.7614  0.1295
 2318SOL    HW118416   3.035   1.027   5.135  0.6298 -1.7302  1.2581
 2318SOL    HW218417   3.158   0.950   5.173  2.3504 -0.2556  0.0207
 2319SOL     OW18418   0.026   1.133   9.552  0.0696 -0.4061 -1.3372
 2319SOL    HW118419   4.703   1.198   9.499 -0.2306 -1.3284 -2.1965
 2319SOL    HW218420   4.674   1.098   9.600  1.1517  1.3068  1.6348
 2320SOL     OW18421   2.677   4.545  14.754  0.2032  0.2674  0.0404
 2320SOL    HW118422   2.604   4.515  14.808 -0.1334  1.9280  0.5174
 2320SOL    HW218423   2.646   4.633  14.731 -0.8623 -0.8742 -2.8104
 2321SOL     OW18424   2.582   4.092   3.200 -0.1736  0.0025  0.2158
 2321SOL    HW118425   2.626   4.125   3.278 -0.2378  1.2146 -0.2746
 2321SOL    HW218426   2.638   4.131   3.134  0.4438 -0.2097  0.6101
 2322SOL     OW18427   0.515   4.275   6.622 -0.3869 -0.9156 -0.4205
 2322SOL    HW118428   0.578   4.204   6.632  2.7530  1.7832 -0.8533
 2322SOL    HW218429   0.479   4.243   6.539 -0.5777 -0.2012 -0.6114
 2323SOL     OW18430   2.982   2.051   4.978 -0.0682  0.1734 -0.0129
 2323SOL    HW118431   2.983   2.103   5.058 -2.9098  0.2729 -0.0264
 2323SOL    HW218432   3.060   2.084   4.934 -1.1808  1.1202 -1.3000
 2324SOL     OW18433   4.672   3.904  15.900 -0.0421  0.0875 -0.9848
 2324SOL    HW118434   4.610   3.840  15.935  2.1555 -0.8824  1.1158
 2324SOL    HW218435   4.659   3.967  15.971 -0.9305  0.1891 -1.2328
 2325SOL     OW18436   0.135   3.629  15.542  0.7320 -0.6330  0.5626
 2325SOL    HW118437   0.189   3.574  15.486  1.4374  1.3219 -0.6525
 2325SOL    HW218438   0.161   3.715  15.510 -2.3504  0.4199  0.9129
 2326SOL     OW18439   0.140   3.126   7.765 -0.4769  0.3329  0.4874
 2326SOL    HW118440   0.065   3.103   7.819 -0.7905 -2.0208 -0.9469
 2326SOL    HW218441   0.203   3.167   7.825  1.2986  2.4976 -2.8628
 2327SOL     OW18442   4.637   4.092   4.451  0.1746  0.2595  0.0307
 2327SOL    HW118443   4.561   4.064   4.400  1.4237 -0.5901 -1.3595
 2327SOL    HW218444   4.606   4.108   4.540  0.7834  2.0498 -0.0826
 2328SOL     OW18445   1.274   2.572   2.540  0.2590 -0.0531  0.6660
 2328SOL    HW118446   1.304   2.559   2.630 -0.6339  1.8037  1.2323
 2328SOL    HW218447   1.274   2.668   2.541  0.8995 -0.0608  0.9690
 2329SOL     OW18448   0.084   1.679   8.897 -0.2272 -0.0561  0.1474
 2329SOL    HW118449   0.088   1.704   8.804 -4.4458 -2.3706 -0.6843
 2329SOL    HW218450   0.037   1.596   8.887  0.6031 -0.3204 -1.6463
 2330SOL     OW18451   4.101   1.857   9.809  0.0573  0.5523  0.4237
 2330SOL    HW118452   4.160   1.789   9.840 -1.2414  0.1021  1.9125
 2330SOL    HW218453   4.148   1.864   9.726  0.3799  0.9849  0.6398
 2331SOL     OW18454   0.019   1.358   6.542 -0.5416 -0.1306  0.5650
 2331SOL    HW118455   4.703   1.296   6.480  1.8643 -1.5026  0.4042
 2331SOL    HW218456   0.109   1.368   6.510 -0.5283 -0.8750  0.3672
 2332SOL     OW18457   4.077   1.581   0.038 -0.2593 -0.2042 -0.2411
 2332SOL    HW118458   4.121   1.660   0.071  1.1251 -0.4141 -1.5922
 2332SOL    HW218459   4.033   1.537   0.110  0.6820  2.1817  1.7942
 2333SOL     OW18460   3.020   4.351  13.967  0.1542  0.1304 -0.7222
 2333SOL    HW118461   3.071   4.319  13.893  0.5570 -0.9690  0.0297
 2333SOL    HW218462   2.933   4.361  13.928  0.0218 -1.6389 -0.8942
 2334SOL     OW18463   1.001   3.504  10.978 -0.6976 -0.1500 -0.3874
 2334SOL    HW118464   1.075   3.455  11.014 -0.2277  0.9606  0.1586
 2334SOL    HW218465   0.967   3.556  11.051  1.7191 -2.9936  2.7870
 2335SOL     OW18466   2.909   4.074  11.914  0.0282  0.0612  0.1415
 2335SOL    HW118467   2.890   4.155  11.868 -2.0758 -0.1328  0.6617
 2335SOL    HW218468   2.964   4.118  11.979  1.7231 -0.2685 -1.0837
 2336SOL     OW18469   3.534   2.175   7.493  0.2792  0.4067  0.0112
 2336SOL    HW118470   3.606   2.238   7.491 -0.4275  1.2057 -0.5666
 2336SOL    HW218471   3.561   2.112   7.426 -0.0021  0.2383  0.0570
 2337SOL     OW18472   0.675   2.367   8.910 -0.1691  0.1836  0.2369
 2337SOL    HW118473   0.636   2.358   8.997 -1.4928  1.3680 -0.2294
 2337SOL    HW218474   0.652   2.455   8.880  0.1272  0.0729 -0.3071
 2338SOL     OW18475   3.740   3.651   9.494  0.3386 -0.3872  0.0438
 2338SOL    HW118476   3.771   3.738   9.519  0.2441 -0.2596 -0.2790
 2338SOL    HW218477   3.804   3.598   9.542  1.2681  2.2816  1.7376
 2339SOL     OW18478   4.352   0.391   7.375  0.6871 -0.1887 -0.2221
 2339SOL    HW118479   4.383   0.346   7.454 -0.9737  0.4655  0.8208
 2339SOL    HW218480   4.410   0.348   7.313  0.6465 -0.9297  0.2629
 2340SOL     OW18481   3.277   1.272   0.747 -0.7641  0.1622  0.8752
 2340SOL    HW118482   3.194   1.296   0.787  1.3003  1.3233  4.4595
 2340SOL    HW218483   3.289   1.335   0.675 -1.5956 -2.7007 -1.7956
 2341SOL     OW18484   2.223   4.312   0.670  0.1730 -0.2715  0.1887
 2341SOL    HW118485   2.273   4.392   0.653  3.3828 -2.3079  0.0656
 2341SOL    HW218486   2.292   4.254   0.637 -0.6042 -1.0188 -0.1141
 2342SOL     OW18487   2.704   4.289   7.079 -0.0195  0.2288  0.0436
 2342SOL    HW118488   2.700   4.381   7.056  0.2720  0.0883 -0.5532
 2342SOL    HW218489   2.700   4.307   7.173  0.1615  1.3874 -0.1732
 2343SOL     OW18490   0.864   2.086   5.136  0.5653  0.1293  0.2487
 2343SOL    HW118491   0.809   2.020   5.178  1.3926 -0.7866 -0.1082
 2343SOL    HW218492   0.855   2.162   5.194  1.5285  0.9963 -0.7533
 2344SOL     OW18493   3.145   3.049   6.669  0.1107 -0.4085 -0.6968
 2344SOL    HW118494   3.060   3.050   6.626  0.4995  0.9994 -1.4357
 2344SOL    HW218495   3.207   3.050   6.595 -0.0968 -0.5911 -0.8744
 2345SOL     OW18496   0.719   1.230   4.832 -0.4964  0.1733  0.2528
 2345SOL    HW118497   0.671   1.251   4.751 -1.1009 -3.5137 -0.3582
 2345SOL    HW218498   0.652   1.234   4.899 -0.3107 -1.3754  0.5259
 2346SOL     OW18499   4.118   3.999   3.045  0.5156 -0.2573  0.3570
 2346SOL    HW118500   4.089   4.009   2.955  0.3234 -1.1443  0.3246
 2346SOL    HW218501   4.055   4.059   3.084 -2.2365 -2.1317 -1.1860
 2347SOL     OW18502   0.137   0.695   1.818  0.1639  0.5164 -0.7648
 2347SOL    HW118503   0.150   0.779   1.774  1.0487  0.4913 -0.5465
 2347SOL    HW218504   0.042   0.688   1.825  0.2567  0.0292  0.1209
 2348SOL     OW18505   3.310   1.139  12.558  0.1876 -0.0245  0.1462
 2348SOL    HW118506   3.347   1.208  12.613  0.7913 -0.2262 -0.0109
 2348SOL    HW218507   3.347   1.060  12.597  2.5038  0.3589 -1.2943
 2349SOL     OW18508   0.236   2.110  12.889 -0.2303 -0.4805  0.0108
 2349SOL    HW118509   0.205   2.200  12.900  0.4162 -0.2079 -0.4366
 2349SOL    HW218510   0.164   2.091  12.828 -2.0215  1.4894  1.5150
 2350SOL     OW18511   2.448   2.523  13.891 -0.1278  0.3061 -0.4782
 2350SOL    HW118512   2.442   2.596  13.830 -2.5377  2.0555  1.8867
 2350SOL    HW218513   2.539   2.501  13.870  0.8600  0.0791  3.9786
 2351SOL     OW18514   0.562   1.922   6.845  0.1118 -0.0783  0.1463
 2351SOL    HW118515   0.597   1.995   6.896  1.0684  0.5369 -1.3741
 2351SOL    HW218516   0.642   1.891   6.801 -0.4945 -0.2811 -0.8110
 2352SOL     OW18517   1.045   2.220   3.932 -0.2239  0.0634 -0.1082
 2352SOL    HW118518   1.070   2.283   4.000 -0.8704 -1.3965  1.4697
 2352SOL    HW218519   1.112   2.221   3.863 -0.3154 -0.3734 -0.2028
 2353SOL     OW18520   3.633   1.417   6.544  0.2156  0.5947  0.0483
 2353SOL    HW118521   3.680   1.492   6.506 -0.2102  0.1387 -1.3473
 2353SOL    HW218522   3.546   1.441   6.512 -0.8726 -0.5573  2.1935
 2354SOL     OW18523   0.197   3.670   1.708  0.3058  0.0494 -0.1763
 2354SOL    HW118524   0.207   3.646   1.801 -0.8187 -1.7946 -0.5346
 2354SOL    HW218525   0.105   3.666   1.681 -0.0268 -1.0349  1.0801
 2355SOL     OW18526   2.488   2.410   9.140  0.0939  0.2659  0.5930
 2355SOL    HW118527   2.415   2.411   9.202 -0.5847 -0.2655 -0.2064
 2355SOL    HW218528   2.519   2.498   9.161 -0.9787  0.3318  1.9517
 2356SOL     OW18529   2.993   2.741  14.453  0.0723  0.2736  0.2107
 2356SOL    HW118530   3.033   2.825  14.477  0.5032  0.8664 -2.6018
 2356SOL    HW218531   3.045   2.714  14.378 -1.9236 -1.3949 -0.5885
 2357SOL     OW18532   1.726   3.228  12.154  0.0930  0.1144 -0.0762
 2357SOL    HW118533   1.804   3.269  12.191 -0.5140  0.3382  0.9618
 2357SOL    HW218534   1.758   3.148  12.113 -1.1295 -1.2792  1.6517
 2358SOL     OW18535   2.548   1.415  17.062  0.2277  0.0220  0.2213
 2358SOL    HW118536   2.548   1.508  17.088  0.9474 -0.0544  0.4964
 2358SOL    HW218537   2.611   1.405  16.991 -0.1419  4.2515 -0.7390
 2359SOL     OW18538   1.344   3.746   5.167  0.1469 -0.2037 -0.1891
 2359SOL    HW118539   1.249   3.745   5.171  0.1984 -2.2826  0.2017
 2359SOL    HW218540   1.367   3.800   5.243 -0.0244 -1.3621  0.6732
 2360SOL     OW18541   2.073   1.340   4.947  0.4321 -0.0191 -0.0950
 2360SOL    HW118542   2.053   1.351   5.039 -0.2292  2.3501 -0.5345
 2360SOL    HW218543   2.146   1.278   4.942  0.5241  0.0697  0.1634
 2361SOL     OW18544   4.674   3.415   3.575 -0.1366  0.0477 -0.6962
 2361SOL    HW118545   4.709   3.361   3.504  0.1380 -0.8875  0.1458
 2361SOL    HW218546   0.022   3.438   3.635 -0.4803 -0.8460  0.0461
 2362SOL     OW18547   2.784   1.119   9.880  0.2837  0.3985  0.2534
 2362SOL    HW118548   2.829   1.168   9.948  1.0820  2.0233 -1.4546
 2362SOL    HW218549   2.815   1.031   9.904 -0.9476  0.0664  0.6426
 2363SOL     OW18550   4.108   0.497   8.098  0.4564 -0.0561  0.2151
 2363SOL    HW118551   4.079   0.564   8.037  2.2019 -1.0569 -1.7389
 2363SOL    HW218552   4.128   0.422   8.041  1.8101  0.3601  0.1284
 2364SOL     OW18553   3.229   4.557   1.870  0.8438  0.0942  0.0541
 2364SOL    HW118554   3.303   4.554   1.810  0.4100 -0.5491 -0.4476
 2364SOL    HW218555   3.157   4.526   1.815  1.5951 -0.0741 -0.8415
 2365SOL     OW18556   0.002   3.332   2.279  0.1108  0.1575 -0.0953
 2365SOL    HW118557   4.631   3.327   2.299  0.0835 -0.6875 -0.4637
 2365SOL    HW218558   4.721   3.299   2.189  1.2297 -1.0985  0.3203
 2366SOL     OW18559   3.290   4.041   8.244 -0.2568 -0.0711 -0.3440
 2366SOL    HW118560   3.330   4.012   8.326 -1.2096  0.8743  0.4517
 2366SOL    HW218561   3.212   3.985   8.239 -0.0741 -0.4478  0.8194
 2367SOL     OW18562   1.072   1.408  10.142 -0.2780  0.0953 -0.2246
 2367SOL    HW118563   1.093   1.478  10.081 -0.2591  2.1881  2.1943
 2367SOL    HW218564   0.990   1.369  10.112 -0.7352 -0.8567  2.2761
 2368SOL     OW18565   0.859   3.349   1.743 -0.6276 -0.0384 -0.4526
 2368SOL    HW118566   0.775   3.396   1.746 -1.4871 -1.7058  1.8367
 2368SOL    HW218567   0.831   3.280   1.804  2.0531  0.1842  1.0298
 2369SOL     OW18568   4.080   0.948   4.882  0.1405  0.3373  0.1831
 2369SOL    HW118569   4.039   0.993   4.956  0.2095 -0.3073  0.6146
 2369SOL    HW218570   4.084   0.855   4.906 -1.3171 -0.2110 -1.7389
 2370SOL     OW18571   4.180   0.284   0.308 -0.0256  0.3565 -1.1028
 2370SOL    HW118572   4.248   0.291   0.375  0.2277 -1.3451 -1.1712
 2370SOL    HW218573   4.185   0.189   0.299 -0.3095  0.3774 -1.4789
 2371SOL     OW18574   2.391   0.989   3.015 -0.0149 -0.5600 -0.4582
 2371SOL    HW118575   2.318   0.926   3.019 -1.8447  1.4714 -1.6558
 2371SOL    HW218576   2.393   0.976   2.920 -0.4726 -0.5443 -0.4727
 2372SOL     OW18577   1.180   2.477   4.818 -0.1868  0.2724  0.3160
 2372SOL    HW118578   1.120   2.504   4.887 -0.8823  1.6108 -0.8088
 2372SOL    HW218579   1.117   2.424   4.769  1.6454  0.7014 -2.5260
 2373SOL     OW18580   1.009   1.977   1.803  0.1296 -0.4721 -0.2763
 2373SOL    HW118581   1.012   2.057   1.855 -1.3225  0.4686 -1.6348
 2373SOL    HW218582   1.100   1.951   1.817 -0.7114 -2.3858  1.8192
 2374SOL     OW18583   3.917   1.478   9.631 -0.2023  0.1968 -0.0358
 2374SOL    HW118584   3.869   1.524   9.699 -0.8736 -0.3322 -0.1538
 2374SOL    HW218585   3.967   1.547   9.588 -0.4234  0.4720  0.1529
 2375SOL     OW18586   1.302   1.906   7.733 -0.3203  0.0794 -0.0644
 2375SOL    HW118587   1.305   2.001   7.719  1.0720 -0.1868 -1.6260
 2375SOL    HW218588   1.300   1.878   7.641 -1.4409 -0.5174  0.1440
 2376SOL     OW18589   0.015   0.110   6.519  0.6470  0.0466  0.1223
 2376SOL    HW118590   4.663   0.146   6.472  1.2863  0.6552 -0.4203
 2376SOL    HW218591   0.088   0.139   6.465  0.3486  0.0866 -0.2557
 2377SOL     OW18592   0.532   1.119  11.554  0.2929 -0.3447 -0.0622
 2377SOL    HW118593   0.491   1.109  11.640  0.4100 -1.8933 -0.1872
 2377SOL    HW218594   0.460   1.135  11.494  0.1015  0.2912  0.3309
 2378SOL     OW18595   4.246   0.522   3.179 -0.2483  0.0747  0.2095
 2378SOL    HW118596   4.189   0.458   3.222  1.1870  0.4396  2.6579
 2378SOL    HW218597   4.267   0.479   3.096 -0.5057  0.1320  0.1135
 2379SOL     OW18598   0.330   4.175   9.375  0.2361 -0.5666  0.3265
 2379SOL    HW118599   0.267   4.160   9.304 -0.6257 -1.2579  1.2338
 2379SOL    HW218600   0.283   4.132   9.447 -2.1554  1.4605 -0.0309
 2380SOL     OW18601   1.067   2.856  14.004 -0.1316 -0.6625 -0.2404
 2380SOL    HW118602   1.120   2.930  14.035  1.6799 -1.5365 -1.2566
 2380SOL    HW218603   1.135   2.790  14.015  1.5209  1.2589  1.1938
 2381SOL     OW18604   4.507   0.070   2.019  0.1227 -0.0740  0.1994
 2381SOL    HW118605   4.485   0.161   1.999 -1.7243 -0.6002 -0.1420
 2381SOL    HW218606   4.497   0.073   2.114  1.5679 -0.3791  0.3522
 2382SOL     OW18607   1.400   4.329   3.138  0.1105 -0.0251  0.1765
 2382SOL    HW118608   1.335   4.317   3.208 -1.1564 -1.1846 -1.2084
 2382SOL    HW218609   1.480   4.355   3.184 -0.4631  0.2865  1.0184
 2383SOL     OW18610   1.540   4.443   8.223  0.2028  0.6608 -0.8728
 2383SOL    HW118611   1.567   4.521   8.272  0.6441  2.1456 -3.4625
 2383SOL    HW218612   1.623   4.396   8.235  0.3218  1.0047 -0.3111
 2384SOL     OW18613   1.489   0.285   9.203 -0.0583  0.0499  0.1805
 2384SOL    HW118614   1.431   0.348   9.160 -1.1799 -1.7085 -0.8572
 2384SOL    HW218615   1.448   0.263   9.287  1.5521  3.8315  1.9492
 2385SOL     OW18616   2.213   0.641  14.549 -0.2627 -0.2090 -0.1913
 2385SOL    HW118617   2.156   0.564  14.547  0.7601 -0.9483 -1.4136
 2385SOL    HW218618   2.271   0.622  14.475 -1.3862 -1.0895 -0.8321
 2386SOL     OW18619   3.594   3.767   5.653 -0.0155  0.3363 -0.6588
 2386SOL    HW118620   3.620   3.680   5.625  1.6282  0.3511  0.8671
 2386SOL    HW218621   3.645   3.828   5.601  0.3662  1.6978  1.2887
 2387SOL     OW18622   3.716   1.191   7.039 -0.1008  0.4036 -0.2311
 2387SOL    HW118623   3.730   1.265   7.098 -2.4898 -0.1750  1.0600
 2387SOL    HW218624   3.737   1.225   6.952  0.5691  0.2656 -0.1199
 2388SOL     OW18625   2.325   2.726  15.949  0.2400 -0.6903  0.4135
 2388SOL    HW118626   2.245   2.712  15.999 -1.0500 -0.8254 -1.7098
 2388SOL    HW218627   2.339   2.638  15.912  5.2409  0.5485 -0.7202
 2389SOL     OW18628   4.430   2.544  12.993  0.1956  0.2493  0.6405
 2389SOL    HW118629   4.408   2.589  12.912  1.5126 -0.2056  0.0243
 2389SOL    HW218630   4.456   2.458  12.959 -0.8787  0.6072 -1.1135
 2390SOL     OW18631   3.187   2.863   3.654 -0.0102  0.0614  0.1921
 2390SOL    HW118632   3.246   2.872   3.729 -0.5846  1.3790  0.4670
 2390SOL    HW218633   3.211   2.773   3.631 -0.4759 -0.0595  0.1857
 2391SOL     OW18634   3.331   1.716   0.764  0.3672 -0.0062 -0.3610
 2391SOL    HW118635   3.240   1.702   0.789 -0.3633 -1.3027 -3.7681
 2391SOL    HW218636   3.331   1.808   0.736 -2.9974  0.7960  2.3407
 2392SOL     OW18637   2.502   2.389   0.103 -0.7044 -0.4776 -0.1403
 2392SOL    HW118638   2.438   2.452   0.069  0.2438  0.1153 -0.8164
 2392SOL    HW218639   2.584   2.417   0.063 -1.3921  0.2142 -1.0446
 2393SOL     OW18640   2.490   1.967   7.550 -0.3030  0.2575 -0.2868
 2393SOL    HW118641   2.538   1.885   7.555  1.9219  1.5421 -0.5175
 2393SOL    HW218642   2.425   1.954   7.619 -0.9798 -1.1217 -1.1965
 2394SOL     OW18643   0.571   4.005  17.045 -0.0924 -0.2368  0.2097
 2394SOL    HW118644   0.666   4.011  17.045 -0.1663  0.9232  0.4843
 2394SOL    HW218645   0.552   3.984  16.953 -0.6292 -0.1327  0.2957
 2395SOL     OW18646   0.636   0.236   9.367  0.2875 -0.0958 -0.4238
 2395SOL    HW118647   0.691   0.158   9.363  0.4346  0.0271 -0.7528
 2395SOL    HW218648   0.564   0.219   9.307 -0.2122 -0.1000  0.1693
 2396SOL     OW18649   3.621   3.771  17.664  0.2073  0.2623  0.2861
 2396SOL    HW118650   3.577   3.856  17.676  0.8941  0.8364 -1.3031
 2396SOL    HW218651   3.552   3.705  17.668  1.0608 -0.4780  2.9294
 2397SOL     OW18652   4.029   2.154   3.401 -0.4274 -0.4847 -0.7866
 2397SOL    HW118653   3.944   2.195   3.419  0.3475  0.6769  0.2181
 2397SOL    HW218654   4.023   2.073   3.452  2.6118  0.1224  0.5227
 2398SOL     OW18655   0.570   4.365   3.199 -0.4290 -0.1756  0.4578
 2398SOL    HW118656   0.609   4.393   3.282 -0.1051  1.7680 -0.3450
 2398SOL    HW218657   0.645   4.346   3.143 -1.7151 -1.4142 -0.8406
 2399SOL     OW18658   2.691   2.178   5.279 -0.1059 -0.5931  0.0810
 2399SOL    HW118659   2.609   2.218   5.252  1.4985  3.2533  0.8254
 2399SOL    HW218660   2.674   2.089   5.249 -0.2683 -0.3218 -0.6280
 2400SOL     OW18661   1.337   4.576  11.943 -0.2245 -1.1149 -0.0650
 2400SOL    HW118662   1.286   4.651  11.974  1.3337 -0.4461  0.8705
 2400SOL    HW218663   1.410   4.564  12.004  0.1681  1.6440 -0.0197
 2401SOL     OW18664   1.047   1.563   8.396  0.1231  0.0202 -0.0990
 2401SOL    HW118665   1.087   1.586   8.480 -1.9047  0.3247  0.7741
 2401SOL    HW218666   1.097   1.484   8.375 -2.6445 -2.0750  1.1867
 2402SOL     OW18667   2.953   4.268   2.849 -0.0161  0.4959  0.1543
 2402SOL    HW118668   2.981   4.249   2.760 -0.3337 -1.7239  0.5455
 2402SOL    HW218669   2.980   4.184   2.886  2.0580  0.6851 -0.9568
 2403SOL     OW18670   0.094   4.495  12.186  0.3281 -0.3927 -0.3408
 2403SOL    HW118671   0.000   4.473  12.187  0.2924 -0.1686  2.0514
 2403SOL    HW218672   0.107   4.514  12.093  0.2956 -2.0841 -0.6778
 2404SOL     OW18673   2.897   3.215  14.520  0.0441  0.5472  0.6435
 2404SOL    HW118674   2.951   3.139  14.538 -1.0064 -0.9088 -2.4178
 2404SOL    HW218675   2.962   3.285  14.516 -0.9152  1.5711  2.7722
 2405SOL     OW18676   2.716   2.741   6.253 -0.0876  0.4380 -0.0031
 2405SOL    HW118677   2.651   2.798   6.213  0.3885  0.2438 -1.0462
 2405SOL    HW218678   2.715   2.652   6.219  0.7957 -0.2354  1.7205
 2406SOL     OW18679   0.830   0.389  16.366 -0.4763 -0.2341 -0.0427
 2406SOL    HW118680   0.793   0.473  16.340 -1.1665 -0.6054 -0.2771
 2406SOL    HW218681   0.831   0.343  16.282 -0.0547  2.2012 -1.3821
 2407SOL     OW18682   3.504   3.378  10.091 -0.0656  0.1350  0.0324
 2407SOL    HW118683   3.434   3.317  10.069  2.4742 -1.2416 -4.2112
 2407SOL    HW218684   3.541   3.339  10.170 -0.0340  0.9016  0.3986
 2408SOL     OW18685   3.778   1.776   0.766  0.4932  0.6020 -0.0724
 2408SOL    HW118686   3.819   1.706   0.715  2.5741  0.6128  1.5868
 2408SOL    HW218687   3.727   1.816   0.696  1.2359  2.2858  0.3460
 2409SOL     OW18688   1.665   0.801   7.360  0.2798  0.3818 -0.0470
 2409SOL    HW118689   1.606   0.847   7.301  0.6871  0.0748 -0.6881
 2409SOL    HW218690   1.743   0.785   7.307  0.3624  2.1131 -0.4194
 2410SOL     OW18691   2.324   2.571   6.735 -0.1422  0.4229  0.5721
 2410SOL    HW118692   2.323   2.667   6.740 -2.7839  0.4001  0.8139
 2410SOL    HW218693   2.409   2.539   6.764 -0.4719 -0.8130  0.1907
 2411SOL     OW18694   1.303   3.619   7.415 -0.4928 -0.4965 -0.8173
 2411SOL    HW118695   1.305   3.565   7.494  1.8789  2.4206  1.1502
 2411SOL    HW218696   1.398   3.617   7.399 -0.2420 -3.5154  1.0243
 2412SOL     OW18697   4.274   1.806   8.425  0.2774  0.5280  0.6261
 2412SOL    HW118698   4.337   1.812   8.497 -0.2711  0.5269  1.1089
 2412SOL    HW218699   4.242   1.720   8.452 -1.8395  1.1725  0.1402
 2413SOL     OW18700   2.423   2.897   8.405 -0.1538  0.0376  0.3635
 2413SOL    HW118701   2.365   2.822   8.419 -0.6982  0.3439 -0.2587
 2413SOL    HW218702   2.433   2.903   8.310  3.1018  1.3342  0.8158
 2414SOL     OW18703   0.468   1.292   2.978 -0.0966 -0.4113 -0.2360
 2414SOL    HW118704   0.421   1.358   3.028  1.2364  0.6720 -0.4440
 2414SOL    HW218705   0.539   1.278   3.040 -0.6155 -2.1105 -0.0225
 2415SOL     OW18706   1.178   4.458  10.913 -0.2707 -0.0187 -0.0211
 2415SOL    HW118707   1.260   4.496  10.944  0.2293 -0.4901 -0.7553
 2415SOL    HW218708   1.119   4.533  10.905 -2.2361 -1.6710 -1.0079
 2416SOL     OW18709   0.498   1.985  13.237 -0.0563  0.1728 -0.2542
 2416SOL    HW118710   0.583   2.017  13.209  0.5024 -0.1724  1.0568
 2416SOL    HW218711   0.496   2.007  13.330 -0.4023  3.4875 -1.0443
 2417SOL     OW18712   2.576   4.158   1.808 -0.0626 -0.1940  0.0819
 2417SOL    HW118713   2.604   4.119   1.725  0.1348 -1.6105  0.8208
 2417SOL    HW218714   2.623   4.241   1.807 -0.1443 -0.1524 -1.3844
 2418SOL     OW18715   1.521   0.047   5.696  0.1504  0.5226  0.2168
 2418SOL    HW118716   1.528   0.135   5.735  2.8785 -0.8103  2.7685
 2418SOL    HW218717   1.594   0.061   5.635  0.7898 -0.1200  0.8310
 2419SOL     OW18718   4.682   0.966   5.834 -0.1704 -1.1200  0.3141
 2419SOL    HW118719   4.651   0.893   5.887 -1.9032  1.1048  2.2942
 2419SOL    HW218720   0.049   0.971   5.864 -0.6824  2.6672  1.2397
 2420SOL     OW18721   0.782   3.124   3.939  0.3712 -0.1629  0.8000
 2420SOL    HW118722   0.847   3.084   3.998 -0.4334  0.1966  1.9224
 2420SOL    HW218723   0.801   3.086   3.853 -0.3753 -0.7886  0.9174
 2421SOL     OW18724   1.150   2.826   6.386 -0.0583  0.3859  0.4347
 2421SOL    HW118725   1.095   2.752   6.411  0.6493 -0.0989  0.5431
 2421SOL    HW218726   1.234   2.811   6.429  1.0520  2.7043 -0.9043
 2422SOL     OW18727   0.664   0.649   3.742  0.0019 -0.2499  0.2384
 2422SOL    HW118728   0.699   0.562   3.723 -3.3345 -2.0289  2.1838
 2422SOL    HW218729   0.695   0.662   3.831  0.9077 -0.5106 -0.0348
 2423SOL     OW18730   1.624   2.793  17.587  0.2298 -0.4379 -0.2378
 2423SOL    HW118731   1.632   2.876  17.634 -0.8880  0.0285 -0.8765
 2423SOL    HW218732   1.607   2.738  17.664 -2.0011  1.0515  0.3508
 2424SOL     OW18733   3.527   1.185   6.772 -0.0249 -0.6610 -0.1333
 2424SOL    HW118734   3.481   1.103   6.791 -0.2359 -0.6394 -0.5442
 2424SOL    HW218735   3.554   1.164   6.682  1.9234 -1.1332  0.5751
 2425SOL     OW18736   2.564   0.822   8.022  0.2545  0.6506  0.3723
 2425SOL    HW118737   2.540   0.823   7.929 -1.6702  1.9144  0.8798
 2425SOL    HW218738   2.540   0.730   8.037 -2.6614  1.3582  0.1077
 2426SOL     OW18739   4.434   0.476   8.594 -0.1566  0.1769  0.2828
 2426SOL    HW118740   4.430   0.562   8.637  1.0894 -0.0431  0.8532
 2426SOL    HW218741   4.366   0.425   8.638 -0.2410  0.1959  0.1746
 2427SOL     OW18742   0.683   3.819   6.334 -0.0032 -0.3837  0.4323
 2427SOL    HW118743   0.705   3.907   6.304  0.9289 -0.7079  0.1764
 2427SOL    HW218744   0.589   3.824   6.315  0.5689  1.6824 -1.8160
 2428SOL     OW18745   1.940   2.841   6.073  0.1908  0.1280  0.3088
 2428SOL    HW118746   1.950   2.862   5.980 -1.0035 -2.0062 -0.3152
 2428SOL    HW218747   1.885   2.763   6.061  1.6478 -0.7332 -0.6354
 2429SOL     OW18748   2.480   2.422   2.127 -0.0537 -0.6931  0.3671
 2429SOL    HW118749   2.478   2.362   2.202  1.4771 -1.3404 -0.1163
 2429SOL    HW218750   2.538   2.376   2.066  2.6125 -0.2944  2.6092
 2430SOL     OW18751   2.406   3.625   3.773 -0.3154  0.2929 -0.7061
 2430SOL    HW118752   2.345   3.560   3.806  2.7364 -0.9191  2.6255
 2430SOL    HW218753   2.490   3.578   3.765  1.0988  2.6459  0.3697
 2431SOL     OW18754   3.803   3.313  17.339 -0.5819  0.3926  0.4748
 2431SOL    HW118755   3.851   3.376  17.286  0.7051  0.4513  1.7256
 2431SOL    HW218756   3.756   3.377  17.391  1.7527  2.5329 -0.0423
 2432SOL     OW18757   4.539   0.498  17.403 -0.5851  0.4136  0.1579
 2432SOL    HW118758   4.536   0.460  17.315  0.4042  0.6075  0.0397
 2432SOL    HW218759   4.634   0.495  17.414 -0.6014 -2.0595 -0.2892
 2433SOL     OW18760   3.226   2.856   1.627 -0.3718  0.4989  0.2652
 2433SOL    HW118761   3.200   2.869   1.536  3.5029 -2.4384 -1.3001
 2433SOL    HW218762   3.321   2.861   1.619 -0.3632 -1.3034 -0.7970
 2434SOL     OW18763   0.050   1.785   2.142 -0.2031 -0.7977  0.1382
 2434SOL    HW118764   0.068   1.777   2.049 -0.0790  1.3580 -0.0124
 2434SOL    HW218765   0.130   1.835   2.162 -0.0842 -1.2655  0.8526
 2435SOL     OW18766   2.545   2.151   0.543 -0.5319  0.2878 -0.1100
 2435SOL    HW118767   2.485   2.159   0.469 -1.7695 -2.4263  0.5977
 2435SOL    HW218768   2.564   2.242   0.567 -1.8817  0.3746  0.6778
 2436SOL     OW18769   0.780   3.731  12.010  0.1853  0.2341  0.1082
 2436SOL    HW118770   0.701   3.773  11.976  0.1974  1.4445  1.5587
 2436SOL    HW218771   0.847   3.752  11.944 -0.1185  0.1127 -0.2335
 2437SOL     OW18772   0.288   3.145   6.241 -0.2464 -0.2507  0.3771
 2437SOL    HW118773   0.214   3.206   6.243  0.0147  0.1203 -1.7910
 2437SOL    HW218774   0.310   3.154   6.334 -2.0054  0.9988  0.6902
 2438SOL     OW18775   0.356   0.375   3.742 -0.0055  0.5245 -0.1764
 2438SOL    HW118776   0.283   0.421   3.786 -1.2983  0.0973 -1.8840
 2438SOL    HW218777   0.305   0.348   3.666  0.2536 -0.6124  0.0550
 2439SOL     OW18778   0.558   2.641   5.948 -0.1170 -0.2326 -0.2737
 2439SOL    HW118779   0.609   2.722   5.954  0.2020 -0.3526 -1.4168
 2439SOL    HW218780   0.521   2.669   5.864  2.6542 -0.6516 -1.6390
 2440SOL     OW18781   1.116   2.806  17.529  0.6297  0.0357 -0.4123
 2440SOL    HW118782   1.077   2.726  17.563  0.2215  1.0274  1.4466
 2440SOL    HW218783   1.122   2.766  17.442  3.5923  0.5304 -0.4484
 2441SOL     OW18784   1.157   1.464   6.252  0.3369 -0.0696 -0.2929
 2441SOL    HW118785   1.234   1.503   6.210  0.8906  2.5306  3.2057
 2441SOL    HW218786   1.082   1.515   6.224  0.5574  1.3169  1.6673
 2442SOL     OW18787   2.644   1.275   4.555  0.2313  0.0615  0.5141
 2442SOL    HW118788   2.577   1.311   4.497  0.7232  1.5887  0.8789
 2442SOL    HW218789   2.730   1.306   4.525  0.1438  1.1619  1.4038
 2443SOL     OW18790   3.264   1.601   4.871  0.0378 -0.3888 -0.2203
 2443SOL    HW118791   3.186   1.654   4.884  1.0168  0.5824  1.6384
 2443SOL    HW218792   3.300   1.656   4.801  1.9356 -0.4294  0.7379
 2444SOL     OW18793   2.129   3.517   6.240  0.3955  0.0303 -0.4507
 2444SOL    HW118794   2.214   3.478   6.263 -0.8003 -2.7557 -0.8389
 2444SOL    HW218795   2.088   3.535   6.325 -0.2831 -0.7284 -0.6268
 2445SOL     OW18796   1.890   4.537   7.176 -0.2568 -0.4663 -0.2649
 2445SOL    HW118797   1.809   4.588   7.185  0.1012  0.0462  0.0680
 2445SOL    HW218798   1.941   4.581   7.244 -0.4479  0.2961 -0.6160
 2446SOL     OW18799   3.508   0.427  11.110 -0.2702  0.2982 -0.0405
 2446SOL    HW118800   3.564   0.379  11.050  0.5002  1.2520 -0.0764
 2446SOL    HW218801   3.430   0.438  11.057  0.1956  1.1868 -0.5288
 2447SOL     OW18802   0.025   2.381   0.744 -0.0086  0.6590 -0.1985
 2447SOL    HW118803   0.025   2.286   0.736 -3.7034  0.4600  2.4348
 2447SOL    HW218804   4.653   2.382   0.743 -0.0386 -0.4161  2.3532
 2448SOL     OW18805   1.503   4.249  17.223 -0.0197  0.0408 -0.2035
 2448SOL    HW118806   1.589   4.241  17.262 -0.4544 -1.2855  0.4776
 2448SOL    HW218807   1.458   4.326  17.258 -1.7489 -1.1949  0.2900
 2449SOL     OW18808   2.183   1.003  14.328 -0.0873  0.2136  0.0258
 2449SOL    HW118809   2.226   1.053  14.259  0.7466  0.8659  1.0178
 2449SOL    HW218810   2.256   0.945  14.349 -0.7869 -0.3600  0.8692
 2450SOL     OW18811   3.024   3.980   6.792 -0.2249  0.7888 -0.3396
 2450SOL    HW118812   3.093   4.045   6.800  0.5485 -0.3128  1.9642
 2450SOL    HW218813   3.073   3.899   6.774 -2.3899 -0.4766 -0.5361
 2451SOL     OW18814   1.503   4.681   8.689  0.7276  0.2396 -0.1658
 2451SOL    HW118815   1.446   0.011   8.745  2.9911  0.3945  2.0145
 2451SOL    HW218816   1.581   4.667   8.743 -0.0686 -1.1486  0.6349
 2452SOL     OW18817   2.110   2.337   8.764  0.0994 -0.9533 -0.4591
 2452SOL    HW118818   2.162   2.345   8.844 -2.6158 -0.8723  1.2716
 2452SOL    HW218819   2.144   2.409   8.711 -1.2786  1.0583  1.4161
 2453SOL     OW18820   3.070   4.471   5.591  0.1686  0.4427  0.0206
 2453SOL    HW118821   3.073   4.376   5.586 -0.6332  0.4243 -0.0855
 2453SOL    HW218822   3.150   4.483   5.642 -0.1023  1.3440  0.2473
 2454SOL     OW18823   3.788   2.541   4.180  0.1363 -0.6218  0.6588
 2454SOL    HW118824   3.699   2.562   4.151  1.1792  1.0242 -1.3762
 2454SOL    HW218825   3.830   2.627   4.177 -0.8726 -0.0739  3.1259
 2455SOL     OW18826   0.399   1.367   6.060  0.2704  0.2204 -0.0521
 2455SOL    HW118827   0.470   1.348   6.121  1.7224  2.6687 -1.0146
 2455SOL    HW218828   0.420   1.455   6.029 -1.2540  1.4862  2.4727
 2456SOL     OW18829   4.126   1.313   5.034  0.4823 -0.0970  0.5301
 2456SOL    HW118830   4.126   1.409   5.025  1.5417 -0.1776 -0.2450
 2456SOL    HW218831   4.203   1.289   5.086  0.3204 -1.9767 -0.1177
 2457SOL     OW18832   0.305   2.035  13.699  0.3348 -0.0681 -0.5745
 2457SOL    HW118833   0.395   2.003  13.701 -0.1005 -1.3111 -1.2426
 2457SOL    HW218834   0.265   1.954  13.732 -0.1888  0.2692 -0.3742
 2458SOL     OW18835   0.581   1.153   6.878 -0.0071  0.6312  1.1536
 2458SOL    HW118836   0.556   1.181   6.966 -1.1577  1.1023  0.6737
 2458SOL    HW218837   0.573   1.234   6.828 -0.5175  0.8037  1.5194
 2459SOL     OW18838   4.673   1.755  12.356  0.1342  0.0522  0.3251
 2459SOL    HW118839   0.014   1.819  12.387  2.0051 -1.8224  0.3018
 2459SOL    HW218840   4.595   1.810  12.347 -0.0584 -0.3357 -0.4076
 2460SOL     OW18841   1.633   2.346   3.757 -0.0760  0.3332  0.1511
 2460SOL    HW118842   1.565   2.322   3.694  1.1074 -0.2728 -0.9053
 2460SOL    HW218843   1.588   2.408   3.814 -0.5951 -1.4355  1.6477
 2461SOL     OW18844   2.362   4.015   7.842  0.2195 -0.5412 -0.3313
 2461SOL    HW118845   2.324   3.957   7.776  2.0471 -1.5286 -0.5201
 2461SOL    HW218846   2.453   4.018   7.814 -0.3303  3.1035 -1.7052
 2462SOL     OW18847   4.052   2.031   8.795 -0.6824  0.2048 -0.3632
 2462SOL    HW118848   4.014   2.113   8.764  0.7097  1.4680  1.2277
 2462SOL    HW218849   4.113   2.063   8.861 -1.4040  2.0261 -0.5679
 2463SOL     OW18850   2.458   1.289   1.821  0.1906 -0.1487  0.6069
 2463SOL    HW118851   2.451   1.246   1.906 -4.5378 -0.6918 -0.0568
 2463SOL    HW218852   2.512   1.220   1.783 -1.7020 -0.0788 -2.2059
 2464SOL     OW18853   3.452   1.197   8.152 -0.1763 -0.0547 -0.4401
 2464SOL    HW118854   3.416   1.222   8.237 -0.3598 -1.1808 -0.1789
 2464SOL    HW218855   3.501   1.273   8.121  3.9813 -3.0896 -1.3819
 2465SOL     OW18856   1.675   4.350  11.272  0.1661 -0.7299  0.2084
 2465SOL    HW118857   1.695   4.278  11.332  1.3099  1.0918  2.0205
 2465SOL    HW218858   1.676   4.423  11.335 -2.2600  0.1810 -0.8223
 2466SOL     OW18859   3.467   0.482   3.191  0.3663  0.6715  0.8411
 2466SOL    HW118860   3.463   0.409   3.253  2.6795 -1.9797 -2.1234
 2466SOL    HW218861   3.558   0.509   3.204  0.8980 -1.9278  2.7890
 2467SOL     OW18862   2.833   2.281   7.768 -0.0143 -0.1726 -0.4992
 2467SOL    HW118863   2.748   2.250   7.798  0.1493 -0.4723 -0.3440
 2467SOL    HW218864   2.878   2.220   7.827  2.2610  1.7783 -0.1716
 2468SOL     OW18865   3.351   0.695   5.118 -0.1295  0.2300  0.4717
 2468SOL    HW118866   3.260   0.721   5.130 -0.6065 -1.4302  0.4816
 2468SOL    HW218867   3.383   0.771   5.069 -0.1658 -0.2909 -0.3568
 2469SOL     OW18868   3.148   3.210   5.342  0.1430  0.0219  0.3668
 2469SOL    HW118869   3.164   3.241   5.431  1.7246  0.2070  0.0161
 2469SOL    HW218870   3.175   3.291   5.297 -2.0007 -0.1899 -1.3422
 2470SOL     OW18871   2.780   2.704   2.906 -0.4289  0.0238 -0.2929
 2470SOL    HW118872   2.724   2.733   2.834 -0.6675  0.4641  0.0661
 2470SOL    HW218873   2.724   2.629   2.926  0.9491 -1.0629 -0.5627
 2471SOL     OW18874   4.294   0.984  11.923 -0.6784  0.4891  0.2546
 2471SOL    HW118875   4.264   0.896  11.942  1.6374 -0.4004 -0.2241
 2471SOL    HW218876   4.348   0.975  11.845  0.2215  1.1782  0.7898
 2472SOL     OW18877   2.684   1.271  17.274  0.0315  0.9244 -0.4467
 2472SOL    HW118878   2.632   1.318  17.209 -2.6934 -1.8875 -0.3138
 2472SOL    HW218879   2.691   1.187  17.229  0.4781  0.8350 -0.2134
 2473SOL     OW18880   0.227   2.317  16.987 -0.3056 -0.5457  0.7493
 2473SOL    HW118881   0.300   2.275  17.034  0.1394 -2.3210 -1.5210
 2473SOL    HW218882   0.248   2.409  17.002  0.5028 -0.8148  1.3170
 2474SOL     OW18883   1.402   2.235   9.020  0.0593 -0.3469 -0.1029
 2474SOL    HW118884   1.398   2.226   9.115  0.0301  1.2983  0.0581
 2474SOL    HW218885   1.430   2.326   9.016  1.3566 -0.6892  0.9491
 2475SOL     OW18886   2.586   2.619   3.985 -0.2173 -0.1038  0.4620
 2475SOL    HW118887   2.561   2.575   4.066  0.1234 -1.2697 -0.0557
 2475SOL    HW218888   2.504   2.664   3.965 -0.8444 -0.6196  1.8768
 2476SOL     OW18889   3.259   0.069   1.565 -0.1343  0.6856  0.0713
 2476SOL    HW118890   3.302   4.707   1.572  0.5749  0.9422 -1.0926
 2476SOL    HW218891   3.339   0.107   1.601 -1.4685  2.9112  0.7258
 2477SOL     OW18892   1.700   4.479   5.155 -0.0723 -0.7334 -0.1151
 2477SOL    HW118893   1.685   4.407   5.094 -1.7001 -0.4038 -0.0907
 2477SOL    HW218894   1.626   4.533   5.127  1.0486  0.2837 -1.1481
 2478SOL     OW18895   3.099   2.970  12.548  0.8172 -0.2393 -0.3232
 2478SOL    HW118896   3.183   2.950  12.589  0.5580 -1.2738 -0.3049
 2478SOL    HW218897   3.095   2.907  12.476  1.0814  0.3883 -0.8920
 2479SOL     OW18898   3.446   2.080   2.297  0.4145 -0.0365  0.2537
 2479SOL    HW118899   3.519   2.093   2.359  2.0674 -0.1759 -1.6600
 2479SOL    HW218900   3.385   2.149   2.324 -0.2238 -0.2356 -0.7075
 2480SOL     OW18901   4.421   2.991   8.173  0.2701  0.2048  0.1177
 2480SOL    HW118902   4.348   2.987   8.111  0.9392  0.1798 -0.6640
 2480SOL    HW218903   4.452   3.080   8.158 -4.7504  1.6721 -1.4440
 2481SOL     OW18904   1.758   3.295   6.076  0.1996  0.3442  0.0109
 2481SOL    HW118905   1.851   3.301   6.099  0.1962 -2.5168  0.7510
 2481SOL    HW218906   1.718   3.342   6.149 -3.5051 -0.3487 -1.5956
 2482SOL     OW18907   0.858   4.099  15.281 -0.0685 -0.6358  0.4380
 2482SOL    HW118908   0.894   4.166  15.223  0.7151  0.4639  2.1771
 2482SOL    HW218909   0.928   4.036  15.264 -1.1511 -1.1577 -2.0561
 2483SOL     OW18910   0.248   0.284   5.178 -0.2020 -0.4863 -0.6683
 2483SOL    HW118911   0.178   0.339   5.142  0.2337 -0.4832 -1.5030
 2483SOL    HW218912   0.194   0.208   5.200 -1.8353  1.6251  2.6739
 2484SOL     OW18913   2.669   4.532  16.781 -0.5004  0.2437  0.4712
 2484SOL    HW118914   2.642   4.620  16.807 -0.0630  0.8492 -1.1531
 2484SOL    HW218915   2.759   4.553  16.758  0.0542  1.6610  3.8685
 2485SOL     OW18916   2.759   0.617  15.774 -0.1824  0.0698  0.0452
 2485SOL    HW118917   2.692   0.685  15.778  1.6020  1.7371  1.6312
 2485SOL    HW218918   2.722   0.563  15.704  0.3509 -1.5114  0.9702
 2486SOL     OW18919   3.295   4.191  11.128  0.0451  0.1566 -0.3738
 2486SOL    HW118920   3.341   4.138  11.193 -1.3966  0.7892  1.1839
 2486SOL    HW218921   3.358   4.262  11.113  0.0308  0.6029  1.7011
 2487SOL     OW18922   2.845   4.032   8.213  0.0503 -0.3030 -0.0378
 2487SOL    HW118923   2.897   4.109   8.237  0.9594 -0.2151 -2.2427
 2487SOL    HW218924   2.760   4.074   8.199  0.9937  0.8558 -2.2512
 2488SOL     OW18925   4.474   2.230   5.193  0.3185 -0.4893 -0.5460
 2488SOL    HW118926   4.465   2.205   5.101  1.7235 -0.4838 -0.6871
 2488SOL    HW218927   4.501   2.322   5.187  0.1196 -0.3052  1.3516
 2489SOL     OW18928   3.702   2.887   2.496  0.6263 -0.6102  0.4207
 2489SOL    HW118929   3.776   2.938   2.528  0.9609 -1.4595  1.0329
 2489SOL    HW218930   3.686   2.933   2.414 -4.1825  0.7401  2.1214
 2490SOL     OW18931   0.729   0.005   5.712 -0.2224 -0.4207 -0.7318
 2490SOL    HW118932   0.764   0.080   5.760 -1.9576 -0.1105  0.0525
 2490SOL    HW218933   0.751   4.661   5.777  2.0680 -0.0499 -1.1383
 2491SOL     OW18934   0.566   1.507   8.490  0.2214  0.3935  0.1837
 2491SOL    HW118935   0.543   1.415   8.499 -0.4371  0.6609  1.2405
 2491SOL    HW218936   0.580   1.529   8.582  0.4714 -0.9594  0.4586
 2492SOL     OW18937   4.658   3.459   6.505 -0.2315 -0.5634 -0.0991
 2492SOL    HW118938   4.598   3.507   6.563  0.1352  1.5030 -1.4019
 2492SOL    HW218939   4.612   3.475   6.422 -2.5979 -0.5478  1.2153
 2493SOL     OW18940   3.361   2.654   5.568 -0.4491 -0.1916  0.2389
 2493SOL    HW118941   3.270   2.667   5.595 -0.7729 -0.3698 -0.7578
 2493SOL    HW218942   3.401   2.685   5.649  0.3739 -2.6432  0.7712
 2494SOL     OW18943   2.223   3.326  12.523  0.0456 -0.5149 -0.3314
 2494SOL    HW118944   2.295   3.364  12.573 -0.4997  0.1893 -0.0785
 2494SOL    HW218945   2.175   3.289  12.597  4.2694  1.9445  3.6549
 2495SOL     OW18946   1.275   2.941   8.186  0.3292  0.4694  0.1895
 2495SOL    HW118947   1.213   2.986   8.128 -2.1852 -2.3986  0.6711
 2495SOL    HW218948   1.290   2.999   8.261 -3.3678  2.1897 -0.4088
 2496SOL     OW18949   0.583   0.654   5.950  0.4995  0.0354 -0.1143
 2496SOL    HW118950   0.573   0.704   6.031 -0.1202  2.1268 -1.5033
 2496SOL    HW218951   0.525   0.582   5.975 -0.6625  1.2181  0.6063
 2497SOL     OW18952   1.596   3.939   5.019 -0.4664  0.0281  0.3998
 2497SOL    HW118953   1.684   3.975   5.006 -0.1483 -0.7669  0.3892
 2497SOL    HW218954   1.576   3.985   5.101  0.2003 -0.5335  0.8753
 2498SOL     OW18955   3.328   4.263  16.489 -0.2397  0.3251  0.2150
 2498SOL    HW118956   3.389   4.221  16.429  0.1279 -1.5608  1.9278
 2498SOL    HW218957   3.332   4.354  16.459 -1.1746  1.0933  2.4538
 2499SOL     OW18958   4.574   3.171  13.543  0.2236  0.3159  0.2657
 2499SOL    HW118959   4.607   3.115  13.473 -3.0713 -0.0868 -1.0045
 2499SOL    HW218960   4.482   3.169  13.516  0.0533  2.2646  0.7452
 2500SOL     OW18961   4.219   4.551  15.240  0.0770 -0.2251 -0.1265
 2500SOL    HW118962   4.251   4.505  15.318  0.6194 -0.9117 -0.7509
 2500SOL    HW218963   4.225   4.497  15.162 -2.9185  2.7407 -2.4080
 2501SOL     OW18964   2.774   1.527  13.033  0.1677 -0.2039 -0.4882
 2501SOL    HW118965   2.686   1.561  13.051 -0.7181 -3.2082  0.8203
 2501SOL    HW218966   2.753   1.434  13.034 -1.7342  0.2503  2.0783
 2502SOL     OW18967   1.887   0.702   2.167 -0.1242  0.0414  0.1327
 2502SOL    HW118968   1.930   0.616   2.168 -0.7983 -0.3546 -3.0396
 2502SOL    HW218969   1.944   0.738   2.099 -0.5184  0.4804  0.0401
 2503SOL     OW18970   1.721   3.786  16.155  0.3910  0.3233 -0.3979
 2503SOL    HW118971   1.809   3.814  16.130  0.9699  0.5527  1.8854
 2503SOL    HW218972   1.678   3.753  16.076 -0.2558  0.4658 -0.1079
 2504SOL     OW18973   3.563   1.717   3.834 -0.4903  0.1333  0.2237
 2504SOL    HW118974   3.656   1.696   3.846 -0.3817  0.7276  0.3916
 2504SOL    HW218975   3.573   1.789   3.771  0.6223 -1.2800 -1.2283
 2505SOL     OW18976   3.534   0.957   3.736 -0.1567 -0.7300  0.0453
 2505SOL    HW118977   3.616   0.951   3.688  0.4000  2.8245  0.6007
 2505SOL    HW218978   3.553   1.035   3.788 -0.6519 -0.9467  0.5508
 2506SOL     OW18979   2.522   1.369   5.190  0.4846 -0.0099 -0.6599
 2506SOL    HW118980   2.611   1.359   5.157 -0.0139 -0.7360 -1.7912
 2506SOL    HW218981   2.491   1.279   5.181 -0.2781  0.0435  1.3009
 2507SOL     OW18982   3.064   1.599   5.158 -0.8341  0.3129  0.2568
 2507SOL    HW118983   3.044   1.646   5.077  2.2224  1.5012  0.2026
 2507SOL    HW218984   3.046   1.667   5.222 -2.0422  0.9157 -0.7292
 2508SOL     OW18985   1.655   0.144  12.589  0.5906 -0.3350 -0.3033
 2508SOL    HW118986   1.643   0.236  12.563 -0.8084 -0.3741  0.1949
 2508SOL    HW218987   1.564   0.116  12.593  0.3696  0.4760  0.2969
 2509SOL     OW18988   3.462   2.525   3.023  0.0620  0.1838 -0.0456
 2509SOL    HW118989   3.397   2.455   3.025  0.1025  0.1223 -0.7564
 2509SOL    HW218990   3.403   2.599   3.032 -2.0455 -1.4971  0.0036
 2510SOL     OW18991   1.657   1.781  11.907  0.4849 -0.4319 -0.1286
 2510SOL    HW118992   1.572   1.738  11.907  0.4259 -0.3158 -0.3405
 2510SOL    HW218993   1.668   1.810  11.816 -0.8080  1.0883  0.1979
 2511SOL     OW18994   4.026   0.113   7.483 -0.1465 -0.1079  0.8487
 2511SOL    HW118995   4.018   0.034   7.537  0.1469 -0.9065 -0.2660
 2511SOL    HW218996   3.986   0.182   7.536  0.5092  0.5540  0.4774
 2512SOL     OW18997   0.393   2.784  12.136  0.4802  0.1263  0.3924
 2512SOL    HW118998   0.473   2.820  12.176  0.5432 -0.7798  1.0923
 2512SOL    HW218999   0.412   2.699  12.095 -2.2160 -0.7478  0.9665
 2513SOL     OW19000   0.838   0.347   1.927  0.5326 -0.0496 -0.0625
 2513SOL    HW119001   0.876   0.307   1.848  1.2976  0.7153 -0.0875
 2513SOL    HW219002   0.746   0.344   1.901  1.9621  0.5119 -5.2777
 2514SOL     OW19003   1.082   0.084   7.662 -0.3917 -0.2907 -0.5809
 2514SOL    HW119004   1.030   0.009   7.692 -0.8391 -0.4032 -1.6394
 2514SOL    HW219005   1.083   0.074   7.567 -0.0540 -0.1726 -0.5878
 2515SOL     OW19006   2.100   2.440  11.212  0.2261  0.3592 -0.2379
 2515SOL    HW119007   2.177   2.418  11.264 -0.6447 -0.5418  0.6488
 2515SOL    HW219008   2.050   2.490  11.276  0.4075  2.2131 -1.5586
 2516SOL     OW19009   4.195   2.525   5.806 -0.0394 -0.0191 -0.8082
 2516SOL    HW119010   4.193   2.620   5.821 -1.3430 -0.2573  0.4367
 2516SOL    HW219011   4.122   2.526   5.744 -0.3524  1.2634 -0.4301
 2517SOL     OW19012   3.554   3.519   5.348 -0.0321 -0.0901  0.2586
 2517SOL    HW119013   3.567   3.611   5.324  1.5330 -0.5442 -0.7014
 2517SOL    HW219014   3.483   3.518   5.412 -0.1994  1.8193  0.0986
 2518SOL     OW19015   2.872   2.184   3.036 -0.5102  0.3237  0.2438
 2518SOL    HW119016   2.793   2.132   3.050 -0.0045 -0.2329  1.0512
 2518SOL    HW219017   2.937   2.125   2.998  0.3151  0.3769  1.5626
 2519SOL     OW19018   3.736   3.751  14.475  0.2916 -0.1738 -0.4286
 2519SOL    HW119019   3.658   3.794  14.439 -0.9379  0.9487  3.6005
 2519SOL    HW219020   3.702   3.706  14.552 -1.7066  1.8051 -0.1596
 2520SOL     OW19021   1.790   3.740   7.977 -0.2325  0.5985  0.4043
 2520SOL    HW119022   1.741   3.680   8.034  0.2910  0.0556  0.2703
 2520SOL    HW219023   1.846   3.780   8.043  0.0282  1.0167 -0.0738
 2521SOL     OW19024   1.307   2.044   8.514 -0.0548 -0.2895  0.2286
 2521SOL    HW119025   1.389   2.084   8.486  0.7685 -1.4445  1.0087
 2521SOL    HW219026   1.311   2.044   8.609 -1.1746  3.5028  0.2453
 2522SOL     OW19027   2.796   0.151   8.466 -0.3262  0.2559 -0.5477
 2522SOL    HW119028   2.746   0.231   8.483  0.0183  0.5655 -0.9863
 2522SOL    HW219029   2.761   0.094   8.535  2.1681 -1.4589 -0.6784
 2523SOL     OW19030   2.904   2.277   2.560 -0.3844  0.4340  0.5916
 2523SOL    HW119031   2.815   2.265   2.591 -0.0185 -2.5085  0.5075
 2523SOL    HW219032   2.904   2.358   2.509  1.1643 -0.7894 -1.3862
 2524SOL     OW19033   3.988   1.563   3.225  0.2714 -0.3127 -0.5650
 2524SOL    HW119034   3.990   1.487   3.168  1.2847  0.4418 -1.5287
 2524SOL    HW219035   3.897   1.595   3.220  0.1374 -0.5809  0.1929
 2525SOL     OW19036   2.246   0.817   8.279 -0.2518 -0.0436  0.2146
 2525SOL    HW119037   2.313   0.809   8.347 -0.6961  1.3495  0.8272
 2525SOL    HW219038   2.175   0.819   8.344  0.9540 -2.0580  1.5892
 2526SOL     OW19039   4.014   1.637   4.194  0.3273 -0.3181 -0.4955
 2526SOL    HW119040   4.034   1.599   4.109  1.3125  0.9453 -0.8251
 2526SOL    HW219041   4.068   1.715   4.196  1.8164 -1.4052  2.4852
 2527SOL     OW19042   3.601   3.251  11.864 -0.6804 -0.1414  0.7012
 2527SOL    HW119043   3.558   3.335  11.879 -2.2037 -0.3502 -2.3858
 2527SOL    HW219044   3.579   3.241  11.771 -2.8160 -1.2775  1.3402
 2528SOL     OW19045   0.858   1.594   4.846 -0.1943 -0.1833 -0.2844
 2528SOL    HW119046   0.800   1.546   4.905  1.2467 -0.6209  0.7703
 2528SOL    HW219047   0.886   1.670   4.897 -1.0510 -0.7762  1.0774
 2529SOL     OW19048   1.789   1.863   9.400  0.1794 -0.0463 -0.4967
 2529SOL    HW119049   1.839   1.784   9.378 -1.7917 -1.9908  2.0023
 2529SOL    HW219050   1.808   1.878   9.493  1.6937  1.3949 -1.0394
 2530SOL     OW19051   1.320   3.280  12.648  0.0249  0.7000  0.2890
 2530SOL    HW119052   1.228   3.299  12.667 -0.1519 -0.9055  1.0995
 2530SOL    HW219053   1.355   3.259  12.735  1.3301 -2.1593 -0.9330
 2531SOL     OW19054   4.302   1.089   8.260  0.3460 -0.0692 -0.5983
 2531SOL    HW119055   4.286   0.996   8.246  2.3990 -0.2334 -1.7707
 2531SOL    HW219056   4.216   1.106   8.298  0.2889  2.4629 -1.8477
 2532SOL     OW19057   1.523   2.105  11.738  0.3704  0.5706  0.0351
 2532SOL    HW119058   1.466   2.040  11.780  0.5142  1.1556  1.1260
 2532SOL    HW219059   1.601   2.114  11.793  1.6596 -0.9591 -1.5313
 2533SOL     OW19060   4.249   4.519   7.398  0.1050  0.4233 -0.4020
 2533SOL    HW119061   4.175   4.522   7.459 -0.4350  1.4903 -1.1241
 2533SOL    HW219062   4.280   4.609   7.408  0.9902  0.1612 -0.7308
 2534SOL     OW19063   2.080   0.585   8.941  0.7927 -0.0551 -0.0883
 2534SOL    HW119064   2.141   0.513   8.930  0.8021 -0.1502  0.6272
 2534SOL    HW219065   2.041   0.583   8.853  0.4915  0.4480  0.0297
 2535SOL     OW19066   1.098   2.153  16.711 -0.2290 -0.0600  0.0564
 2535SOL    HW119067   1.181   2.113  16.737 -0.5847 -2.3926 -2.3866
 2535SOL    HW219068   1.030   2.116  16.767  0.0179 -0.6148 -0.0039
 2536SOL     OW19069   3.755   0.008   3.164 -0.0374 -0.4332 -0.4976
 2536SOL    HW119070   3.844   0.040   3.180  0.2712 -0.6541 -1.8111
 2536SOL    HW219071   3.739   0.055   3.082  1.8624  2.3246  0.7151
 2537SOL     OW19072   1.471   2.249   3.988  0.1065  0.5580 -0.4535
 2537SOL    HW119073   1.508   2.228   4.073  1.1252 -0.6953 -1.2025
 2537SOL    HW219074   1.525   2.201   3.925 -1.4310 -1.4252 -0.2318
 2538SOL     OW19075   0.180   0.187   9.058  0.0957  0.8813  0.0812
 2538SOL    HW119076   0.145   0.220   8.975  1.2671  2.7387  0.3269
 2538SOL    HW219077   0.242   0.258   9.076  1.6750 -0.8684  1.6034
 2539SOL     OW19078   3.015   3.565   7.641  0.1494 -0.0274 -0.6975
 2539SOL    HW119079   3.044   3.559   7.551  0.8264  1.4032 -0.5810
 2539SOL    HW219080   2.920   3.568   7.629  0.2455  2.3394 -0.9519
 2540SOL     OW19081   0.741   3.929   1.017  0.0759 -0.2043  0.4600
 2540SOL    HW119082   0.734   3.998   1.084  0.7454  0.4398 -0.1282
 2540SOL    HW219083   0.710   3.973   0.938 -0.2326 -0.9741  0.1594
 2541SOL     OW19084   2.389   0.795   8.900 -0.0245 -0.7437 -0.0049
 2541SOL    HW119085   2.419   0.816   8.811 -2.4235 -0.1468 -0.6730
 2541SOL    HW219086   2.295   0.786   8.882 -0.1186  2.7695 -1.2954
 2542SOL     OW19087   0.332   0.070   8.310  0.1066 -0.0988  0.0794
 2542SOL    HW119088   0.262   0.064   8.245 -0.8814 -1.8625  1.3024
 2542SOL    HW219089   0.399   0.005   8.288 -0.0366 -0.3134  0.2821
 2543SOL     OW19090   3.688   3.057   5.587  0.3391  0.1801  0.4103
 2543SOL    HW119091   3.775   3.020   5.570  0.3447  0.4292 -0.1224
 2543SOL    HW219092   3.638   3.013   5.518 -0.2939  2.9812 -0.9675
 2544SOL     OW19093   2.542   0.840   7.763  0.0242 -0.7828 -0.2402
 2544SOL    HW119094   2.628   0.867   7.729 -0.0513  1.3044  1.1583
 2544SOL    HW219095   2.487   0.880   7.696 -0.9242 -1.9920 -0.1855
 2545SOL     OW19096   3.484   0.458   7.932 -0.1439 -0.5862 -0.0869
 2545SOL    HW119097   3.479   0.502   7.848 -1.1431 -1.7543 -0.6455
 2545SOL    HW219098   3.471   0.367   7.905 -1.6156  0.3238 -2.3293
 2546SOL     OW19099   3.030   4.387   2.186 -0.0129 -0.2543 -0.3403
 2546SOL    HW119100   3.042   4.365   2.278 -2.0932  2.1777  0.5161
 2546SOL    HW219101   3.021   4.302   2.143  0.8119 -0.5730  0.1127
 2547SOL     OW19102   2.719   2.427  14.826 -0.8092  0.1430 -0.4425
 2547SOL    HW119103   2.744   2.446  14.917 -1.7543 -1.6425  0.1920
 2547SOL    HW219104   2.806   2.431  14.786 -0.9663 -0.1161 -0.8072
 2548SOL     OW19105   4.363   2.580  15.877  0.4017  0.1234 -0.2629
 2548SOL    HW119106   4.362   2.564  15.971  0.5277 -0.0719 -0.2931
 2548SOL    HW219107   4.456   2.595  15.858 -0.0740  0.7162 -2.0916
 2549SOL     OW19108   4.303   0.571   6.264  0.4845 -0.3273  0.1877
 2549SOL    HW119109   4.313   0.570   6.169 -2.2173  0.9164 -0.1123
 2549SOL    HW219110   4.328   0.482   6.290  1.3144 -0.0517  0.3311
 2550SOL     OW19111   4.680   3.761   7.871  0.7701  0.0408  0.3292
 2550SOL    HW119112   4.670   3.679   7.822 -1.6649 -0.9399  2.4750
 2550SOL    HW219113   0.003   3.820   7.812  1.2291 -1.1596 -0.5225
 2551SOL     OW19114   2.613   3.684   3.125 -0.0058  0.3288  0.2916
 2551SOL    HW119115   2.610   3.754   3.191  0.6972  0.1245  0.5422
 2551SOL    HW219116   2.520   3.664   3.127 -0.1900  1.3236  2.9505
 2552SOL     OW19117   0.631   2.547   7.778 -0.1307  0.2309  0.1283
 2552SOL    HW119118   0.630   2.539   7.874  2.8253  1.0838  0.2371
 2552SOL    HW219119   0.629   2.461   7.737  1.2210  1.2334 -2.0150
 2553SOL     OW19120   2.570   2.334   2.373  0.2078  0.9088 -0.5454
 2553SOL    HW119121   2.632   2.393   2.331 -0.3384 -0.2359 -2.9428
 2553SOL    HW219122   2.586   2.357   2.465  1.2361  0.2142 -0.5485
 2554SOL     OW19123   2.404   2.171  13.899 -0.0111 -0.2964 -0.2048
 2554SOL    HW119124   2.488   2.204  13.931 -0.0065 -0.3918 -0.1197
 2554SOL    HW219125   2.433   2.150  13.810  0.0081 -3.9071  0.6670
 2555SOL     OW19126   2.156   3.936   5.152  0.0030 -0.0746  0.0968
 2555SOL    HW119127   2.165   3.982   5.235 -3.2435  0.0702  0.3686
 2555SOL    HW219128   2.100   3.862   5.177 -1.4218  0.5012 -1.3919
 2556SOL     OW19129   0.939   0.159  13.605  0.3026 -0.0717  0.3583
 2556SOL    HW119130   0.873   0.103  13.645  1.7454 -0.5772  2.0575
 2556SOL    HW219131   0.960   0.104  13.529 -0.9863  2.3412 -1.7466
 2557SOL     OW19132   1.997   2.965   2.966 -0.1029 -0.3904 -0.2724
 2557SOL    HW119133   1.947   3.013   2.899 -0.6412 -2.8461 -1.6224
 2557SOL    HW219134   2.015   2.889   2.911 -0.3778  0.9292 -2.2365
 2558SOL     OW19135   2.800   1.573   7.594 -0.2978  0.0214  0.1275
 2558SOL    HW119136   2.890   1.545   7.609  0.5592  1.2775 -2.6781
 2558SOL    HW219137   2.827   1.650   7.544  3.5585  0.7601  3.3327
 2559SOL     OW19138   4.489   2.261   2.054  0.1716  0.5980 -0.7888
 2559SOL    HW119139   4.441   2.342   2.070  0.9251  0.7352  0.7959
 2559SOL    HW219140   4.416   2.201   2.067  0.3597  0.3613 -0.8029
 2560SOL     OW19141   3.315   2.023  17.413  0.1036 -0.6421  0.2043
 2560SOL    HW119142   3.284   2.052  17.327  0.3458 -2.1174 -0.3651
 2560SOL    HW219143   3.244   1.971  17.450  0.6790 -0.2691  1.8549
 2561SOL     OW19144   0.600   2.204   9.655  0.0743  0.2048 -0.4871
 2561SOL    HW119145   0.552   2.125   9.631  1.8130 -1.1928  0.7169
 2561SOL    HW219146   0.543   2.274   9.623  0.7997  0.0606 -2.0956
 2562SOL     OW19147   0.275   0.470  15.579 -0.1303 -0.1670 -0.0313
 2562SOL    HW119148   0.346   0.535  15.575 -0.1986  0.0591  2.4087
 2562SOL    HW219149   0.265   0.439  15.489 -0.6672 -2.3549  0.7928
 2563SOL     OW19150   0.224   3.227   3.151 -0.4280  0.4701 -0.2695
 2563SOL    HW119151   0.299   3.200   3.096 -0.3251 -1.6172  0.8941
 2563SOL    HW219152   0.154   3.198   3.093 -0.0397 -0.2527 -0.3882
 2564SOL     OW19153   1.558   1.906  16.855 -0.0497  0.4164  0.5943
 2564SOL    HW119154   1.560   1.887  16.949 -0.5899 -0.0729  0.5069
 2564SOL    HW219155   1.618   1.981  16.849  0.4766 -0.2704 -2.7020
 2565SOL     OW19156   4.253   1.084   6.753  0.0658  0.2994 -0.3454
 2565SOL    HW119157   4.224   1.111   6.666  0.8870 -1.0631 -1.0518
 2565SOL    HW219158   4.177   1.031   6.778  2.4305 -3.0735 -0.1671
 2566SOL     OW19159   2.581   2.281   2.650 -0.5668  0.3030 -0.1220
 2566SOL    HW119160   2.487   2.274   2.665 -0.5438  1.5623  0.6325
 2566SOL    HW219161   2.616   2.289   2.739  0.7686 -2.2427 -0.4210
 2567SOL     OW19162   1.894   2.048   5.295  0.0522  0.3968 -0.0912
 2567SOL    HW119163   1.941   1.995   5.360 -0.6959  1.0483  0.9855
 2567SOL    HW219164   1.828   1.989   5.259  1.1128  0.3290 -1.9415
 2568SOL     OW19165   3.792   4.644   6.705  0.1296  0.0349  0.0806
 2568SOL    HW119166   3.793   4.622   6.798 -1.0354 -0.5704 -0.0516
 2568SOL    HW219167   3.856   4.586   6.663 -1.5292 -2.5804  1.1956
 2569SOL     OW19168   2.989   2.861   0.534 -0.0011 -0.6628  0.1477
 2569SOL    HW119169   2.992   2.833   0.625 -1.8357 -2.2128 -0.2488
 2569SOL    HW219170   3.011   2.776   0.496 -1.1261 -1.1549  0.5763
 2570SOL     OW19171   1.478   0.346   7.010 -0.4263 -0.0087 -0.4562
 2570SOL    HW119172   1.433   0.396   6.942 -0.2352  1.4914  0.5133
 2570SOL    HW219173   1.452   0.258   6.982 -0.5477 -0.2336  0.3503
 2571SOL     OW19174   3.333   1.902   4.318 -0.1519  0.2861 -0.4214
 2571SOL    HW119175   3.297   1.817   4.291  0.9795 -0.1393 -0.6082
 2571SOL    HW219176   3.387   1.936   4.247 -2.2694  1.0642 -1.6570
 2572SOL     OW19177   1.170   3.761  10.352  0.4760 -0.2826 -0.1130
 2572SOL    HW119178   1.228   3.817  10.403  1.0354 -0.2289 -0.8088
 2572SOL    HW219179   1.092   3.749  10.405  1.1205  2.3129  1.4188
 2573SOL     OW19180   3.756   0.430   3.735 -0.1640  0.0680  0.0640
 2573SOL    HW119181   3.762   0.390   3.648  1.1872 -1.6626  0.9577
 2573SOL    HW219182   3.680   0.386   3.774  0.3798 -1.3748 -0.4998
 2574SOL     OW19183   0.624   2.945   7.497  0.5173 -0.5728  0.0493
 2574SOL    HW119184   0.700   2.895   7.528 -0.2715 -1.4087  0.6302
 2574SOL    HW219185   0.563   2.910   7.562 -0.6650  0.4028 -0.5330
 2575SOL     OW19186   4.704   4.620   7.093  0.2364  0.0914 -0.2568
 2575SOL    HW119187   4.653   4.548   7.130 -0.5805 -0.2968 -2.1158
 2575SOL    HW219188   4.703   4.611   6.998 -0.3442 -2.5743 -0.0027
 2576SOL     OW19189   2.445   1.400   9.263  0.0163  0.3107 -0.4863
 2576SOL    HW119190   2.397   1.347   9.328 -0.3320 -0.9819 -1.7972
 2576SOL    HW219191   2.516   1.340   9.241 -0.0001 -0.3838  1.2924
 2577SOL     OW19192   0.119   3.362   6.165 -0.3099  0.2346 -0.1127
 2577SOL    HW119193   0.077   3.439   6.126  0.9833 -0.2440 -2.4600
 2577SOL    HW219194   0.041   3.312   6.190 -0.0563 -0.0474  0.1133
 2578SOL     OW19195   1.063   2.462   9.699 -0.5107 -0.5894  0.5940
 2578SOL    HW119196   1.084   2.422   9.783  0.3614 -0.0784  0.6184
 2578SOL    HW219197   1.002   2.535   9.706 -0.6189 -0.3058 -3.0687
 2579SOL     OW19198   3.182   3.917   4.615 -0.8325  0.2062  0.0846
 2579SOL    HW119199   3.232   3.982   4.664  1.3819 -0.9623 -0.6260
 2579SOL    HW219200   3.208   3.846   4.674  0.7749  0.7804  0.0628
 2580SOL     OW19201   2.753   2.527   1.629  0.0532 -0.2916 -0.5630
 2580SOL    HW119202   2.769   2.487   1.543  0.8929  1.6257 -1.2949
 2580SOL    HW219203   2.661   2.505   1.648  0.1378 -0.0135  0.1525
 2581SOL     OW19204   3.317   0.097  10.669  0.3379  0.0215 -0.1882
 2581SOL    HW119205   3.400   0.138  10.694  0.5413 -0.0195 -0.7895
 2581SOL    HW219206   3.313   0.107  10.574 -1.3319  0.3872 -0.0837
 2582SOL     OW19207   2.052   3.959   7.375  0.1571  0.2648 -0.7835
 2582SOL    HW119208   2.042   4.054   7.368 -0.0023  0.3989  1.1225
 2582SOL    HW219209   2.013   3.927   7.294  1.5894 -1.8513 -0.6379
 2583SOL     OW19210   0.804   3.893   7.726  0.2138  0.7890 -0.5181
 2583SOL    HW119211   0.725   3.840   7.725  0.1940  0.8148 -0.3227
 2583SOL    HW219212   0.831   3.881   7.817  0.9246 -1.0539 -0.9863
 2584SOL     OW19213   4.204   2.540   7.709 -0.7859 -0.1850 -0.2058
 2584SOL    HW119214   4.147   2.552   7.633 -0.1440 -1.7929 -0.9538
 2584SOL    HW219215   4.281   2.499   7.671 -0.7344  0.5633 -0.9019
 2585SOL     OW19216   3.524   0.196   3.227 -0.0485  0.0424 -0.0247
 2585SOL    HW119217   3.451   0.165   3.173  0.3747 -1.2443  0.1322
 2585SOL    HW219218   3.593   0.136   3.199  0.2794  1.2892 -1.8739
 2586SOL     OW19219   3.549   2.631  17.444  0.7399 -0.3334 -0.4678
 2586SOL    HW119220   3.500   2.633  17.526  0.0605  0.0076 -0.8767
 2586SOL    HW219221   3.640   2.646  17.466  0.9105 -0.6682 -0.9445
 2587SOL     OW19222   0.621   3.032  12.051 -0.4007  0.6987  0.0621
 2587SOL    HW119223   0.578   2.989  11.977 -0.0697  0.1037  0.2189
 2587SOL    HW219224   0.651   2.964  12.111  0.3204  0.7700 -0.2075
 2588SOL     OW19225   1.034   2.580   7.728  0.7750  0.5619 -0.8082
 2588SOL    HW119226   1.081   2.548   7.804 -0.2824 -1.9342 -1.2038
 2588SOL    HW219227   1.018   2.502   7.675  1.7139  1.0156 -1.7571
 2589SOL     OW19228   2.355   0.350   4.491  0.4021 -0.0693  0.0784
 2589SOL    HW119229   2.358   0.330   4.398  1.0558  3.0937 -0.5849
 2589SOL    HW219230   2.337   0.444   4.483 -2.4571 -0.4268  2.2478
 2590SOL     OW19231   0.661   2.469   9.331  0.1336 -0.4063  0.0704
 2590SOL    HW119232   0.588   2.490   9.274 -0.3502  0.5970  1.0721
 2590SOL    HW219233   0.730   2.476   9.265  0.2978 -0.0211  0.2829
 2591SOL     OW19234   3.631   4.528   1.864 -0.4997  0.1643  0.1805
 2591SOL    HW119235   3.615   4.473   1.941 -1.2011 -0.5099 -0.4454
 2591SOL    HW219236   3.725   4.539   1.873 -0.0407 -3.4938 -0.3779
 2592SOL     OW19237   0.823   1.768   1.907  0.4346 -0.3051  0.4276
 2592SOL    HW119238   0.824   1.841   1.844 -0.7943 -0.5866  0.0935
 2592SOL    HW219239   0.860   1.694   1.858  1.5419  0.5178  0.0176
 2593SOL     OW19240   3.581   4.614   3.784  0.4419 -0.3462 -0.3549
 2593SOL    HW119241   3.574   4.589   3.692 -1.0453  2.1566 -0.9109
 2593SOL    HW219242   3.675   4.628   3.795 -0.2184  3.6742  0.1479
 2594SOL     OW19243   2.204   4.106   0.406 -0.0486  0.2775  0.3674
 2594SOL    HW119244   2.291   4.068   0.394 -0.5760 -1.4379  2.0360
 2594SOL    HW219245   2.180   4.061   0.487  0.2767  0.2556  0.4501
 2595SOL     OW19246   4.649   3.815  15.504  0.4778 -0.3998 -0.4347
 2595SOL    HW119247   4.723   3.777  15.551  0.7834  0.0528 -0.5502
 2595SOL    HW219248   4.694   3.841  15.424 -1.7590 -3.1196 -2.5685
 2596SOL     OW19249   1.566   0.321  10.489 -0.0667 -0.7153  0.0572
 2596SOL    HW119250   1.582   0.260  10.561  0.3211 -0.2447  0.3701
 2596SOL    HW219251   1.529   0.257  10.429 -0.5254  1.4088 -1.9444
 2597SOL     OW19252   1.750   1.122   6.190  0.7890 -0.0436 -0.4969
 2597SOL    HW119253   1.735   1.059   6.260  1.9007  0.5107  0.2446
 2597SOL    HW219254   1.658   1.130   6.167  0.1195  1.0334  2.4160
 2598SOL     OW19255   1.926   3.489  14.046 -0.8481  0.0242 -0.1385
 2598SOL    HW119256   1.864   3.562  14.049  0.1589  0.8626  0.1720
 2598SOL    HW219257   1.920   3.443  13.962 -1.3268 -0.9782  0.4454
 2599SOL     OW19258   0.567   1.683   5.118  0.1355  0.0664 -0.4280
 2599SOL    HW119259   0.525   1.622   5.179  1.2038  0.0539  0.3018
 2599SOL    HW219260   0.489   1.714   5.072 -1.7878 -3.1451  0.6332
 2600SOL     OW19261   1.022   1.211  14.747 -0.5346 -0.1712  0.4420
 2600SOL    HW119262   1.046   1.287  14.800 -1.2556  0.6007 -0.3331
 2600SOL    HW219263   1.085   1.222  14.676  0.5624  1.0952  1.6064
 2601SOL     OW19264   0.980   2.562   5.013  0.1417  0.3017 -0.5611
 2601SOL    HW119265   0.902   2.616   5.018 -0.2636 -0.4349  1.3680
 2601SOL    HW219266   0.950   2.473   4.996 -1.6398  0.7117  0.4293
 2602SOL     OW19267   1.633   0.015   6.975  0.0400  0.0245 -0.3762
 2602SOL    HW119268   1.541   0.031   6.953  0.1722  0.3380 -0.7175
 2602SOL    HW219269   1.639   4.643   6.971  1.2367 -0.0027  2.6006
 2603SOL     OW19270   2.514   3.753   2.004  1.0123  0.7365 -0.5569
 2603SOL    HW119271   2.504   3.730   2.096 -0.4790  1.5172 -0.5168
 2603SOL    HW219272   2.472   3.839   1.999 -0.9127  0.0296  2.9394
 2604SOL     OW19273   4.639   1.428   2.446 -0.1103 -0.2803 -0.0002
 2604SOL    HW119274   4.567   1.379   2.407 -0.5593 -0.0726  0.5688
 2604SOL    HW219275   4.593   1.511   2.459 -0.6714 -0.9489  2.2478
 2605SOL     OW19276   1.845   3.007   1.762  0.6145  0.1425  0.3091
 2605SOL    HW119277   1.872   2.920   1.790  1.5221  0.7881  1.4373
 2605SOL    HW219278   1.915   3.064   1.793 -1.0335  0.6596  3.0977
 2606SOL     OW19279   1.324   2.531   2.806 -0.1382 -0.1037  0.7014
 2606SOL    HW119280   1.366   2.517   2.891  0.6318 -0.5939  0.2419
 2606SOL    HW219281   1.245   2.477   2.809 -1.8440  2.4430  1.7000
 2607SOL     OW19282   4.277   0.787   2.892 -0.3487 -0.4940 -0.8209
 2607SOL    HW119283   4.314   0.781   2.804  0.4428  0.2865 -0.5383
 2607SOL    HW219284   4.188   0.753   2.882  0.1579 -1.7716 -1.1116
 2608SOL     OW19285   0.008   1.850   4.148  0.3437  0.4922  0.3139
 2608SOL    HW119286   0.033   1.935   4.183 -0.2342  0.8781 -0.2164
 2608SOL    HW219287   4.657   1.866   4.089  1.3321  0.8559 -0.8101
 2609SOL     OW19288   3.434   3.426  14.060  1.1226  1.0239 -0.5679
 2609SOL    HW119289   3.374   3.390  14.126 -1.1464  0.5952 -2.8707
 2609SOL    HW219290   3.365   3.457  14.002  0.6181 -0.7323 -0.9205
 2610SOL     OW19291   1.537   3.916  11.725  0.0823 -0.5519 -0.2363
 2610SOL    HW119292   1.537   3.822  11.708  0.8656 -0.6672  0.3909
 2610SOL    HW219293   1.585   3.923  11.808  0.7815  0.1067 -0.6975
 2611SOL     OW19294   1.840   2.092   4.323  0.0405  0.0816  0.1302
 2611SOL    HW119295   1.750   2.083   4.292  0.0439  1.3694 -0.2626
 2611SOL    HW219296   1.851   2.174   4.276 -0.0535  0.1706  0.2622
 2612SOL     OW19297   0.851   3.841  16.523 -0.4822  0.0518  0.0711
 2612SOL    HW119298   0.910   3.825  16.449 -1.4994 -1.8441 -0.3132
 2612SOL    HW219299   0.897   3.920  16.552 -0.6253  0.5212 -1.0010
 2613SOL     OW19300   2.529   3.357   3.714 -0.3079 -0.5555  0.0521
 2613SOL    HW119301   2.500   3.282   3.662  0.1970 -0.0684 -0.9251
 2613SOL    HW219302   2.559   3.416   3.644 -3.8210  0.5025 -0.5833
 2614SOL     OW19303   0.735   2.448   3.529 -0.1967 -0.8105 -0.1831
 2614SOL    HW119304   0.764   2.415   3.614  2.3697  2.0390  0.0624
 2614SOL    HW219305   0.667   2.513   3.546 -0.4880 -1.1947  0.1054
 2615SOL     OW19306   3.473   2.711  14.319  0.1859  0.6999  0.1807
 2615SOL    HW119307   3.462   2.620  14.345  1.9594  0.0543 -1.3552
 2615SOL    HW219308   3.396   2.723  14.263  2.0258  1.4406 -2.1745
 2616SOL     OW19309   2.059   3.073   8.185 -0.3223  0.0463 -0.2694
 2616SOL    HW119310   2.050   2.994   8.238  0.3461  0.7656  0.9100
 2616SOL    HW219311   2.115   3.125   8.243  0.0783 -0.7239  0.0340
 2617SOL     OW19312   1.972   0.558   8.695  0.3505  0.2947  0.4023
 2617SOL    HW119313   1.919   0.637   8.683  0.1052 -0.2178 -1.9707
 2617SOL    HW219314   1.917   0.504   8.637  2.6122  0.2352 -1.6650
 2618SOL     OW19315   2.190   2.829   2.778  0.2076  0.7864 -0.1616
 2618SOL    HW119316   2.150   2.779   2.849 -0.8246  2.4574  0.4435
 2618SOL    HW219317   2.244   2.768   2.728 -1.8061 -1.2785  0.1748
 2619SOL     OW19318   0.249   4.207   8.666 -0.4139  0.2675 -0.2828
 2619SOL    HW119319   0.303   4.229   8.742  0.6815  0.6392 -1.1681
 2619SOL    HW219320   0.306   4.198   8.590 -1.0436 -2.3376 -0.4439
 2620SOL     OW19321   0.150   4.412  13.427 -0.5678 -0.4658 -0.2355
 2620SOL    HW119322   0.117   4.339  13.480 -2.3888 -0.2057 -1.0318
 2620SOL    HW219323   0.079   4.467  13.459  0.2711  0.3739  0.1923
 2621SOL     OW19324   2.750   3.612   5.391 -0.6000  0.8302 -0.3748
 2621SOL    HW119325   2.699   3.628   5.470  1.6088  3.1495  0.5667
 2621SOL    HW219326   2.757   3.698   5.350 -2.4576  0.6074 -1.1761
 2622SOL     OW19327   3.562   3.901  16.906 -0.6897 -0.1075  0.3331
 2622SOL    HW119328   3.557   3.934  16.816 -2.5947 -0.4714  0.3190
 2622SOL    HW219329   3.586   3.983  16.950 -2.6422  0.5004  0.2434
 2623SOL     OW19330   1.999   2.683   2.908 -0.1874 -0.4818  0.3744
 2623SOL    HW119331   1.929   2.681   2.972 -0.1242  1.8411  0.5365
 2623SOL    HW219332   1.952   2.643   2.836 -0.2140  2.7819 -1.4452
 2624SOL     OW19333   2.392   3.473  14.349 -0.3897  0.0873 -0.4712
 2624SOL    HW119334   2.337   3.529  14.404 -1.6798 -0.3345 -1.3269
 2624SOL    HW219335   2.351   3.477  14.263 -0.5866  4.0996 -0.2194
 2625SOL     OW19336   0.696   3.103  14.838  0.2835  0.4533 -0.5087
 2625SOL    HW119337   0.720   3.056  14.759  1.9422 -0.7933  0.7419
 2625SOL    HW219338   0.604   3.121  14.816 -0.3720 -0.7117  1.2576
 2626SOL     OW19339   2.930   2.101   2.336  0.2922 -0.6299  0.3098
 2626SOL    HW119340   2.938   2.160   2.411 -0.2282  1.2403 -1.1343
 2626SOL    HW219341   2.975   2.149   2.267  0.9838  0.6138  1.6376
 2627SOL     OW19342   2.877   3.161   2.992 -0.5284 -0.1092 -0.0462
 2627SOL    HW119343   2.964   3.127   2.969  0.9503  1.9717  2.4423
 2627SOL    HW219344   2.877   3.132   3.083  1.5469 -0.7413 -0.2423
 2628SOL     OW19345   2.781   3.746  15.014  0.0052  0.1113  0.0988
 2628SOL    HW119346   2.770   3.653  15.037 -0.5867  0.5442  1.5677
 2628SOL    HW219347   2.855   3.732  14.955 -0.8294  3.0765 -1.6325
 2629SOL     OW19348   3.258   2.042   8.698 -0.3249  0.6383 -0.2393
 2629SOL    HW119349   3.187   2.069   8.640 -0.8833  0.7719  0.5049
 2629SOL    HW219350   3.315   2.119   8.701  1.6943 -0.8031 -1.7969
 2630SOL     OW19351   4.415   2.737  10.019 -0.0617 -0.0066  0.2429
 2630SOL    HW119352   4.432   2.787  10.098  1.3289 -0.7465  0.4200
 2630SOL    HW219353   4.477   2.664  10.014  1.0951  1.0366 -0.6682
 2631SOL     OW19354   1.044   4.613  16.869  0.0466  0.2268  0.3251
 2631SOL    HW119355   1.006   4.525  16.860 -0.1821  0.1901  1.6227
 2631SOL    HW219356   0.964   4.663  16.882 -0.1284  0.4226 -1.4409
 2632SOL     OW19357   1.310   2.446   9.474  0.1177  0.0913  0.1739
 2632SOL    HW119358   1.354   2.414   9.553  1.4077 -0.7227 -0.8746
 2632SOL    HW219359   1.223   2.445   9.513  0.2093  0.1161  0.3826
 2633SOL     OW19360   4.505   1.281   3.015  0.0818  0.2014 -0.0649
 2633SOL    HW119361   4.420   1.281   2.971 -0.5660 -4.4087  1.1669
 2633SOL    HW219362   4.479   1.344   3.082 -0.8124 -1.0270  0.7627
 2634SOL     OW19363   2.476   0.274   5.615  0.7009 -0.2608  0.7539
 2634SOL    HW119364   2.386   0.245   5.599  0.7440 -0.1739  0.3376
 2634SOL    HW219365   2.515   0.198   5.659  2.2382  0.2386  0.2689
 2635SOL     OW19366   2.065   0.436   4.757 -0.1786 -0.2374 -0.5074
 2635SOL    HW119367   2.136   0.498   4.745 -1.7336  1.6613  0.1481
 2635SOL    HW219368   2.034   0.460   4.844 -0.0263  0.6047 -0.6864
 2636SOL     OW19369   2.303   2.001   4.452  0.7474  0.0333 -0.1932
 2636SOL    HW119370   2.213   2.007   4.486  0.6042 -2.8185 -0.1194
 2636SOL    HW219371   2.351   2.001   4.535 -0.1986 -0.3611  0.3576
 2637SOL     OW19372   2.028   2.115   3.552 -0.1331  0.4238  0.6259
 2637SOL    HW119373   2.017   2.168   3.472  0.4849  0.3521  0.4978
 2637SOL    HW219374   1.984   2.040   3.513  1.9391  0.1241 -1.1309
 2638SOL     OW19375   3.685   0.955   7.936  0.1079 -0.4385 -0.5619
 2638SOL    HW119376   3.650   0.974   7.849  0.9950  0.8231 -0.6533
 2638SOL    HW219377   3.744   1.031   7.934 -1.0408  0.4633  0.0178
 2639SOL     OW19378   3.102   3.509  15.772  0.4611 -0.1837 -0.0101
 2639SOL    HW119379   3.050   3.582  15.739 -1.1657 -0.5140  1.8183
 2639SOL    HW219380   3.155   3.502  15.692 -2.2439 -2.2274 -1.6070
 2640SOL     OW19381   4.631   0.256   2.426 -0.4059  0.2070 -0.4487
 2640SOL    HW119382   4.555   0.309   2.401 -0.3916  0.7070  0.5687
 2640SOL    HW219383   4.707   0.306   2.398  1.5460 -2.6267 -0.2469
 2641SOL     OW19384   3.361   0.297  11.803  0.1028  0.3608  0.3275
 2641SOL    HW119385   3.418   0.220  11.807  1.6091  1.3513 -1.8715
 2641SOL    HW219386   3.411   0.354  11.743  0.3619  0.3595  0.5445
 2642SOL     OW19387   2.006   0.337  10.095  0.1169 -0.0700 -0.2326
 2642SOL    HW119388   2.033   0.294  10.014  0.9331  1.9471 -1.0210
 2642SOL    HW219389   2.087   0.337  10.145  0.0018  1.6299 -0.0382
 2643SOL     OW19390   0.821   1.049   2.265  0.0625 -0.2944 -0.6186
 2643SOL    HW119391   0.786   1.080   2.348  2.2136 -2.1748  0.9694
 2643SOL    HW219392   0.766   1.096   2.201 -2.0612 -0.8562  0.7918
 2644SOL     OW19393   4.269   1.450   1.938 -0.6277 -0.3721  0.1052
 2644SOL    HW119394   4.225   1.532   1.958 -0.2709  0.3447 -2.1100
 2644SOL    HW219395   4.301   1.476   1.852  1.9774  0.0921  1.2143
 2645SOL     OW19396   2.987   2.856  16.255 -0.0098  0.0316  0.5326
 2645SOL    HW119397   3.050   2.784  16.246  2.0538  1.7909  0.7248
 2645SOL    HW219398   3.014   2.919  16.188  1.3054  1.7327  2.6428
 2646SOL     OW19399   4.671   4.081   9.285  0.4119 -0.0139  0.4327
 2646SOL    HW119400   4.642   4.128   9.363  0.7888 -2.3796  2.0059
 2646SOL    HW219401   4.625   4.130   9.217 -0.6387  0.6640  1.6533
 2647SOL     OW19402   0.724   2.853  14.298  0.2380  0.9194 -0.0802
 2647SOL    HW119403   0.644   2.903  14.318  0.4894  1.7463 -1.1429
 2647SOL    HW219404   0.766   2.927  14.255  3.8534  0.2026  2.2074
 2648SOL     OW19405   0.588   4.272  10.592  0.2115 -0.0088  0.1848
 2648SOL    HW119406   0.570   4.364  10.573 -1.9906 -0.7747 -1.4050
 2648SOL    HW219407   0.641   4.241  10.519  0.0256 -1.1313  0.5212
 2649SOL     OW19408   0.432   3.378   8.290  0.3905 -0.2329  0.1118
 2649SOL    HW119409   0.467   3.467   8.293 -2.4967  0.9940 -2.6938
 2649SOL    HW219410   0.337   3.389   8.290  0.4000 -0.1252  2.5341
 2650SOL     OW19411   0.168   4.375   3.222 -0.1278 -0.0710 -0.0421
 2650SOL    HW119412   0.240   4.312   3.229 -1.8770 -1.8936  1.3048
 2650SOL    HW219413   0.207   4.447   3.172  1.0776 -0.6186  0.0963
 2651SOL     OW19414   1.065   0.442   4.140  0.4553  0.4672  0.3416
 2651SOL    HW119415   1.123   0.378   4.182 -1.7431 -1.3198  0.6313
 2651SOL    HW219416   1.010   0.469   4.214 -0.1933 -2.4447  0.9384
 2652SOL     OW19417   1.276   3.994   7.566  0.0521  0.1472  0.1176
 2652SOL    HW119418   1.192   3.954   7.588  0.7664 -0.3694  1.9713
 2652SOL    HW219419   1.266   4.070   7.624  1.1588  0.7885 -0.5364
 2653SOL     OW19420   4.025   0.171   8.710  0.5443  0.3347  0.1081
 2653SOL    HW119421   3.932   0.167   8.687  0.4141 -0.4989  0.7779
 2653SOL    HW219422   4.056   0.088   8.675 -0.1977 -0.3289  1.0305
 2654SOL     OW19423   1.966   2.433   6.441 -0.1636 -0.2662 -0.3839
 2654SOL    HW119424   2.061   2.444   6.444  0.0771 -2.1807 -1.0232
 2654SOL    HW219425   1.967   2.338   6.454 -0.4425 -0.0590  1.1230
 2655SOL     OW19426   2.422   3.633   6.962  0.0377  0.2095 -0.1946
 2655SOL    HW119427   2.399   3.565   7.026  1.2690 -0.6097 -0.6204
 2655SOL    HW219428   2.499   3.682   6.989  1.2874 -1.3646 -0.8933
 2656SOL     OW19429   1.882   2.017   5.693  0.2101  0.0577 -0.5538
 2656SOL    HW119430   1.857   1.963   5.617 -0.3213  1.6671 -1.5243
 2656SOL    HW219431   1.865   2.103   5.654 -0.5027  0.1695 -0.0034
 2657SOL     OW19432   4.467   3.459   2.584  0.0823 -0.1325 -0.8053
 2657SOL    HW119433   4.406   3.428   2.651 -0.1759 -0.6992 -1.2981
 2657SOL    HW219434   4.457   3.406   2.504 -0.5916  0.9324 -1.4282
 2658SOL     OW19435   2.487   3.123   2.836  0.4465 -0.7299  0.5434
 2658SOL    HW119436   2.429   3.102   2.763  0.4280  1.2690 -0.0365
 2658SOL    HW219437   2.572   3.092   2.807  0.3744 -0.8751  0.4875
 2659SOL     OW19438   4.485   1.087   7.170 -0.6481  0.1974 -0.3585
 2659SOL    HW119439   4.490   1.079   7.075 -1.7762 -4.2657 -0.0461
 2659SOL    HW219440   4.525   1.170   7.197 -1.3933  0.6250 -0.5987
 2660SOL     OW19441   0.624   2.198   5.861 -0.2057 -0.7594 -0.1000
 2660SOL    HW119442   0.553   2.143   5.827 -1.8155  0.3931  1.4142
 2660SOL    HW219443   0.577   2.261   5.916  1.6928 -0.4246  1.1255
 2661SOL     OW19444   4.421   3.952  13.087 -0.1644 -0.0517 -0.7951
 2661SOL    HW119445   4.350   4.009  13.057  1.8325  1.1510 -3.2153
 2661SOL    HW219446   4.407   3.863  13.055  1.4275  0.6356 -3.4025
 2662SOL     OW19447   1.615   0.981   7.844 -0.3515  0.2179 -0.1724
 2662SOL    HW119448   1.655   0.956   7.762  0.3586 -2.1949  0.9247
 2662SOL    HW219449   1.691   0.985   7.903  0.8406 -1.4435 -1.6118
 2663SOL     OW19450   4.390   0.649   9.342  0.2804 -0.3169  0.1060
 2663SOL    HW119451   4.423   0.585   9.405 -1.4937  0.7969  2.1346
 2663SOL    HW219452   4.356   0.720   9.396 -0.4021 -1.0831  0.6941
 2664SOL     OW19453   2.667   2.327   2.892  0.0155  0.2624 -0.3569
 2664SOL    HW119454   2.732   2.278   2.942 -0.8770 -0.0517  0.4942
 2664SOL    HW219455   2.649   2.390   2.962  1.8556  1.3646 -0.8916
 2665SOL     OW19456   1.466   3.271  10.331 -0.3045  0.3749  0.0578
 2665SOL    HW119457   1.403   3.333  10.293 -0.8236 -0.4306 -0.4036
 2665SOL    HW219458   1.456   3.183  10.295  1.3282 -0.4166  1.5711
 2666SOL     OW19459   3.244   1.761  10.461  0.0262 -0.3476  0.4342
 2666SOL    HW119460   3.202   1.837  10.500  1.5048  1.8957 -2.3460
 2666SOL    HW219461   3.305   1.818  10.414  0.6792 -2.2721 -1.0668
 2667SOL     OW19462   3.782   1.064   8.666 -0.4434  0.5248 -0.2603
 2667SOL    HW119463   3.744   1.025   8.587 -3.7759  1.0337  1.1190
 2667SOL    HW219464   3.748   1.153   8.657 -1.0271  0.4522  1.3079
 2668SOL     OW19465   0.805   2.138   9.474  0.3248  0.2095  0.6222
 2668SOL    HW119466   0.739   2.148   9.542 -2.1621 -1.0760 -1.5914
 2668SOL    HW219467   0.888   2.149   9.519  0.7763  1.9056 -0.6152
 2669SOL     OW19468   0.584   2.412   2.899  0.0730  0.2211 -0.4349
 2669SOL    HW119469   0.613   2.322   2.917  0.6649  0.2963 -1.0334
 2669SOL    HW219470   0.507   2.384   2.850 -0.1152  1.0034 -0.5804
 2670SOL     OW19471   2.015   1.474   6.332  0.4492 -0.5455 -0.3357
 2670SOL    HW119472   1.945   1.532   6.302 -0.1221 -1.8696 -1.5875
 2670SOL    HW219473   2.082   1.530   6.372  0.4900  0.1465 -1.3724
 2671SOL     OW19474   3.318   0.229   9.029  0.2478 -0.5449 -0.0020
 2671SOL    HW119475   3.316   0.159   8.964 -2.5113  0.7231 -1.2799
 2671SOL    HW219476   3.372   0.177   9.089  1.9259 -0.7999 -1.7165
 2672SOL     OW19477   3.921   3.573   9.979 -0.0254 -0.2762  0.4120
 2672SOL    HW119478   3.930   3.497   9.921  0.7078  0.3305 -0.2770
 2672SOL    HW219479   3.826   3.572   9.981 -0.0138 -2.1852 -0.1237
 2673SOL     OW19480   1.677   2.314  14.240 -0.1633  0.0004 -0.4637
 2673SOL    HW119481   1.767   2.287  14.261  0.0905  0.4585 -0.9627
 2673SOL    HW219482   1.632   2.333  14.322  0.3388 -2.0793  0.2851
 2674SOL     OW19483   4.077   4.721  13.419 -0.1222  0.4433  1.4162
 2674SOL    HW119484   4.041   0.021  13.504 -1.2325  0.1044  1.0346
 2674SOL    HW219485   4.081   4.626  13.421 -1.2282  0.3713  0.5566
 2675SOL     OW19486   0.702   3.547   7.197  0.2640  0.1158  0.4721
 2675SOL    HW119487   0.672   3.630   7.160 -0.0351 -1.1100 -2.0264
 2675SOL    HW219488   0.718   3.570   7.289 -0.9127 -1.2048  1.0151
 2676SOL     OW19489   0.152   4.239  16.106 -0.3252 -0.1748  0.7812
 2676SOL    HW119490   0.131   4.280  16.022  0.2459  0.0364  0.7394
 2676SOL    HW219491   0.136   4.309  16.170 -1.8539 -1.2337  1.5432
 2677SOL     OW19492   2.178   3.540   2.612  0.0917 -0.4492  0.0539
 2677SOL    HW119493   2.240   3.586   2.668 -0.8677  4.4475 -2.8312
 2677SOL    HW219494   2.225   3.545   2.529 -0.2571 -1.3344 -0.1996
 2678SOL     OW19495   0.686   1.403   8.965  0.0950  0.1408  0.0775
 2678SOL    HW119496   0.612   1.356   9.004 -1.5371  0.5476 -2.5181
 2678SOL    HW219497   0.741   1.425   9.041 -1.0246 -3.8418  2.0304
 2679SOL     OW19498   0.302   1.173   3.256  0.0754 -0.4828 -0.0670
 2679SOL    HW119499   0.358   1.242   3.292 -0.1535 -0.0691 -0.5023
 2679SOL    HW219500   0.291   1.128   3.339 -2.3234  2.4120  1.2065
 2680SOL     OW19501   1.174   3.712   5.848 -0.0267  0.1822 -0.5261
 2680SOL    HW119502   1.177   3.794   5.797 -0.8319  0.6606  0.2056
 2680SOL    HW219503   1.240   3.738   5.913  0.9817 -1.0725 -1.0418
 2681SOL     OW19504   0.356   4.442   1.983 -0.2050 -0.0343  0.2779
 2681SOL    HW119505   0.397   4.527   1.966  0.4414 -0.2243  0.8922
 2681SOL    HW219506   0.367   4.439   2.078 -0.9018  0.8711  0.3846
 2682SOL     OW19507   0.471   0.022   2.113 -0.1973 -0.2129  0.1288
 2682SOL    HW119508   0.565   0.024   2.094 -0.1806 -0.5244  0.1816
 2682SOL    HW219509   0.450   0.115   2.105  2.8146  0.4975  0.5061
 2683SOL     OW19510   3.050   2.234   8.538  0.1718 -0.0230  0.1309
 2683SOL    HW119511   2.971   2.200   8.581 -1.5557  2.4060 -1.1366
 2683SOL    HW219512   3.080   2.171   8.473  0.7506 -1.3930  1.7314
 2684SOL     OW19513   1.918   0.727   3.130 -0.5383 -0.4440 -0.5607
 2684SOL    HW119514   1.844   0.784   3.151  0.7996  1.0107  0.2605
 2684SOL    HW219515   1.891   0.639   3.155  2.0644 -1.1844 -0.3269
 2685SOL     OW19516   2.944   2.647   3.752 -0.1261 -0.4948  0.5655
 2685SOL    HW119517   3.022   2.592   3.746  1.2445  1.3776  1.0283
 2685SOL    HW219518   2.880   2.595   3.800 -0.9496  0.5341  0.5782
 2686SOL     OW19519   0.121   1.377   3.283 -0.6189 -0.2031  0.1690
 2686SOL    HW119520   0.113   1.404   3.192 -0.6235 -0.0516  0.2143
 2686SOL    HW219521   0.193   1.314   3.282 -1.5268 -1.2384 -0.3351
 2687SOL     OW19522   4.456   2.599   2.292  0.0783 -0.0557  0.4534
 2687SOL    HW119523   4.442   2.585   2.198 -1.3433  1.5557  0.4207
 2687SOL    HW219524   4.504   2.519   2.312  0.8100  0.0269 -1.0191
 2688SOL     OW19525   3.697   3.750  12.375 -0.6439 -0.1183  0.1697
 2688SOL    HW119526   3.703   3.659  12.403 -2.4864  0.1837  1.5733
 2688SOL    HW219527   3.789   3.774  12.376  0.4649 -4.2150 -2.4907
 2689SOL     OW19528   3.105   4.606  12.083 -0.1501  0.0043  0.0787
 2689SOL    HW119529   3.138   4.693  12.061  0.9774 -0.4730 -0.0867
 2689SOL    HW219530   3.145   4.555  12.013 -2.6755 -0.4553 -1.0227
 2690SOL     OW19531   0.502   2.469   8.038 -0.4383 -0.1035 -0.8196
 2690SOL    HW119532   0.573   2.524   8.073 -0.1717 -2.1495  1.7456
 2690SOL    HW219533   0.424   2.520   8.059  1.5736  2.8230 -0.3641
 2691SOL     OW19534   1.926   3.148   3.810 -0.2536 -0.7966  0.3068
 2691SOL    HW119535   1.978   3.179   3.736 -0.2617 -0.4690  0.4411
 2691SOL    HW219536   1.836   3.134   3.777 -0.0511  0.8474 -0.9395
 2692SOL     OW19537   2.182   3.457   3.882 -0.0632 -0.3066 -0.1389
 2692SOL    HW119538   2.168   3.414   3.797  2.4941 -1.3696 -0.0062
 2692SOL    HW219539   2.089   3.475   3.898  0.3263  2.7499 -1.3672
 2693SOL     OW19540   2.559   2.850   0.723  0.1369 -0.6192  0.3593
 2693SOL    HW119541   2.521   2.935   0.743  1.9080  0.3587 -0.3624
 2693SOL    HW219542   2.645   2.875   0.689  0.9793 -0.2381  2.8098
 2694SOL     OW19543   0.893   1.905   9.145  0.2419  0.3122 -0.7900
 2694SOL    HW119544   0.968   1.861   9.185 -0.1565  2.0056  1.8485
 2694SOL    HW219545   0.860   1.841   9.082  3.4765 -0.0540 -2.1159
 2695SOL     OW19546   2.966   0.660  12.834  0.1882 -0.4618  0.5461
 2695SOL    HW119547   2.879   0.625  12.850 -0.2297  0.1070 -0.4306
 2695SOL    HW219548   2.994   0.665  12.925 -1.0453 -0.8746  0.9330
 2696SOL     OW19549   0.824   4.097  17.010  0.3217  0.3633 -0.0887
 2696SOL    HW119550   0.822   4.149  16.930 -1.5286  0.8739  0.2795
 2696SOL    HW219551   0.906   4.132  17.045  0.2434  0.1323  0.3309
 2697SOL     OW19552   3.133   3.163   2.650 -0.1384 -0.5582  0.6110
 2697SOL    HW119553   3.180   3.133   2.572  0.2666  1.3539  0.1202
 2697SOL    HW219554   3.179   3.106   2.711  0.2554  0.5931  1.4030
 2698SOL     OW19555   1.497   0.069   9.015 -0.0009 -0.1394  0.0619
 2698SOL    HW119556   1.474   0.155   9.052  2.3966  0.1940  0.7860
 2698SOL    HW219557   1.426   0.067   8.951 -1.4047  0.9441  1.5664
 2699SOL     OW19558   2.107   0.896   6.736 -0.6030 -0.0749  0.2570
 2699SOL    HW119559   2.114   0.840   6.659  1.7839  1.3125 -0.5606
 2699SOL    HW219560   2.118   0.987   6.707 -2.0191  0.0594  0.1705
 2700SOL     OW19561   1.296   1.998  10.362  0.3683  0.8552 -0.5030
 2700SOL    HW119562   1.250   2.075  10.394 -1.5205 -0.5328  0.0874
 2700SOL    HW219563   1.249   1.989  10.279 -0.6699  1.3743  0.0315
 2701SOL     OW19564   2.038   3.718   5.519  0.2422 -0.2605  0.3349
 2701SOL    HW119565   2.074   3.729   5.607  2.7661 -1.2893 -0.5659
 2701SOL    HW219566   1.959   3.669   5.543  0.7590 -1.4207 -0.3487
 2702SOL     OW19567   2.275   4.334  15.861  0.7083  0.3241  0.8474
 2702SOL    HW119568   2.186   4.363  15.877  0.5014  0.7877 -1.1200
 2702SOL    HW219569   2.281   4.267  15.930 -0.3050 -1.0214 -0.3689
 2703SOL     OW19570   1.068   2.406   9.944  0.0962  0.1450 -0.7554
 2703SOL    HW119571   1.143   2.435   9.997 -0.5335 -1.0491  0.7733
 2703SOL    HW219572   1.015   2.342   9.991 -0.7046  1.0543 -0.4102
 2704SOL     OW19573   2.413   2.139  17.076 -0.1583  0.3058  0.6854
 2704SOL    HW119574   2.363   2.070  17.034  1.2816  0.2015 -0.8214
 2704SOL    HW219575   2.348   2.142  17.147 -0.7509  2.3948  0.0875
 2705SOL     OW19576   3.425   0.177   7.897  0.0620  0.0259 -0.0148
 2705SOL    HW119577   3.448   0.091   7.932 -0.1572 -0.2583 -0.5816
 2705SOL    HW219578   3.333   0.170   7.923 -0.2025  0.2756 -0.8993
 2706SOL     OW19579   4.648   0.043  10.310 -0.5707  0.1853 -0.2628
 2706SOL    HW119580   4.559   0.060  10.339 -0.3835  2.3427 -0.9153
 2706SOL    HW219581   4.691   0.009  10.388  0.8695  0.3408 -0.9796
 2707SOL     OW19582   3.842   4.330   5.611 -0.5345  0.4481  0.0935
 2707SOL    HW119583   3.893   4.319   5.530 -3.7175  0.1703 -1.8986
 2707SOL    HW219584   3.866   4.413   5.650 -0.5974 -1.1230  3.4427
 2708SOL     OW19585   1.493   3.310   2.900  0.0605 -0.2362  0.3777
 2708SOL    HW119586   1.412   3.353   2.925  0.2746 -2.0381  4.2965
 2708SOL    HW219587   1.553   3.385   2.897 -0.4497  0.1376 -0.4034
 2709SOL     OW19588   3.758   4.388   0.163 -0.2846 -0.1845 -0.4130
 2709SOL    HW119589   3.691   4.450   0.192  0.9472  2.1010 -2.4706
 2709SOL    HW219590   3.787   4.406   0.074  1.1401 -0.2094  0.0549
 2710SOL     OW19591   4.231   1.389   4.310 -0.5735 -0.0322  0.0344
 2710SOL    HW119592   4.231   1.326   4.382 -1.9205 -1.4043 -1.1628
 2710SOL    HW219593   4.140   1.419   4.312  0.3068  2.4178  2.6366
 2711SOL     OW19594   2.514   1.167  15.582  0.2864  0.2761 -0.2516
 2711SOL    HW119595   2.546   1.145  15.670  0.8062  1.5892 -0.1202
 2711SOL    HW219596   2.419   1.163  15.580  0.2793  0.0914  0.6137
 2712SOL     OW19597   1.270   3.767   3.912  0.0112 -0.8333  0.1012
 2712SOL    HW119598   1.286   3.830   3.983 -1.1208  3.4285 -3.4480
 2712SOL    HW219599   1.332   3.791   3.845 -0.4277  1.6579  0.6004
 2713SOL     OW19600   3.286   1.808  11.850 -0.0384 -0.2734 -0.1094
 2713SOL    HW119601   3.381   1.804  11.839 -0.1329 -0.9898 -0.6731
 2713SOL    HW219602   3.280   1.736  11.913  1.0459  1.2570  1.7230
 2714SOL     OW19603   0.913   1.192   7.610 -0.5394  0.2140 -0.1109
 2714SOL    HW119604   0.989   1.134   7.606 -0.2375  0.4611  2.0648
 2714SOL    HW219605   0.934   1.261   7.672 -0.3872 -0.5843  0.7310
 2715SOL     OW19606   3.373   1.061  15.582  0.0063  0.3764  0.5991
 2715SOL    HW119607   3.435   1.134  15.587 -0.5128  0.8900 -0.5298
 2715SOL    HW219608   3.295   1.097  15.538  0.8847  0.4688 -0.8721
 2716SOL     OW19609   4.426   0.258   8.848  0.2443 -0.5172  0.0367
 2716SOL    HW119610   4.405   0.173   8.809 -0.4335 -0.4186  0.1857
 2716SOL    HW219611   4.351   0.309   8.816  0.8470  0.7314  0.5869
 2717SOL     OW19612   1.317   1.520   9.517 -0.0677 -0.0208 -0.3817
 2717SOL    HW119613   1.309   1.523   9.613 -0.8420  1.3510 -0.4853
 2717SOL    HW219614   1.384   1.585   9.495 -1.8553  1.3172 -1.8572
 2718SOL     OW19615   4.472   2.352   4.827  0.2466 -0.4092  0.2520
 2718SOL    HW119616   4.382   2.328   4.847  0.6965  0.4288  3.2006
 2718SOL    HW219617   4.490   2.405   4.904  1.6194 -0.0441 -0.3235
 2719SOL     OW19618   4.056   3.469   2.952 -0.4085  0.1392  0.5306
 2719SOL    HW119619   4.088   3.436   2.868  0.4770  0.7678  0.6256
 2719SOL    HW219620   4.122   3.427   3.008  0.2815  0.5070 -0.0149
 2720SOL     OW19621   0.576   0.416   6.574  0.1590 -0.2396 -0.1622
 2720SOL    HW119622   0.656   0.468   6.572 -0.9988  1.4347 -2.5137
 2720SOL    HW219623   0.615   0.335   6.607 -0.0192 -0.5482 -0.7235
 2721SOL     OW19624   4.280   3.124  10.867 -0.2740  0.7597  0.4104
 2721SOL    HW119625   4.214   3.079  10.815  1.2200  0.9442 -1.6508
 2721SOL    HW219626   4.251   3.119  10.958  2.9030  0.0200  1.3979
 2722SOL     OW19627   1.060   2.884   3.430 -0.1827 -0.6001 -1.0819
 2722SOL    HW119628   1.002   2.813   3.459  0.3741 -0.6286 -0.0389
 2722SOL    HW219629   1.116   2.823   3.382 -0.6176 -0.2768 -2.0022
 2723SOL     OW19630   1.732   3.473   3.360 -0.0164 -0.1398  0.2929
 2723SOL    HW119631   1.808   3.515   3.398 -2.2130  3.5321  0.5961
 2723SOL    HW219632   1.757   3.380   3.355  1.1883  0.2748 -1.3912
 2724SOL     OW19633   0.971   1.270  13.610  0.0882 -0.5775  0.1483
 2724SOL    HW119634   1.024   1.275  13.689  1.4060 -0.6368 -0.7185
 2724SOL    HW219635   0.916   1.192  13.620 -0.2494 -0.2630  0.7311
 2725SOL     OW19636   3.182   1.788   9.437  0.5779 -0.8238  0.0436
 2725SOL    HW119637   3.141   1.761   9.519 -0.2101  0.2421  0.0069
 2725SOL    HW219638   3.100   1.771   9.392 -0.3798  0.2385  1.4158
 2726SOL     OW19639   3.395   0.901   7.755  0.3728  0.3831 -0.1765
 2726SOL    HW119640   3.347   0.944   7.826  2.6203  0.4382  1.3205
 2726SOL    HW219641   3.387   0.957   7.678 -0.2208 -0.1115 -0.4709
 2727SOL     OW19642   1.642   0.632   1.111  0.1238 -0.2966  0.8912
 2727SOL    HW119643   1.549   0.615   1.119  0.1470 -0.8095 -0.0028
 2727SOL    HW219644   1.676   0.543   1.115  2.7588  0.8292  4.1707
 2728SOL     OW19645   3.465   4.613   7.477 -0.4744 -0.0012  0.5956
 2728SOL    HW119646   3.385   4.647   7.516 -1.9744 -1.8837 -0.8841
 2728SOL    HW219647   3.521   4.610   7.555 -0.2915 -2.6459  0.3664
 2729SOL     OW19648   3.674   2.252   8.106 -0.6340 -0.3493  0.2458
 2729SOL    HW119649   3.744   2.281   8.164 -0.1406 -0.4869 -0.2778
 2729SOL    HW219650   3.670   2.330   8.052  0.9476 -0.3815  0.0998
 2730SOL     OW19651   3.842   1.334   4.737  0.0211 -0.2726  0.2143
 2730SOL    HW119652   3.817   1.345   4.829  1.2546 -0.6619  0.5993
 2730SOL    HW219653   3.783   1.393   4.690  0.3677 -0.2177 -0.1464
 2731SOL     OW19654   0.780   1.555   1.458 -0.4314  0.4079 -0.0303
 2731SOL    HW119655   0.861   1.606   1.449  0.2092 -0.8221 -1.2348
 2731SOL    HW219656   0.770   1.518   1.370 -0.4432  0.4077 -0.0289
 2732SOL     OW19657   4.576   0.293   7.232 -0.4474  0.3394  0.7954
 2732SOL    HW119658   4.640   0.234   7.273  0.0900  0.2590 -0.1414
 2732SOL    HW219659   4.575   0.274   7.138  0.1379  0.0735  0.8428
 2733SOL     OW19660   2.293   1.997   4.941  0.2262 -0.0476  0.3088
 2733SOL    HW119661   2.248   1.956   4.867  1.1240 -1.6028  0.6308
 2733SOL    HW219662   2.246   2.079   4.957 -1.4725 -0.8186 -0.7985
 2734SOL     OW19663   3.035   4.569   3.802 -0.2722  0.0996 -0.1685
 2734SOL    HW119664   3.091   4.523   3.865  1.1955 -0.0141 -1.5580
 2734SOL    HW219665   3.015   4.494   3.747  1.0702 -0.9198  0.7442
 2735SOL     OW19666   2.643   0.330   5.374 -1.0945 -0.4711  0.0183
 2735SOL    HW119667   2.576   0.386   5.335 -0.1010 -0.4782 -1.7046
 2735SOL    HW219668   2.583   0.287   5.434  2.4077 -1.7314  2.6045
 2736SOL     OW19669   1.160   3.107   7.022 -0.4621 -0.1829  0.0973
 2736SOL    HW119670   1.145   3.016   7.047 -0.9047  0.0775  0.7844
 2736SOL    HW219671   1.089   3.158   7.062  0.7784  1.8172 -0.2141
 2737SOL     OW19672   2.750   2.333  16.853 -0.1121  0.6098 -0.2239
 2737SOL    HW119673   2.742   2.365  16.943 -0.2912 -1.2438  0.4336
 2737SOL    HW219674   2.831   2.286  16.869  0.2289  0.5027 -2.2494
 2738SOL     OW19675   0.549   2.516  15.101 -0.0120 -0.1635 -0.3922
 2738SOL    HW119676   0.537   2.602  15.060  2.4306 -1.0887 -3.0568
 2738SOL    HW219677   0.500   2.523  15.183  1.1861  0.9387  0.2335
 2739SOL     OW19678   4.155   1.431   7.884  0.0626 -0.1711  0.0595
 2739SOL    HW119679   4.250   1.441   7.881 -0.0172 -0.0053 -1.8620
 2739SOL    HW219680   4.129   1.403   7.796 -0.6095  0.6818 -0.0094
 2740SOL     OW19681   1.629   1.501   6.432  0.3952  0.6686 -0.2381
 2740SOL    HW119682   1.553   1.551   6.460  0.9959  1.3734  0.1331
 2740SOL    HW219683   1.703   1.551   6.466  1.8288 -1.1086 -0.7465
 2741SOL     OW19684   2.253   1.870   1.312 -0.1709 -0.5066 -0.5013
 2741SOL    HW119685   2.176   1.893   1.261 -1.6992 -2.6384  0.8704
 2741SOL    HW219686   2.259   1.778   1.285 -0.2055 -0.4880 -0.5737
 2742SOL     OW19687   1.442   4.062   2.601 -0.2000 -0.7869  0.6908
 2742SOL    HW119688   1.477   3.976   2.579 -0.4984 -1.4711  2.9057
 2742SOL    HW219689   1.430   4.047   2.694  1.6991 -0.5828  0.9658
 2743SOL     OW19690   3.944   0.301   7.691 -0.5706 -0.5725  0.2110
 2743SOL    HW119691   3.974   0.391   7.680  0.6303 -0.9081  0.7009
 2743SOL    HW219692   3.937   0.302   7.787 -1.1078  1.7556  0.1428
 2744SOL     OW19693   1.296   3.155   1.821 -0.1472 -0.2169 -0.1157
 2744SOL    HW119694   1.237   3.227   1.844  2.0982  2.8962 -3.9914
 2744SOL    HW219695   1.268   3.096   1.891 -0.8996 -2.7110 -2.5245
 2745SOL     OW19696   0.809   2.385   8.595 -0.1263  0.1920 -0.2605
 2745SOL    HW119697   0.822   2.426   8.509 -2.6794 -0.2722 -0.8905
 2745SOL    HW219698   0.728   2.335   8.585  0.3353 -0.4268 -0.9030
 2746SOL     OW19699   2.807   0.730  11.767 -0.0762 -0.5442  0.5061
 2746SOL    HW119700   2.889   0.751  11.811 -0.6328  0.1895  1.2025
 2746SOL    HW219701   2.823   0.636  11.765  1.9123 -0.2046  0.1735
 2747SOL     OW19702   4.591   4.639   0.327 -0.0862 -0.0774 -0.0301
 2747SOL    HW119703   4.658   4.684   0.379  0.1127  1.8372 -1.9533
 2747SOL    HW219704   4.517   4.630   0.387  0.4493 -1.9410  0.3627
 2748SOL     OW19705   2.585   3.869   1.729 -0.3798  0.6368 -0.3789
 2748SOL    HW119706   2.511   3.922   1.698 -1.9130 -1.1202  0.2850
 2748SOL    HW219707   2.553   3.814   1.801 -1.5893 -0.3921 -1.7135
 2749SOL     OW19708   4.342   0.631  11.666  0.3633 -0.4442 -0.2067
 2749SOL    HW119709   4.409   0.631  11.599 -1.1578 -1.4747 -1.7281
 2749SOL    HW219710   4.401   0.630  11.741 -0.2164  0.2737  0.2636
 2750SOL     OW19711   2.647   2.193   8.143 -0.0350  0.8149 -0.8644
 2750SOL    HW119712   2.618   2.195   8.052 -2.2531  0.0433 -0.1676
 2750SOL    HW219713   2.574   2.146   8.183 -1.0202  1.8407 -1.4689
 2751SOL     OW19714   0.684   3.190   3.644  0.3310  0.5650 -0.4724
 2751SOL    HW119715   0.775   3.192   3.615  1.5839  1.6111  3.5728
 2751SOL    HW219716   0.646   3.123   3.586 -2.5840  1.4281  0.4182
 2752SOL     OW19717   1.166   0.722   4.393 -0.8580  0.2071  0.2671
 2752SOL    HW119718   1.164   0.634   4.430 -3.2433  0.6326  1.1292
 2752SOL    HW219719   1.256   0.756   4.399 -0.5284 -1.0118  2.3591
 2753SOL     OW19720   4.144   0.173  14.281  0.2644  0.7119  0.3043
 2753SOL    HW119721   4.095   0.134  14.353 -1.0271 -1.5346 -1.8093
 2753SOL    HW219722   4.231   0.132  14.282 -0.1092 -0.0247  1.6796
 2754SOL     OW19723   2.580   2.217  12.307  0.1847  0.0662 -0.5628
 2754SOL    HW119724   2.490   2.248  12.295 -1.2468 -4.8165 -2.4834
 2754SOL    HW219725   2.582   2.148  12.240 -2.3187 -1.3083  0.7605
 2755SOL     OW19726   1.667   1.186   0.958  0.3302  0.2251  0.6563
 2755SOL    HW119727   1.654   1.091   0.967  0.0077  0.4648  2.5975
 2755SOL    HW219728   1.587   1.215   0.915  1.7928  1.1083 -1.4828
 2756SOL     OW19729   4.462   0.961   1.240 -0.3691  0.1817  0.4941
 2756SOL    HW119730   4.461   1.046   1.195 -0.3149  0.9025  1.8673
 2756SOL    HW219731   4.420   0.972   1.325  0.0602 -1.9234  0.9662
 2757SOL     OW19732   2.854   1.074   8.512  0.2914 -0.3427  0.8466
 2757SOL    HW119733   2.779   1.123   8.479 -0.2194 -1.7451 -0.0548
 2757SOL    HW219734   2.862   1.016   8.437 -2.0815  0.5974 -0.1238
 2758SOL     OW19735   0.430   3.446   7.405  0.2186 -0.1526  0.1724
 2758SOL    HW119736   0.522   3.456   7.431  1.0532 -0.5809 -2.6650
 2758SOL    HW219737   0.415   3.397   7.486  2.2416  1.6399  1.6262
 2759SOL     OW19738   2.083   0.778   3.429  0.3703 -0.6810 -0.2834
 2759SOL    HW119739   2.125   0.723   3.363  1.4369  0.6214 -0.7090
 2759SOL    HW219740   2.160   0.812   3.476  0.0037  0.1857 -0.3045
 2760SOL     OW19741   4.452   0.284  13.259  0.3781 -0.1628  0.3826
 2760SOL    HW119742   4.520   0.326  13.312 -0.5551  2.1183 -0.2083
 2760SOL    HW219743   4.374   0.318  13.304 -0.2197 -0.2430 -0.6023
 2761SOL     OW19744   0.875   0.959  12.514 -0.3140  0.1683 -0.3024
 2761SOL    HW119745   0.955   0.919  12.548 -0.9229  0.1003  1.0806
 2761SOL    HW219746   0.868   1.043  12.559  0.2091 -0.2075  0.4955
 2762SOL     OW19747   2.874   4.613   2.121 -0.3406  0.3554 -0.3525
 2762SOL    HW119748   2.928   4.535   2.116  0.2435  0.8400 -1.6532
 2762SOL    HW219749   2.918   4.682   2.071 -0.7201  0.5300 -0.4438
 2763SOL     OW19750   4.681   3.869   8.512  0.9183  0.4853 -0.9628
 2763SOL    HW119751   0.039   3.918   8.524  1.2597  0.2314 -2.2136
 2763SOL    HW219752   4.634   3.861   8.596  0.4847 -1.9371 -1.4435
 2764SOL     OW19753   2.828   1.922   5.816 -0.2897 -0.5545 -0.0864
 2764SOL    HW119754   2.899   1.984   5.834 -0.5585 -0.1190 -0.5421
 2764SOL    HW219755   2.828   1.875   5.900 -3.7663 -1.7008 -0.7250
 2765SOL     OW19756   3.567   2.100   4.267 -0.4311 -0.1788 -0.3757
 2765SOL    HW119757   3.581   2.007   4.285 -1.3448 -0.2386 -0.0152
 2765SOL    HW219758   3.589   2.128   4.356  0.4614  0.1056 -0.6792
 2766SOL     OW19759   0.985   1.354   0.113 -0.5272  0.1600  0.2300
 2766SOL    HW119760   0.928   1.334   0.187 -2.2684 -0.0328 -1.1967
 2766SOL    HW219761   1.069   1.333   0.155 -0.8102 -0.8294  0.2815
 2767SOL     OW19762   0.076   2.056   5.344 -0.1373 -0.6502 -0.1081
 2767SOL    HW119763   4.708   2.053   5.374 -0.2286 -1.1315 -0.4295
 2767SOL    HW219764   0.097   1.963   5.349  3.6103  0.1383 -1.2001
 2768SOL     OW19765   3.713   1.598  14.465 -0.2606 -0.1235 -0.5047
 2768SOL    HW119766   3.776   1.552  14.409  0.3546  0.6433 -0.4380
 2768SOL    HW219767   3.638   1.594  14.406 -1.0196  0.5716  0.4162
 2769SOL     OW19768   2.961   0.936  16.988 -0.3098 -0.5029  0.0215
 2769SOL    HW119769   2.965   0.978  17.074  0.1491 -0.0131 -0.2418
 2769SOL    HW219770   2.873   0.961  16.962 -0.5372 -2.8679 -1.5577
 2770SOL     OW19771   1.529   2.561   5.522 -0.2832 -0.0591  0.4938
 2770SOL    HW119772   1.553   2.478   5.562  1.1596  1.2986  2.4453
 2770SOL    HW219773   1.517   2.532   5.431  1.1392  1.2193 -0.0977
 2771SOL     OW19774   1.908   0.324   4.556  0.0268 -0.4741  0.4671
 2771SOL    HW119775   1.913   0.384   4.481 -0.4181  0.0479  0.8540
 2771SOL    HW219776   1.972   0.360   4.617 -1.8195 -0.4737  2.4009
 2772SOL     OW19777   2.182   4.607  12.018  0.6783  0.6198 -0.3795
 2772SOL    HW119778   2.205   4.676  11.955  0.5578 -0.1102 -1.2170
 2772SOL    HW219779   2.258   4.609  12.077  0.5503  2.3080 -0.2749
 2773SOL     OW19780   1.865   3.886   7.181 -0.1798  0.4027 -0.8269
 2773SOL    HW119781   1.809   3.958   7.211  2.0886  1.2394  1.3772
 2773SOL    HW219782   1.817   3.819   7.229  0.6099  0.7326  0.4314
 2774SOL     OW19783   1.162   1.248   3.273  0.3627 -0.5688  0.4316
 2774SOL    HW119784   1.216   1.226   3.197 -1.1399 -1.7470 -0.2907
 2774SOL    HW219785   1.150   1.341   3.256  0.3823 -0.9753 -1.7865
 2775SOL     OW19786   1.693   1.187   3.572 -0.0103 -0.1155 -0.0957
 2775SOL    HW119787   1.621   1.128   3.552  0.9874 -1.5118  0.4400
 2775SOL    HW219788   1.739   1.188   3.488 -0.6815 -1.9899 -0.4877
 2776SOL     OW19789   1.751   4.255   3.634 -0.1761 -0.4364  0.2843
 2776SOL    HW119790   1.678   4.239   3.575  0.2750  2.9517 -1.1899
 2776SOL    HW219791   1.826   4.235   3.579 -0.4965  0.4694 -0.4718
 2777SOL     OW19792   4.689   2.451   2.359  0.5682 -0.0683 -0.0060
 2777SOL    HW119793   0.012   2.499   2.427 -1.6891  1.3711  0.5201
 2777SOL    HW219794   4.680   2.365   2.400 -2.1653  1.0296  1.6684
 2778SOL     OW19795   1.562   4.281   3.355 -0.1529  0.1837  0.4063
 2778SOL    HW119796   1.564   4.192   3.321  1.6616  0.3168  0.1926
 2778SOL    HW219797   1.469   4.284   3.377 -0.1616 -1.6086  0.5894
 2779SOL     OW19798   0.482   2.119   2.199  1.2565 -0.5644 -0.2352
 2779SOL    HW119799   0.553   2.107   2.262  1.4078  0.6623 -0.1806
 2779SOL    HW219800   0.462   2.212   2.207 -0.5252 -0.9515 -0.3317
 2780SOL     OW19801   3.898   4.380  10.027  0.0465  0.1324 -0.4836
 2780SOL    HW119802   3.905   4.285  10.019 -1.3572  0.0463 -0.7307
 2780SOL    HW219803   3.803   4.391  10.027 -0.0362 -0.5335  1.1936
 2781SOL     OW19804   1.649   1.803   6.063  0.1957 -0.0096  0.1338
 2781SOL    HW119805   1.586   1.872   6.082 -0.3288 -0.9375  1.8106
 2781SOL    HW219806   1.714   1.854   6.017 -0.4643  0.7471  0.0465
 2782SOL     OW19807   4.686   1.417   4.992  0.3638  0.2229  0.0250
 2782SOL    HW119808   0.026   1.347   5.010 -0.8993 -1.0355 -0.4170
 2782SOL    HW219809   4.626   1.363   4.940 -0.3460 -0.4496  1.5533
 2783SOL     OW19810   4.420   3.885   1.663 -0.4032 -0.2319 -0.3539
 2783SOL    HW119811   4.354   3.910   1.728  0.6825 -0.8134  0.9723
 2783SOL    HW219812   4.376   3.812   1.620  0.3444 -1.8720  1.6947
 2784SOL     OW19813   3.672   3.044  17.363 -0.2211  0.1778 -0.0070
 2784SOL    HW119814   3.738   3.106  17.332 -0.4558  0.2106 -0.4343
 2784SOL    HW219815   3.597   3.100  17.340  1.8619  1.9645 -2.4660
 2785SOL     OW19816   0.403   1.370   5.260  0.1313  0.2103  0.0687
 2785SOL    HW119817   0.444   1.289   5.291 -0.6272  0.0515  0.6629
 2785SOL    HW219818   0.366   1.409   5.339  1.4344  1.4031  0.1023
 2786SOL     OW19819   1.206   2.533   6.282  0.0963 -0.6277  0.6937
 2786SOL    HW119820   1.124   2.564   6.244  1.1830 -1.3016 -2.2030
 2786SOL    HW219821   1.276   2.548   6.219  0.6755 -1.2225  1.1882
 2787SOL     OW19822   0.256   2.490  10.195  0.1893  0.1426 -0.0099
 2787SOL    HW119823   0.229   2.472  10.105  0.8906  1.0993 -0.4172
 2787SOL    HW219824   0.310   2.415  10.221 -0.8101 -0.8610 -0.8346
 2788SOL     OW19825   0.015   1.631   7.153 -0.5031 -0.2697 -0.2439
 2788SOL    HW119826   0.075   1.635   7.079  1.0410  2.1723  1.1142
 2788SOL    HW219827   0.075   1.646   7.226 -1.0519 -0.0541  0.1715
 2789SOL     OW19828   4.187   4.045  12.862  0.3722 -0.3631  0.3590
 2789SOL    HW119829   4.259   4.056  12.800  1.0522 -0.0898  1.1989
 2789SOL    HW219830   4.185   3.949  12.857 -0.1332 -0.3901  1.1642
 2790SOL     OW19831   2.944   0.269   3.834  0.8856 -0.4007 -0.1474
 2790SOL    HW119832   2.993   0.201   3.788  0.9972  0.3731 -1.1711
 2790SOL    HW219833   2.871   0.213   3.861 -0.2997  0.7487 -0.9152
 2791SOL     OW19834   2.834   2.066   3.679 -0.3133  0.7666 -0.8930
 2791SOL    HW119835   2.854   1.976   3.704  0.6390  1.0205 -0.7557
 2791SOL    HW219836   2.802   2.051   3.590 -0.1335  0.4809 -0.9103
 2792SOL     OW19837   3.899   2.288   7.038  0.3274 -1.0783  0.2906
 2792SOL    HW119838   3.842   2.364   7.034  2.1673  0.2763 -0.2504
 2792SOL    HW219839   3.846   2.208   7.042 -1.8877  0.2814 -1.9369
 2793SOL     OW19840   2.661   1.911   9.400  0.3684  0.1113 -0.5312
 2793SOL    HW119841   2.607   1.833   9.395  1.7156 -0.8423 -0.2586
 2793SOL    HW219842   2.598   1.976   9.369  2.2772  1.9252 -0.6179
 2794SOL     OW19843   4.629   1.670   6.044 -0.4570 -0.0456  0.5274
 2794SOL    HW119844   4.694   1.609   6.008 -0.2719 -1.0180  2.4995
 2794SOL    HW219845   4.585   1.703   5.966  1.4696  2.3078  0.4237
 2795SOL     OW19846   3.673   3.749   4.045  0.6517  0.0932  0.5194
 2795SOL    HW119847   3.650   3.840   4.030  0.1110 -0.5251 -2.3334
 2795SOL    HW219848   3.633   3.721   3.963 -1.4516  3.5335  0.4081
 2796SOL     OW19849   0.047   1.116  15.419 -0.9297 -0.1581 -0.2177
 2796SOL    HW119850   0.051   1.187  15.483 -1.0038 -0.2968 -0.0628
 2796SOL    HW219851   4.712   1.153  15.353  0.4384 -2.3479 -2.6700
 2797SOL     OW19852   1.160   0.791   5.958 -0.5385 -0.8310  0.1973
 2797SOL    HW119853   1.109   0.754   5.886 -0.6203  0.4096 -0.3761
 2797SOL    HW219854   1.227   0.841   5.912 -1.5665  2.0898  1.8945
 2798SOL     OW19855   0.383   4.604   7.704 -0.6932  0.7781  0.2601
 2798SOL    HW119856   0.344   4.516   7.711  1.2022 -0.1312 -0.5708
 2798SOL    HW219857   0.426   4.594   7.619 -0.3473 -0.0958  0.5340
 2799SOL     OW19858   1.214   0.397  15.321  0.4398  0.3000  0.1078
 2799SOL    HW119859   1.218   0.486  15.285 -0.8948  0.2875 -0.0684
 2799SOL    HW219860   1.163   0.414  15.400  0.3280 -2.0480  0.5358
 2800SOL     OW19861   1.720   2.865   3.475 -0.1471 -1.1404  0.0744
 2800SOL    HW119862   1.788   2.906   3.421 -2.2707  1.9296 -0.2721
 2800SOL    HW219863   1.731   2.772   3.454  0.0943 -0.6397 -2.0383
 2801SOL     OW19864   1.803   0.869   3.549 -0.2910 -0.9371 -0.1229
 2801SOL    HW119865   1.816   0.930   3.476 -0.3247 -0.9422 -0.1335
 2801SOL    HW219866   1.862   0.802   3.517  0.0797 -0.5696 -0.2067
 2802SOL     OW19867   3.230   0.373   6.758 -0.2658 -0.0996  0.0029
 2802SOL    HW119868   3.273   0.437   6.815 -0.2221 -1.9924  2.0997
 2802SOL    HW219869   3.276   0.394   6.677  2.8044 -0.3261  1.7275
 2803SOL     OW19870   3.864   1.655  11.554 -0.0523 -0.7365 -0.7498
 2803SOL    HW119871   3.859   1.749  11.569 -1.1479 -1.0236  0.7191
 2803SOL    HW219872   3.775   1.634  11.528 -0.4080 -0.6676  0.4300
 2804SOL     OW19873   0.613   2.660   6.935 -0.3142 -0.4396 -0.0134
 2804SOL    HW119874   0.533   2.699   6.901  0.4361  1.7371  0.6890
 2804SOL    HW219875   0.658   2.625   6.858  1.1537 -0.0662  0.6674
 2805SOL     OW19876   0.150   0.617   6.381  0.5186  0.0517 -0.1792
 2805SOL    HW119877   0.218   0.664   6.333  0.4756 -0.2445 -0.5325
 2805SOL    HW219878   0.205   0.587   6.453 -0.9954 -1.6354  0.2926
 2806SOL     OW19879   0.241   4.087  12.545 -0.2644 -0.1634  0.3102
 2806SOL    HW119880   0.241   4.172  12.501  2.1327 -0.7925 -0.8973
 2806SOL    HW219881   0.154   4.104  12.581  1.0479  0.7054  3.0536
 2807SOL     OW19882   1.782   2.085  13.770  0.1949  0.1478 -0.4352
 2807SOL    HW119883   1.689   2.093  13.751  0.0324 -0.4111  0.1259
 2807SOL    HW219884   1.791   2.150  13.840 -0.2535  2.3388 -2.4164
 2808SOL     OW19885   4.358   3.477   6.423  0.4714 -0.6220 -0.2123
 2808SOL    HW119886   4.344   3.490   6.329 -0.9324 -0.7601 -0.0126
 2808SOL    HW219887   4.337   3.564   6.455  1.7082 -0.5438  0.4146
 2809SOL     OW19888   2.683   0.868   9.710  0.3388 -0.3725 -0.7167
 2809SOL    HW119889   2.778   0.870   9.720 -0.0091  1.5116  2.2625
 2809SOL    HW219890   2.659   0.807   9.780  0.8174  0.9437  0.6049
 2810SOL     OW19891   3.476   4.205   4.173 -0.7414  0.2030  0.2291
 2810SOL    HW119892   3.460   4.260   4.096  0.5791 -0.1564 -0.2968
 2810SOL    HW219893   3.444   4.269   4.237  1.0748  2.8014 -1.4072
 2811SOL     OW19894   1.601   2.770  11.379  0.5141  0.2180  0.1856
 2811SOL    HW119895   1.615   2.712  11.453 -2.8911  0.7346  1.2628
 2811SOL    HW219896   1.517   2.736  11.347 -0.7466  0.8753  2.8349
 2812SOL     OW19897   0.358   4.304   3.534  0.0525  1.0448 -0.4487
 2812SOL    HW119898   0.351   4.284   3.441 -2.8728 -0.2996  0.0439
 2812SOL    HW219899   0.274   4.262   3.552  0.6151 -0.5329 -1.5398
 2813SOL     OW19900   3.473   0.297   3.794 -0.0903  0.1646 -0.4037
 2813SOL    HW119901   3.508   0.265   3.877 -0.5969  0.5916 -0.0251
 2813SOL    HW219902   3.419   0.220   3.780 -0.9530  0.1675  2.8388
 2814SOL     OW19903   2.118   2.187   0.468 -0.0877 -0.1578  0.1541
 2814SOL    HW119904   2.161   2.252   0.524 -0.4325  1.6026 -1.6298
 2814SOL    HW219905   2.080   2.232   0.392  1.2705  0.4279 -0.1669
 2815SOL     OW19906   1.767   0.627   4.594  0.5658  0.5178 -0.4256
 2815SOL    HW119907   1.779   0.673   4.511  0.9175  2.0926  0.4996
 2815SOL    HW219908   1.848   0.576   4.597  0.1593 -0.1350 -0.7097
 2816SOL     OW19909   1.480   0.198  10.005  0.1502  0.0967 -0.0451
 2816SOL    HW119910   1.561   0.149   9.989  0.8311  1.2423 -0.0465
 2816SOL    HW219911   1.470   0.202  10.100  0.1928 -0.3381 -0.0188
 2817SOL     OW19912   3.226   0.554   8.489  0.2974  0.1124 -0.9481
 2817SOL    HW119913   3.234   0.486   8.556  1.9882  2.2552  1.0344
 2817SOL    HW219914   3.315   0.566   8.455  0.8811 -1.2936  0.0769
 2818SOL     OW19915   0.389   1.237   2.045 -0.0242 -0.3637 -0.5208
 2818SOL    HW119916   0.474   1.236   2.090 -0.7232  1.5516  0.8351
 2818SOL    HW219917   0.407   1.298   1.973  1.5208  0.4920  0.5639
 2819SOL     OW19918   4.364   4.157   3.853  0.0296 -0.6070 -0.0393
 2819SOL    HW119919   4.402   4.132   3.937  1.6996 -1.2631 -0.9791
 2819SOL    HW219920   4.403   4.092   3.794 -0.0971 -0.5753 -0.1571
 2820SOL     OW19921   0.297   3.301   3.578 -0.1229 -0.3999  0.1991
 2820SOL    HW119922   0.354   3.288   3.654 -1.2067  0.7899  1.2321
 2820SOL    HW219923   0.227   3.340   3.631  0.8924  0.5687  0.8257
 2821SOL     OW19924   2.120   1.844   3.927  0.5803 -0.5383  0.1950
 2821SOL    HW119925   2.127   1.876   3.837 -0.0178 -1.5591 -0.2109
 2821SOL    HW219926   2.087   1.754   3.923 -1.3025  0.1592  0.3097
 2822SOL     OW19927   3.606   2.616   2.570  0.6202  0.2245 -0.1163
 2822SOL    HW119928   3.625   2.701   2.530 -1.4225 -0.8892 -3.4069
 2822SOL    HW219929   3.580   2.568   2.492  0.4181  0.0639  0.0481
 2823SOL     OW19930   0.243   1.399  16.784  0.0515  0.0289 -0.4950
 2823SOL    HW119931   0.338   1.388  16.772 -0.2652 -1.6212 -1.4862
 2823SOL    HW219932   0.218   1.320  16.831 -0.6816  2.4152  3.1633
 2824SOL     OW19933   3.835   3.273   7.950  0.4705  0.2997  0.9254
 2824SOL    HW119934   3.793   3.201   7.997  2.6637  0.0429  2.5080
 2824SOL    HW219935   3.906   3.305   8.007  1.0987 -0.1234  0.3795
 2825SOL     OW19936   1.605   0.308   5.816  0.1908 -0.2274  0.1340
 2825SOL    HW119937   1.607   0.391   5.769  0.7913 -0.0893  0.4075
 2825SOL    HW219938   1.681   0.315   5.874  1.5708  1.7837 -1.8867
 2826SOL     OW19939   4.549   3.658   6.772  0.4111 -0.1428 -0.1393
 2826SOL    HW119940   4.593   3.721   6.829  2.3111  1.2245 -3.1278
 2826SOL    HW219941   4.517   3.719   6.705 -2.3824 -2.4706 -0.9014
 2827SOL     OW19942   2.766   4.168   3.690 -0.1546 -0.3181 -0.1287
 2827SOL    HW119943   2.751   4.098   3.754  0.1889  0.5160  0.8636
 2827SOL    HW219944   2.683   4.215   3.684 -0.1570 -0.2802  0.1989
 2828SOL     OW19945   3.652   1.695   0.022 -0.6676 -0.0897  0.1395
 2828SOL    HW119946   3.702   1.678  17.637 -1.3894 -3.1511  0.3481
 2828SOL    HW219947   3.702   1.767   0.060 -2.0825  0.0939  1.6476
 2829SOL     OW19948   4.599   4.359   2.670  0.5162  1.1296  0.0551
 2829SOL    HW119949   4.666   4.291   2.669 -0.2014  0.3808  3.0587
 2829SOL    HW219950   4.520   4.306   2.677  1.6899 -0.2961  2.4623
 2830SOL     OW19951   2.197   1.243   3.796 -0.1041  1.1978 -0.2699
 2830SOL    HW119952   2.103   1.237   3.779 -0.0570 -0.6160  0.0844
 2830SOL    HW219953   2.219   1.160   3.753 -0.0647  0.7620  0.5945
 2831SOL     OW19954   0.830   3.287   2.091 -0.4817  0.3543 -0.2896
 2831SOL    HW119955   0.795   3.263   2.005 -0.6084  0.2575 -0.2112
 2831SOL    HW219956   0.782   3.368   2.104  1.4400  1.1537  1.8840
 2832SOL     OW19957   2.773   2.396  12.327 -0.3449  0.0281  0.3828
 2832SOL    HW119958   2.689   2.349  12.330 -0.6311  0.5932  1.5319
 2832SOL    HW219959   2.827   2.318  12.321 -2.5738 -1.5758  0.9106
 2833SOL     OW19960   0.774   2.184   9.189 -0.0483  0.2104  0.1910
 2833SOL    HW119961   0.805   2.274   9.197  1.3460 -0.5084  2.8544
 2833SOL    HW219962   0.769   2.156   9.281  0.1564 -2.1567 -0.5030
 2834SOL     OW19963   4.423   4.161   2.719 -0.6595  0.0718 -0.2871
 2834SOL    HW119964   4.420   4.085   2.777 -0.7088 -0.2546 -0.7205
 2834SOL    HW219965   4.365   4.127   2.651 -0.4431  1.3494 -1.1234
 2835SOL     OW19966   0.193   0.685   8.335 -0.3691 -0.3485 -0.0896
 2835SOL    HW119967   0.228   0.596   8.329  0.8328  0.1697 -0.8679
 2835SOL    HW219968   0.244   0.725   8.407  1.2966 -1.4572 -0.6563
 2836SOL     OW19969   3.452   3.727   2.882  0.1868 -0.8833  0.0057
 2836SOL    HW119970   3.435   3.693   2.794 -1.3163 -1.7281  0.6148
 2836SOL    HW219971   3.526   3.780   2.853  1.4720 -1.3425  2.4732
 2837SOL     OW19972   3.648   3.323  10.865 -0.0564 -0.2103  0.1327
 2837SOL    HW119973   3.647   3.317  10.960  1.8103  1.6543  0.2729
 2837SOL    HW219974   3.709   3.394  10.848 -2.7953  1.3510 -3.2736
 2838SOL     OW19975   2.601   0.620   4.636 -0.3078  0.5421 -0.6209
 2838SOL    HW119976   2.603   0.597   4.728 -0.8946  1.1621 -0.4507
 2838SOL    HW219977   2.637   0.541   4.597 -1.5177 -0.8466  1.1387
 2839SOL     OW19978   3.540   1.071  12.426 -0.2147 -0.4013  0.0496
 2839SOL    HW119979   3.454   1.108  12.446 -0.1807 -0.4917  0.3668
 2839SOL    HW219980   3.574   1.127  12.356 -3.3928  2.9637  1.2046
 2840SOL     OW19981   0.899   2.149   6.979 -0.1197  0.2894  0.1280
 2840SOL    HW119982   0.809   2.140   7.010  0.1502  1.5438  1.2551
 2840SOL    HW219983   0.898   2.242   6.959 -1.2300  0.0163 -1.1247
 2841SOL     OW19984   0.407   2.892   7.212  0.4159 -0.1664 -0.3311
 2841SOL    HW119985   0.496   2.875   7.181  0.6890 -0.6223  0.6948
 2841SOL    HW219986   0.409   2.902   7.307 -4.1356 -0.4981 -0.1962
 2842SOL     OW19987   0.774   2.912  12.738  0.0868 -0.2417  0.2540
 2842SOL    HW119988   0.846   2.863  12.779  1.2697  0.5091 -0.9332
 2842SOL    HW219989   0.831   2.986  12.716 -0.2941  0.2895  1.0541
 2843SOL     OW19990   0.498   3.950   6.618  0.4821 -0.5073 -0.3937
 2843SOL    HW119991   0.474   3.941   6.526 -1.6668 -0.9075  0.2031
 2843SOL    HW219992   0.426   3.899   6.657  0.7921  1.4346  2.7520
 2844SOL     OW19993   4.199   3.888  12.257  0.1996 -0.6521 -0.6706
 2844SOL    HW119994   4.198   3.982  12.273  1.3612 -0.6001 -0.8686
 2844SOL    HW219995   4.263   3.890  12.186  2.0362  1.7870  1.0560
 2845SOL     OW19996   0.338   2.659   5.394  0.0840 -0.0887  0.2449
 2845SOL    HW119997   0.260   2.697   5.353  0.4023  2.4017  1.9761
 2845SOL    HW219998   0.357   2.579   5.344 -0.7708  0.1410 -0.4549
 2846SOL     OW19999   3.916   0.378   9.206 -0.0529 -0.0726  0.2614
 2846SOL    HW120000   3.931   0.318   9.133  1.2264 -1.7733  1.9467
 2846SOL    HW220001   3.942   0.460   9.164 -1.1578  0.1471  0.0024
 2847SOL     OW20002   3.080   3.550   6.433  0.0371  0.8875 -0.7014
 2847SOL    HW120003   3.167   3.513   6.419  0.0250 -0.2668  2.2121
 2847SOL    HW220004   3.063   3.565   6.340 -1.5947 -0.8045 -0.6787
 2848SOL     OW20005   2.424   1.153   2.057  0.3761  0.0490 -0.4525
 2848SOL    HW120006   2.369   1.079   2.031  0.8150  0.8031 -3.5928
 2848SOL    HW220007   2.378   1.191   2.132 -0.7891 -0.1147 -1.0821
 2849SOL     OW20008   3.935   0.833   6.400 -0.6274 -0.3175  0.4577
 2849SOL    HW120009   3.998   0.842   6.328 -1.8243  0.4996 -0.4864
 2849SOL    HW220010   3.911   0.740   6.394  0.6430 -0.5945 -0.3418
 2850SOL     OW20011   0.229   2.605   9.609 -0.0044 -0.2030  0.4137
 2850SOL    HW120012   0.234   2.579   9.517 -0.9270  2.9549 -0.4992
 2850SOL    HW220013   0.165   2.541   9.641  0.7489  0.0434  2.3947
 2851SOL     OW20014   0.653   1.056   8.055 -0.2002 -0.2055 -0.0706
 2851SOL    HW120015   0.644   0.967   8.088  2.4582 -0.2494  0.5128
 2851SOL    HW220016   0.741   1.071   8.088 -0.0527  2.1212 -1.4995
 2852SOL     OW20017   2.850   4.043   1.851 -0.4147  0.0880  0.3684
 2852SOL    HW120018   2.822   3.955   1.826 -1.5539  1.1191 -1.9793
 2852SOL    HW220019   2.770   4.070   1.896  1.0000  1.2034  2.2560
 2853SOL     OW20020   2.793   1.740   3.391 -0.3494 -0.6538 -0.4209
 2853SOL    HW120021   2.864   1.804   3.392 -0.6469 -0.3348  0.2169
 2853SOL    HW220022   2.817   1.688   3.314  1.0391  3.3941 -2.6815
 2854SOL     OW20023   3.495   1.854  14.471 -0.4022  0.1075 -0.0121
 2854SOL    HW120024   3.409   1.895  14.469 -1.0387 -1.2649 -0.7443
 2854SOL    HW220025   3.549   1.928  14.445  0.8440 -0.5880  0.6150
 2855SOL     OW20026   3.047   0.289   2.552  0.2844 -0.0807  0.5880
 2855SOL    HW120027   3.113   0.313   2.617 -1.0593  0.5117  1.7100
 2855SOL    HW220028   2.989   0.362   2.574  1.4994  0.5064  1.8492
 2856SOL     OW20029   4.576   1.315  11.492  0.2884 -0.0796 -0.4281
 2856SOL    HW120030   4.647   1.276  11.543  1.4648  1.3845 -0.9163
 2856SOL    HW220031   4.620   1.395  11.464 -3.4086  1.5179 -1.6319
 2857SOL     OW20032   0.078   4.171  13.579 -0.8231  0.4113 -0.3523
 2857SOL    HW120033   0.090   4.209  13.666 -1.4240 -0.5404  0.1412
 2857SOL    HW220034   4.707   4.156  13.586 -0.9144  0.6037 -1.1966
 2858SOL     OW20035   1.966   2.836   4.806  0.2165 -0.1702 -0.2146
 2858SOL    HW120036   1.931   2.923   4.824 -0.3479 -0.3489 -0.4455
 2858SOL    HW220037   2.057   2.836   4.834 -0.1927 -2.0072  1.0612
 2859SOL     OW20038   1.585   1.200  12.896 -0.6436  0.1552 -0.4273
 2859SOL    HW120039   1.614   1.114  12.865 -2.7527 -0.6840 -0.0403
 2859SOL    HW220040   1.514   1.206  12.832  0.4002  0.9414 -1.5055
 2860SOL     OW20041   4.301   3.937   9.035 -0.1037  0.1692  0.3570
 2860SOL    HW120042   4.249   3.991   8.975  0.3336  2.4685  2.0536
 2860SOL    HW220043   4.389   3.957   9.003 -0.6354 -0.3724 -1.4108
 2861SOL     OW20044   3.357   1.959   6.304 -0.3916 -0.4737  0.5980
 2861SOL    HW120045   3.451   1.962   6.286 -0.5132  0.2278  0.0649
 2861SOL    HW220046   3.346   1.865   6.320 -2.9026  0.0773  2.1651
 2862SOL     OW20047   2.198   0.315  11.978  0.3966 -0.3056 -0.3273
 2862SOL    HW120048   2.245   0.232  11.969  1.0397 -0.1330  1.4300
 2862SOL    HW220049   2.238   0.351  12.057  0.9373 -1.2857 -0.1594
 2863SOL     OW20050   1.288   3.883  16.978 -0.3070  0.0525  0.2754
 2863SOL    HW120051   1.290   3.896  16.883  1.9950 -2.8341 -0.0586
 2863SOL    HW220052   1.342   3.955  17.011  1.7378 -1.7672  0.9046
 2864SOL     OW20053   0.466   2.093   2.607  0.0644 -0.0668 -0.0323
 2864SOL    HW120054   0.498   2.063   2.522 -1.0222 -0.6563 -0.2334
 2864SOL    HW220055   0.546   2.134   2.639  0.9813 -1.2184 -0.8574
 2865SOL     OW20056   2.055   3.926  14.310 -0.3591 -0.2522  0.4232
 2865SOL    HW120057   2.135   3.976  14.292  0.7196 -2.0757  0.1423
 2865SOL    HW220058   2.071   3.845  14.261 -2.2617  0.4419 -1.3662
 2866SOL     OW20059   3.506   1.946  11.265 -0.0115  0.0504  0.4035
 2866SOL    HW120060   3.503   1.922  11.358  4.4687 -0.2769  0.5112
 2866SOL    HW220061   3.582   2.004  11.263  0.6760 -0.9492 -2.3802
 2867SOL     OW20062   1.724   3.848   7.736 -0.0418 -0.3355 -0.2219
 2867SOL    HW120063   1.810   3.845   7.695  0.8758 -3.7090  1.8828
 2867SOL    HW220064   1.744   3.805   7.820  1.3109  0.2537 -0.2461
 2868SOL     OW20065   4.209   2.242   2.237 -0.8637 -0.6570  0.1958
 2868SOL    HW120066   4.162   2.311   2.190  1.8328  2.9603  2.7599
 2868SOL    HW220067   4.217   2.178   2.166 -1.2785 -0.0309 -0.4141
 2869SOL     OW20068   2.569   2.696   2.070 -0.2455 -0.2279 -0.5873
 2869SOL    HW120069   2.525   2.744   2.141 -0.2009  1.8695 -1.9766
 2869SOL    HW220070   2.537   2.607   2.085 -1.6329  0.5815  1.3389
 2870SOL     OW20071   0.754   1.867   9.388  0.0136 -0.3878  0.4451
 2870SOL    HW120072   0.791   1.869   9.299 -1.7400  0.0481 -0.2732
 2870SOL    HW220073   0.764   1.958   9.418 -0.1811 -0.6849  1.4055
 2871SOL     OW20074   3.803   1.669   7.828 -0.3100  0.3461 -0.3315
 2871SOL    HW120075   3.782   1.726   7.753  0.9473  0.3331 -0.6799
 2871SOL    HW220076   3.839   1.730   7.892  0.9213 -1.6279  0.8400
 2872SOL     OW20077   0.614   1.193  16.540  0.0509 -0.2431  0.3484
 2872SOL    HW120078   0.699   1.235  16.551 -0.9281  1.8552  0.1009
 2872SOL    HW220079   0.579   1.223  16.624  1.2709 -0.3988  0.9113
 2873SOL     OW20080   1.040   3.972   2.473 -0.4191  0.4730  0.1497
 2873SOL    HW120081   1.063   3.962   2.566 -0.6863  0.7228  0.2431
 2873SOL    HW220082   1.111   3.925   2.431 -0.9613  0.3836 -0.6700
 2874SOL     OW20083   4.328   3.866  11.988 -0.4197  0.0258  0.0119
 2874SOL    HW120084   4.399   3.802  11.986  0.3170  0.9310 -3.4947
 2874SOL    HW220085   4.371   3.921  11.922 -1.1675  1.3620  0.6299
 2875SOL     OW20086   1.234   2.476   9.216  0.4184  0.5228 -0.3051
 2875SOL    HW120087   1.199   2.564   9.232  0.0502  0.0497  1.4366
 2875SOL    HW220088   1.267   2.455   9.303 -1.6029 -0.3879  0.2282
 2876SOL     OW20089   3.946   2.992   4.657 -0.9898 -0.2748  0.6113
 2876SOL    HW120090   3.954   3.085   4.635 -2.5353  0.3380  2.7789
 2876SOL    HW220091   3.908   2.958   4.575 -1.6728 -0.6387  1.0805
 2877SOL     OW20092   3.895   4.090   5.691  0.8259  0.2229 -0.3576
 2877SOL    HW120093   3.948   4.054   5.621 -0.2726 -3.8885  0.9251
 2877SOL    HW220094   3.887   4.182   5.663  1.4908  0.3268 -0.1901
 2878SOL     OW20095   3.989   2.928   3.315  0.0286  0.0891  0.1825
 2878SOL    HW120096   3.984   2.833   3.310  0.4138  0.1538 -1.3217
 2878SOL    HW220097   3.909   2.938   3.368 -0.9524  0.4064 -1.3567
 2879SOL     OW20098   4.060   0.185   7.156 -0.2195 -0.0637  0.0154
 2879SOL    HW120099   4.026   0.226   7.236  0.7941  1.0439 -0.1316
 2879SOL    HW220100   4.052   0.259   7.095  1.0941 -2.7824 -3.4149
 2880SOL     OW20101   0.565   4.432   5.778  0.0576  0.1895 -0.1378
 2880SOL    HW120102   0.569   4.431   5.874 -1.1037  0.0842 -0.0902
 2880SOL    HW220103   0.506   4.358   5.763 -2.0625  1.0875  3.5921
 2881SOL     OW20104   3.694   3.060  12.409  0.4306  0.2710  0.1709
 2881SOL    HW120105   3.679   3.044  12.315  0.1789 -0.1590  0.2819
 2881SOL    HW220106   3.786   3.032  12.406  0.6169  0.7259  1.6213
 2882SOL     OW20107   1.550   4.194   2.848 -0.4287 -0.2968  0.3866
 2882SOL    HW120108   1.603   4.185   2.927 -0.1545 -2.8556 -0.1029
 2882SOL    HW220109   1.611   4.160   2.783  0.0242 -1.6691  1.5465
 2883SOL     OW20110   1.244   2.386   4.077 -0.3191 -0.4850  0.1034
 2883SOL    HW120111   1.236   2.376   4.172 -2.9784 -0.3055 -0.0950
 2883SOL    HW220112   1.302   2.313   4.055  0.3698  0.3661 -0.9535
 2884SOL     OW20113   0.162   1.785   5.338 -0.3598  0.6375  0.0337
 2884SOL    HW120114   0.248   1.743   5.343 -1.6252 -2.0245 -0.3743
 2884SOL    HW220115   0.121   1.748   5.260  1.9828 -2.1717  0.1357
 2885SOL     OW20116   1.474   0.188   2.564  0.2762  0.2404 -0.1235
 2885SOL    HW120117   1.535   0.160   2.496  2.0433 -1.0737  2.0389
 2885SOL    HW220118   1.447   0.111   2.613  3.1016 -0.6077  0.0981
 2886SOL     OW20119   3.685   0.654   9.445 -0.1434  0.4754 -0.3636
 2886SOL    HW120120   3.728   0.569   9.443 -1.3564 -0.1510  0.4693
 2886SOL    HW220121   3.646   0.665   9.531 -2.4160 -2.1067 -1.0750
 2887SOL     OW20122   2.198   3.189   5.699 -0.5349  0.0113 -0.5631
 2887SOL    HW120123   2.210   3.283   5.707  1.5694 -0.2638 -0.4206
 2887SOL    HW220124   2.283   3.170   5.659 -0.4516 -2.7127  0.8893
 2888SOL     OW20125   1.363   0.573   1.187 -0.3723 -0.2033 -0.5079
 2888SOL    HW120126   1.335   0.482   1.202  0.4596 -0.5462 -1.0116
 2888SOL    HW220127   1.356   0.617   1.271  0.7125 -2.8591  0.9776
 2889SOL     OW20128   3.859   2.697   4.952  0.0451  0.5729 -0.6255
 2889SOL    HW120129   3.819   2.618   4.915 -1.5489  0.7952  0.6253
 2889SOL    HW220130   3.785   2.757   4.955  0.5451  1.1707 -0.4287
 2890SOL     OW20131   3.330   3.016  10.627  0.4425  0.4367  0.1601
 2890SOL    HW120132   3.414   3.058  10.647  1.0742 -0.8997  0.3196
 2890SOL    HW220133   3.279   3.069  10.688 -0.1480 -0.5303  0.5079
 2891SOL     OW20134   3.985   2.454   7.225  0.2113 -0.0802  0.2347
 2891SOL    HW120135   3.988   2.377   7.169 -0.7230  0.1797 -0.1786
 2891SOL    HW220136   3.939   2.505   7.159  1.8610  1.4198  0.2798
 2892SOL     OW20137   0.803   1.320   6.412  0.2296 -0.6572  0.2380
 2892SOL    HW120138   0.857   1.256   6.457  1.4373 -1.4993 -2.4176
 2892SOL    HW220139   0.826   1.404   6.451  1.0228 -1.0919  0.6989
 2893SOL     OW20140   1.273   4.301   5.694 -0.0185  0.7709 -0.2017
 2893SOL    HW120141   1.333   4.362   5.653 -0.9787  1.8446 -0.0188
 2893SOL    HW220142   1.210   4.302   5.622  0.2139 -0.1606 -0.4257
 2894SOL     OW20143   1.586   0.942   4.809  1.1652 -0.8894 -0.2420
 2894SOL    HW120144   1.625   0.895   4.736 -0.0919 -2.1220 -0.1310
 2894SOL    HW220145   1.565   1.031   4.781  0.4791 -1.3446 -1.1572
 2895SOL     OW20146   3.881   1.863   2.609  0.2249 -0.0541  0.5219
 2895SOL    HW120147   3.834   1.780   2.596 -1.1758  0.9408 -0.8395
 2895SOL    HW220148   3.942   1.859   2.535  0.5368  3.1441  0.6055
 2896SOL     OW20149   4.450   0.701   5.357 -0.0171 -0.0027 -0.2550
 2896SOL    HW120150   4.432   0.639   5.286 -0.8670  0.7373 -0.6776
 2896SOL    HW220151   4.545   0.687   5.363  0.0755  0.8849  0.2201
 2897SOL     OW20152   1.295   3.495   3.260  0.2035  0.0323  0.0486
 2897SOL    HW120153   1.291   3.461   3.171 -0.0431  0.1311  0.0247
 2897SOL    HW220154   1.351   3.425   3.294 -1.4799 -1.9595 -1.3155
 2898SOL     OW20155   4.314   1.191   5.561  0.0950  0.2548  0.4503
 2898SOL    HW120156   4.325   1.265   5.501  1.1986 -1.1442 -1.1047
 2898SOL    HW220157   4.326   1.122   5.494  0.1682  0.3454  0.3699
 2899SOL     OW20158   2.999   0.229  13.132  0.2883 -0.4803  0.4099
 2899SOL    HW120159   2.906   0.250  13.144  0.5680  0.3331  1.2236
 2899SOL    HW220160   2.980   0.143  13.095 -2.2529  0.7529 -1.1324
 2900SOL     OW20161   3.764   0.052   7.244 -0.0968  0.2863  0.0167
 2900SOL    HW120162   3.685   0.004   7.269 -0.3486  0.4087 -0.5397
 2900SOL    HW220163   3.768   0.109   7.321 -2.7492  0.5885 -0.0769
 2901SOL     OW20164   1.392   1.911   6.921  0.3665  0.0635 -0.3892
 2901SOL    HW120165   1.303   1.944   6.915  0.7968  0.9887 -1.8393
 2901SOL    HW220166   1.430   1.988   6.878 -0.4064  0.8222  0.2976
 2902SOL     OW20167   3.175   2.283  11.977 -0.3548  0.8413 -0.5723
 2902SOL    HW120168   3.255   2.330  11.952  0.4359 -1.2067 -1.8460
 2902SOL    HW220169   3.163   2.217  11.908 -4.1330 -1.4793  2.3398
 2903SOL     OW20170   2.671   4.259  14.667  0.3171 -0.2270  0.4114
 2903SOL    HW120171   2.633   4.214  14.743 -1.0666  0.8815  0.3801
 2903SOL    HW220172   2.671   4.351  14.692 -0.3924 -0.5581  1.6153
 2904SOL     OW20173   2.214   3.341   9.504  0.6579 -0.2110  0.6809
 2904SOL    HW120174   2.243   3.287   9.578  1.1956 -1.7922 -0.6812
 2904SOL    HW220175   2.123   3.360   9.528 -0.0281 -2.0576 -0.4787
 2905SOL     OW20176   1.549   3.420  12.093 -0.8484  0.1334  0.0346
 2905SOL    HW120177   1.567   3.495  12.149 -2.2210 -1.6120  2.8013
 2905SOL    HW220178   1.623   3.364  12.117 -2.5974 -1.6901  1.2123
 2906SOL     OW20179   2.592   3.847   7.515 -0.3373 -0.2180 -0.2133
 2906SOL    HW120180   2.558   3.904   7.447  1.2519  0.8525 -0.1156
 2906SOL    HW220181   2.617   3.776   7.456  1.0278  0.6372 -0.6653
 2907SOL     OW20182   1.601   2.635   4.100 -0.0859  0.2229 -0.3336
 2907SOL    HW120183   1.675   2.671   4.149  1.3622 -2.2253 -0.6923
 2907SOL    HW220184   1.536   2.701   4.121  1.0823  1.2423  0.0526
 2908SOL     OW20185   2.849   4.393   3.405  0.0392  0.3380  0.8525
 2908SOL    HW120186   2.793   4.470   3.396 -2.1703 -1.4234 -0.3146
 2908SOL    HW220187   2.932   4.436   3.383  0.2136 -0.4884 -0.1023
 2909SOL     OW20188   2.373   3.443  17.332 -0.1030 -0.1681  0.9644
 2909SOL    HW120189   2.395   3.484  17.249  0.4510  0.8470  1.6151
 2909SOL    HW220190   2.440   3.483  17.387 -1.8716  0.2227  2.8487
 2910SOL     OW20191   0.216   3.130   5.781  0.2036 -0.0999  0.3275
 2910SOL    HW120192   0.122   3.112   5.783  0.3730 -0.8489  1.8549
 2910SOL    HW220193   0.228   3.120   5.876 -2.6064 -0.6196  0.6241
 2911SOL     OW20194   3.664   0.457  15.142 -0.1262 -0.0161  0.6794
 2911SOL    HW120195   3.693   0.439  15.053  1.6908  0.5411  1.1523
 2911SOL    HW220196   3.611   0.536  15.130  0.1700  0.1507  0.4675
 2912SOL     OW20197   2.684   3.612   8.371  0.5264  0.5715 -0.1609
 2912SOL    HW120198   2.701   3.538   8.313  0.9669  0.1217  0.5488
 2912SOL    HW220199   2.711   3.685   8.314  0.2248 -0.2992 -1.4232
 2913SOL     OW20200   1.356   3.832   0.814  0.1249 -0.1662  0.7961
 2913SOL    HW120201   1.435   3.793   0.853  0.1030 -1.7520 -0.7155
 2913SOL    HW220202   1.297   3.760   0.789 -2.2272  2.3057 -0.6880
 2914SOL     OW20203   3.641   1.132   6.528 -0.1245 -0.6903 -0.1529
 2914SOL    HW120204   3.641   1.128   6.432  1.1216  1.1371 -0.2465
 2914SOL    HW220205   3.671   1.223   6.538 -0.1085 -0.7270  0.1243
 2915SOL     OW20206   3.516   4.282  14.516 -0.0617 -0.5078 -0.1780
 2915SOL    HW120207   3.469   4.364  14.498 -0.5260 -0.4283  1.4061
 2915SOL    HW220208   3.485   4.276  14.606 -3.2910  1.4468 -1.1484
 2916SOL     OW20209   4.621   2.976  17.248 -0.2503 -0.0900  0.3531
 2916SOL    HW120210   4.614   3.039  17.176 -1.5524 -1.5043 -0.7440
 2916SOL    HW220211   4.640   3.037  17.319  0.3773 -0.7584  0.7493
 2917SOL     OW20212   0.579   0.344   1.836 -0.1663 -0.4451  0.0514
 2917SOL    HW120213   0.495   0.390   1.832  0.7138  1.2836  0.9629
 2917SOL    HW220214   0.578   0.302   1.750 -2.8867  1.0081 -0.6279
 2918SOL     OW20215   2.009   0.155   3.431  0.2940 -0.5134  0.0027
 2918SOL    HW120216   1.915   0.146   3.449 -0.1210  1.8421 -0.9699
 2918SOL    HW220217   2.040   0.132   3.519  0.2179 -1.9960 -0.3570
 2919SOL     OW20218   1.282   0.473  13.109 -0.2305 -0.3511 -0.5893
 2919SOL    HW120219   1.362   0.525  13.102 -0.0746 -0.6650 -1.1119
 2919SOL    HW220220   1.262   0.450  13.018 -2.1848 -0.4242 -0.1502
 2920SOL     OW20221   4.296   0.017   7.159  0.1693  0.4721  0.0303
 2920SOL    HW120222   4.218   0.069   7.141  0.8064  0.8138 -1.7455
 2920SOL    HW220223   4.303   0.041   7.251 -0.4127 -3.7318  1.1766
 2921SOL     OW20224   1.043   2.917   9.885  0.1025  0.3404  0.0690
 2921SOL    HW120225   1.049   2.831   9.925  1.8596 -0.6831 -2.4025
 2921SOL    HW220226   0.967   2.949   9.933 -1.1194 -0.0659 -1.5719
 2922SOL     OW20227   1.323   1.046   2.257  0.1832 -0.7990 -0.3875
 2922SOL    HW120228   1.254   0.991   2.219 -0.0582 -0.2224 -0.7855
 2922SOL    HW220229   1.387   1.054   2.186  2.9931 -0.2291  2.2416
 2923SOL     OW20230   3.066   2.295   2.165 -0.5566 -0.3677 -0.4318
 2923SOL    HW120231   2.989   2.351   2.153 -0.0172  0.2434 -1.0714
 2923SOL    HW220232   3.120   2.306   2.087  0.3063 -1.2519  0.0386
 2924SOL     OW20233   3.877   2.793   4.124  0.6344 -0.2404 -0.2766
 2924SOL    HW120234   3.807   2.803   4.060 -1.2602 -0.3864  1.7657
 2924SOL    HW220235   3.882   2.880   4.164 -3.9310  0.1547 -0.6310
 2925SOL     OW20236   4.154   2.965  13.737  0.0652 -0.5383 -0.2180
 2925SOL    HW120237   4.137   3.031  13.804  0.5106 -1.2565  0.5957
 2925SOL    HW220238   4.169   3.021  13.660  1.8390 -0.3875  0.2225
 2926SOL     OW20239   4.595   3.711   9.671  0.1473  0.0313  0.0593
 2926SOL    HW120240   4.581   3.654   9.595  0.7001  3.2115 -2.4127
 2926SOL    HW220241   4.540   3.787   9.650 -0.7307 -0.2323  1.3915
 2927SOL     OW20242   3.806   0.856   5.380  0.3310 -0.3278  0.7042
 2927SOL    HW120243   3.735   0.889   5.325  0.8638 -1.1776 -0.5218
 2927SOL    HW220244   3.865   0.931   5.376 -0.4510  0.3664  2.3448
 2928SOL     OW20245   2.794   0.201   6.607  0.5318 -0.0334  0.5738
 2928SOL    HW120246   2.792   0.145   6.685  0.7362 -0.2381  0.4335
 2928SOL    HW220247   2.837   0.280   6.640 -1.7395  0.8947  1.3343
 2929SOL     OW20248   1.863   4.700  16.856 -0.3503 -0.2541 -0.0484
 2929SOL    HW120249   1.858   0.071  16.866  2.0670 -0.4899  3.6539
 2929SOL    HW220250   1.873   4.669  16.946 -1.4011 -2.6135 -0.7459
 2930SOL     OW20251   3.696   2.094   8.798 -0.0178 -0.3300 -0.5216
 2930SOL    HW120252   3.669   2.006   8.772 -0.2688  0.0289 -1.4825
 2930SOL    HW220253   3.665   2.099   8.889  1.3041  2.5343 -0.2343
 2931SOL     OW20254   1.447   2.924   1.076  0.6340  0.0767 -0.0045
 2931SOL    HW120255   1.382   2.909   1.145  0.8271  1.6854  0.5259
 2931SOL    HW220256   1.441   3.019   1.066 -0.7523  0.1877  1.8546
 2932SOL     OW20257   3.917   0.568  16.935 -0.3944  0.0474  0.7119
 2932SOL    HW120258   3.853   0.500  16.952  0.9917 -1.1721  1.0482
 2932SOL    HW220259   3.954   0.569  17.023  1.2783 -0.1627  0.0052
 2933SOL     OW20260   3.310   2.190   2.671 -0.8202  0.1214 -0.7226
 2933SOL    HW120261   3.397   2.220   2.645  0.1793 -1.0998  1.1944
 2933SOL    HW220262   3.329   2.153   2.757 -1.7778 -0.3427 -0.7168
 2934SOL     OW20263   0.049   4.462  13.762 -0.1325  0.2523 -0.1266
 2934SOL    HW120264   0.010   4.493  13.680  3.4661  1.9202 -1.2100
 2934SOL    HW220265   0.134   4.506  13.756 -0.0242  0.1609  0.6470
 2935SOL     OW20266   3.505   0.373   2.940  0.2465 -0.0594 -0.4656
 2935SOL    HW120267   3.470   0.407   3.022 -3.0600  0.6021 -2.1535
 2935SOL    HW220268   3.553   0.451   2.914 -0.5548  0.9978  1.2153
 2936SOL     OW20269   3.415   0.502  13.438  0.1995 -0.3003 -0.4481
 2936SOL    HW120270   3.395   0.534  13.350  0.3363  2.7493  0.6147
 2936SOL    HW220271   3.353   0.549  13.494  0.4859  2.2577 -2.2447
 2937SOL     OW20272   0.585   2.357  14.891  0.9441  0.1815  0.3383
 2937SOL    HW120273   0.651   2.403  14.839 -0.4895  0.2329 -1.4321
 2937SOL    HW220274   0.558   2.423  14.955 -1.0171 -0.4966  0.1975
 2938SOL     OW20275   1.485   4.248  17.600  0.1559 -0.0494 -0.3501
 2938SOL    HW120276   1.489   4.163  17.557  1.9537 -0.5187  0.7346
 2938SOL    HW220277   1.515   4.230  17.690 -1.5445  0.1742  0.2573
 2939SOL     OW20278   1.671   0.926   9.477  0.0358  0.5244 -0.4925
 2939SOL    HW120279   1.614   0.988   9.432 -1.2580  1.0997  1.9750
 2939SOL    HW220280   1.627   0.911   9.560  0.8025 -2.0792 -0.5343
 2940SOL     OW20281   2.054   4.347  14.257 -0.1835  0.2821  0.2900
 2940SOL    HW120282   2.013   4.279  14.204  0.8911  0.1409 -0.3644
 2940SOL    HW220283   2.139   4.307  14.273 -0.0725  1.7243  3.2444
 2941SOL     OW20284   0.007   1.120   1.374 -0.1424 -0.1409 -0.2338
 2941SOL    HW120285   4.707   1.108   1.282 -1.0754 -0.8268  0.0922
 2941SOL    HW220286   0.091   1.074   1.375  1.4708  2.7129 -2.9660
 2942SOL     OW20287   2.718   2.124   6.171 -0.1922 -0.2134  0.3059
 2942SOL    HW120288   2.688   2.153   6.084  0.1894  0.5292  0.4258
 2942SOL    HW220289   2.655   2.158   6.233  0.4086 -2.2906  2.0589
 2943SOL     OW20290   3.233   1.550  10.734  0.3451 -0.4081  0.0454
 2943SOL    HW120291   3.271   1.486  10.793 -1.2982  0.2162  1.7639
 2943SOL    HW220292   3.246   1.631  10.783  3.3121 -0.8570 -0.0418
 2944SOL     OW20293   3.711   3.692  10.626 -0.2418  0.1109 -0.0399
 2944SOL    HW120294   3.740   3.666  10.538 -0.4212 -1.4840  0.3809
 2944SOL    HW220295   3.685   3.783  10.613  0.1221  0.3798  1.1647
 2945SOL     OW20296   4.508   1.459   9.675 -0.9740 -0.0877 -0.2889
 2945SOL    HW120297   4.541   1.472   9.764  1.2162  1.1482 -1.2741
 2945SOL    HW220298   4.588   1.481   9.627 -1.4626  1.3594 -0.4398
 2946SOL     OW20299   2.007   4.093   4.402  0.4389  0.1776 -0.0397
 2946SOL    HW120300   1.919   4.054   4.400  0.4247  0.1524  1.1715
 2946SOL    HW220301   2.054   4.036   4.462  0.5713 -0.2296 -0.5255
 2947SOL     OW20302   0.152   2.753   8.793  0.4268 -0.2481  0.5267
 2947SOL    HW120303   0.088   2.743   8.724  1.4822  1.0975 -0.6552
 2947SOL    HW220304   0.190   2.666   8.777  1.3551  0.1156  0.6995
 2948SOL     OW20305   1.819   3.331  10.686 -0.0753  0.3644  0.0507
 2948SOL    HW120306   1.833   3.315  10.780  2.5586 -2.1053 -0.7537
 2948SOL    HW220307   1.737   3.283  10.675 -0.1419  0.2867  0.8465
 2949SOL     OW20308   0.166   2.604   5.815  0.0219 -0.7404 -0.5474
 2949SOL    HW120309   0.252   2.636   5.789  0.1347 -1.4166 -1.0040
 2949SOL    HW220310   0.176   2.509   5.823 -0.3453 -0.7936 -0.6936
 2950SOL     OW20311   3.436   2.208  15.516  0.1119 -0.1116  0.3042
 2950SOL    HW120312   3.408   2.293  15.482  1.7622 -0.0089 -0.8020
 2950SOL    HW220313   3.468   2.240  15.601  0.4452  0.4669 -0.0415
 2951SOL     OW20314   0.028   4.217   8.312 -0.0598 -0.2659  0.1926
 2951SOL    HW120315   0.039   4.229   8.218 -2.1962 -2.0061 -0.2744
 2951SOL    HW220316   0.082   4.293   8.334 -0.0582  0.5475 -2.5550
 2952SOL     OW20317   0.736   4.437   2.811  0.7641  0.2291 -0.6356
 2952SOL    HW120318   0.761   4.382   2.885 -1.1558  1.2990  0.7907
 2952SOL    HW220319   0.823   4.453   2.774  0.3310  0.5732 -1.4953
 2953SOL     OW20320   2.223   3.325   2.339  0.3069 -0.3130  0.2164
 2953SOL    HW120321   2.306   3.278   2.335 -0.2888 -1.2972 -0.5427
 2953SOL    HW220322   2.258   3.410   2.366  1.4486 -0.2983 -1.3450
 2954SOL     OW20323   0.888   3.693  17.515  0.3735 -0.1774 -0.4830
 2954SOL    HW120324   0.941   3.772  17.524 -0.9755  0.6904 -0.2444
 2954SOL    HW220325   0.816   3.710  17.575 -1.3409 -1.9391 -2.0637
 2955SOL     OW20326   2.191   2.635   6.150  0.1507 -0.1558 -0.1901
 2955SOL    HW120327   2.146   2.695   6.209 -1.4171 -1.2311 -0.2842
 2955SOL    HW220328   2.253   2.692   6.104  0.8855 -1.7557 -1.2124
 2956SOL     OW20329   0.845   0.613   8.282  0.5856 -0.1774  1.1135
 2956SOL    HW120330   0.779   0.681   8.266  2.2742  1.5569  1.5046
 2956SOL    HW220331   0.849   0.569   8.196 -0.4167  0.2140  0.8642
 2957SOL     OW20332   3.892   4.400   6.094  0.6692  0.6576 -0.1116
 2957SOL    HW120333   3.953   4.327   6.081  0.4059  0.4054  0.0672
 2957SOL    HW220334   3.856   4.370   6.178  0.8504 -1.6599 -0.8541
 2958SOL     OW20335   1.986   2.545   0.404 -0.2904 -0.4530  0.1209
 2958SOL    HW120336   2.074   2.511   0.385 -0.6855 -0.0192 -2.3973
 2958SOL    HW220337   2.007   2.620   0.460 -1.0097 -0.9640  1.0922
 2959SOL     OW20338   0.392   3.912   8.805  0.1517 -0.6292  0.1897
 2959SOL    HW120339   0.382   3.821   8.830 -1.8268  0.2039  2.4536
 2959SOL    HW220340   0.447   3.911   8.727  1.3905 -1.1649  1.0704
 2960SOL     OW20341   4.599   2.253   8.602  0.2108 -0.7077 -0.1945
 2960SOL    HW120342   4.694   2.258   8.586  0.2380  0.9239  0.4866
 2960SOL    HW220343   4.591   2.167   8.643 -1.7301 -1.4464 -2.1074
 2961SOL     OW20344   4.155   4.626   9.426  0.1415 -0.6173 -0.7880
 2961SOL    HW120345   4.212   4.689   9.381 -0.9770 -1.9214 -4.0331
 2961SOL    HW220346   4.108   4.593   9.350 -2.4640  0.8618  0.1790
 2962SOL     OW20347   2.842   0.864   8.333  0.0642 -0.3333 -0.4872
 2962SOL    HW120348   2.753   0.831   8.342  0.9405 -1.7241  3.1374
 2962SOL    HW220349   2.895   0.797   8.376  1.5789  1.2968  0.1745
 2963SOL     OW20350   0.958   2.631   6.708  0.5734  0.4431  0.0682
 2963SOL    HW120351   1.032   2.693   6.711  1.5525 -0.6341 -1.8915
 2963SOL    HW220352   0.993   2.557   6.659 -1.9640  0.7381 -2.1611
 2964SOL     OW20353   2.988   1.654   5.842  0.0903 -0.8806  0.4772
 2964SOL    HW120354   2.979   1.665   5.936 -2.8897  0.3070  0.0479
 2964SOL    HW220355   3.079   1.683   5.832 -0.0644 -0.5082  0.1687
 2965SOL     OW20356   0.724   0.659   9.956 -0.0265  0.4019  0.0811
 2965SOL    HW120357   0.800   0.629  10.004  0.1167  0.4095 -0.1402
 2965SOL    HW220358   0.752   0.650   9.865  0.2319 -1.7194  0.3781
 2966SOL     OW20359   3.811   2.671  17.500 -0.2357 -0.1463  0.0752
 2966SOL    HW120360   3.863   2.601  17.540 -1.0344  0.6638  2.5237
 2966SOL    HW220361   3.810   2.740  17.566 -0.6359 -1.6595  1.6416
 2967SOL     OW20362   1.458   0.753   4.371 -0.2060 -0.0310  0.2063
 2967SOL    HW120363   1.488   0.687   4.308  0.6162 -0.0551  0.6203
 2967SOL    HW220364   1.498   0.834   4.337  0.2710 -0.6647 -0.7542
 2968SOL     OW20365   1.723   3.083   4.110 -0.8022 -0.0593 -0.5033
 2968SOL    HW120366   1.663   3.136   4.058 -1.4859 -0.9080 -0.5963
 2968SOL    HW220367   1.732   3.005   4.055 -0.2153 -0.3126 -0.0484
 2969SOL     OW20368   0.033   1.985  14.399 -0.0104  0.4070 -0.1213
 2969SOL    HW120369   0.024   2.078  14.378  0.3905  0.1615 -1.4150
 2969SOL    HW220370   4.666   1.954  14.393  1.3883 -3.9773  1.8463
 2970SOL     OW20371   3.873   3.501   4.728 -0.0707 -0.9125 -0.1429
 2970SOL    HW120372   3.852   3.420   4.681  3.0938 -0.7882 -1.7922
 2970SOL    HW220373   3.882   3.556   4.650 -2.2925  3.6819  2.8572
 2971SOL     OW20374   0.608   3.623   2.548  0.5725  0.5724 -0.1608
 2971SOL    HW120375   0.693   3.662   2.568  0.6382  0.6303 -0.5507
 2971SOL    HW220376   0.568   3.619   2.634 -1.3785 -1.3066 -1.1700
 2972SOL     OW20377   2.742   2.922   8.524 -0.4832  0.7367  0.2781
 2972SOL    HW120378   2.723   2.855   8.590 -0.8966 -0.1637 -0.7435
 2972SOL    HW220379   2.764   2.881   8.440  0.4612 -1.2496  1.5007
 2973SOL     OW20380   3.402   3.994   6.680  0.3572 -0.7090 -0.2141
 2973SOL    HW120381   3.344   4.027   6.749 -0.0867 -0.3935 -0.7383
 2973SOL    HW220382   3.346   3.930   6.635 -0.3203 -0.1241 -0.1922
 2974SOL     OW20383   3.238   1.100   2.400  0.0065 -0.5323 -0.1126
 2974SOL    HW120384   3.158   1.059   2.434  0.7036  0.0459  2.1648
 2974SOL    HW220385   3.311   1.053   2.440 -1.2938 -2.0977  0.3988
 2975SOL     OW20386   3.513   3.463   6.632  0.5144 -0.6044 -0.7822
 2975SOL    HW120387   3.521   3.448   6.538  0.2438  2.2349 -1.2633
 2975SOL    HW220388   3.606   3.480   6.648 -0.1433  0.7299  1.5640
 2976SOL     OW20389   1.742   4.226   4.155 -0.1463 -0.5277  0.4086
 2976SOL    HW120390   1.718   4.155   4.215  1.6477 -1.8270 -0.4150
 2976SOL    HW220391   1.726   4.193   4.066  0.7856 -0.5675  0.2547
 2977SOL     OW20392   0.466   2.703   2.262 -0.6433  0.0471  0.3279
 2977SOL    HW120393   0.460   2.734   2.352 -0.5289  1.8002 -0.2545
 2977SOL    HW220394   0.512   2.621   2.275  0.7071  1.0691  2.0282
 2978SOL     OW20395   1.516   1.602   0.500 -0.0952 -0.0504 -0.1723
 2978SOL    HW120396   1.510   1.681   0.553  0.5156 -0.1181 -0.0047
 2978SOL    HW220397   1.573   1.637   0.431  0.4560  1.1090  0.8634
 2979SOL     OW20398   0.098   1.234   3.648  0.4964 -0.1684 -0.4620
 2979SOL    HW120399   0.137   1.262   3.731 -1.1880  0.6787  0.0457
 2979SOL    HW220400   0.022   1.292   3.649  0.7272  0.1505 -1.5500
 2980SOL     OW20401   4.518   3.982   3.680  0.3008  0.0180  0.5679
 2980SOL    HW120402   4.460   3.971   3.605  0.5690  0.8050  0.2414
 2980SOL    HW220403   4.555   3.895   3.688 -1.8763 -0.7399  2.4623
 2981SOL     OW20404   3.317   1.139   4.533 -0.5625  0.3277 -0.6153
 2981SOL    HW120405   3.379   1.195   4.579 -1.7772 -0.2399  1.7440
 2981SOL    HW220406   3.298   1.187   4.452 -1.4610 -1.1861 -1.3083
 2982SOL     OW20407   3.631   0.782   6.686  0.4251 -0.1975 -0.6008
 2982SOL    HW120408   3.699   0.849   6.692  1.7511 -1.5518 -0.3229
 2982SOL    HW220409   3.635   0.734   6.769  1.0286  0.3928 -0.2827
 2983SOL     OW20410   2.155   3.426  17.549 -0.3565  0.0838  0.7539
 2983SOL    HW120411   2.214   3.409  17.475  0.4763  0.4587  1.3350
 2983SOL    HW220412   2.179   3.350  17.602  0.8792  0.4618  0.7437
 2984SOL     OW20413   0.013   3.573   2.958  0.0148  0.1350  0.3290
 2984SOL    HW120414   0.094   3.522   2.961 -1.0796 -1.6553 -0.2716
 2984SOL    HW220415   4.711   3.588   3.049 -0.1376  1.2110  0.1080
 2985SOL     OW20416   3.501   3.628  14.247 -0.5281 -0.0612  0.1278
 2985SOL    HW120417   3.472   3.552  14.195  0.1140 -0.6981  0.7123
 2985SOL    HW220418   3.494   3.692  14.176 -1.1581  1.6619  1.7432
 2986SOL     OW20419   3.583   2.934   8.667 -0.2103  0.2127  0.0159
 2986SOL    HW120420   3.543   3.021   8.659 -0.2860  0.3989  2.4080
 2986SOL    HW220421   3.670   2.950   8.630 -0.0052 -2.1584 -0.5333
 2987SOL     OW20422   1.537   2.812   3.775  0.0886  0.3340  0.1042
 2987SOL    HW120423   1.460   2.838   3.826  1.5067  1.8554  1.4561
 2987SOL    HW220424   1.562   2.723   3.802 -0.0539  0.0293 -0.7737
 2988SOL     OW20425   3.688   1.224   5.419  0.4795  0.1436  0.1899
 2988SOL    HW120426   3.781   1.199   5.416  0.8249  1.2398  1.7900
 2988SOL    HW220427   3.673   1.264   5.334  2.2242 -0.9331 -0.6350
 2989SOL     OW20428   0.242   0.271   7.197 -0.0496  0.2322  0.0701
 2989SOL    HW120429   0.224   0.337   7.131  0.2341 -0.0896 -0.3318
 2989SOL    HW220430   0.176   0.205   7.175  0.4919 -1.0579  2.2326
 2990SOL     OW20431   2.987   2.820   3.097 -0.2754  0.5151  0.1772
 2990SOL    HW120432   2.902   2.827   3.053  0.0161  3.5978  0.1194
 2990SOL    HW220433   2.955   2.793   3.183 -0.2433  2.0209  0.6590
 2991SOL     OW20434   2.612   2.541   3.096 -0.2482 -0.6173  0.6191
 2991SOL    HW120435   2.524   2.555   3.132 -0.2929 -2.1670  1.0934
 2991SOL    HW220436   2.666   2.571   3.168 -0.3378  0.9514  0.0388
 2992SOL     OW20437   3.109   2.620   8.708 -0.3296  0.0209 -0.0793
 2992SOL    HW120438   3.152   2.699   8.675 -0.0687 -0.5082 -1.0147
 2992SOL    HW220439   3.159   2.557   8.656  1.1276  0.7321  0.4779
 2993SOL     OW20440   0.151   2.281   7.202 -0.2180 -0.5997 -0.5220
 2993SOL    HW120441   0.137   2.357   7.257  1.3963 -1.5324  1.1930
 2993SOL    HW220442   0.127   2.214   7.266  1.0897 -0.2781  0.3038
 2994SOL     OW20443   0.039   2.823  13.188 -0.2850  0.6017 -0.2070
 2994SOL    HW120444   0.046   2.753  13.123  0.7471  1.5864 -1.1504
 2994SOL    HW220445   0.103   2.882  13.149 -0.1820  0.7688  0.2105
 2995SOL     OW20446   0.157   0.484   9.774  0.8594  0.0654 -0.2590
 2995SOL    HW120447   0.250   0.478   9.794  0.5500 -0.6215  0.9807
 2995SOL    HW220448   0.137   0.402   9.729  1.4329 -1.2126  1.7994
 2996SOL     OW20449   0.443   1.246   9.011 -0.2630  0.6347 -0.5641
 2996SOL    HW120450   0.437   1.329   8.964  0.6965  1.0885  0.1063
 2996SOL    HW220451   0.350   1.223   9.009  0.0455 -0.5321 -1.9207
 2997SOL     OW20452   2.382   0.240   4.235  0.4440  0.1479  0.3466
 2997SOL    HW120453   2.418   0.153   4.254 -0.2987 -0.2200  0.0482
 2997SOL    HW220454   2.290   0.221   4.219  0.1202  2.6725 -0.8116
 2998SOL     OW20455   2.861   1.595  11.906  0.3189  0.1702  0.1473
 2998SOL    HW120456   2.906   1.567  11.985  1.2233 -1.1721 -0.8391
 2998SOL    HW220457   2.852   1.690  11.915 -2.5091 -0.0744 -0.1589
 2999SOL     OW20458   2.484   3.257   2.348  0.0245  0.1176 -0.0959
 2999SOL    HW120459   2.512   3.309   2.273  0.2159 -1.2800 -0.9708
 2999SOL    HW220460   2.506   3.316   2.421 -1.5813 -1.1464  1.4261
 3000SOL     OW20461   3.444   3.405  14.854 -0.1963  0.4067  0.4224
 3000SOL    HW120462   3.382   3.387  14.783  1.4525  3.0896 -1.7306
 3000SOL    HW220463   3.401   3.474  14.905 -0.5813 -0.4894  1.3109
 3001SOL     OW20464   1.370   1.150   5.577  0.5806 -0.4465 -0.5155
 3001SOL    HW120465   1.418   1.074   5.608  1.6754  0.1314 -0.8139
 3001SOL    HW220466   1.378   1.128   5.484  0.5331 -0.7011 -0.4611
 3002SOL     OW20467   2.696   0.086   3.952 -0.5114  0.4216  0.0127
 3002SOL    HW120468   2.645   0.079   3.871  1.3073  1.4193 -1.2134
 3002SOL    HW220469   2.654   0.161   3.995  0.8052  0.8239  0.5934
 3003SOL     OW20470   3.027   0.832  12.617 -0.0669  0.2506 -0.1915
 3003SOL    HW120471   3.005   0.781  12.695 -1.5561  0.3980 -0.5109
 3003SOL    HW220472   3.076   0.772  12.562  0.5283 -0.4158  1.0494
 3004SOL     OW20473   3.599   2.141   6.588 -0.6512  0.1240  0.0820
 3004SOL    HW120474   3.585   2.117   6.679  0.4363 -0.7814  0.0046
 3004SOL    HW220475   3.688   2.109   6.571 -0.2443 -0.2806  2.9952
 3005SOL     OW20476   4.441   0.950   5.494 -0.0897  0.1572  0.1063
 3005SOL    HW120477   4.512   1.011   5.472  0.7569 -1.6575 -2.1874
 3005SOL    HW220478   4.469   0.875   5.441 -0.5503 -0.6758  1.0687
 3006SOL     OW20479   0.668   1.330   9.498 -0.3181 -0.0086  0.1783
 3006SOL    HW120480   0.689   1.409   9.448  1.8001 -0.6937  0.0107
 3006SOL    HW220481   0.606   1.379   9.552  2.6873  1.9820  1.8205
 3007SOL     OW20482   0.351   1.402   8.057 -0.2622  0.3096  0.0550
 3007SOL    HW120483   0.354   1.316   8.098 -1.7922  0.6568  0.8618
 3007SOL    HW220484   0.439   1.400   8.019 -0.2794 -2.6263  0.1763
 3008SOL     OW20485   2.454   3.211  12.319  0.0027  0.7365  0.4769
 3008SOL    HW120486   2.486   3.161  12.394  0.0987  1.3680  0.8533
 3008SOL    HW220487   2.517   3.283  12.317  2.4855 -1.4395  0.6678
 3009SOL     OW20488   4.318   1.350   5.217 -0.3171 -0.3454 -0.0653
 3009SOL    HW120489   4.313   1.380   5.308 -2.6267 -2.4862  0.5012
 3009SOL    HW220490   4.402   1.384   5.186 -0.4899 -0.1800 -0.3491
 3010SOL     OW20491   1.082   3.266  10.417  0.1659  0.6716 -0.2081
 3010SOL    HW120492   1.025   3.192  10.440 -1.5687  1.8969 -0.5766
 3010SOL    HW220493   1.080   3.261  10.322 -1.1150  2.0813 -0.2654
 3011SOL     OW20494   2.439   2.555   3.642 -0.9901  0.6347 -0.4289
 3011SOL    HW120495   2.528   2.583   3.625 -0.9490 -0.2179 -1.6289
 3011SOL    HW220496   2.401   2.638   3.614 -0.2358  0.8075 -0.9356
 3012SOL     OW20497   2.366   3.040   4.137  0.2253  0.2256 -0.0443
 3012SOL    HW120498   2.440   3.075   4.187  1.6988 -1.0829 -1.3222
 3012SOL    HW220499   2.318   3.123   4.127  0.4552  0.7523  3.1171
 3013SOL     OW20500   0.173   2.919   5.509 -0.3353 -0.0697  0.2810
 3013SOL    HW120501   0.220   3.003   5.515 -2.2196  1.0272 -0.4246
 3013SOL    HW220502   0.243   2.863   5.542 -1.8567 -0.8485  2.1941
 3014SOL     OW20503   3.033   4.626   5.349 -0.4005  0.3486 -0.2431
 3014SOL    HW120504   3.075   4.590   5.427  1.0984  2.5395 -0.0521
 3014SOL    HW220505   3.096   4.694   5.325  1.7128 -1.6007 -0.3129
 3015SOL     OW20506   3.831   3.498  10.808  0.1237 -0.0238 -0.0868
 3015SOL    HW120507   3.884   3.444  10.750 -2.1595 -2.2439 -0.0685
 3015SOL    HW220508   3.805   3.564  10.743  0.2552 -0.0620 -0.1780
 3016SOL     OW20509   2.830   3.071   2.281  0.1196  0.3302  0.4723
 3016SOL    HW120510   2.845   3.140   2.216  0.7878  2.2505  2.6453
 3016SOL    HW220511   2.861   3.112   2.361 -0.4831  1.9707 -0.1387
 3017SOL     OW20512   2.467   3.774   0.894  0.4802 -0.5998  0.0084
 3017SOL    HW120513   2.455   3.836   0.822 -1.9275 -0.4891  0.5050
 3017SOL    HW220514   2.426   3.826   0.963  1.6032  1.0362 -0.5620
 3018SOL     OW20515   1.467   3.076  12.455  0.2693  0.3365 -0.1740
 3018SOL    HW120516   1.406   3.122  12.513 -0.3202 -0.3817 -0.2274
 3018SOL    HW220517   1.447   2.986  12.480  1.2289  0.2461  0.2573
 3019SOL     OW20518   4.083   3.980   1.689  0.1201 -0.2319  0.0296
 3019SOL    HW120519   4.146   3.924   1.643  0.7764  0.0276  0.6250
 3019SOL    HW220520   4.096   4.065   1.647 -2.2982 -0.1186 -0.5052
 3020SOL     OW20521   4.336   1.445   2.843  0.3263  0.0921 -0.1802
 3020SOL    HW120522   4.303   1.507   2.908  1.5618  1.0334 -0.4622
 3020SOL    HW220523   4.255   1.414   2.803  0.3920  0.5161 -0.6431
 3021SOL     OW20524   3.912   3.032   6.782 -0.2691  0.4591  0.1624
 3021SOL    HW120525   3.936   2.973   6.711  0.4746 -0.1130  0.8897
 3021SOL    HW220526   3.872   3.101   6.729  0.5718  1.6105  1.0094
 3022SOL     OW20527   4.401   1.511   3.164 -0.4169 -0.0668 -0.1811
 3022SOL    HW120528   4.334   1.567   3.126  0.2877  0.6956 -0.3008
 3022SOL    HW220529   4.447   1.562   3.231 -3.8356  0.7758  1.5152
 3023SOL     OW20530   2.159   4.218  13.976  0.0906 -0.3159 -0.2256
 3023SOL    HW120531   2.174   4.278  13.904 -0.1813 -0.1413 -0.1393
 3023SOL    HW220532   2.067   4.234  13.999  0.4355  0.3130  0.7090
 3024SOL     OW20533   3.859   3.827   7.814 -0.6000 -0.1749 -0.1471
 3024SOL    HW120534   3.788   3.806   7.875  0.0830  0.5238  0.8802
 3024SOL    HW220535   3.920   3.835   7.887  0.1262  5.6901 -1.4454
 3025SOL     OW20536   1.624   2.693   2.053 -0.2064 -0.1657 -0.2391
 3025SOL    HW120537   1.709   2.652   2.068 -0.0722  0.8888  1.9134
 3025SOL    HW220538   1.647   2.772   2.005 -1.4432 -0.4322 -1.2717
 3026SOL     OW20539   2.239   4.690   0.811  0.2562  0.2092  0.3412
 3026SOL    HW120540   2.228   0.051   0.767  0.8022  0.5593  0.8793
 3026SOL    HW220541   2.321   4.663   0.770  0.2781 -0.3896  0.7854
 3027SOL     OW20542   3.628   1.655  10.798 -0.3376 -0.0539  0.4084
 3027SOL    HW120543   3.620   1.686  10.888  0.3619 -2.5047  1.3336
 3027SOL    HW220544   3.719   1.625  10.804 -0.8678 -1.9726 -1.0852
 3028SOL     OW20545   3.158   3.105   2.931 -0.6712 -0.1027  0.1856
 3028SOL    HW120546   3.217   3.030   2.923 -0.8213 -0.2119  0.0968
 3028SOL    HW220547   3.212   3.173   2.971 -1.3001  0.6848 -0.3060
 3029SOL     OW20548   0.891   4.356   5.750  0.3106 -0.0014  0.0967
 3029SOL    HW120549   0.890   4.287   5.683  2.0619 -1.8860  2.0121
 3029SOL    HW220550   0.801   4.366   5.781  0.3139 -1.8096  0.7070
 3030SOL     OW20551   4.244   2.634   7.218  0.7593 -0.1663  0.1694
 3030SOL    HW120552   4.183   2.573   7.177 -0.5434  2.7943 -2.2665
 3030SOL    HW220553   4.279   2.679   7.142  0.4579  1.7556  1.1731
 3031SOL     OW20554   1.305   0.732   7.018 -0.4223  0.1711  0.3276
 3031SOL    HW120555   1.360   0.711   6.942  0.0882 -1.8295  1.2534
 3031SOL    HW220556   1.284   0.821   6.990  1.2860 -0.1325 -1.9699
 3032SOL     OW20557   2.021   2.082  12.170 -0.0929 -0.0641 -0.2536
 3032SOL    HW120558   1.963   2.122  12.235 -3.2993 -2.7464 -1.4990
 3032SOL    HW220559   2.011   2.131  12.089  2.0138  0.4749 -0.1933
 3033SOL     OW20560   1.313   3.841   8.844 -0.1179 -0.2915  0.6938
 3033SOL    HW120561   1.357   3.901   8.785  1.8072 -0.6760  1.7125
 3033SOL    HW220562   1.316   3.759   8.795 -0.2057 -0.9745  1.8112
 3034SOL     OW20563   2.661   1.662   2.630  0.2035 -0.4161  0.2997
 3034SOL    HW120564   2.572   1.638   2.604 -0.3466  1.4093  0.4666
 3034SOL    HW220565   2.662   1.753   2.599 -2.9791 -0.1738  0.9329
 3035SOL     OW20566   0.779   4.632   7.386  0.0564 -0.1362 -0.0933
 3035SOL    HW120567   0.874   4.622   7.393  0.0562 -1.2616 -1.7977
 3035SOL    HW220568   0.769   0.004   7.381 -2.0622 -0.2654  1.8928
 3036SOL     OW20569   0.313   4.538   8.095  0.7509 -0.0959 -0.0814
 3036SOL    HW120570   0.400   4.564   8.125 -0.4811  0.3936  3.0976
 3036SOL    HW220571   0.274   4.612   8.049  1.4653  0.8143  0.7788
 3037SOL     OW20572   1.886   4.491   7.848  0.2763 -0.1911  0.3687
 3037SOL    HW120573   1.898   4.489   7.943 -0.8486  1.7291  0.5479
 3037SOL    HW220574   1.963   4.538   7.817  0.9938 -1.4498  0.2653
 3038SOL     OW20575   0.294   2.748  11.848  0.2560  0.2866  0.2772
 3038SOL    HW120576   0.300   2.698  11.767 -0.3266 -0.0411  0.4393
 3038SOL    HW220577   0.253   2.686  11.909 -0.8211  0.8705  0.1345
 3039SOL     OW20578   2.314   4.448   0.999 -0.4929  0.1760  0.3078
 3039SOL    HW120579   2.390   4.505   0.990 -1.0783  0.8131 -0.5869
 3039SOL    HW220580   2.249   4.515   1.019  0.8340  1.4480  0.3183
 3040SOL     OW20581   3.308   2.108  11.522  0.2132 -0.1340 -0.6055
 3040SOL    HW120582   3.313   2.162  11.443  2.1115  0.2235 -0.2469
 3040SOL    HW220583   3.392   2.061  11.530  0.7525  1.1983  1.3378
 3041SOL     OW20584   3.869   0.128  15.028  0.3234  0.0364 -0.4799
 3041SOL    HW120585   3.958   0.112  15.060  0.1975 -0.8331 -0.5643
 3041SOL    HW220586   3.838   0.186  15.098  2.9416  2.8488 -1.6585
 3042SOL     OW20587   1.395   3.753   6.018 -0.4915 -0.2928  0.1972
 3042SOL    HW120588   1.359   3.749   6.106 -1.0396 -0.1314 -0.0211
 3042SOL    HW220589   1.466   3.689   6.027  0.9405  0.9385 -2.4178
 3043SOL     OW20590   3.370   1.696   6.350 -0.0237  0.3894  0.4601
 3043SOL    HW120591   3.458   1.678   6.317 -0.1024  0.6234  0.1219
 3043SOL    HW220592   3.326   1.635   6.291  1.7433  0.4297 -0.9066
 3044SOL     OW20593   2.864   2.359   5.805  0.2157  0.3982  0.2014
 3044SOL    HW120594   2.896   2.366   5.714  0.9836  1.7976  0.5835
 3044SOL    HW220595   2.862   2.451   5.832 -2.0254  0.7795 -1.3225
 3045SOL     OW20596   3.482   1.574   4.310  0.0182 -0.3778 -0.1634
 3045SOL    HW120597   3.477   1.617   4.225  0.2219 -3.5485 -1.7986
 3045SOL    HW220598   3.578   1.571   4.312  0.0488  0.7179 -0.1829
 3046SOL     OW20599   2.077   2.159   2.049 -0.5457  0.3661  0.3019
 3046SOL    HW120600   2.111   2.214   1.979  1.0813 -1.3192 -0.2387
 3046SOL    HW220601   2.068   2.234   2.108 -0.5887  1.0377 -0.5581
 3047SOL     OW20602   3.321   0.237  13.658  0.7982 -0.1067 -0.0106
 3047SOL    HW120603   3.271   0.172  13.706  2.0069 -0.3340  0.9488
 3047SOL    HW220604   3.307   0.206  13.568  0.7746 -0.4090  0.0979
 3048SOL     OW20605   3.371   1.514   2.750  0.1693 -0.6473  0.3518
 3048SOL    HW120606   3.447   1.460   2.771  1.7726  0.5726 -2.2745
 3048SOL    HW220607   3.310   1.441   2.737 -1.4744  0.7324  0.3935
 3049SOL     OW20608   1.336   2.978  17.570  0.2704 -0.0165  0.1177
 3049SOL    HW120609   1.257   2.928  17.547 -0.3897  0.0880  2.1603
 3049SOL    HW220610   1.334   2.977  17.666  0.1913  0.6934  0.1261
 3050SOL     OW20611   1.765   3.817   1.408  0.2099  0.0618  0.5488
 3050SOL    HW120612   1.757   3.819   1.312 -3.1434  0.7384  0.8635
 3050SOL    HW220613   1.680   3.849   1.437 -0.4237  0.1863 -1.4479
 3051SOL     OW20614   2.028   1.538   3.635  0.2320  0.3926 -0.7349
 3051SOL    HW120615   2.020   1.566   3.726  0.6020 -0.4916 -0.4264
 3051SOL    HW220616   2.082   1.609   3.602  0.0685  0.7956 -0.1409
 3052SOL     OW20617   0.646   4.447   3.446  0.2176 -0.8629 -0.0423
 3052SOL    HW120618   0.706   4.521   3.443  2.1044 -2.4364 -1.4728
 3052SOL    HW220619   0.578   4.478   3.506  0.5005  0.2256 -0.2930
 3053SOL     OW20620   4.108   3.092   3.085  0.1280  0.8606 -0.4875
 3053SOL    HW120621   4.047   3.096   3.159 -0.5293 -1.1607 -0.9296
 3053SOL    HW220622   4.052   3.079   3.008  0.2906 -1.9271 -0.1069
 3054SOL     OW20623   3.420   3.720   7.828  0.7421 -0.3918  0.6742
 3054SOL    HW120624   3.415   3.756   7.916 -1.0345  0.2233  0.3305
 3054SOL    HW220625   3.513   3.734   7.808  0.1935  0.3217 -1.3917
 3055SOL     OW20626   2.088   4.687   2.025  0.3821  0.3382 -0.1822
 3055SOL    HW120627   2.031   4.610   2.025 -0.4606  0.9897 -3.9908
 3055SOL    HW220628   2.035   0.018   1.967  0.3709  0.8321  0.2870
 3056SOL     OW20629   0.581   3.739   7.648  0.7400  0.0264 -0.2857
 3056SOL    HW120630   0.522   3.781   7.585 -1.2338  2.1676  3.0106
 3056SOL    HW220631   0.519   3.702   7.710 -0.5056  2.7091  0.0893
 3057SOL     OW20632   3.888   3.030   7.323 -0.1955  0.2582 -0.1492
 3057SOL    HW120633   3.963   3.044   7.380 -1.2830 -1.1688  1.6405
 3057SOL    HW220634   3.917   2.959   7.267  0.2320  1.0877 -0.9814
 3058SOL     OW20635   3.784   2.323   0.570 -0.9471 -0.1330 -0.3178
 3058SOL    HW120636   3.727   2.331   0.646 -1.6480  0.0902 -0.8715
 3058SOL    HW220637   3.799   2.229   0.578  0.1581 -0.0381 -1.2852
 3059SOL     OW20638   2.855   0.478  11.167 -0.0458  0.3264  0.3114
 3059SOL    HW120639   2.791   0.547  11.147 -0.7083 -0.0858  1.0175
 3059SOL    HW220640   2.930   0.511  11.119  0.5096  1.6654  2.1168
 3060SOL     OW20641   0.036   1.317  17.238  0.3852 -0.2991  0.2232
 3060SOL    HW120642   0.023   1.377  17.312  2.0204 -1.1575  1.1851
 3060SOL    HW220643   0.059   1.381  17.170 -3.5503 -0.6177 -1.4682
 3061SOL     OW20644   3.236   4.248   3.749  0.7624 -0.3950 -0.3393
 3061SOL    HW120645   3.289   4.272   3.672  0.4768 -1.4220 -0.8542
 3061SOL    HW220646   3.146   4.260   3.721  1.3884 -1.0272 -2.6793
 3062SOL     OW20647   0.607   1.315   6.202 -0.6196 -0.5086  0.0142
 3062SOL    HW120648   0.628   1.238   6.149 -0.6573 -0.7540  0.3555
 3062SOL    HW220649   0.649   1.293   6.285 -0.7087 -1.1927 -0.1247
 3063SOL     OW20650   0.066   3.315  14.535  0.3478 -0.3659  0.2941
 3063SOL    HW120651   0.126   3.304  14.609  1.8377  2.5598 -0.4357
 3063SOL    HW220652   4.716   3.370  14.563  0.3164 -0.6800  0.8237
 3064SOL     OW20653   0.302   0.810  10.220  0.1470  0.6309  0.4927
 3064SOL    HW120654   0.230   0.762  10.259 -0.6940  0.5700 -1.1310
 3064SOL    HW220655   0.300   0.773  10.131  0.0437  0.3826  0.5981
 3065SOL     OW20656   4.613   2.771   0.799 -0.1467  0.0018 -0.5700
 3065SOL    HW120657   4.570   2.703   0.851 -1.2263  0.6997 -0.5478
 3065SOL    HW220658   4.535   2.823   0.778  1.2449  1.6450 -1.6655
 3066SOL     OW20659   4.084   4.018   6.387 -0.4366  0.3750  0.0890
 3066SOL    HW120660   4.069   3.981   6.300  0.5298 -0.2516  0.1897
 3066SOL    HW220661   4.114   3.936   6.428  0.8711 -0.0536 -1.7549
 3067SOL     OW20662   0.579   2.230   8.304  0.0066 -0.4011 -0.1132
 3067SOL    HW120663   0.586   2.217   8.209  2.3483  2.4957 -0.3503
 3067SOL    HW220664   0.650   2.292   8.319  1.0458 -1.7024  0.3479
 3068SOL     OW20665   0.645   2.084   7.061  0.3787  0.0125  0.0851
 3068SOL    HW120666   0.573   2.126   7.108  0.3208 -0.5711  0.5166
 3068SOL    HW220667   0.671   2.017   7.124 -2.2816 -1.3734 -0.2840
 3069SOL     OW20668   3.628   0.463   5.358  0.1105 -0.4706  0.2524
 3069SOL    HW120669   3.615   0.555   5.381  1.6474  0.1327 -1.3037
 3069SOL    HW220670   3.546   0.440   5.314 -0.1076  0.6239  0.0877
 3070SOL     OW20671   3.104   2.016   8.371  0.0773 -0.3822 -0.1516
 3070SOL    HW120672   3.014   2.001   8.343 -0.4169  2.7598 -0.1526
 3070SOL    HW220673   3.130   1.934   8.413 -1.3911 -0.5605  0.4106
 3071SOL     OW20674   3.763   2.859  14.420 -0.0120  1.0274 -0.0057
 3071SOL    HW120675   3.788   2.862  14.512 -0.1512  0.4001  0.0586
 3071SOL    HW220676   3.785   2.947  14.390 -3.3584  2.0927  0.7154
 3072SOL     OW20677   3.541   1.202   9.426  0.2530 -0.1975 -0.3619
 3072SOL    HW120678   3.524   1.150   9.347  1.3063  1.3998 -1.6271
 3072SOL    HW220679   3.590   1.147   9.488  1.4792  0.5932 -0.6243
 3073SOL     OW20680   1.340   1.024   4.541  0.3561  0.3837  0.7283
 3073SOL    HW120681   1.422   0.976   4.544  0.2082  0.0437 -0.4741
 3073SOL    HW220682   1.328   1.064   4.627  1.3031 -0.5004  1.2621
 3074SOL     OW20683   0.633   4.612   1.842  0.2559 -0.5569 -0.6362
 3074SOL    HW120684   0.686   4.633   1.918 -0.5900  0.3469 -0.2939
 3074SOL    HW220685   0.671   4.531   1.809 -0.0476 -1.2051  0.6273
 3075SOL     OW20686   0.997   0.705   7.280  0.2309 -0.0356 -0.3929
 3075SOL    HW120687   0.942   0.631   7.252 -0.4487 -0.8057  3.0420
 3075SOL    HW220688   1.021   0.674   7.367  0.9500 -0.1230 -0.6230
 3076SOL     OW20689   0.352   2.210   3.386  0.3061 -0.1358  0.8405
 3076SOL    HW120690   0.333   2.201   3.480  0.3907 -1.9791  0.6846
 3076SOL    HW220691   0.293   2.147   3.345  2.5847 -1.9345  0.2696
 3077SOL     OW20692   3.720   1.298  14.288  0.8312  0.4194  0.9431
 3077SOL    HW120693   3.743   1.212  14.322  2.4770 -0.3341 -2.0385
 3077SOL    HW220694   3.630   1.312  14.319  0.0066 -2.1229 -0.2787
 3078SOL     OW20695   3.455   4.132   2.380 -0.1797 -0.0617  0.5478
 3078SOL    HW120696   3.488   4.172   2.299 -2.0992  0.9331  0.2595
 3078SOL    HW220697   3.436   4.041   2.357  1.0859  0.4164 -2.3652
 3079SOL     OW20698   2.632   3.074   4.940  0.3942  0.8391 -0.0662
 3079SOL    HW120699   2.597   3.141   4.881 -1.1773  0.0626 -0.0064
 3079SOL    HW220700   2.562   3.009   4.940  0.5541  0.6634 -1.6890
 3080SOL     OW20701   1.947   2.787  14.038 -0.8976  0.1185 -0.2227
 3080SOL    HW120702   1.900   2.842  14.101 -0.5405  0.3775 -0.1812
 3080SOL    HW220703   1.876   2.723  14.032 -0.0393 -0.9269  0.9163
 3081SOL     OW20704   3.652   1.766   7.113 -0.4045  0.4195 -0.0782
 3081SOL    HW120705   3.706   1.711   7.170  0.7729  0.8435 -0.7898
 3081SOL    HW220706   3.712   1.829   7.072  0.8294 -0.8145 -0.1770
 3082SOL     OW20707   2.348   4.576  10.199  0.6191 -0.3291  0.6948
 3082SOL    HW120708   2.410   4.639  10.236  0.4220 -0.8522  1.8850
 3082SOL    HW220709   2.272   4.594  10.254 -0.6021  1.6589 -1.6069
 3083SOL     OW20710   0.273   3.776   7.056 -0.5890  0.2445  0.0907
 3083SOL    HW120711   0.250   3.702   7.111 -0.7610  1.1666  1.2588
 3083SOL    HW220712   0.192   3.798   7.010  0.0384  0.7381 -0.7832
 3084SOL     OW20713   1.237   0.098   0.981 -0.0844  0.1293 -0.5055
 3084SOL    HW120714   1.223   0.009   1.014  0.9571  1.1105  2.5189
 3084SOL    HW220715   1.221   0.087   0.887  1.0665  3.3184 -1.0592
 3085SOL     OW20716   3.020   4.300   4.200 -0.2149  0.2546  0.3261
 3085SOL    HW120717   3.070   4.298   4.282  2.2047 -1.7925 -1.1933
 3085SOL    HW220718   2.962   4.225   4.212 -0.7122  0.4328 -1.0248
 3086SOL     OW20719   4.306   3.173  16.628 -0.1477 -0.1855  0.0709
 3086SOL    HW120720   4.348   3.107  16.574 -2.7585 -0.4420 -1.6187
 3086SOL    HW220721   4.316   3.127  16.712  1.7282  2.2656  1.1771
 3087SOL     OW20722   1.325   1.520   9.793  0.2015 -0.5065 -0.4651
 3087SOL    HW120723   1.240   1.495   9.830  1.1744 -0.8166  1.5680
 3087SOL    HW220724   1.382   1.460   9.840 -1.9925 -1.4426  0.9959
 3088SOL     OW20725   2.254   1.263   4.535  0.7218 -0.2362 -0.2192
 3088SOL    HW120726   2.261   1.170   4.557 -2.5526  0.2789  3.1221
 3088SOL    HW220727   2.234   1.309   4.617 -2.5496 -0.3068 -0.9965
 3089SOL     OW20728   0.132   4.603   8.920 -0.3344  0.6294  0.3383
 3089SOL    HW120729   0.104   4.608   9.012 -0.3597 -0.9189  0.4139
 3089SOL    HW220730   0.089   4.684   8.893  0.2800  0.7081 -0.3835
 3090SOL     OW20731   1.410   3.913   3.710 -0.6202 -0.6781 -0.2723
 3090SOL    HW120732   1.451   3.993   3.675  1.7211 -0.0347  4.0142
 3090SOL    HW220733   1.384   3.864   3.632 -0.3771  0.3669 -1.0269
 3091SOL     OW20734   3.699   4.236   5.974 -0.2898  0.1324 -0.0028
 3091SOL    HW120735   3.770   4.299   5.983  0.2724 -0.5661  0.4372
 3091SOL    HW220736   3.634   4.283   6.026  1.0466 -1.1505  2.7792
 3092SOL     OW20737   1.399   2.073  16.357 -0.1931 -0.2301 -0.3741
 3092SOL    HW120738   1.313   2.102  16.387  0.9484  1.3572  1.4018
 3092SOL    HW220739   1.434   2.031  16.436 -2.1682  0.4346  0.8480
 3093SOL     OW20740   2.685   1.031  17.137 -0.0085 -0.3409  0.3597
 3093SOL    HW120741   2.600   1.010  17.099  0.1133  0.3331 -0.2625
 3093SOL    HW220742   2.710   0.955  17.190 -0.5950 -3.0794 -3.3374
 3094SOL     OW20743   3.949   1.925   5.449  0.9595  0.1881  0.0738
 3094SOL    HW120744   3.984   1.946   5.362 -2.7055 -0.5241 -1.5640
 3094SOL    HW220745   4.024   1.913   5.507  0.3088  0.1497  0.9137
 3095SOL     OW20746   1.409   2.349   9.814 -0.5992  0.6472  0.2156
 3095SOL    HW120747   1.465   2.391   9.879  2.7093 -0.1280 -2.1488
 3095SOL    HW220748   1.463   2.349   9.735  1.6929  1.1973  1.7575
 3096SOL     OW20749   1.788   0.594   1.749 -0.8564 -0.0963 -0.4137
 3096SOL    HW120750   1.867   0.648   1.737 -1.6378  0.6148 -2.4066
 3096SOL    HW220751   1.755   0.592   1.659 -0.6309 -0.2962 -0.4921
 3097SOL     OW20752   2.958   1.862  15.690 -0.8116  0.2850  0.3244
 3097SOL    HW120753   2.967   1.775  15.651  0.1914  0.6461 -0.2713
 3097SOL    HW220754   3.009   1.849  15.770 -1.0532 -1.7639  0.1586
 3098SOL     OW20755   1.980   3.619   5.085  0.1246  0.1393  0.2143
 3098SOL    HW120756   1.946   3.554   5.146 -1.4864 -0.8910 -1.7946
 3098SOL    HW220757   1.922   3.626   5.009 -0.3300  0.6936  0.6081
 3099SOL     OW20758   1.505   0.854   3.014 -0.5637 -0.2607 -0.2408
 3099SOL    HW120759   1.423   0.865   3.062 -0.7377  1.0009 -0.8442
 3099SOL    HW220760   1.476   0.810   2.934 -1.5113  1.0766 -0.6432
 3100SOL     OW20761   2.918   2.289  11.210  0.0253 -0.1652 -0.5078
 3100SOL    HW120762   2.965   2.368  11.182 -0.9194  0.5472 -0.0846
 3100SOL    HW220763   2.889   2.257  11.124  0.6562 -0.4894 -0.5986
 3101SOL     OW20764   2.239   1.926   2.640  0.3855  0.7921 -0.5179
 3101SOL    HW120765   2.328   1.949   2.665  0.4059 -1.6539  1.6576
 3101SOL    HW220766   2.239   1.963   2.552 -1.5950  0.3417 -0.7175
 3102SOL     OW20767   3.317   3.112  14.700 -0.4191  0.0585  0.1905
 3102SOL    HW120768   3.241   3.169  14.715  0.8959  1.4167  1.6922
 3102SOL    HW220769   3.352   3.165  14.629 -2.0684 -0.9619 -1.3992
 3103SOL     OW20770   2.142   1.862   1.574  0.3817  0.1914  0.3301
 3103SOL    HW120771   2.144   1.929   1.506  0.7417  2.0500  2.1761
 3103SOL    HW220772   2.120   1.788   1.518  2.6934 -2.0677  2.3883
 3104SOL     OW20773   3.221   0.282   3.397  0.1441 -0.6733 -0.1027
 3104SOL    HW120774   3.269   0.331   3.463 -1.2751  1.6911 -0.8298
 3104SOL    HW220775   3.286   0.217   3.369  0.5828 -0.1809 -0.2364
 3105SOL     OW20776   3.261   2.321   3.039 -0.2346  0.3616  0.6856
 3105SOL    HW120777   3.312   2.267   2.978  0.6619  1.2715  0.6228
 3105SOL    HW220778   3.173   2.307   3.004  0.4441 -3.6021  0.5131
 3106SOL     OW20779   0.313   2.877   2.807 -0.2368  0.7973 -0.1183
 3106SOL    HW120780   0.350   2.789   2.818 -3.6427 -0.5701  0.5177
 3106SOL    HW220781   0.236   2.869   2.863  0.3032 -1.9905  0.2298
 3107SOL     OW20782   0.723   0.174   6.726  0.2978 -0.5799  0.6081
 3107SOL    HW120783   0.677   0.091   6.711 -2.5519  1.3716 -1.5652
 3107SOL    HW220784   0.804   0.164   6.677 -0.5729  1.5261 -1.2385
 3108SOL     OW20785   3.412   4.703   2.406  0.9832  0.0588  0.2205
 3108SOL    HW120786   3.357   4.670   2.335  0.3998 -0.4916  0.9219
 3108SOL    HW220787   3.442   4.623   2.451  1.0545  0.0516  0.1612
 3109SOL     OW20788   3.421   0.434   6.533 -0.3989 -0.2402 -0.0461
 3109SOL    HW120789   3.516   0.442   6.533 -0.5138  1.0532  0.5079
 3109SOL    HW220790   3.394   0.510   6.482  0.3218  0.4383  0.5917
 3110SOL     OW20791   3.999   1.539   0.923  0.5512 -0.1751  0.2692
 3110SOL    HW120792   4.063   1.509   0.860 -1.0483  2.7492 -2.7594
 3110SOL    HW220793   4.002   1.463   0.982  1.1103  0.4646  1.0747
 3111SOL     OW20794   4.660   3.170  17.451 -0.1378  0.0872 -0.3689
 3111SOL    HW120795   4.619   3.257  17.451  0.9093  0.5682  2.3864
 3111SOL    HW220796   4.691   3.165  17.541 -1.5242  1.7920  0.1954
 3112SOL     OW20797   1.700   0.889  13.300 -0.0713 -0.1732 -0.2416
 3112SOL    HW120798   1.630   0.949  13.278  2.0660  1.9689 -1.2394
 3112SOL    HW220799   1.748   0.935  13.369 -0.0834 -1.0159  0.3317
 3113SOL     OW20800   0.601   3.446   1.528 -0.1591  0.1323  0.8679
 3113SOL    HW120801   0.632   3.447   1.437  1.8136 -3.2039  1.5071
 3113SOL    HW220802   0.507   3.460   1.517 -0.3744  0.4754  3.1207
 3114SOL     OW20803   2.883   1.650  16.428  0.2869 -0.3839 -0.1294
 3114SOL    HW120804   2.831   1.622  16.353  0.8369 -2.0960  0.1176
 3114SOL    HW220805   2.876   1.572  16.483 -2.3433 -0.9756 -1.2557
 3115SOL     OW20806   3.259   3.397   3.668 -0.1481 -0.3569 -0.0616
 3115SOL    HW120807   3.222   3.354   3.745 -0.2738 -2.6235 -1.3650
 3115SOL    HW220808   3.185   3.400   3.607  0.8980  2.1741 -1.1792
 3116SOL     OW20809   1.754   3.004   5.310  0.0106  0.4933  0.6961
 3116SOL    HW120810   1.723   2.920   5.276 -0.5489  1.0024 -0.0711
 3116SOL    HW220811   1.847   2.998   5.288 -0.4705 -2.2673 -0.5268
 3117SOL     OW20812   0.635   3.533  11.536 -0.3810  0.0739 -0.7196
 3117SOL    HW120813   0.584   3.516  11.456 -1.2447  1.8951 -0.5802
 3117SOL    HW220814   0.561   3.520  11.595 -2.0377  1.5659 -2.4421
 3118SOL     OW20815   2.173   3.301   7.675 -0.4544 -0.2698 -0.2200
 3118SOL    HW120816   2.140   3.293   7.586  2.8410 -1.5109 -1.3149
 3118SOL    HW220817   2.231   3.225   7.675  0.5449  0.4988 -2.1909
 3119SOL     OW20818   4.067   1.946   2.119 -0.7634  0.2545  0.0428
 3119SOL    HW120819   4.022   1.974   2.039 -0.6355  0.1185 -0.0768
 3119SOL    HW220820   4.158   1.970   2.102 -0.8518  0.8984  0.4749
 3120SOL     OW20821   0.094   1.656  16.746 -0.2032 -0.5332 -0.2318
 3120SOL    HW120822   0.128   1.567  16.737  0.2205 -0.3679 -0.2766
 3120SOL    HW220823   0.162   1.687  16.805 -1.5334 -1.4681  1.7794
 3121SOL     OW20824   4.151   3.365   9.150 -0.1246 -0.2774  0.0813
 3121SOL    HW120825   4.243   3.389   9.142  0.0390 -0.3636  1.7257
 3121SOL    HW220826   4.115   3.446   9.186  1.9711  1.3154 -1.4403
 3122SOL     OW20827   4.265   4.482   8.770 -0.4303 -0.1304 -0.2311
 3122SOL    HW120828   4.232   4.502   8.682  0.0652 -0.3218 -0.4554
 3122SOL    HW220829   4.183   4.438   8.794  0.7193 -2.5699 -0.8230
 3123SOL     OW20830   2.580   4.672   7.431 -0.0422 -0.0197  0.5119
 3123SOL    HW120831   2.603   4.585   7.397 -0.1577 -0.2248  0.9661
 3123SOL    HW220832   2.500   4.694   7.385 -0.6814  0.2214  1.7513
 3124SOL     OW20833   1.222   1.194   4.742 -0.1777 -0.2029  0.2272
 3124SOL    HW120834   1.165   1.178   4.817 -0.1964  1.6392  0.6235
 3124SOL    HW220835   1.157   1.202   4.672 -0.6311 -0.1439  0.6558
 3125SOL     OW20836   0.657   1.534   2.103  0.1859  0.0724  0.4682
 3125SOL    HW120837   0.730   1.595   2.118 -0.1738  0.6476 -0.0979
 3125SOL    HW220838   0.670   1.514   2.011  2.5208  0.4146  0.7313
 3126SOL     OW20839   3.214   2.835   5.906 -0.0438 -0.0034 -0.5128
 3126SOL    HW120840   3.171   2.793   5.831  0.2791  0.7508 -1.1164
 3126SOL    HW220841   3.306   2.818   5.883  0.2044  1.1507 -0.3400
 3127SOL     OW20842   2.379   3.959   4.578  0.3168  0.4359 -0.6611
 3127SOL    HW120843   2.404   3.903   4.651  0.2387  0.6478 -0.4712
 3127SOL    HW220844   2.362   4.044   4.618 -0.8103 -1.2438  2.4835
 3128SOL     OW20845   0.626   0.811   5.713 -0.4025  0.7952 -0.4018
 3128SOL    HW120846   0.617   0.794   5.806  0.0050  1.3186 -0.2723
 3128SOL    HW220847   0.699   0.756   5.683 -0.5866 -1.2021  2.8379
 3129SOL     OW20848   0.608   1.839  15.872 -0.0148  0.2440 -0.1628
 3129SOL    HW120849   0.578   1.854  15.782 -1.1810 -2.6299 -0.2438
 3129SOL    HW220850   0.689   1.890  15.880 -0.0613  0.0069  1.8796
 3130SOL     OW20851   3.680   3.823  11.699 -0.2764  0.1950  0.4103
 3130SOL    HW120852   3.735   3.809  11.775  0.9285 -1.3344 -0.7595
 3130SOL    HW220853   3.746   3.855  11.639 -1.0599 -0.9294 -1.0617
 3131SOL     OW20854   0.663   2.865   7.109  0.2064  0.0897 -0.1779
 3131SOL    HW120855   0.722   2.834   7.178 -1.1688 -0.6959  0.6267
 3131SOL    HW220856   0.674   2.804   7.036  0.9814 -0.7107  0.6172
 3132SOL     OW20857   2.602   0.174   4.541  0.3195 -0.2210 -0.1906
 3132SOL    HW120858   2.546   0.247   4.512  0.3691  0.0624  0.4232
 3132SOL    HW220859   2.645   0.150   4.459 -1.1586 -0.0359 -1.0101
 3133SOL     OW20860   0.253   3.114   1.878  0.5445  0.1336  0.0422
 3133SOL    HW120861   0.327   3.058   1.900 -0.8816 -0.7390  2.5371
 3133SOL    HW220862   0.290   3.156   1.800  2.1470 -0.6380  0.3816
 3134SOL     OW20863   2.550   2.431   7.109  0.3201 -0.1902 -0.3822
 3134SOL    HW120864   2.568   2.367   7.178  1.0720  0.5560  0.1200
 3134SOL    HW220865   2.575   2.510   7.158 -1.4978 -0.6681  1.3597
 3135SOL     OW20866   1.409   1.680   5.023 -0.2515  0.4524 -0.6243
 3135SOL    HW120867   1.357   1.605   4.996 -2.5444  2.7167 -2.5310
 3135SOL    HW220868   1.391   1.745   4.955  0.2589 -0.0517 -1.2450
 3136SOL     OW20869   4.000   3.180   9.021 -0.2392  0.2069  0.2125
 3136SOL    HW120870   4.017   3.104   9.077 -1.6805 -1.6959 -1.9345
 3136SOL    HW220871   4.041   3.246   9.076  1.1170  1.1368 -1.9349
 3137SOL     OW20872   4.288   1.867   3.773 -0.3243  0.5149 -0.3693
 3137SOL    HW120873   4.276   1.786   3.724 -1.3097  1.3319 -1.4928
 3137SOL    HW220874   4.311   1.839   3.862  2.4150 -1.7857 -1.8129
 3138SOL     OW20875   1.454   3.135   6.992 -0.4198 -0.8087  0.1108
 3138SOL    HW120876   1.467   3.113   7.084  0.9941 -0.4342 -0.0091
 3138SOL    HW220877   1.359   3.119   6.988 -0.0075 -3.1312 -0.2523
 3139SOL     OW20878   4.054   0.574   8.734 -0.1701 -0.2836  0.2972
 3139SOL    HW120879   3.992   0.580   8.806  0.4218 -1.5094  0.9276
 3139SOL    HW220880   3.998   0.612   8.668  1.5964 -0.0331 -1.0581
 3140SOL     OW20881   0.009   0.531   2.089  0.2874  0.0001 -0.2976
 3140SOL    HW120882   0.066   0.586   2.034  0.0960 -0.4769 -0.9777
 3140SOL    HW220883   0.042   0.559   2.174 -1.7932  1.9756 -0.1396
 3141SOL     OW20884   0.080   1.635   4.866  0.1706 -0.3091 -0.0816
 3141SOL    HW120885   0.019   1.696   4.824 -1.2925 -0.2254  2.1958
 3141SOL    HW220886   0.030   1.559   4.895 -0.0522  0.0280  0.4183
 3142SOL     OW20887   2.872   1.317   2.877  0.4932  0.3756  0.0053
 3142SOL    HW120888   2.850   1.262   2.952  1.7147 -0.0022  0.1005
 3142SOL    HW220889   2.967   1.326   2.887  0.3482  1.4383  0.4082
 3143SOL     OW20890   1.379   0.203   7.225 -0.0112 -0.0506 -0.0612
 3143SOL    HW120891   1.302   0.260   7.232 -1.5055 -2.0909  0.2743
 3143SOL    HW220892   1.435   0.252   7.165 -1.2898  0.5260 -0.7829
 3144SOL     OW20893   0.403   4.457  13.315 -0.2620 -0.1637 -0.0379
 3144SOL    HW120894   0.315   4.435  13.344 -0.1441 -2.3770 -1.3746
 3144SOL    HW220895   0.398   4.487  13.224 -0.1548 -0.6224 -0.1946
 3145SOL     OW20896   0.753   1.191  14.796 -0.1020  0.5017  0.0318
 3145SOL    HW120897   0.846   1.175  14.777 -0.2762 -1.9427  1.1575
 3145SOL    HW220898   0.757   1.286  14.805  0.0446  0.4018  1.0346
 3146SOL     OW20899   4.378   3.873  16.965  0.9030  0.2205  0.4718
 3146SOL    HW120900   4.394   3.949  17.020  1.7478  1.2074 -1.1620
 3146SOL    HW220901   4.344   3.899  16.880  0.6474  1.5650  0.9982
 3147SOL     OW20902   1.337   1.205   8.805 -0.0731  0.0510 -0.7558
 3147SOL    HW120903   1.330   1.154   8.886 -1.0763  1.3952  0.0112
 3147SOL    HW220904   1.285   1.283   8.827  1.2140  0.9983 -1.0492
 3148SOL     OW20905   3.564   3.982   4.825 -0.5025 -0.0454 -0.3896
 3148SOL    HW120906   3.568   3.978   4.730 -0.0518  1.4101 -0.4380
 3148SOL    HW220907   3.471   4.001   4.835 -0.1680  2.4730 -1.8994
 3149SOL     OW20908   0.813   1.136   4.491 -0.4512 -0.3138  0.6323
 3149SOL    HW120909   0.788   1.207   4.432 -1.3082 -1.0728  0.0814
 3149SOL    HW220910   0.895   1.103   4.455 -0.2196  1.5933 -0.6035
 3150SOL     OW20911   3.252   0.731   6.886 -0.2510 -0.3877 -0.3980
 3150SOL    HW120912   3.287   0.819   6.869  0.2396 -0.5064  0.0035
 3150SOL    HW220913   3.158   0.735   6.869  0.1210  3.1592 -1.7471
 3151SOL     OW20914   2.694   2.499   7.980 -0.3366  0.2645  0.0326
 3151SOL    HW120915   2.688   2.404   7.975  2.1065  0.1914 -1.4808
 3151SOL    HW220916   2.617   2.527   8.029  1.5430  0.7467  2.7314
 3152SOL     OW20917   1.108   0.367   8.809 -0.6320 -0.3748 -0.1450
 3152SOL    HW120918   1.080   0.435   8.747  0.1421  2.2121  2.3638
 3152SOL    HW220919   1.046   0.380   8.881 -0.0784  1.2367  0.0561
 3153SOL     OW20920   0.336   1.812   2.443  0.1856 -0.0840 -0.3117
 3153SOL    HW120921   0.351   1.732   2.392 -1.0440 -0.9099  0.6198
 3153SOL    HW220922   0.369   1.781   2.527  1.8668  2.3211 -0.0706
 3154SOL     OW20923   4.607   2.193   6.191 -0.1202  0.1115 -0.4950
 3154SOL    HW120924   4.687   2.208   6.242  0.2068  1.3763 -1.3749
 3154SOL    HW220925   4.592   2.100   6.205  1.0558 -0.0531 -0.2757
 3155SOL     OW20926   1.078   4.448  11.204  0.3329  0.2373  0.4234
 3155SOL    HW120927   1.148   4.494  11.251  0.1653 -0.1604  1.0664
 3155SOL    HW220928   1.109   4.469  11.116 -1.2523 -2.6869 -0.8227
 3156SOL     OW20929   1.939   1.864   4.940  0.6802  0.6169 -0.0898
 3156SOL    HW120930   1.920   1.771   4.950  1.0682  0.6243  0.7123
 3156SOL    HW220931   1.871   1.899   4.999  1.2580  3.1480 -0.9080
 3157SOL     OW20932   3.944   4.427   7.416 -0.6009 -0.1974  0.0406
 3157SOL    HW120933   3.859   4.448   7.377 -0.3892 -0.3475 -0.4940
 3157SOL    HW220934   3.963   4.505   7.470  0.4611 -0.6919  0.3907
 3158SOL     OW20935   4.472   1.812   6.925 -0.4113 -0.3533  0.1128
 3158SOL    HW120936   4.406   1.744   6.915 -1.3404  0.8944 -2.1168
 3158SOL    HW220937   4.529   1.791   6.850  0.5395  0.1049  0.6992
 3159SOL     OW20938   3.948   3.365   8.798 -0.1177 -0.0004 -0.1062
 3159SOL    HW120939   4.022   3.323   8.754  0.4897  1.0457 -0.0928
 3159SOL    HW220940   3.931   3.301   8.867 -1.8517  0.0028 -0.5115
 3160SOL     OW20941   2.699   4.563   6.935 -0.1432  0.0337 -0.2149
 3160SOL    HW120942   2.704   4.631   7.002 -1.8034  1.2189 -1.2932
 3160SOL    HW220943   2.789   4.540   6.913 -0.4810 -0.8878 -0.6469
 3161SOL     OW20944   2.602   0.389  17.287  0.5449 -0.1289 -0.0184
 3161SOL    HW120945   2.532   0.453  17.273  0.8374  0.4452  1.0837
 3161SOL    HW220946   2.633   0.385  17.197 -0.5884 -0.8392 -0.3861
 3162SOL     OW20947   1.520   4.165  12.022 -0.3323 -0.5045 -0.3743
 3162SOL    HW120948   1.566   4.082  12.008 -1.3854 -1.1098 -0.2562
 3162SOL    HW220949   1.509   4.152  12.116  1.1248 -1.1365 -0.2838
 3163SOL     OW20950   1.307   3.077   0.148  0.2948 -0.2888 -0.2988
 3163SOL    HW120951   1.316   3.034   0.233  1.8067  0.0424 -0.3067
 3163SOL    HW220952   1.215   3.105   0.149  0.9053  1.7622 -1.3021
 3164SOL     OW20953   3.289   0.816   1.800  0.0361  0.0190 -0.3148
 3164SOL    HW120954   3.223   0.752   1.825  1.1963  0.1691  3.0900
 3164SOL    HW220955   3.273   0.879   1.870  0.8086 -0.9625  0.7302
 3165SOL     OW20956   2.294   3.261   1.599 -0.2906 -0.3735  0.3637
 3165SOL    HW120957   2.361   3.325   1.625 -0.2002 -0.1040 -0.5308
 3165SOL    HW220958   2.325   3.187   1.650  1.4170 -0.0124 -0.1403
 3166SOL     OW20959   2.712   2.728  15.899 -0.4129  0.0377 -0.1685
 3166SOL    HW120960   2.807   2.739  15.901 -0.4121  0.1637 -0.8812
 3166SOL    HW220961   2.691   2.718  15.806  0.7194  0.8117 -0.5168
 3167SOL     OW20962   1.022   1.550  10.748 -0.5682 -0.2072 -0.3980
 3167SOL    HW120963   0.938   1.515  10.717 -0.3691 -1.9223  0.9878
 3167SOL    HW220964   1.052   1.602  10.673  1.6541  0.4539  0.9631
 3168SOL     OW20965   4.311   3.887  16.699  0.8069 -0.0187  0.0535
 3168SOL    HW120966   4.347   3.822  16.639  1.8418  0.9910 -0.4069
 3168SOL    HW220967   4.218   3.878  16.675  1.1074 -0.0476 -1.1182
 3169SOL     OW20968   3.724   0.359   5.088 -0.1036  0.2520 -0.3536
 3169SOL    HW120969   3.752   0.422   5.155 -2.0087  0.0038  0.6806
 3169SOL    HW220970   3.772   0.280   5.114 -0.9571  0.1375  0.8851
 3170SOL     OW20971   4.592   1.329   7.204 -0.6267  0.3876  0.0048
 3170SOL    HW120972   4.685   1.344   7.220 -1.0277  0.7724  1.9696
 3170SOL    HW220973   4.550   1.392   7.263 -0.8173  0.2687 -0.0029
 3171SOL     OW20974   4.165   3.782   5.447  0.4900 -0.1487  0.0180
 3171SOL    HW120975   4.160   3.877   5.448  0.8042 -0.1247 -0.5733
 3171SOL    HW220976   4.257   3.761   5.434  0.3552 -0.7278 -0.0090
 3172SOL     OW20977   1.216   4.542   6.895 -0.5295  0.9352 -0.1467
 3172SOL    HW120978   1.200   4.453   6.863  0.6235 -0.2889  2.6420
 3172SOL    HW220979   1.194   4.531   6.988  0.9764 -1.1580 -0.0445
 3173SOL     OW20980   3.559   0.778   4.413 -0.5563  0.2297  0.1491
 3173SOL    HW120981   3.522   0.833   4.482 -2.0142 -0.4907 -0.0524
 3173SOL    HW220982   3.647   0.756   4.443 -0.2380  1.9593  0.4938
 3174SOL     OW20983   0.528   2.325   3.748  0.1287 -0.1100  0.0485
 3174SOL    HW120984   0.531   2.274   3.829 -1.7210  0.1106  0.2381
 3174SOL    HW220985   0.460   2.390   3.760  1.2907  0.6739  2.3447
 3175SOL     OW20986   1.682   4.059   7.591 -0.0471 -0.3090  0.1610
 3175SOL    HW120987   1.684   3.984   7.650  0.2103  0.4037  1.0504
 3175SOL    HW220988   1.730   4.128   7.637  0.9223 -0.4131 -0.6805
 3176SOL     OW20989   4.128   2.802   5.821 -0.3156 -0.1027 -0.1381
 3176SOL    HW120990   4.138   2.847   5.904  1.0914 -5.3518  2.5717
 3176SOL    HW220991   4.048   2.844   5.791 -1.1525 -1.1870  0.5751
 3177SOL     OW20992   3.979   0.943  14.604  0.2894 -0.2328  0.0858
 3177SOL    HW120993   3.937   0.986  14.529  0.8910 -0.3495 -0.3213
 3177SOL    HW220994   4.062   0.928  14.560 -0.2931 -1.2182 -0.6797
 3178SOL     OW20995   2.012   0.832   7.896 -0.4330 -0.8428 -0.0539
 3178SOL    HW120996   2.044   0.763   7.953 -2.7039 -2.0462 -0.2307
 3178SOL    HW220997   1.960   0.782   7.834  0.5351 -1.5192 -0.3080
 3179SOL     OW20998   1.624   0.767  16.957 -0.0311 -0.5819 -0.5324
 3179SOL    HW120999   1.612   0.672  16.965 -1.4658 -0.4595 -1.3792
 3179SOL    HW221000   1.599   0.782  16.866 -0.2766 -0.6092 -0.4697
 3180SOL     OW21001   1.631   0.811  14.967 -0.4152  0.4616  0.0900
 3180SOL    HW121002   1.560   0.855  14.921  2.0282  3.4941 -0.7731
 3180SOL    HW221003   1.586   0.765  15.039  0.2115 -2.1216 -1.1501
 3181SOL     OW21004   4.609   1.704   8.032  0.0642 -0.2162  0.3848
 3181SOL    HW121005   4.636   1.740   8.116 -0.0340 -0.6402  0.5971
 3181SOL    HW221006   4.588   1.613   8.056 -1.1139  0.2710  1.2247
 3182SOL     OW21007   4.035   4.519   5.742  0.1747  0.2568 -0.3851
 3182SOL    HW121008   4.128   4.538   5.735  0.2170  0.2292  0.1556
 3182SOL    HW221009   4.022   4.508   5.836  0.7667  1.3603 -0.1756
 3183SOL     OW21010   0.284   0.698   9.976  0.0688  0.2267  0.3255
 3183SOL    HW121011   0.199   0.655   9.974 -0.3961  1.2582 -2.0171
 3183SOL    HW221012   0.343   0.646   9.921 -1.3893  0.0008 -1.0133
 3184SOL     OW21013   1.010   1.711   5.931 -0.5200 -0.2039 -0.0372
 3184SOL    HW121014   0.992   1.805   5.935 -0.2743 -0.1836  0.5566
 3184SOL    HW221015   1.101   1.707   5.960 -0.4357 -1.1943 -0.4532
 3185SOL     OW21016   0.602   0.283   3.661  0.6516  0.1007 -0.0065
 3185SOL    HW121017   0.529   0.318   3.712 -0.1877  0.5968 -1.5515
 3185SOL    HW221018   0.573   0.304   3.572  0.2682 -0.2164  0.0426
 3186SOL     OW21019   0.698   3.728   2.865 -0.1288 -0.3363  0.2459
 3186SOL    HW121020   0.637   3.657   2.840 -0.9508  0.2593  0.5798
 3186SOL    HW221021   0.634   3.795   2.887 -0.3100  0.2981 -2.1605
 3187SOL     OW21022   3.154   2.746   4.825  0.0895  0.0086  0.3056
 3187SOL    HW121023   3.176   2.732   4.918 -2.3824 -2.3688  0.5229
 3187SOL    HW221024   3.070   2.792   4.829  1.0643  1.6230  2.4797
 3188SOL     OW21025   2.167   1.325   9.131 -0.8464 -0.0158 -0.3564
 3188SOL    HW121026   2.237   1.322   9.066  1.9227  0.8154  2.5479
 3188SOL    HW221027   2.139   1.236   9.110  1.0260 -0.2289 -1.9954
 3189SOL     OW21028   0.349   2.518   3.761  0.9453 -0.0207 -0.4059
 3189SOL    HW121029   0.330   2.542   3.852 -0.2078 -0.8998 -0.4214
 3189SOL    HW221030   0.265   2.491   3.724  0.1655 -1.0955  2.1858
 3190SOL     OW21031   3.795   4.140  16.861 -0.4388 -0.1189  0.3519
 3190SOL    HW121032   3.741   4.173  16.934  0.4801  1.9112  0.1304
 3190SOL    HW221033   3.884   4.161  16.891  0.4977 -1.2371 -1.6813
 3191SOL     OW21034   4.582   3.885   5.603 -0.3583 -0.0454 -0.1655
 3191SOL    HW121035   4.672   3.859   5.621 -0.6982 -0.1851  1.3484
 3191SOL    HW221036   4.556   3.830   5.529  0.9487  0.5828 -1.0881
 3192SOL     OW21037   0.476   4.242   0.937  0.3695  0.2621  0.3220
 3192SOL    HW121038   0.532   4.176   0.894 -0.1765  0.2929 -0.4402
 3192SOL    HW221039   0.430   4.180   0.993 -0.4582  1.6059  1.1106
 3193SOL     OW21040   0.408   1.199   1.066 -0.2334  0.3588  0.0331
 3193SOL    HW121041   0.429   1.249   0.987  1.7171 -2.5006 -1.2570
 3193SOL    HW221042   0.494   1.205   1.107 -0.9120 -1.6057  1.7282
 3194SOL     OW21043   2.130   0.955   3.216 -0.7630 -0.2751  0.3863
 3194SOL    HW121044   2.071   0.954   3.291  1.1684 -1.6293  1.8976
 3194SOL    HW221045   2.158   0.864   3.209  2.5939  0.8471 -0.8051
 3195SOL     OW21046   3.082   0.777   4.926 -0.0173  0.2098 -0.0683
 3195SOL    HW121047   3.135   0.844   4.883  0.4387 -1.0923 -1.5616
 3195SOL    HW221048   3.023   0.829   4.980 -0.1665  2.5669 -2.5203
 3196SOL     OW21049   2.860   0.010  12.130 -0.1319  0.0145 -0.1900
 3196SOL    HW121050   2.817   4.702  12.051 -0.4328 -1.5717  0.6114
 3196SOL    HW221051   2.948   4.700  12.113  0.9623  1.3783  2.7749
 3197SOL     OW21052   4.511   4.636  15.278 -0.2833  0.3447  0.4042
 3197SOL    HW121053   4.503   4.613  15.370  1.2558  1.2700  0.7747
 3197SOL    HW221054   4.444   4.704  15.273 -0.7154  0.0250  1.9267
 3198SOL     OW21055   3.849   2.613   1.569  0.1155 -0.3892  0.0055
 3198SOL    HW121056   3.850   2.525   1.530 -2.3198 -0.7619  0.7624
 3198SOL    HW221057   3.783   2.661   1.520 -0.9579 -1.1686  0.6605
 3199SOL     OW21058   2.938   2.151  12.336  0.0317  0.9127 -0.0818
 3199SOL    HW121059   2.923   2.094  12.412 -1.4603  1.0502 -0.2763
 3199SOL    HW221060   3.033   2.160  12.334  0.3419 -2.5721 -0.4938
 3200SOL     OW21061   0.505   4.640   6.134 -0.1360  0.0700 -0.0825
 3200SOL    HW121062   0.537   4.555   6.166 -2.3097 -0.0736  1.6802
 3200SOL    HW221063   0.549   4.702   6.193  0.4626 -0.2301 -0.2086
 3201SOL     OW21064   1.123   0.303   7.005 -0.4721  0.1913  0.1523
 3201SOL    HW121065   1.036   0.266   7.020 -1.2333  1.4659 -1.0855
 3201SOL    HW221066   1.138   0.335   7.094  0.2062  1.0650 -0.2833
 3202SOL     OW21067   4.573   4.309  13.335  0.2991 -0.7922 -0.4636
 3202SOL    HW121068   4.518   4.378  13.372  2.7841  1.2043 -0.5077
 3202SOL    HW221069   4.617   4.354  13.263  0.9654  0.2543  0.5858
 3203SOL     OW21070   0.327   0.546  11.901 -0.6802 -0.5754  0.2798
 3203SOL    HW121071   0.315   0.602  11.978 -0.6801  0.8101 -0.7314
 3203SOL    HW221072   0.399   0.595  11.862 -2.6623  2.5226  0.5237
 3204SOL     OW21073   4.711   0.587   3.344 -0.6639 -0.4141  0.0254
 3204SOL    HW121074   4.616   0.595   3.333 -0.6484 -0.6538 -0.2967
 3204SOL    HW221075   0.016   0.674   3.370  0.2040 -0.4122 -0.9505
 3205SOL     OW21076   2.342   1.508   6.807  0.2757 -0.1202  0.0104
 3205SOL    HW121077   2.266   1.474   6.856 -0.8510 -0.8640 -2.2498
 3205SOL    HW221078   2.310   1.596   6.791 -2.1186 -0.7389  1.3625
 3206SOL     OW21079   1.595   0.012   4.677 -0.0468 -0.1326 -0.1780
 3206SOL    HW121080   1.516   0.037   4.630 -1.3127 -0.9941  1.4878
 3206SOL    HW221081   1.660   0.052   4.619 -0.2190 -0.2509 -0.4524
 3207SOL     OW21082   2.014   1.226   6.165  0.3570  0.1044  0.4071
 3207SOL    HW121083   2.001   1.320   6.176  1.3548  0.1062  1.5005
 3207SOL    HW221084   1.924   1.194   6.179  1.2130 -2.9713 -1.1268
 3208SOL     OW21085   3.191   3.351  14.710  0.1851  0.0432  0.4852
 3208SOL    HW121086   3.188   3.392  14.623  1.4954 -0.1153  0.3764
 3208SOL    HW221087   3.132   3.415  14.751 -0.6440 -1.2870  1.3505
 3209SOL     OW21088   2.070   2.898   8.727  0.4052 -0.2354 -0.1227
 3209SOL    HW121089   2.139   2.835   8.749  0.8251  0.5383  0.8044
 3209SOL    HW221090   1.994   2.843   8.711  1.7361 -1.9820 -0.5447
 3210SOL     OW21091   1.507   4.124  12.282  0.5146  0.3784  0.0373
 3210SOL    HW121092   1.477   4.203  12.326  0.5930  1.1013 -1.2374
 3210SOL    HW221093   1.508   4.061  12.354 -1.9787  1.6081  1.1473
 3211SOL     OW21094   1.670   3.537   4.447 -0.3365  0.1270  0.0109
 3211SOL    HW121095   1.753   3.550   4.400  1.0160 -2.6715  1.5989
 3211SOL    HW221096   1.639   3.455   4.409 -1.4155  1.2633 -1.5535
 3212SOL     OW21097   3.361   3.768  10.795  0.1029  0.3864 -0.1332
 3212SOL    HW121098   3.425   3.697  10.800  0.2281  0.3503 -2.1958
 3212SOL    HW221099   3.415   3.833  10.840  1.2666  0.0306 -1.0161
 3213SOL     OW21100   0.984   4.559   2.062 -0.4240  0.2124 -0.8172
 3213SOL    HW121101   0.975   4.472   2.102 -2.0753  1.3579  1.2736
 3213SOL    HW221102   1.027   4.530   1.982  1.6006 -0.5934  0.5484
 3214SOL     OW21103   0.006   1.045  16.945  0.2463 -0.5892  0.1643
 3214SOL    HW121104   4.683   1.118  16.903  0.1057 -0.2571  0.9021
 3214SOL    HW221105   4.703   0.970  16.891  1.7845 -1.0200  0.0385
 3215SOL     OW21106   4.594   3.081   9.017  0.2016 -0.2447  0.3346
 3215SOL    HW121107   4.565   3.054   8.930  0.6307  1.5805 -0.3689
 3215SOL    HW221108   4.667   3.021   9.031 -0.6526 -1.6141 -1.1495
 3216SOL     OW21109   0.716   1.397   5.842  0.0699 -0.6653 -0.0780
 3216SOL    HW121110   0.641   1.337   5.838 -0.1845 -0.4038  0.6897
 3216SOL    HW221111   0.783   1.330   5.852 -0.9273 -1.8162 -1.0424
 3217SOL     OW21112   4.430   3.745  16.494  0.6926  0.1738  0.9939
 3217SOL    HW121113   4.468   3.774  16.411 -1.0310  0.8576  0.4513
 3217SOL    HW221114   4.427   3.650  16.497 -0.7296  0.2124  0.6632
 3218SOL     OW21115   0.178   2.974  10.292  0.2027  0.1370  0.2129
 3218SOL    HW121116   0.253   2.968  10.351  0.6367 -0.8137 -0.4287
 3218SOL    HW221117   0.199   3.044  10.229 -0.6616  1.2326  1.1437
 3219SOL     OW21118   0.952   3.051   2.115 -0.4713 -0.1193 -0.5369
 3219SOL    HW121119   0.901   3.132   2.113 -0.4117 -0.1149 -1.9607
 3219SOL    HW221120   0.882   2.987   2.108  0.5279 -1.2859  0.1937
 3220SOL     OW21121   4.135   4.544   1.943 -0.5164 -0.2284 -0.1048
 3220SOL    HW121122   4.189   4.507   1.873  0.7408 -0.6212  1.0918
 3220SOL    HW221123   4.209   4.583   1.988 -1.0272  0.5740  0.0339
 3221SOL     OW21124   2.882   3.613   6.623 -0.4473 -0.2549  0.1852
 3221SOL    HW121125   2.972   3.598   6.651  0.8052  2.9765 -2.2359
 3221SOL    HW221126   2.901   3.568   6.541 -2.1034  1.2514 -1.0348
 3222SOL     OW21127   1.759   0.886   8.838  0.2915 -0.8670 -0.3791
 3222SOL    HW121128   1.677   0.839   8.854  0.4487 -0.8835  0.3967
 3222SOL    HW221129   1.727   0.975   8.849 -0.3780 -1.2231  0.6375
 3223SOL     OW21130   3.904   4.550   8.572  0.6058  0.0698 -0.6313
 3223SOL    HW121131   3.978   4.533   8.514  0.1274  0.2513 -1.2960
 3223SOL    HW221132   3.929   4.490   8.642  0.3343 -0.1415 -0.7143
 3224SOL     OW21133   0.400   3.242  10.596 -0.0887 -0.1253 -0.7186
 3224SOL    HW121134   0.416   3.333  10.571  0.8433  0.5076  2.2394
 3224SOL    HW221135   0.377   3.255  10.688 -1.3223 -1.2257 -0.8629
 3225SOL     OW21136   2.950   2.191   5.196 -0.3091 -0.0555 -0.3076
 3225SOL    HW121137   2.998   2.119   5.236  0.5209  0.0512 -1.1233
 3225SOL    HW221138   2.864   2.189   5.239 -0.7103  1.3841 -1.0421
 3226SOL     OW21139   1.473   0.711   2.076  0.5505 -0.1555 -0.5375
 3226SOL    HW121140   1.378   0.717   2.067  0.5410  0.3973 -0.0411
 3226SOL    HW221141   1.491   0.695   1.984  2.1413  0.6723 -0.3642
 3227SOL     OW21142   4.234   2.904  11.030  0.3961 -0.5299  0.4303
 3227SOL    HW121143   4.142   2.909  11.055  0.2383 -1.3834  0.0353
 3227SOL    HW221144   4.236   2.812  11.004  1.8358 -0.9074  1.8767
 3228SOL     OW21145   0.290   1.193   4.159 -0.0821 -0.4723  0.0004
 3228SOL    HW121146   0.357   1.126   4.170  2.5654  2.3556  1.1136
 3228SOL    HW221147   0.229   1.177   4.232  0.2908 -2.3336 -0.1083
 3229SOL     OW21148   0.447   1.555  14.961  0.4326  0.3430 -0.5117
 3229SOL    HW121149   0.509   1.533  14.891  2.9328  0.2769  1.7582
 3229SOL    HW221150   0.505   1.546  15.036 -1.1991  1.9372  0.9290
 3230SOL     OW21151   2.196   2.145   9.322 -0.4395  0.5929  0.4874
 3230SOL    HW121152   2.157   2.135   9.409  1.0855  0.1730  1.1171
 3230SOL    HW221153   2.121   2.119   9.269  0.4499 -0.8470 -0.0475
 3231SOL     OW21154   3.691   4.044   6.215 -0.4356  0.2836 -0.2197
 3231SOL    HW121155   3.724   4.062   6.128  0.5299 -1.7331 -0.2829
 3231SOL    HW221156   3.708   4.125   6.264  0.2108 -0.4374  0.7674
 3232SOL     OW21157   0.468   1.978   9.546 -0.0471  0.2811 -0.2433
 3232SOL    HW121158   0.469   1.924   9.625 -2.6860  1.0799  0.3193
 3232SOL    HW221159   0.437   1.916   9.481  0.5399 -1.6816  1.3271
 3233SOL     OW21160   1.798   0.752   8.556 -0.2759  0.4531  0.1211
 3233SOL    HW121161   1.771   0.843   8.540  1.4076  0.8857 -0.2586
 3233SOL    HW221162   1.713   0.709   8.557 -0.5387  1.0123  1.7587
 3234SOL     OW21163   4.008   2.868   2.255  0.0172  0.4189  0.0248
 3234SOL    HW121164   4.009   2.936   2.188 -1.8534  0.2733 -0.1301
 3234SOL    HW221165   3.954   2.796   2.222 -1.8354  1.5699  0.5654
 3235SOL     OW21166   4.088   0.762   6.205  0.6139 -0.4618 -0.2564
 3235SOL    HW121167   4.092   0.746   6.110 -0.3009 -0.0826 -0.3635
 3235SOL    HW221168   4.161   0.716   6.245 -1.2785 -1.4449  2.1043
 3236SOL     OW21169   1.568   1.035   1.603  0.0172 -0.0451  0.5557
 3236SOL    HW121170   1.640   1.012   1.543 -2.4190 -1.9913 -1.6138
 3236SOL    HW221171   1.603   1.034   1.692 -0.2896 -0.3742  0.6680
 3237SOL     OW21172   1.181   1.857   5.559  0.5379 -0.4844 -0.3133
 3237SOL    HW121173   1.239   1.816   5.623 -0.3283 -1.4643 -0.1637
 3237SOL    HW221174   1.205   1.950   5.555 -0.8171 -0.1345 -0.2196
 3238SOL     OW21175   3.281   1.090   2.762  0.0971  0.1067 -0.2178
 3238SOL    HW121176   3.300   1.064   2.853  0.4543  1.4523  0.0860
 3238SOL    HW221177   3.224   1.020   2.730  0.4134 -0.0552 -0.4316
 3239SOL     OW21178   2.944   3.682   3.641  0.1227 -0.0403 -0.0550
 3239SOL    HW121179   2.993   3.600   3.627 -1.0842 -0.6956 -0.3890
 3239SOL    HW221180   2.883   3.654   3.709 -1.2354  0.5697 -1.0396
 3240SOL     OW21181   0.978   0.999   6.399 -0.0621  0.2908  0.6039
 3240SOL    HW121182   0.985   0.981   6.493 -2.5605 -0.7058  0.5881
 3240SOL    HW221183   1.021   1.085   6.389 -0.0417  0.5670  3.0254
 3241SOL     OW21184   3.996   0.460   8.337 -0.2367  0.2205  0.5273
 3241SOL    HW121185   4.042   0.464   8.253 -0.8646 -0.1558  0.1672
 3241SOL    HW221186   4.067   0.506   8.382  0.1976  1.0418 -0.9495
 3242SOL     OW21187   4.221   3.012   3.443  0.4867  0.4289  0.1715
 3242SOL    HW121188   4.236   3.101   3.412 -2.9343  0.2722 -1.8689
 3242SOL    HW221189   4.145   2.981   3.395  1.8449 -1.3085 -0.8759
 3243SOL     OW21190   4.606   1.867   3.400  0.5310  0.2838 -0.9916
 3243SOL    HW121191   4.623   1.889   3.492 -0.6663  3.1385 -1.4729
 3243SOL    HW221192   4.511   1.877   3.398  0.2930 -1.3792  0.9162
 3244SOL     OW21193   3.874   4.076  13.206 -0.9795  0.2676  0.5361
 3244SOL    HW121194   3.809   4.011  13.232 -1.0738  0.3009  0.3865
 3244SOL    HW221195   3.855   4.081  13.112  1.0498  0.0573  0.1037
 3245SOL     OW21196   2.536   3.791   1.307 -0.3298  0.2377 -0.6886
 3245SOL    HW121197   2.568   3.704   1.328 -1.3908 -0.4996 -2.1266
 3245SOL    HW221198   2.441   3.789   1.319 -0.2638  1.0848 -0.0225
 3246SOL     OW21199   0.790   1.399  14.460 -0.5876  0.3146  0.4663
 3246SOL    HW121200   0.702   1.406  14.497 -0.3524  3.0739  0.5185
 3246SOL    HW221201   0.845   1.433  14.531  0.9157 -2.0703  0.4121
 3247SOL     OW21202   4.417   1.426   9.949 -0.4714 -0.3180 -0.1178
 3247SOL    HW121203   4.376   1.341   9.965  1.3052 -1.1157  0.1923
 3247SOL    HW221204   4.400   1.476  10.030  0.7176 -1.4083  0.8016
 3248SOL     OW21205   0.529   4.379  11.008  0.2571 -0.2064  0.1977
 3248SOL    HW121206   0.617   4.415  11.022 -0.0264  0.8322 -0.6687
 3248SOL    HW221207   0.505   4.362  11.099  1.0447 -1.0267  0.2548
 3249SOL     OW21208   0.166   2.632   6.541 -0.1737 -0.0206  0.5600
 3249SOL    HW121209   0.208   2.615   6.626  0.7306 -1.3250 -0.1371
 3249SOL    HW221210   0.151   2.726   6.538  1.2250  0.1089 -2.2848
 3250SOL     OW21211   3.988   4.634   7.229 -0.5353 -0.3276  0.1478
 3250SOL    HW121212   3.900   4.672   7.225 -0.4594 -0.0707  0.9416
 3250SOL    HW221213   4.029   4.712   7.266  0.5274 -0.9084  0.1931
 3251SOL     OW21214   4.165   0.961  10.358  0.1042  0.1186 -0.2061
 3251SOL    HW121215   4.123   0.886  10.315 -0.1124 -0.5021  1.0657
 3251SOL    HW221216   4.179   1.028  10.292 -0.2651  0.3662 -0.0301
 3252SOL     OW21217   3.775   1.893   7.661  0.4251 -0.4224 -0.0116
 3252SOL    HW121218   3.824   1.952   7.719  1.0062 -0.0337 -0.8957
 3252SOL    HW221219   3.809   1.904   7.572 -0.9861  0.0155 -0.5100
 3253SOL     OW21220   1.858   3.320   7.168  0.0460 -0.4368 -0.4021
 3253SOL    HW121221   1.877   3.227   7.156  3.1414 -0.2222  2.8753
 3253SOL    HW221222   1.795   3.318   7.240 -0.3187  3.1553 -0.6028
 3254SOL     OW21223   4.153   2.594   6.950 -0.6148  0.0281  0.2074
 3254SOL    HW121224   4.199   2.674   6.922 -0.4362 -0.6912 -1.5472
 3254SOL    HW221225   4.151   2.549   6.865  0.6658 -0.4601  0.4313
 3255SOL     OW21226   1.373   3.986   5.664  0.3895 -0.1551  0.3225
 3255SOL    HW121227   1.417   4.068   5.642  0.5335 -0.7443 -1.5797
 3255SOL    HW221228   1.371   4.007   5.757  1.8384 -2.1929  0.8209
 3256SOL     OW21229   3.364   3.030   6.822  0.0275 -0.2653 -0.1786
 3256SOL    HW121230   3.363   2.956   6.884 -2.3413  1.3398  1.7052
 3256SOL    HW221231   3.289   3.009   6.767  1.0272 -1.3444 -1.1230
 3257SOL     OW21232   0.590   3.484   6.082  0.1758  0.0758  0.6641
 3257SOL    HW121233   0.584   3.389   6.095 -1.5175  0.3860  2.1043
 3257SOL    HW221234   0.685   3.495   6.095 -0.1326  2.7633  0.5979
 3258SOL     OW21235   0.326   3.459   1.550 -0.1422 -0.0293 -0.4159
 3258SOL    HW121236   0.293   3.544   1.578 -1.6372 -0.3434 -1.2686
 3258SOL    HW221237   0.257   3.403   1.584  0.1732 -0.6316 -0.7731
 3259SOL     OW21238   2.010   4.621   4.842  0.1127 -0.3151 -0.4290
 3259SOL    HW121239   1.982   4.605   4.932 -0.5289  1.8184 -0.2415
 3259SOL    HW221240   2.048   4.709   4.846 -0.7215 -0.0174  1.0543
 3260SOL     OW21241   2.635   3.963   3.818  0.6246 -0.3423 -0.1306
 3260SOL    HW121242   2.663   3.933   3.904  1.3255  1.3259  0.2104
 3260SOL    HW221243   2.574   4.030   3.847  0.0662 -0.4791 -0.9839
 3261SOL     OW21244   1.916   4.132   4.711  0.2217 -0.0199  0.3554
 3261SOL    HW121245   1.970   4.211   4.717  1.0503 -0.4984 -0.7049
 3261SOL    HW221246   1.838   4.166   4.667  0.2709 -1.7231 -1.0678
 3262SOL     OW21247   3.606   0.729  15.597  0.5271  0.3462  0.3838
 3262SOL    HW121248   3.637   0.793  15.533 -0.0216  1.2276  0.9966
 3262SOL    HW221249   3.513   0.748  15.582 -0.1451 -2.0373  1.4237
 3263SOL     OW21250   2.051   2.089   7.101  0.8014 -0.1466 -0.3963
 3263SOL    HW121251   2.050   2.070   7.007 -1.9434  1.5140 -0.6740
 3263SOL    HW221252   2.032   2.002   7.137  4.0423 -0.0292  1.6013
 3264SOL     OW21253   4.249   3.766  12.848 -0.2397  0.5292 -0.1608
 3264SOL    HW121254   4.325   3.726  12.892 -0.4462 -0.7135 -0.9288
 3264SOL    HW221255   4.230   3.706  12.777  2.8054 -0.0988 -0.4675
 3265SOL     OW21256   1.428   1.633   6.982 -0.4402 -0.2580 -0.2683
 3265SOL    HW121257   1.397   1.723   6.971 -1.8487 -0.6396  0.5594
 3265SOL    HW221258   1.489   1.654   7.053 -1.9742  0.8726  0.7086
 3266SOL     OW21259   3.790   3.503   6.664 -0.5355 -0.1637 -0.1793
 3266SOL    HW121260   3.792   3.564   6.738 -1.5249 -0.7194  0.3040
 3266SOL    HW221261   3.855   3.544   6.607  0.0387 -2.9631 -1.5011
 3267SOL     OW21262   3.857   3.166  11.803  0.7347  0.3473  0.2366
 3267SOL    HW121263   3.905   3.234  11.757  1.1668 -1.1709 -1.5223
 3267SOL    HW221264   3.770   3.202  11.822  0.1984 -0.5484 -0.4896
 3268SOL     OW21265   0.178   0.954   4.442  0.3164 -0.0515  0.3788
 3268SOL    HW121266   0.099   0.946   4.494 -1.2751  0.3427 -1.9841
 3268SOL    HW221267   0.144   0.923   4.358  0.3652  1.0271 -0.0445
 3269SOL     OW21268   0.093   3.312   5.153 -0.7202 -0.2439  0.2952
 3269SOL    HW121269   0.181   3.311   5.191 -0.1733  0.7593 -0.9296
 3269SOL    HW221270   0.048   3.287   5.234 -1.6333 -2.9537 -1.0860
 3270SOL     OW21271   3.037   1.563   2.688 -0.1829 -0.1202 -0.1300
 3270SOL    HW121272   2.983   1.574   2.610 -0.5410 -0.1099  0.1242
 3270SOL    HW221273   3.063   1.471   2.681 -1.2238 -0.5666  1.9141
 3271SOL     OW21274   0.128   0.082   0.148  0.5542  0.3136  0.1086
 3271SOL    HW121275   0.070   0.143   0.193  0.4277  2.5205 -3.0446
 3271SOL    HW221276   0.184   0.060   0.222 -0.5926  0.2019  0.9348
 3272SOL     OW21277   0.510   3.975   5.682 -0.0363 -0.0689  0.2856
 3272SOL    HW121278   0.454   3.898   5.673  0.3552 -0.4539  1.1096
 3272SOL    HW221279   0.543   3.994   5.594 -0.6512 -0.2714  0.0072
 3273SOL     OW21280   3.961   0.060  12.512  0.2018  0.2866  0.4588
 3273SOL    HW121281   4.031   0.052  12.578  1.4111 -2.7508 -1.1707
 3273SOL    HW221282   3.888   0.088  12.567  1.7801 -1.6530  3.5475
 3274SOL     OW21283   0.345   2.055   5.205 -0.2127 -0.4432  0.1966
 3274SOL    HW121284   0.266   2.060   5.259  0.1741  0.6511  0.6470
 3274SOL    HW221285   0.415   2.053   5.271 -2.5584 -1.1517  2.6718
 3275SOL     OW21286   4.684   4.462  14.030  0.3932 -0.2344 -0.5894
 3275SOL    HW121287   4.703   4.480  13.938  0.9640  1.1727 -0.1930
 3275SOL    HW221288   4.693   4.549  14.070  0.0485  0.5965 -2.3253
 3276SOL     OW21289   1.249   1.476   2.635 -0.2658  0.2894 -0.1646
 3276SOL    HW121290   1.225   1.530   2.710  0.3364 -0.3776  0.5087
 3276SOL    HW221291   1.343   1.491   2.634 -0.4021  1.1076 -0.1355
 3277SOL     OW21292   3.950   1.904   7.426 -0.2681  0.0360  0.3819
 3277SOL    HW121293   4.009   1.829   7.430 -0.4732 -0.1516 -0.0754
 3277SOL    HW221294   3.940   1.914   7.331  3.0172 -1.7057 -0.1367
 3278SOL     OW21295   0.780   2.768   9.409  0.4056 -0.1736 -0.0663
 3278SOL    HW121296   0.715   2.757   9.339 -0.5465 -1.3491  1.0132
 3278SOL    HW221297   0.768   2.689   9.461  0.7041  1.3562  2.3627
 3279SOL     OW21298   2.876   0.256  10.856 -0.3726  0.5289  0.5276
 3279SOL    HW121299   2.959   0.208  10.854 -0.6907  0.0137 -0.7775
 3279SOL    HW221300   2.880   0.282  10.764  0.4865 -0.5235  0.2682
 3280SOL     OW21301   0.045   0.487   4.162  0.7485 -0.0099  0.4633
 3280SOL    HW121302   4.678   0.518   4.175  1.2606  2.2869 -1.4021
 3280SOL    HW221303   0.045   0.399   4.199  0.9074 -0.7031 -1.1868
 3281SOL     OW21304   4.302   4.507   0.155 -0.5292 -0.0101 -0.6584
 3281SOL    HW121305   4.369   4.491   0.221  0.0275  0.6672 -1.0550
 3281SOL    HW221306   4.233   4.452   0.192  0.4581  0.4275  1.7907
 3282SOL     OW21307   0.839   2.916  11.757  0.4618  0.0934  0.2961
 3282SOL    HW121308   0.750   2.915  11.791 -0.7178 -0.9901 -2.9098
 3282SOL    HW221309   0.871   2.993  11.804 -0.0093  1.7359 -2.1231
 3283SOL     OW21310   1.621   0.724   9.044  0.1589  0.5934 -0.0156
 3283SOL    HW121311   1.642   0.649   9.101 -0.8367  0.2302 -0.1296
 3283SOL    HW221312   1.689   0.787   9.068  1.6727 -0.3172 -1.9133
 3284SOL     OW21313   0.976   1.991   5.992  0.4154  0.0305  0.1705
 3284SOL    HW121314   0.927   1.998   5.910 -0.2787  2.2569  0.7813
 3284SOL    HW221315   1.008   2.081   5.999  0.9717 -0.0794 -0.7865
 3285SOL     OW21316   2.882   1.615   3.151 -0.9300  0.2450 -0.4062
 3285SOL    HW121317   2.953   1.607   3.087 -0.8644  2.0846 -0.5819
 3285SOL    HW221318   2.811   1.612   3.086 -1.1907 -3.4950  0.0878
 3286SOL     OW21319   0.834   4.219  16.748 -0.1622 -0.7047  0.1061
 3286SOL    HW121320   0.757   4.162  16.748  0.7843 -1.9706  2.2927
 3286SOL    HW221321   0.793   4.305  16.756  1.5569  0.2202 -1.0018
 3287SOL     OW21322   4.367   3.932   3.477  0.6638 -0.1291 -0.6382
 3287SOL    HW121323   4.340   3.840   3.472 -1.3307  0.3380  1.3191
 3287SOL    HW221324   4.408   3.959   3.395  1.3333 -0.6480 -0.4822
 3288SOL     OW21325   2.266   1.958  12.288  0.3511  0.1985 -0.2470
 3288SOL    HW121326   2.256   1.884  12.348  2.1985  0.6109  0.5816
 3288SOL    HW221327   2.176   1.987  12.278 -0.1054 -0.9738  0.4458
 3289SOL     OW21328   2.881   1.844   4.511 -0.4297 -0.3343  0.6135
 3289SOL    HW121329   2.793   1.874   4.488 -0.2928 -0.5129 -0.1403
 3289SOL    HW221330   2.918   1.932   4.510 -1.7756  0.1946 -2.2042
 3290SOL     OW21331   0.017   3.850  11.407  0.0319 -0.6277  0.0662
 3290SOL    HW121332   0.088   3.794  11.436 -0.0143 -0.9739 -0.4803
 3290SOL    HW221333   0.040   3.850  11.314  1.7894  1.5185  0.5042
 3291SOL     OW21334   3.861   2.377   8.285 -0.3477  0.4662  0.9451
 3291SOL    HW121335   3.895   2.458   8.324 -0.1495  0.7680  0.1515
 3291SOL    HW221336   3.934   2.347   8.230  0.1959  3.8168 -0.1586
 3292SOL     OW21337   4.309   0.028   8.732 -0.6277  0.1208  0.0033
 3292SOL    HW121338   4.301   4.660   8.761  1.2405  0.6491  2.1891
 3292SOL    HW221339   4.339   0.011   8.642 -0.8904 -0.3393 -0.0002
 3293SOL     OW21340   1.579   3.357   6.293 -0.0203 -0.3779  1.0195
 3293SOL    HW121341   1.499   3.396   6.330 -0.5177 -0.2340 -0.1941
 3293SOL    HW221342   1.551   3.267   6.308 -1.0536 -0.7203 -2.8088
 3294SOL     OW21343   1.254   0.720  11.400  0.3129 -0.3750 -0.0425
 3294SOL    HW121344   1.263   0.797  11.343  2.3757 -0.3115  0.3631
 3294SOL    HW221345   1.340   0.678  11.386 -0.7937 -1.2256 -4.2600
 3295SOL     OW21346   0.621   0.902   3.678 -0.5652  0.2322  0.5148
 3295SOL    HW121347   0.704   0.924   3.719 -1.1733  0.8450  1.4396
 3295SOL    HW221348   0.632   0.807   3.683  0.5968  0.3105 -0.7132
 3296SOL     OW21349   4.088   0.426   3.473  0.2247 -0.3865  0.1462
 3296SOL    HW121350   4.027   0.494   3.444 -1.6495 -0.3374  4.2794
 3296SOL    HW221351   4.144   0.481   3.528  0.1426 -0.6695  0.5127
 3297SOL     OW21352   1.591   2.933   0.587 -0.3461  0.5560 -0.6667
 3297SOL    HW121353   1.561   3.012   0.632 -2.0441 -0.4780 -0.0245
 3297SOL    HW221354   1.652   2.896   0.650 -0.7098  0.9320 -0.0958
 3298SOL     OW21355   4.653   3.991   6.505  0.2699  0.2020 -0.2886
 3298SOL    HW121356   4.695   4.032   6.429  0.0293  1.4236  0.2298
 3298SOL    HW221357   4.673   3.901   6.480  0.7321 -0.2258  1.5902
 3299SOL     OW21358   0.783   3.795   3.667 -0.8654  0.3044 -0.2405
 3299SOL    HW121359   0.808   3.707   3.695 -1.8039 -0.2743 -1.2075
 3299SOL    HW221360   0.781   3.792   3.572 -2.6229  1.4585 -0.2494
 3300SOL     OW21361   1.351   2.670  11.284 -0.3205 -0.6142  0.2667
 3300SOL    HW121362   1.295   2.599  11.317  0.3091  0.3298  3.3264
 3300SOL    HW221363   1.302   2.740  11.327 -0.5290 -0.4388 -0.2654
 3301SOL     OW21364   1.313   4.434   6.282 -0.1859 -0.5794  0.0566
 3301SOL    HW121365   1.403   4.413   6.306 -0.2116  0.4311  1.0848
 3301SOL    HW221366   1.327   4.509   6.224 -3.1240  0.5887  0.8375
 3302SOL     OW21367   1.625   0.047  12.159 -0.0000  0.4796  0.2397
 3302SOL    HW121368   1.633   4.679  12.130 -0.0272  1.0915 -1.6803
 3302SOL    HW221369   1.646   0.037  12.252 -0.1850  0.7550  0.3133
 3303SOL     OW21370   3.732   4.294   7.554 -0.0065  0.0916 -0.0013
 3303SOL    HW121371   3.734   4.241   7.474  1.4836 -0.2963  0.2803
 3303SOL    HW221372   3.763   4.224   7.612 -0.5796 -0.2697 -0.1330
 3304SOL     OW21373   0.318   2.221  13.196 -0.4025 -0.0423 -0.1598
 3304SOL    HW121374   0.291   2.150  13.255  0.2552 -0.1962 -0.0519
 3304SOL    HW221375   0.235   2.265  13.175 -0.2199 -0.7000 -2.3515
 3305SOL     OW21376   0.849   1.422   2.369 -0.3480 -0.0522  0.5850
 3305SOL    HW121377   0.929   1.370   2.369 -0.0726  0.3842  0.1359
 3305SOL    HW221378   0.888   1.508   2.355 -1.8030  0.2914 -1.3333
 3306SOL     OW21379   2.463   2.592   4.578  0.0598 -0.4649  0.0601
 3306SOL    HW121380   2.417   2.676   4.584  3.7199  1.6295 -1.1916
 3306SOL    HW221381   2.545   2.616   4.534  0.5884 -0.4274  1.0670
 3307SOL     OW21382   0.235   1.104   7.337 -0.5291 -0.6290 -0.2216
 3307SOL    HW121383   0.182   1.030   7.365  0.0304  0.1271  2.7872
 3307SOL    HW221384   0.278   1.132   7.418 -1.3998 -3.6255  1.2647
 3308SOL     OW21385   2.215   3.870   0.127 -0.7223  0.1576 -0.0795
 3308SOL    HW121386   2.299   3.886   0.169  0.8347 -0.1164 -3.1058
 3308SOL    HW221387   2.224   3.777   0.108 -2.5400  0.0608 -0.4852
 3309SOL     OW21388   0.379   3.195   2.703  0.1236 -0.4428  0.1452
 3309SOL    HW121389   0.400   3.256   2.632  1.5169 -1.1799 -0.0602
 3309SOL    HW221390   0.384   3.107   2.666  0.0285  0.3800 -1.8177
 3310SOL     OW21391   0.483   4.488   2.841 -0.0487 -0.0086 -0.5501
 3310SOL    HW121392   0.486   4.583   2.850 -2.9146  0.1114 -0.6587
 3310SOL    HW221393   0.578   4.477   2.836 -0.0675  0.0769 -1.1568
 3311SOL     OW21394   4.058   3.498  12.413  0.0662  0.1610 -0.0200
 3311SOL    HW121395   4.035   3.405  12.421  1.5880 -0.1314  0.9150
 3311SOL    HW221396   4.061   3.509  12.318  0.0634  2.0236  0.1921
 3312SOL     OW21397   1.527   3.620   1.242  0.0450  0.1187  0.0807
 3312SOL    HW121398   1.513   3.671   1.322  2.1917  1.5339 -0.4294
 3312SOL    HW221399   1.441   3.622   1.200  0.6255  0.4502 -1.0978
 3313SOL     OW21400   4.251   1.567   8.567 -0.1017 -0.5534 -0.0311
 3313SOL    HW121401   4.329   1.516   8.587  1.3857  0.6071 -2.8575
 3313SOL    HW221402   4.182   1.508   8.597 -0.9651  1.5258  1.9826
 3314SOL     OW21403   2.908   3.659  15.663  0.7285  0.3014 -0.3453
 3314SOL    HW121404   2.910   3.755  15.657 -1.5672  0.3837  0.0221
 3314SOL    HW221405   2.883   3.636  15.573 -0.1093  0.4809 -0.1656
 3315SOL     OW21406   2.487   0.049   2.199 -0.4389 -0.0586 -0.4644
 3315SOL    HW121407   2.475   0.019   2.109 -0.8127 -0.6062 -0.2328
 3315SOL    HW221408   2.579   0.073   2.197 -0.0640 -1.5267 -0.5757
 3316SOL     OW21409   2.527   4.352   5.849  0.3928  0.4989 -0.7433
 3316SOL    HW121410   2.451   4.401   5.882 -0.5401  0.3799 -2.7421
 3316SOL    HW221411   2.581   4.352   5.928  0.6258  1.2109 -0.9039
 3317SOL     OW21412   2.570   1.143   8.417  0.4951 -0.2609  0.0433
 3317SOL    HW121413   2.563   1.100   8.332 -1.2806  2.1442 -1.0340
 3317SOL    HW221414   2.538   1.073   8.474  0.4102 -0.2457  0.0150
 3318SOL     OW21415   1.074   2.784  14.317 -0.1333 -0.2552 -0.1405
 3318SOL    HW121416   1.000   2.828  14.276  0.2347  0.6339  0.1341
 3318SOL    HW221417   1.146   2.795  14.256  1.1320  0.8057  1.5455
 3319SOL     OW21418   3.149   3.045   5.125  0.0549 -0.4940  0.3617
 3319SOL    HW121419   3.155   3.077   5.215 -0.0255  1.3479 -0.2960
 3319SOL    HW221420   3.086   2.972   5.132  0.1375 -0.4924  1.1842
 3320SOL     OW21421   2.000   0.934   4.314  0.1874 -0.3035 -0.0161
 3320SOL    HW121422   2.035   0.885   4.388  0.0444  0.4861  0.5732
 3320SOL    HW221423   2.074   0.990   4.290 -1.8701  1.6852 -1.7523
 3321SOL     OW21424   3.801   3.609  10.372 -0.5303 -0.7264  0.4004
 3321SOL    HW121425   3.788   3.514  10.367 -1.7126 -0.5483  0.2530
 3321SOL    HW221426   3.894   3.613  10.348 -0.8858  0.5641 -0.7176
 3322SOL     OW21427   0.304   0.294   6.663 -0.4088  0.3881 -0.3867
 3322SOL    HW121428   0.303   0.262   6.573  0.1642  1.0298 -0.6220
 3322SOL    HW221429   0.362   0.370   6.658 -0.8406  0.8072  0.9879
 3323SOL     OW21430   2.677   0.702   3.906 -0.0937 -0.3975 -0.3894
 3323SOL    HW121431   2.739   0.734   3.971 -1.1755  1.7874 -0.4094
 3323SOL    HW221432   2.652   0.790   3.877  0.5914  0.1243  0.6091
 3324SOL     OW21433   2.092   1.700  15.095  0.4119  0.0066 -0.1622
 3324SOL    HW121434   2.066   1.753  15.020  2.6479 -0.9129 -1.5947
 3324SOL    HW221435   2.176   1.665  15.064  0.0218 -1.3410  0.2879
 3325SOL     OW21436   0.001   4.170   3.856 -0.0322  0.3359  0.3364
 3325SOL    HW121437   4.637   4.208   3.861 -0.4826 -0.5340 -0.9381
 3325SOL    HW221438   0.023   4.208   3.771 -0.4797 -1.3922 -0.5540
 3326SOL     OW21439   4.247   4.608   5.915  0.0793 -0.0328  0.2254
 3326SOL    HW121440   4.268   4.601   5.822  0.2364  1.6395  0.1413
 3326SOL    HW221441   4.254   4.702   5.931  0.7637 -0.1713  0.7533
 3327SOL     OW21442   0.773   1.947   7.500  0.1610 -0.0361 -0.3282
 3327SOL    HW121443   0.826   2.000   7.561  0.7761  0.3028 -1.1618
 3327SOL    HW221444   0.817   1.862   7.508 -1.2441 -0.6082  1.3624
 3328SOL     OW21445   2.391   1.588   5.045  0.6106 -0.0736  0.1575
 3328SOL    HW121446   2.423   1.538   4.970  0.8254  0.0534  0.1641
 3328SOL    HW221447   2.443   1.541   5.111  2.1950 -0.1713 -1.1606
 3329SOL     OW21448   2.101   4.389   8.725 -0.0306  0.6709 -0.3713
 3329SOL    HW121449   2.167   4.438   8.676  0.5806 -0.3112 -0.5328
 3329SOL    HW221450   2.163   4.338   8.778 -1.1484  0.0376  0.3174
 3330SOL     OW21451   2.249   2.214   7.258  0.0294  0.6979 -0.4362
 3330SOL    HW121452   2.279   2.274   7.190  0.4081  2.2326  1.0860
 3330SOL    HW221453   2.171   2.182   7.213 -1.1513  0.6620  1.6126
 3331SOL     OW21454   3.494   0.474   6.919  0.2080 -0.1591  0.5633
 3331SOL    HW121455   3.560   0.540   6.935  0.9205 -0.6905 -0.1822
 3331SOL    HW221456   3.537   0.420   6.852 -0.4761  0.8333 -0.6754
 3332SOL     OW21457   3.643   3.247   3.560  0.1716 -0.3224  0.1388
 3332SOL    HW121458   3.659   3.191   3.485  0.2732 -0.7164  0.4568
 3332SOL    HW221459   3.731   3.273   3.590  1.1479 -2.3224 -1.0809
 3333SOL     OW21460   2.060   1.872  10.120 -0.1238 -0.0206 -0.2833
 3333SOL    HW121461   1.996   1.801  10.119 -1.2408  0.9696  0.3656
 3333SOL    HW221462   2.008   1.952  10.108  1.0321  0.6566 -0.7209
 3334SOL     OW21463   2.049   1.592  12.564  0.2993 -0.0880  0.0758
 3334SOL    HW121464   1.981   1.595  12.632  0.5210 -3.1263  0.4566
 3334SOL    HW221465   2.109   1.520  12.584  1.3010  0.5064 -0.8122
 3335SOL     OW21466   0.889   2.408   0.157 -0.1661 -0.5697 -0.3786
 3335SOL    HW121467   0.901   2.356   0.077  2.8513 -0.0244 -0.2737
 3335SOL    HW221468   0.932   2.358   0.226  0.7490  3.2072  1.7684
 3336SOL     OW21469   1.327   2.801  16.505  0.0796  0.6441  0.0837
 3336SOL    HW121470   1.399   2.769  16.452 -0.1564  0.4733 -0.1295
 3336SOL    HW221471   1.384   2.862  16.552 -1.7706  1.8728  0.7642
 3337SOL     OW21472   3.990   0.721   7.313 -0.0989  0.2440  0.4019
 3337SOL    HW121473   4.077   0.701   7.347  0.2479 -0.7734 -1.0760
 3337SOL    HW221474   4.017   0.729   7.222  0.5633 -0.5834  0.5215
 3338SOL     OW21475   0.340   2.609   6.133  0.1862 -0.1170 -0.0195
 3338SOL    HW121476   0.419   2.611   6.079  0.7238 -1.6164  0.7161
 3338SOL    HW221477   0.335   2.699   6.165 -1.3433 -0.8577  1.8471
 3339SOL     OW21478   4.111   2.788   8.700  0.1850 -0.1509  0.2427
 3339SOL    HW121479   4.024   2.807   8.733  0.9711  1.1605  1.5288
 3339SOL    HW221480   4.099   2.693   8.708  2.8542 -0.4596  0.4606
 3340SOL     OW21481   0.054   4.353   1.254  0.1548 -0.6251  0.4001
 3340SOL    HW121482   0.117   4.415   1.290  2.5202 -0.7457 -3.4902
 3340SOL    HW221483   0.039   4.393   1.168  1.0308 -0.0881  0.4969
 3341SOL     OW21484   3.472   3.391   4.625  0.3773  0.0396 -0.0665
 3341SOL    HW121485   3.399   3.454   4.628  1.6057  1.4687 -0.1867
 3341SOL    HW221486   3.514   3.420   4.707  0.6155 -1.7696  0.4402
 3342SOL     OW21487   2.779   0.106   4.890 -0.4893  0.3838 -0.5585
 3342SOL    HW121488   2.805   0.084   4.801 -0.3320 -3.1912  0.3634
 3342SOL    HW221489   2.758   0.022   4.931 -0.7294 -0.3303 -2.1615
 3343SOL     OW21490   3.761   1.681  17.476 -0.2971  0.2648 -0.0713
 3343SOL    HW121491   3.856   1.672  17.481 -0.3684  0.0007  0.7351
 3343SOL    HW221492   3.758   1.641  17.390  1.6514  1.6482 -0.7876
 3344SOL     OW21493   3.481   2.640  12.258  0.1153  0.0114  0.0538
 3344SOL    HW121494   3.515   2.712  12.311 -1.5815  0.3093  0.7636
 3344SOL    HW221495   3.428   2.693  12.199 -0.0897 -0.3483 -0.0841
 3345SOL     OW21496   2.855   2.785   6.911  0.4937 -0.4017  0.3374
 3345SOL    HW121497   2.779   2.787   6.853  1.3389  2.3774 -0.6874
 3345SOL    HW221498   2.912   2.730   6.857  2.3669  1.8032  0.0907
 3346SOL     OW21499   3.532   4.532   6.269 -0.3921  0.2303 -0.4935
 3346SOL    HW121500   3.528   4.615   6.221 -0.0977 -0.1873 -1.2461
 3346SOL    HW221501   3.513   4.561   6.358 -0.3550  1.9618 -1.0510
 3347SOL     OW21502   1.813   1.603   9.225  0.2898  0.0764 -0.1858
 3347SOL    HW121503   1.752   1.570   9.159  0.8295  1.5550 -1.4240
 3347SOL    HW221504   1.858   1.672   9.176  2.8552 -2.4854 -1.4064
 3348SOL     OW21505   0.545   1.414   4.136 -0.1511  0.0764  0.4382
 3348SOL    HW121506   0.460   1.437   4.173 -0.1695  2.5879 -1.1215
 3348SOL    HW221507   0.512   1.396   4.048 -0.7176 -1.2532  0.9167
 3349SOL     OW21508   0.244   4.471   6.544 -0.1845  0.0767  0.2829
 3349SOL    HW121509   0.209   4.555   6.515 -0.0094  0.0336 -0.0505
 3349SOL    HW221510   0.266   4.494   6.635  0.5443 -1.7271  0.5661
 3350SOL     OW21511   0.555   3.106   9.818  0.1049 -0.0264  0.0175
 3350SOL    HW121512   0.565   3.100   9.913 -0.8788  1.4814  0.2203
 3350SOL    HW221513   0.538   3.015   9.792 -0.2847 -0.1383  0.6752
 3351SOL     OW21514   1.154   1.322   8.240  0.2544  0.1782  0.0170
 3351SOL    HW121515   1.179   1.253   8.301  1.0921  1.7169  1.4300
 3351SOL    HW221516   1.128   1.276   8.161  1.2546 -0.8957  0.3166
 3352SOL     OW21517   0.426   2.734  14.908  0.6021 -0.3599  0.1368
 3352SOL    HW121518   0.448   2.743  14.815  1.6131  2.5846  0.6778
 3352SOL    HW221519   0.467   2.802  14.961 -0.3602  0.8979 -0.7420
 3353SOL     OW21520   4.125   1.045   3.808 -0.4377 -0.4021 -0.3018
 3353SOL    HW121521   4.132   1.107   3.735  1.5244 -0.4012 -0.1326
 3353SOL    HW221522   4.062   1.099   3.856 -0.2926 -2.3643  2.0834
 3354SOL     OW21523   1.287   3.946   4.117 -0.1897 -0.3459 -0.0439
 3354SOL    HW121524   1.346   3.977   4.185  0.3821 -1.0300 -0.2274
 3354SOL    HW221525   1.221   4.015   4.124 -0.4738 -0.7697  1.4282
 3355SOL     OW21526   1.353   2.597  14.397  0.2964 -0.3493  0.1288
 3355SOL    HW121527   1.271   2.581  14.350  0.5815 -1.5944  0.0656
 3355SOL    HW221528   1.317   2.638  14.475  0.9993  0.4499  0.0442
 3356SOL     OW21529   4.428   2.360   6.545  0.3899 -0.4413 -0.0206
 3356SOL    HW121530   4.485   2.333   6.617 -1.6290  1.6143  2.3950
 3356SOL    HW221531   4.488   2.421   6.501 -0.2776  1.2217  1.3504
 3357SOL     OW21532   3.598   4.246   4.596 -0.3494  0.1553 -0.0780
 3357SOL    HW121533   3.571   4.155   4.589  0.3194  0.1446 -2.5693
 3357SOL    HW221534   3.647   4.252   4.514 -1.2912  1.8166 -0.5390
 3358SOL     OW21535   3.720   3.833   2.974  0.5568 -0.1584  0.0648
 3358SOL    HW121536   3.658   3.865   3.039  0.0718  0.9878 -0.9758
 3358SOL    HW221537   3.724   3.905   2.911  0.4649  0.0835  0.3366
 3359SOL     OW21538   1.477   0.771   1.395  0.1841 -0.1719  0.4101
 3359SOL    HW121539   1.480   0.834   1.466 -2.1800 -1.2492  1.4441
 3359SOL    HW221540   1.438   0.822   1.324  0.6956 -1.1748 -0.5970
 3360SOL     OW21541   4.697   3.993  13.052 -0.1959 -0.3647 -0.1883
 3360SOL    HW121542   4.605   3.969  13.066  0.2624 -1.9255  0.2534
 3360SOL    HW221543   4.698   4.079  13.012 -1.8693  0.1368  0.8229
 3361SOL     OW21544   1.402   0.281   6.122  0.0759 -0.1634 -0.8253
 3361SOL    HW121545   1.456   0.203   6.139 -0.2142 -0.5523 -1.6757
 3361SOL    HW221546   1.346   0.285   6.200 -1.3262  1.7383 -1.9466
 3362SOL     OW21547   2.376   4.642   7.874 -0.0821  0.0394  0.0966
 3362SOL    HW121548   2.294   4.610   7.836  0.2628 -1.0196  0.2666
 3362SOL    HW221549   2.438   4.641   7.801 -0.3556 -0.5013 -0.1226
 3363SOL     OW21550   1.386   3.003   3.614 -0.1247 -0.0858  0.0997
 3363SOL    HW121551   1.309   3.036   3.661 -1.5277 -0.8893 -1.6667
 3363SOL    HW221552   1.389   2.913   3.647  0.8133  0.1270  0.5999
 3364SOL     OW21553   4.169   1.379   3.420  0.2738 -0.5109  0.0762
 3364SOL    HW121554   4.131   1.322   3.353 -0.4425 -1.2013  1.0795
 3364SOL    HW221555   4.138   1.456   3.372 -0.4721  0.3756  1.9950
 3365SOL     OW21556   3.291   0.025   5.240  0.7420  0.3234 -0.3744
 3365SOL    HW121557   3.348   4.672   5.249  0.5742  0.0204 -1.9543
 3365SOL    HW221558   3.335   0.070   5.168  1.1966  0.9382  0.2819
 3366SOL     OW21559   4.075   1.037   3.449  0.0914 -0.7180  0.2618
 3366SOL    HW121560   4.045   1.083   3.370  2.1542 -1.2288 -0.8155
 3366SOL    HW221561   4.168   1.020   3.436 -0.4298 -2.0012 -1.8163
 3367SOL     OW21562   1.549   3.408   4.741 -1.0567 -0.1563  0.2340
 3367SOL    HW121563   1.628   3.375   4.783 -0.5551  0.5302 -0.1689
 3367SOL    HW221564   1.550   3.501   4.766 -0.1290 -0.3176  0.7886
 3368SOL     OW21565   0.312   2.631   4.967 -0.5823  0.1368 -0.0999
 3368SOL    HW121566   0.341   2.547   5.002 -1.0230 -0.8626 -2.1266
 3368SOL    HW221567   0.222   2.613   4.943 -0.6256 -0.5319  0.5912
 3369SOL     OW21568   0.210   2.858   7.445  0.1624  0.3944  0.0324
 3369SOL    HW121569   0.144   2.912   7.402 -1.1185  0.0871  1.6043
 3369SOL    HW221570   0.251   2.819   7.368 -0.1163  0.8461 -0.3468
 3370SOL     OW21571   0.904   0.966   4.724  0.1244  0.0552  0.5630
 3370SOL    HW121572   0.880   1.044   4.773 -0.0786 -1.1902  2.4716
 3370SOL    HW221573   0.902   1.001   4.635 -2.2938 -1.0275  0.1852
 3371SOL     OW21574   4.054   3.829   9.969  0.1723 -0.6103  0.5029
 3371SOL    HW121575   3.977   3.864  10.014  0.6584  0.3838  0.5565
 3371SOL    HW221576   4.038   3.735   9.979 -1.0589 -0.5501 -0.8590
 3372SOL     OW21577   2.534   1.370  12.755 -0.1499 -0.2854 -0.5436
 3372SOL    HW121578   2.557   1.462  12.741  2.0554 -0.5102  1.7977
 3372SOL    HW221579   2.520   1.345  12.663  2.5325 -0.8928 -0.7900
 3373SOL     OW21580   3.236   2.435   0.905  0.4246 -0.0093 -0.7444
 3373SOL    HW121581   3.152   2.466   0.870 -0.5232 -1.3629  0.3169
 3373SOL    HW221582   3.238   2.347   0.868  0.6878 -0.1722 -0.3410
 3374SOL     OW21583   1.222   0.395   3.734 -0.6629  0.1326 -0.2318
 3374SOL    HW121584   1.254   0.315   3.777 -2.6413 -0.4563  0.1421
 3374SOL    HW221585   1.141   0.407   3.783 -1.6752 -2.3725 -1.2900
 3375SOL     OW21586   0.207   1.739   7.344  0.8389  0.5493  0.0063
 3375SOL    HW121587   0.187   1.745   7.438  1.9375 -1.8126  0.3890
 3375SOL    HW221588   0.159   1.813   7.307 -1.3666 -0.5244  0.7574
 3376SOL     OW21589   3.669   3.582  10.020 -0.1532 -0.0904  0.6897
 3376SOL    HW121590   3.649   3.630  10.101 -1.2549 -2.1768  1.6534
 3376SOL    HW221591   3.603   3.513  10.024  2.4418 -2.5849  0.2888
 3377SOL     OW21592   3.414   4.340   3.939  0.2046 -0.2576  0.3471
 3377SOL    HW121593   3.400   4.434   3.948 -1.3807 -0.5858  1.3886
 3377SOL    HW221594   3.333   4.302   3.906 -0.1446  0.9245 -0.1577
 3378SOL     OW21595   0.618   2.777   2.037 -0.3414 -0.0756 -0.1499
 3378SOL    HW121596   0.578   2.744   2.117 -0.5748 -0.4898 -0.4344
 3378SOL    HW221597   0.562   2.744   1.966 -1.9688  2.2625  0.0501
 3379SOL     OW21598   1.920   2.939  16.526  0.7436  0.4704  0.1181
 3379SOL    HW121599   1.994   2.889  16.493  0.2971 -0.3456  0.3458
 3379SOL    HW221600   1.867   2.869  16.564  1.7279 -0.8714 -0.9952
 3380SOL     OW21601   4.137   4.510   3.562  0.1878  0.0206 -0.0758
 3380SOL    HW121602   4.188   4.429   3.563  0.6935  0.3624  2.0765
 3380SOL    HW221603   4.172   4.563   3.490 -0.1440 -0.7928 -0.8285
 3381SOL     OW21604   1.365   2.048   8.162 -0.1719  0.0154 -0.5447
 3381SOL    HW121605   1.386   1.966   8.118  1.7327  1.4440 -2.2537
 3381SOL    HW221606   1.300   2.084   8.101 -0.0361  3.4998  1.3769
 3382SOL     OW21607   1.087   0.941   1.367 -0.0110  0.7732 -0.1734
 3382SOL    HW121608   1.000   0.931   1.405 -0.1383  0.3546 -0.5749
 3382SOL    HW221609   1.127   0.984   1.443 -0.5204 -1.4612  1.3785
 3383SOL     OW21610   2.407   2.810   3.975 -0.5370 -0.3029 -0.0259
 3383SOL    HW121611   2.365   2.844   3.896  0.7205 -2.2730 -1.5830
 3383SOL    HW221612   2.376   2.871   4.041 -1.0973 -0.6858  0.0691
 3384SOL     OW21613   1.812   3.876   4.015 -0.0532  0.1218 -0.4886
 3384SOL    HW121614   1.772   3.956   3.982 -1.1996 -0.0702  0.4186
 3384SOL    HW221615   1.763   3.809   3.968 -2.1072 -0.4291  2.4051
 3385SOL     OW21616   4.130   4.546  17.328 -0.5299 -0.0766 -0.1287
 3385SOL    HW121617   4.161   4.584  17.410 -1.0735  2.7300 -1.2305
 3385SOL    HW221618   4.200   4.483  17.313 -2.7019 -2.0139 -2.0562
 3386SOL     OW21619   2.607   1.570   6.778 -0.0687  0.6070  0.0932
 3386SOL    HW121620   2.521   1.531   6.787  0.1708  0.2425  0.8006
 3386SOL    HW221621   2.658   1.521   6.842 -1.6752 -2.3771 -0.9129
 3387SOL     OW21622   4.090   3.772   6.519  0.4827  0.0282 -0.1862
 3387SOL    HW121623   4.029   3.786   6.592  1.6514  1.2005  0.5625
 3387SOL    HW221624   4.043   3.702   6.473  1.0278  0.2702 -1.1098
 3388SOL     OW21625   0.612   0.146   2.758 -0.4795 -0.1982  0.0908
 3388SOL    HW121626   0.546   0.159   2.691 -0.7870  0.0332  0.4402
 3388SOL    HW221627   0.641   0.237   2.751 -1.9631  0.2996  0.4350
 3389SOL     OW21628   2.816   1.666   4.068  0.2037  0.4905 -0.0287
 3389SOL    HW121629   2.808   1.761   4.077  0.1954  0.6027 -1.2164
 3389SOL    HW221630   2.731   1.642   4.104  0.6472  1.0680  1.4221
 3390SOL     OW21631   0.654   0.407   9.103  0.1688  0.0800  0.1645
 3390SOL    HW121632   0.628   0.316   9.114 -0.7503  0.4343  0.9137
 3390SOL    HW221633   0.635   0.439   9.014  1.1072  0.8655  0.2499
 3391SOL     OW21634   2.361   1.848  16.493  0.1352  0.4132 -0.0465
 3391SOL    HW121635   2.419   1.898  16.551  0.7681  0.5285 -0.7623
 3391SOL    HW221636   2.281   1.838  16.543  0.9994  1.7772  1.5938
 3392SOL     OW21637   3.104   3.615   2.871 -0.4038  0.1986 -0.4149
 3392SOL    HW121638   3.167   3.552   2.837  1.1590  0.7142  1.5256
 3392SOL    HW221639   3.022   3.575   2.841 -0.9367 -0.1825  1.5227
 3393SOL     OW21640   4.524   3.927   2.844  0.0132  0.3887  0.0769
 3393SOL    HW121641   4.514   3.841   2.805 -0.7448  0.7010 -0.4176
 3393SOL    HW221642   4.466   3.923   2.920  1.2290  0.9350  1.0262
 3394SOL     OW21643   1.079   3.181  17.350  0.0049 -0.5815  0.5090
 3394SOL    HW121644   1.085   3.274  17.370 -0.3154 -0.5984  0.6940
 3394SOL    HW221645   1.021   3.150  17.421 -1.7195 -0.1111 -0.6863
 3395SOL     OW21646   3.709   1.849   5.192  1.2284 -0.1473 -0.7596
 3395SOL    HW121647   3.646   1.920   5.178  1.4535  0.1638 -0.1919
 3395SOL    HW221648   3.694   1.789   5.119 -0.6504 -0.8940  0.2294
 3396SOL     OW21649   4.550   2.692  10.290  0.5281  0.0390 -0.6349
 3396SOL    HW121650   4.476   2.664  10.344  0.1853  1.0369 -0.5854
 3396SOL    HW221651   4.557   2.612  10.239  0.1420  0.9898 -2.1760
 3397SOL     OW21652   1.554   4.650   5.307  0.4182 -0.0690  0.3266
 3397SOL    HW121653   1.592   0.008   5.339  1.0075 -0.3957  0.4723
 3397SOL    HW221654   1.630   4.597   5.334  0.5055 -0.9304 -1.6241
 3398SOL     OW21655   3.946   1.542   7.573  0.1009 -0.2216 -1.0508
 3398SOL    HW121656   4.011   1.607   7.600  0.1805 -1.0471  0.7750
 3398SOL    HW221657   3.994   1.460   7.585  1.5435  0.6556 -0.8220
 3399SOL     OW21658   0.238   0.790  17.562 -0.3853 -0.1585  0.0386
 3399SOL    HW121659   0.152   0.752  17.546 -0.3688 -0.0824 -0.2269
 3399SOL    HW221660   0.228   0.825  17.650 -0.9833  0.0670 -0.1241
 3400SOL     OW21661   3.555   4.211   5.732 -0.3904 -0.0217  0.1704
 3400SOL    HW121662   3.588   4.197   5.821  0.5079 -0.4232 -0.2306
 3400SOL    HW221663   3.640   4.231   5.691  0.2067 -0.3069  1.2651
 3401SOL     OW21664   3.047   3.866   2.109  0.1527 -0.0729 -0.1153
 3401SOL    HW121665   3.007   3.795   2.158 -0.2694 -0.2171 -0.6646
 3401SOL    HW221666   3.056   3.823   2.024  1.3120  0.9206 -0.4930
 3402SOL     OW21667   3.851   2.041   0.540  0.0415  0.3153  0.1263
 3402SOL    HW121668   3.798   1.963   0.521  2.7272 -1.8538  1.5469
 3402SOL    HW221669   3.867   2.028   0.633  1.9143  0.3707 -0.1803
 3403SOL     OW21670   4.404   2.384   1.810 -0.2620  0.2752 -0.6153
 3403SOL    HW121671   4.391   2.315   1.745  0.1155 -2.1470  1.8454
 3403SOL    HW221672   4.486   2.420   1.775 -0.7555  0.1571 -1.8872
 3404SOL     OW21673   3.016   2.989   4.301 -0.4845  0.1590 -0.3968
 3404SOL    HW121674   3.109   3.010   4.307 -0.9431  1.7739  1.2043
 3404SOL    HW221675   3.006   2.996   4.206  0.5512 -3.6409 -0.7702
 3405SOL     OW21676   0.754   0.510   9.730  0.0209  0.0527 -0.1120
 3405SOL    HW121677   0.694   0.512   9.656  0.8520  1.0696 -0.7580
 3405SOL    HW221678   0.818   0.577   9.704  1.7516 -0.8101  1.9170
 3406SOL     OW21679   0.238   2.262   5.821  0.3054  0.2352 -0.5089
 3406SOL    HW121680   0.152   2.249   5.861  0.2218 -1.5787 -1.2586
 3406SOL    HW221681   0.213   2.284   5.731  0.0906  0.2337 -0.4507
 3407SOL     OW21682   3.276   3.423   8.054  0.4469  0.2570  0.2920
 3407SOL    HW121683   3.276   3.485   8.127 -1.3131  0.2375  0.3099
 3407SOL    HW221684   3.230   3.468   7.983  0.7005  0.5293  0.2998
 3408SOL     OW21685   2.009   4.704   2.933 -0.3208  0.2191  0.3908
 3408SOL    HW121686   1.971   4.657   3.007 -2.2245 -0.5402 -1.0761
 3408SOL    HW221687   2.037   0.061   2.976  0.5823  0.4618 -0.6657
 3409SOL     OW21688   2.810   0.549   9.092 -0.0868 -0.5512  0.1998
 3409SOL    HW121689   2.721   0.518   9.112 -0.2014 -0.5841 -0.3635
 3409SOL    HW221690   2.843   0.549   9.182  1.3049  1.5402 -0.3254
 3410SOL     OW21691   4.614   0.876   3.774  0.3259  0.1529 -0.6033
 3410SOL    HW121692   4.544   0.867   3.839 -0.1608 -0.2179 -1.1795
 3410SOL    HW221693   4.563   0.928   3.711 -0.5483  0.0157 -0.0093
 3411SOL     OW21694   2.079   3.992   5.429 -0.0900  0.2639  0.2228
 3411SOL    HW121695   2.075   3.902   5.459 -1.9760 -0.0154 -0.8433
 3411SOL    HW221696   1.985   4.012   5.422  0.0799  1.1265  0.3807
 3412SOL     OW21697   0.608   4.544   6.973  0.2750  0.6865  0.6897
 3412SOL    HW121698   0.529   4.538   7.028 -0.8900  0.1543 -1.0396
 3412SOL    HW221699   0.641   4.455   6.988 -0.0124  0.2166 -1.4670
 3413SOL     OW21700   1.155   2.830   7.291 -0.5022 -0.7301 -0.2316
 3413SOL    HW121701   1.106   2.905   7.256  0.2244  0.2804  0.9519
 3413SOL    HW221702   1.225   2.880   7.332 -0.3301 -0.7014 -0.5619
 3414SOL     OW21703   3.620   3.185   7.592  0.0102 -0.0994 -0.5131
 3414SOL    HW121704   3.638   3.266   7.545  0.7942 -0.2572 -0.4816
 3414SOL    HW221705   3.545   3.204   7.649 -0.8083 -1.8478 -0.9842
 3415SOL     OW21706   1.320   4.561  14.612  0.0277 -0.0250 -0.1450
 3415SOL    HW121707   1.277   4.478  14.593 -0.5951 -0.2195  2.0687
 3415SOL    HW221708   1.396   4.550  14.555 -0.0655  1.0502 -0.4711
 3416SOL     OW21709   3.345   0.490   8.970  0.3036 -0.1279  0.0644
 3416SOL    HW121710   3.289   0.527   9.038 -0.8352 -0.4494 -0.6885
 3416SOL    HW221711   3.344   0.398   8.995 -0.2909 -0.3244 -0.6872
 3417SOL     OW21712   1.113   3.420   6.063 -0.3438 -0.3170 -0.2082
 3417SOL    HW121713   1.111   3.331   6.028  0.0678 -0.8906  1.1933
 3417SOL    HW221714   1.196   3.445   6.022 -0.2520 -1.8264 -0.9312
 3418SOL     OW21715   2.423   1.136   5.294  0.0051 -0.5344  0.3085
 3418SOL    HW121716   2.499   1.081   5.313  1.7007  1.0667 -1.7667
 3418SOL    HW221717   2.367   1.100   5.362 -2.5340 -0.0781 -1.5670
 3419SOL     OW21718   0.817   0.659   5.573  0.6385 -0.1555 -0.1135
 3419SOL    HW121719   0.734   0.614   5.555 -0.4455  1.9359 -0.4331
 3419SOL    HW221720   0.857   0.649   5.487 -1.8161 -2.0124 -1.0613
 3420SOL     OW21721   0.380   2.863   8.539  0.2664 -0.1672  0.7636
 3420SOL    HW121722   0.353   2.928   8.474  0.7078 -0.1322  0.6145
 3420SOL    HW221723   0.404   2.914   8.617 -2.4629  1.0830  0.7880
 3421SOL     OW21724   2.768   2.087   3.419  0.3635 -0.4132 -0.0504
 3421SOL    HW121725   2.854   2.061   3.386 -0.0939 -2.8233  0.6369
 3421SOL    HW221726   2.792   2.179   3.423 -1.1074 -0.1036  1.6929
 3422SOL     OW21727   0.931   2.282   2.258 -1.0939  0.1920  0.1964
 3422SOL    HW121728   0.879   2.264   2.180  1.2125  0.4898 -1.4064
 3422SOL    HW221729   1.012   2.323   2.226 -1.7916  1.9781  0.7334
 3423SOL     OW21730   0.506   2.750   9.959  0.1296  0.2380 -0.5105
 3423SOL    HW121731   0.467   2.757  10.046 -0.0709 -1.6602 -0.4563
 3423SOL    HW221732   0.558   2.670   9.967 -1.9261 -0.8371  2.3373
 3424SOL     OW21733   2.041   0.668   3.895 -0.2297 -0.9746 -0.4395
 3424SOL    HW121734   2.039   0.640   3.803  0.8205 -1.4647 -0.3124
 3424SOL    HW221735   2.039   0.763   3.885  3.2274 -1.3031 -4.2398
 3425SOL     OW21736   2.715   4.176   2.368 -0.2150  0.5862  1.0523
 3425SOL    HW121737   2.637   4.231   2.359  0.7557  1.9468  0.9138
 3425SOL    HW221738   2.723   4.162   2.463 -0.9330  0.7257  1.1396
 3426SOL     OW21739   1.124   0.156   2.838 -0.0538 -0.3137 -0.3224
 3426SOL    HW121740   1.036   0.184   2.813 -1.2148 -0.7685  3.2871
 3426SOL    HW221741   1.170   0.239   2.853  0.4685 -0.8580  1.0760
 3427SOL     OW21742   0.616   1.568   7.197 -0.3229  0.1653  0.2745
 3427SOL    HW121743   0.568   1.485   7.200 -0.9747  0.6266  2.7722
 3427SOL    HW221744   0.704   1.529   7.195 -0.2103  0.4776 -0.5449
 3428SOL     OW21745   1.602   4.595   2.264 -0.0186 -0.3538 -1.1077
 3428SOL    HW121746   1.631   4.529   2.327  2.9719  2.6091  0.5826
 3428SOL    HW221747   1.639   4.681   2.285  0.2396 -1.2722  2.1704
 3429SOL     OW21748   0.170   2.843   2.416  0.4346  0.0612  0.5431
 3429SOL    HW121749   0.177   2.918   2.357 -2.0985 -1.9149 -2.2175
 3429SOL    HW221750   0.075   2.833   2.417  0.6096 -1.5833  1.1165
 3430SOL     OW21751   0.635   4.129   5.517 -0.0405 -0.2189  0.1401
 3430SOL    HW121752   0.729   4.147   5.510 -0.0115  0.3898  1.9476
 3430SOL    HW221753   0.599   4.209   5.555 -1.6204 -0.4623 -0.8425
 3431SOL     OW21754   2.923   0.151   5.435  0.1747  0.6089  0.0645
 3431SOL    HW121755   3.013   0.174   5.454  0.2744  1.7221 -1.7535
 3431SOL    HW221756   2.946   0.062   5.409  3.1243  1.0016  1.4283
 3432SOL     OW21757   0.217   3.968   5.416 -0.5292 -0.5098 -0.4336
 3432SOL    HW121758   0.203   4.059   5.440  1.6336 -0.7204  1.6457
 3432SOL    HW221759   0.211   3.984   5.322  1.9983  1.1140 -0.3114
 3433SOL     OW21760   1.751   1.005   1.412 -0.0485  0.2418 -0.0427
 3433SOL    HW121761   1.723   0.983   1.323 -2.0271  1.9883  0.1431
 3433SOL    HW221762   1.811   1.076   1.392  0.1809 -0.2866 -1.1842
 3434SOL     OW21763   1.017   4.294   3.206  0.0669  0.1206  0.0896
 3434SOL    HW121764   1.031   4.375   3.156 -2.2231  0.0457 -0.6477
 3434SOL    HW221765   1.022   4.237   3.130 -0.4861 -0.2719  0.3497
 3435SOL     OW21766   4.574   3.334   4.691 -0.0676 -0.2313 -0.1772
 3435SOL    HW121767   4.584   3.245   4.726 -1.4947 -0.4792 -0.4028
 3435SOL    HW221768   4.484   3.332   4.659  0.2229  0.8646 -1.0418
 3436SOL     OW21769   0.296   4.213   4.492 -0.5293 -0.8705  0.7456
 3436SOL    HW121770   0.265   4.128   4.523 -0.3340 -1.2300 -0.0653
 3436SOL    HW221771   0.249   4.227   4.410  0.4590 -0.0463  0.3178
 3437SOL     OW21772   0.511   0.272   5.180  0.5989  0.0941  0.4914
 3437SOL    HW121773   0.536   0.220   5.104 -0.4530  0.8209 -0.3524
 3437SOL    HW221774   0.416   0.277   5.171  0.4454 -1.4593  1.3712
 3438SOL     OW21775   4.315   0.749   3.644  0.4471 -0.0229  0.5488
 3438SOL    HW121776   4.321   0.693   3.722 -1.3727 -0.0742  0.6377
 3438SOL    HW221777   4.383   0.813   3.665  0.5168 -0.0080  0.2807
 3439SOL     OW21778   2.865   2.189  12.058  0.7041  0.2000 -0.1585
 3439SOL    HW121779   2.845   2.097  12.041  1.6907  0.5105 -3.0416
 3439SOL    HW221780   2.891   2.181  12.149 -1.9510 -2.0260  0.4108
 3440SOL     OW21781   4.635   0.568   7.293 -0.2773 -0.0687 -0.0326
 3440SOL    HW121782   4.715   0.557   7.241  0.9360 -2.3882  2.3458
 3440SOL    HW221783   4.614   0.475   7.306  0.9565 -0.2968  0.3408
 3441SOL     OW21784   3.792   1.945   2.159  0.1088  0.6663  0.1115
 3441SOL    HW121785   3.770   1.852   2.171 -0.9209  1.2140  2.4107
 3441SOL    HW221786   3.888   1.940   2.158  0.2257  2.1653  3.8278
 3442SOL     OW21787   4.414   2.078  16.769 -0.0623  0.9455 -0.1817
 3442SOL    HW121788   4.461   2.124  16.840 -0.8592  2.0242 -0.3439
 3442SOL    HW221789   4.326   2.067  16.806  0.9886 -3.8142  0.8718
 3443SOL     OW21790   1.964   2.858   8.389 -0.3642  0.0682 -0.1641
 3443SOL    HW121791   1.958   2.950   8.412 -2.4159  0.1564 -0.9910
 3443SOL    HW221792   1.929   2.807   8.462 -3.7590 -1.3762 -2.7837
 3444SOL     OW21793   1.350   1.877   1.337  0.0883  0.1276 -0.1640
 3444SOL    HW121794   1.329   1.887   1.430 -1.6138  0.4620 -0.5773
 3444SOL    HW221795   1.437   1.916   1.337  1.3221 -2.5673  0.9235
 3445SOL     OW21796   3.051   0.668   4.679 -0.3707 -0.2211  0.4686
 3445SOL    HW121797   2.973   0.690   4.628  0.4162 -2.5979 -1.7695
 3445SOL    HW221798   3.035   0.715   4.760  2.2880  3.1014 -0.8915
 3446SOL     OW21799   2.482   3.977   7.276  0.2661  0.2535  0.5325
 3446SOL    HW121800   2.396   3.939   7.258  0.6746 -1.3245  1.9348
 3446SOL    HW221801   2.527   3.949   7.197 -0.5188  0.7540 -0.0889
 3447SOL     OW21802   3.813   1.625  11.891 -0.4180  0.2534 -0.2800
 3447SOL    HW121803   3.738   1.575  11.858 -1.0744  1.2026 -0.2346
 3447SOL    HW221804   3.885   1.589  11.840 -0.2276  0.1352  0.0735
 3448SOL     OW21805   4.157   0.891   5.323 -0.4130 -0.3731  0.0533
 3448SOL    HW121806   4.207   0.860   5.247  1.6539  0.1208  1.2193
 3448SOL    HW221807   4.198   0.851   5.399  0.1722  0.7534  0.3441
 3449SOL     OW21808   3.352   3.790   8.106 -0.1922 -0.2335  0.1449
 3449SOL    HW121809   3.326   3.877   8.139  0.6176  0.6437 -1.5831
 3449SOL    HW221810   3.439   3.786   8.145 -0.6152 -0.5617  1.0832
 3450SOL     OW21811   0.080   1.975   2.827 -0.0209 -0.0129 -0.3269
 3450SOL    HW121812   0.095   1.892   2.780 -0.3075  0.1838 -0.7681
 3450SOL    HW221813   0.018   2.026   2.775  0.4034  1.3071  0.4706
 3451SOL     OW21814   3.325   0.343   0.629 -0.1538  0.0754 -0.2935
 3451SOL    HW121815   3.420   0.335   0.625 -0.3243 -2.3890  0.8519
 3451SOL    HW221816   3.300   0.274   0.567 -0.4392  0.9231 -1.1278
 3452SOL     OW21817   1.953   0.506   4.999  0.0192 -0.4391  0.3085
 3452SOL    HW121818   1.892   0.566   4.955  0.5339 -0.4005 -0.3537
 3452SOL    HW221819   1.940   0.536   5.089  2.2660  0.2036  0.4275
 3453SOL     OW21820   2.235   2.164  14.144  0.4140  0.0904  0.1389
 3453SOL    HW121821   2.296   2.149  14.071  2.4259 -0.4512  1.9118
 3453SOL    HW221822   2.282   2.121  14.216  2.4419  1.3373 -0.4166
 3454SOL     OW21823   3.036   2.991  13.462 -0.0536  0.1067  0.0249
 3454SOL    HW121824   2.946   3.024  13.455  0.3656  1.2504 -0.0745
 3454SOL    HW221825   3.064   2.975  13.373  0.1255  0.4193  0.0248
 3455SOL     OW21826   2.407   0.301   7.843  0.3022 -1.3052  0.0079
 3455SOL    HW121827   2.338   0.289   7.908  1.3480  1.0318  1.5618
 3455SOL    HW221828   2.420   0.394   7.861 -0.1634 -1.0531 -0.9506
 3456SOL     OW21829   2.900   3.501  10.563 -0.5509  0.5463  0.1077
 3456SOL    HW121830   2.900   3.532  10.472  0.1389 -4.3502 -1.5676
 3456SOL    HW221831   2.975   3.555  10.590  0.3975  0.0234 -1.4661
 3457SOL     OW21832   0.186   4.065  13.347  0.1335  0.0932 -0.2810
 3457SOL    HW121833   0.214   3.983  13.386  1.0968  0.8729  0.6349
 3457SOL    HW221834   0.134   4.099  13.419  1.4919 -1.0661  1.2325
 3458SOL     OW21835   4.610   4.053   0.258  0.0620 -0.1916  0.4394
 3458SOL    HW121836   4.579   3.976   0.306  2.0904 -2.7053 -2.2984
 3458SOL    HW221837   4.616   4.117   0.329  2.2576  0.2062 -0.1063
 3459SOL     OW21838   1.349   4.442   1.574  0.2540 -0.1992 -0.0035
 3459SOL    HW121839   1.262   4.479   1.558  1.3131  2.2270 -0.1568
 3459SOL    HW221840   1.359   4.462   1.667 -3.5623 -1.7616  0.7131
 3460SOL     OW21841   2.378   1.676   4.721 -0.0585  0.5169  0.1133
 3460SOL    HW121842   2.329   1.593   4.719 -2.1235  1.7401 -0.7280
 3460SOL    HW221843   2.307   1.735   4.746 -0.3601  0.1004  0.2438
 3461SOL     OW21844   1.820   4.548   6.198 -0.1505  0.2496 -0.0687
 3461SOL    HW121845   1.790   4.527   6.110 -0.7648 -1.2971  0.5093
 3461SOL    HW221846   1.909   4.566   6.171 -0.0767 -1.3205 -0.8696
 3462SOL     OW21847   2.689   2.796   1.351  0.8243  0.5942 -0.3274
 3462SOL    HW121848   2.712   2.736   1.280  1.5840 -1.2124  1.4437
 3462SOL    HW221849   2.654   2.877   1.315 -1.7508 -0.3541  0.0436
 3463SOL     OW21850   3.127   1.001  14.180  0.0021 -0.0497  0.1216
 3463SOL    HW121851   3.073   0.939  14.133 -2.1395  2.5546 -0.8529
 3463SOL    HW221852   3.198   0.953  14.223 -0.1176 -1.4924 -1.3273
 3464SOL     OW21853   3.474   3.058   4.939 -0.6124  0.7810 -0.1064
 3464SOL    HW121854   3.465   3.072   4.845 -3.8040 -1.3565 -0.0820
 3464SOL    HW221855   3.506   3.146   4.961 -1.9684  1.1679  0.3022
 3465SOL     OW21856   0.399   4.301  10.096  0.6453  0.1364 -0.1287
 3465SOL    HW121857   0.403   4.329  10.188  1.0815 -2.0434  0.5151
 3465SOL    HW221858   0.308   4.269  10.097  1.0773 -1.1333 -2.2107
 3466SOL     OW21859   3.260   2.792   3.045 -0.5130  0.0867  0.1248
 3466SOL    HW121860   3.171   2.808   3.077 -0.2161  1.4447  0.2690
 3466SOL    HW221861   3.249   2.791   2.950  2.4215 -2.5349 -0.2066
 3467SOL     OW21862   1.639   4.050   1.264  0.3852 -0.0941 -0.2249
 3467SOL    HW121863   1.668   4.084   1.180 -0.2502 -1.3201 -0.9460
 3467SOL    HW221864   1.559   4.004   1.240  0.7587 -0.4909 -0.7143
 3468SOL     OW21865   2.983   1.674   2.136 -0.1512 -0.1557 -0.8580
 3468SOL    HW121866   3.012   1.718   2.056  1.7234 -0.0309 -0.1026
 3468SOL    HW221867   2.888   1.660   2.136  0.2085 -2.7242  0.4044
 3469SOL     OW21868   0.656   2.126   3.551 -0.2146  0.6389 -0.3483
 3469SOL    HW121869   0.641   2.169   3.634 -0.8836 -1.5555  0.6704
 3469SOL    HW221870   0.741   2.081   3.557 -1.4748 -1.9902 -1.8681
 3470SOL     OW21871   1.420   3.320   5.745  0.1122  0.7728 -0.2953
 3470SOL    HW121872   1.336   3.348   5.710 -0.3151  0.8812  0.8154
 3470SOL    HW221873   1.401   3.276   5.828 -1.6865 -0.0802 -1.1756
 3471SOL     OW21874   0.949   1.384   4.285 -0.2362  0.1013 -0.4259
 3471SOL    HW121875   0.956   1.478   4.270  1.5379  0.0089 -0.0806
 3471SOL    HW221876   0.853   1.383   4.284 -0.3016  0.7859  3.4157
 3472SOL     OW21877   3.893   0.640   8.924 -0.1365 -0.1063  0.0534
 3472SOL    HW121878   3.892   0.641   9.019  2.5408  0.0271  0.0784
 3472SOL    HW221879   3.872   0.732   8.904  0.9514  0.6514  2.4141
 3473SOL     OW21880   4.219   3.316   6.818 -0.3390  0.1817  0.0146
 3473SOL    HW121881   4.264   3.400   6.814  3.9846 -2.1303  0.6230
 3473SOL    HW221882   4.143   3.325   6.760  0.9608  1.0752 -1.5269
 3474SOL     OW21883   4.303   1.047   9.177 -0.0166 -0.3428 -0.1771
 3474SOL    HW121884   4.268   1.057   9.266 -1.1162 -2.2216 -0.3947
 3474SOL    HW221885   4.272   0.957   9.161 -2.3309  0.3772  0.2591
 3475SOL     OW21886   1.695   0.283   7.416 -0.3235  0.5797 -0.2403
 3475SOL    HW121887   1.669   0.285   7.324 -0.6263 -1.1603 -0.1906
 3475SOL    HW221888   1.791   0.277   7.411 -0.3014 -0.5482  1.6830
 3476SOL     OW21889   4.685   4.156   8.632 -0.2227  0.1036 -0.2821
 3476SOL    HW121890   0.051   4.136   8.661  0.4926  0.7228 -2.0338
 3476SOL    HW221891   4.705   4.227   8.571 -1.0153  0.9672  0.4588
 3477SOL     OW21892   0.611   2.290   3.284  0.0680  0.2711 -0.2729
 3477SOL    HW121893   0.636   2.300   3.376 -1.0146 -0.4529  0.1002
 3477SOL    HW221894   0.527   2.247   3.301 -0.5709  1.2882 -0.8511
 3478SOL     OW21895   2.762   1.634   7.981  0.1715 -0.7818  0.2457
 3478SOL    HW121896   2.791   1.552   7.941  0.0239 -0.4602 -0.5247
 3478SOL    HW221897   2.746   1.596   8.068 -0.4199  2.7136  1.6426
 3479SOL     OW21898   3.738   0.358   8.272  0.3233  0.2342 -0.3027
 3479SOL    HW121899   3.832   0.367   8.257  0.6862 -1.2740  1.0516
 3479SOL    HW221900   3.723   0.270   8.305  1.0586  0.5470  0.8500
 3480SOL     OW21901   4.503   0.725   4.955  0.7295 -0.1525 -0.3720
 3480SOL    HW121902   4.482   0.635   4.930  0.6795  0.0237 -0.9629
 3480SOL    HW221903   4.457   0.719   5.039  0.2736 -1.0647 -0.6866
 3481SOL     OW21904   3.779   0.556  16.502 -0.2483  0.2797 -0.1674
 3481SOL    HW121905   3.723   0.616  16.454  0.0466  1.2014  0.6435
 3481SOL    HW221906   3.718   0.483  16.509 -0.3548  0.4795  1.0300
 3482SOL     OW21907   0.753   2.562   1.790  0.3690  0.5344  0.1508
 3482SOL    HW121908   0.753   2.479   1.742  0.5736  1.2215 -1.0464
 3482SOL    HW221909   0.709   2.539   1.872 -0.8976  1.9697 -0.1430
 3483SOL     OW21910   3.815   3.757  15.775  0.1010  0.2258  0.1547
 3483SOL    HW121911   3.902   3.725  15.752  0.5774 -0.3102  2.6309
 3483SOL    HW221912   3.775   3.746  15.689 -0.4890  1.3089  0.2976
 3484SOL     OW21913   0.420   2.236   7.079 -0.2209 -0.4172  0.2381
 3484SOL    HW121914   0.454   2.321   7.106 -0.1058 -0.1466 -0.7405
 3484SOL    HW221915   0.326   2.235   7.098 -0.1271  0.1245  0.7083
 3485SOL     OW21916   0.120   2.640   8.301  0.3957  0.4832  0.3249
 3485SOL    HW121917   0.053   2.617   8.236 -1.4032  0.5155  2.1683
 3485SOL    HW221918   0.189   2.672   8.243  1.2613 -0.3753  0.8819
 3486SOL     OW21919   0.657   0.519   8.466  0.3041  0.5131  0.0628
 3486SOL    HW121920   0.735   0.524   8.410  0.1894 -2.9174 -0.4002
 3486SOL    HW221921   0.597   0.527   8.392 -0.4649  1.8744  0.8396
 3487SOL     OW21922   3.682   2.676  16.508 -0.0557 -0.3336  0.5344
 3487SOL    HW121923   3.762   2.726  16.521 -0.8362  0.5396  1.9935
 3487SOL    HW221924   3.621   2.749  16.499 -0.8962 -0.9908  0.7790
 3488SOL     OW21925   0.686   2.176   9.918 -0.0873 -0.1242 -0.7426
 3488SOL    HW121926   0.599   2.205   9.945  0.2903  0.4879 -0.1762
 3488SOL    HW221927   0.675   2.196   9.825  1.1212 -0.9432 -1.0578
 3489SOL     OW21928   1.128   3.077  11.018  0.4657  0.1650 -0.4623
 3489SOL    HW121929   1.167   2.990  11.019 -3.3054 -1.5797 -3.3779
 3489SOL    HW221930   1.172   3.124  10.946  1.0422 -0.9210 -0.8274
 3490SOL     OW21931   1.171   4.711   9.000 -0.2312 -0.0365 -0.0476
 3490SOL    HW121932   1.204   0.054   9.059  0.8788  0.8464 -1.6656
 3490SOL    HW221933   1.097   4.665   9.040  0.5972 -1.0979  0.2806
 3491SOL     OW21934   1.820   1.979   5.956 -0.1398 -0.6099  0.4597
 3491SOL    HW121935   1.800   1.986   5.862 -1.3729 -1.6566  0.6441
 3491SOL    HW221936   1.916   1.988   5.960 -0.1824 -0.2450  0.6699
 3492SOL     OW21937   3.520   2.732  15.138  0.7270 -0.1310 -0.9648
 3492SOL    HW121938   3.576   2.655  15.133 -0.2655 -1.2277  4.6460
 3492SOL    HW221939   3.438   2.700  15.099 -0.1256 -0.5089  1.1499
 3493SOL     OW21940   0.708   1.490   3.303  0.3579  0.1786 -0.1840
 3493SOL    HW121941   0.736   1.458   3.217  2.6394 -1.7049  1.2459
 3493SOL    HW221942   0.692   1.584   3.295  2.5885  0.5861  0.2767
 3494SOL     OW21943   0.995   1.760   7.524 -0.4524 -0.2845 -0.2276
 3494SOL    HW121944   1.083   1.791   7.544 -0.8602  1.4487 -1.0927
 3494SOL    HW221945   0.990   1.688   7.586 -0.3242 -0.5449 -0.5232
 3495SOL     OW21946   2.418   4.537   3.811  0.3573  0.0972 -0.1197
 3495SOL    HW121947   2.402   4.526   3.717  0.0006 -1.2397  0.0983
 3495SOL    HW221948   2.494   4.594   3.794 -1.2906  1.8891 -1.4439
 3496SOL     OW21949   1.882   0.961   5.710  0.2554  0.7359 -0.2993
 3496SOL    HW121950   1.955   0.941   5.768 -1.3485 -1.7173  0.8904
 3496SOL    HW221951   1.902   1.051   5.684 -1.7120  1.0683 -0.6870
 3497SOL     OW21952   2.045   4.387   4.332 -0.4416  0.2352  0.0796
 3497SOL    HW121953   2.064   4.298   4.364 -0.2657 -0.0553 -0.8459
 3497SOL    HW221954   1.950   4.392   4.342 -0.3242  2.4170  0.1035
 3498SOL     OW21955   0.692   3.207   9.562  0.0691  0.0339 -0.0700
 3498SOL    HW121956   0.619   3.202   9.623 -0.4585  2.2026 -0.5232
 3498SOL    HW221957   0.757   3.254   9.615  0.2763 -0.3500  0.0116
 3499SOL     OW21958   2.261   3.558   7.475  0.0486  0.1316 -0.6104
 3499SOL    HW121959   2.277   3.464   7.462  2.1770  0.4253 -0.0906
 3499SOL    HW221960   2.338   3.580   7.527  0.8136 -1.3679 -1.0994
 3500SOL     OW21961   2.829   2.799   6.500  0.6503 -0.2981 -0.0534
 3500SOL    HW121962   2.773   2.765   6.430 -0.6527 -0.5321  1.1302
 3500SOL    HW221963   2.806   2.752   6.580 -2.0711 -1.1450 -1.3244
 3501SOL     OW21964   0.293   4.278   5.504 -0.6117 -0.0437  0.0066
 3501SOL    HW121965   0.318   4.370   5.493 -0.6668 -0.0988 -0.5970
 3501SOL    HW221966   0.284   4.274   5.599  0.2647  2.6680  0.1993
 3502SOL     OW21967   2.136   0.175   6.944 -0.2340  0.0539 -0.0615
 3502SOL    HW121968   2.226   0.191   6.916  0.2178 -2.2421  0.0739
 3502SOL    HW221969   2.115   0.112   6.875 -0.4506 -0.4044  0.4226
 3503SOL     OW21970   3.283   1.462  16.813 -0.6647 -0.1764  0.0442
 3503SOL    HW121971   3.319   1.546  16.784 -1.2685  0.1024  0.0998
 3503SOL    HW221972   3.252   1.418  16.734 -2.7257  0.3414  0.5842
 3504SOL     OW21973   3.222   1.157   8.835 -0.1071  0.8366 -0.0389
 3504SOL    HW121974   3.285   1.086   8.851 -0.4102  1.0583  2.2009
 3504SOL    HW221975   3.235   1.172   8.742  0.7178  3.2995  0.4748
 3505SOL     OW21976   4.590   0.778  13.043  0.0946 -0.2482 -0.5731
 3505SOL    HW121977   4.501   0.744  13.038 -0.1769  0.6634 -2.0231
 3505SOL    HW221978   4.589   0.843  13.113 -1.7920  0.0892 -0.9150
 3506SOL     OW21979   0.396   2.476   1.654 -0.4481 -0.3261 -0.1187
 3506SOL    HW121980   0.460   2.484   1.583  1.5889 -3.0788  1.3694
 3506SOL    HW221981   0.421   2.393   1.695  0.2936 -0.3876 -0.7011
 3507SOL     OW21982   2.837   3.283   6.838  0.0114 -0.3052 -0.4426
 3507SOL    HW121983   2.933   3.280   6.835  0.1211 -0.6094  2.8692
 3507SOL    HW221984   2.812   3.211   6.897  1.7434  0.9836  1.8640
 3508SOL     OW21985   1.319   3.761   3.194 -0.4606 -0.3557  0.1764
 3508SOL    HW121986   1.302   3.673   3.229 -0.1507  0.2332  1.8377
 3508SOL    HW221987   1.387   3.743   3.129  0.0496 -2.2820  1.2241
 3509SOL     OW21988   0.335   0.014   4.404  0.0170 -0.1346 -0.0003
 3509SOL    HW121989   0.320   0.108   4.393  1.1719  0.1750  1.0718
 3509SOL    HW221990   0.386   4.704   4.330 -0.2660 -0.4342 -0.0620
 3510SOL     OW21991   2.185   2.229   6.735 -0.2654  0.3478 -0.0928
 3510SOL    HW121992   2.157   2.320   6.741 -3.4936 -0.5941 -0.8160
 3510SOL    HW221993   2.223   2.206   6.819 -3.1490 -0.3975  1.0064
 3511SOL     OW21994   1.996   4.439   5.559  0.2736 -0.5811  0.7290
 3511SOL    HW121995   1.932   4.391   5.507 -0.9103  4.6850 -2.7461
 3511SOL    HW221996   2.066   4.412   5.499 -1.3886 -1.4337 -0.8212
 3512SOL     OW21997   4.361   0.092   9.321 -0.5720  0.1254  0.2325
 3512SOL    HW121998   4.416   0.100   9.243 -0.9742 -2.1341 -0.2831
 3512SOL    HW221999   4.343   0.184   9.335 -0.4015  0.4298 -1.5130
 3513SOL     OW22000   0.439   1.869   1.593  0.1497  0.0437 -0.1381
 3513SOL    HW122001   0.459   1.962   1.582 -0.6583  0.2446  0.1018
 3513SOL    HW222002   0.368   1.859   1.529  1.9892 -0.5635 -2.0905
 3514SOL     OW22003   3.407   1.974   8.339  0.1446 -0.7824 -0.1231
 3514SOL    HW122004   3.356   1.924   8.402 -0.0211 -1.2233 -0.6004
 3514SOL    HW222005   3.491   1.966   8.383  0.0304  0.9869  0.4139
 3515SOL     OW22006   2.954   3.121   6.191  0.1395 -0.0568  1.4330
 3515SOL    HW122007   2.974   3.030   6.212  1.3969 -0.0197  0.4614
 3515SOL    HW222008   2.922   3.141   6.279 -0.3443  1.0783  1.0055
 3516SOL     OW22009   2.154   3.285  11.392  0.2734 -0.1330  0.0406
 3516SOL    HW122010   2.193   3.217  11.447  0.8640  0.3558  0.2193
 3516SOL    HW222011   2.078   3.311  11.444  0.8391 -0.2288  0.9118
 3517SOL     OW22012   0.415   0.990   3.052 -0.6188 -0.1967  0.3798
 3517SOL    HW122013   0.360   0.995   3.130 -1.3588 -0.0080 -0.1548
 3517SOL    HW222014   0.483   1.055   3.070  1.4150 -2.3043  0.2018
 3518SOL     OW22015   0.249   2.586  11.339 -0.4530 -0.5185  0.2601
 3518SOL    HW122016   0.237   2.504  11.291 -1.8543 -0.9285  1.3004
 3518SOL    HW222017   0.305   2.628  11.274 -0.4152  1.1479  1.3513
 3519SOL     OW22018   1.373   1.795   8.082  0.0381  0.4526 -0.0781
 3519SOL    HW122019   1.383   1.710   8.124  1.0399  0.9910  0.7698
 3519SOL    HW222020   1.290   1.828   8.117  0.5946  0.1660  1.4964
 3520SOL     OW22021   3.718   0.023   4.549 -0.0710  0.1690 -0.4508
 3520SOL    HW122022   3.696   0.010   4.641  1.3630  0.9723 -0.0035
 3520SOL    HW222023   3.724   0.118   4.546  2.1067  0.0291 -0.2735
 3521SOL     OW22024   3.825   1.213  15.081  0.4957  0.0164 -0.2278
 3521SOL    HW122025   3.764   1.141  15.095  0.2969  0.2434  0.0780
 3521SOL    HW222026   3.863   1.178  15.000 -2.0492 -0.2967 -1.2742
 3522SOL     OW22027   1.117   3.950   2.742  0.3328  0.2798  0.9663
 3522SOL    HW122028   1.089   4.038   2.766 -1.3603  1.0908 -3.8845
 3522SOL    HW222029   1.211   3.950   2.764  0.0734  1.4463  2.0387
 3523SOL     OW22030   4.018   0.585   2.961 -0.0910  0.3872 -0.4894
 3523SOL    HW122031   4.061   0.532   2.892  0.5619  0.0750  0.1577
 3523SOL    HW222032   3.990   0.511   3.015 -0.4727 -0.9036 -2.4066
 3524SOL     OW22033   3.195   2.536  11.321 -0.2068  0.1934 -0.0130
 3524SOL    HW122034   3.155   2.483  11.390 -1.0314 -1.6789 -1.9522
 3524SOL    HW222035   3.128   2.539  11.253 -0.3914 -0.0351  0.1580
 3525SOL     OW22036   0.743   2.739   2.609  0.3761  0.0866  0.8399
 3525SOL    HW122037   0.712   2.816   2.656 -2.0763 -0.9546  0.9106
 3525SOL    HW222038   0.761   2.764   2.519 -1.1527 -3.7242 -0.5347
 3526SOL     OW22039   0.025   0.515  15.313 -0.2689  0.0289  0.0629
 3526SOL    HW122040   0.120   0.504  15.318 -0.0592  2.8026  1.7353
 3526SOL    HW222041   4.716   0.445  15.370  2.1182  0.8210  2.3729
 3527SOL     OW22042   0.928   3.486  14.324  0.5142  0.4497 -0.3431
 3527SOL    HW122043   1.022   3.493  14.309  0.1276  0.5428 -2.7309
 3527SOL    HW222044   0.904   3.575  14.351  1.2244 -0.1755  2.2667
 3528SOL     OW22045   2.673   2.226   5.557  0.0080  0.0105 -0.2621
 3528SOL    HW122046   2.675   2.207   5.464 -0.6214 -1.1456 -0.0387
 3528SOL    HW222047   2.710   2.314   5.551  0.9109 -0.5327 -2.5868
 3529SOL     OW22048   3.959   2.270   8.679  0.3514  0.2944  0.4735
 3529SOL    HW122049   3.903   2.291   8.753  1.2541  2.4014  0.5714
 3529SOL    HW222050   3.900   2.282   8.605 -0.0237 -0.1821  0.6971
 3530SOL     OW22051   4.088   1.315   7.639  0.4307  0.1217 -0.5907
 3530SOL    HW122052   4.049   1.229   7.654  0.2174  0.2668 -0.3123
 3530SOL    HW222053   4.181   1.292   7.634  0.6331  1.0751 -1.2240
 3531SOL     OW22054   1.175   1.700   8.643 -1.1011  0.4558 -0.3833
 3531SOL    HW122055   1.218   1.622   8.610  1.2016  0.7017  1.9423
 3531SOL    HW222056   1.250   1.756   8.665 -0.6991 -0.2620  0.0465
 3532SOL     OW22057   1.258   2.086   4.156  0.5387  0.3821 -0.4049
 3532SOL    HW122058   1.308   2.067   4.077  0.6262 -1.0452  0.0000
 3532SOL    HW222059   1.323   2.128   4.214 -0.8038  0.5996  0.9318
 3533SOL     OW22060   3.537   1.054   6.036 -0.2144 -0.3173 -0.2792
 3533SOL    HW122061   3.467   1.103   5.993  1.2285  0.1931 -2.0596
 3533SOL    HW222062   3.587   1.027   5.958  2.7508  0.3389  1.4024
 3534SOL     OW22063   0.456   3.859   8.436 -0.7571  0.9495  0.3023
 3534SOL    HW122064   0.371   3.877   8.477 -0.8503 -2.6144  1.6369
 3534SOL    HW222065   0.520   3.864   8.507  0.6530  0.4805 -0.9418
 3535SOL     OW22066   0.879   3.242   5.621  0.1652  0.0738 -0.2329
 3535SOL    HW122067   0.883   3.316   5.681  0.1749 -0.0155 -0.1250
 3535SOL    HW222068   0.786   3.226   5.606 -0.2658  2.1815  0.1855
 3536SOL     OW22069   4.592   2.167   4.130  0.0590 -0.5985 -0.0553
 3536SOL    HW122070   4.561   2.252   4.160 -0.1135 -1.7876  3.1330
 3536SOL    HW222071   4.516   2.131   4.083 -1.0217  1.2078  0.3315
 3537SOL     OW22072   4.704   1.144   5.000  0.4672 -0.0043 -0.2315
 3537SOL    HW122073   0.051   1.086   5.028  1.3076  0.9269 -0.4199
 3537SOL    HW222074   4.666   1.094   4.927 -1.4774  0.8522  0.1772
 3538SOL     OW22075   0.038   0.425  15.837 -0.7899 -0.3019 -0.4891
 3538SOL    HW122076   0.049   0.406  15.744 -0.2281 -1.0625 -0.2648
 3538SOL    HW222077   0.126   0.461  15.850 -1.2456 -0.1261  2.1521
 3539SOL     OW22078   0.943   1.418   3.457 -0.0536 -0.3216 -0.5005
 3539SOL    HW122079   0.848   1.424   3.445  0.1226  2.5929 -0.3803
 3539SOL    HW222080   0.978   1.466   3.382 -1.8733  1.2075 -0.3652
 3540SOL     OW22081   3.064   4.145  11.267 -0.3941  0.0226 -0.6301
 3540SOL    HW122082   3.064   4.050  11.272 -1.1250 -0.0166 -1.2267
 3540SOL    HW222083   3.147   4.167  11.225 -0.2216 -1.9280 -1.3100
 3541SOL     OW22084   3.849   1.521  17.113  0.1440  0.0031 -0.1804
 3541SOL    HW122085   3.831   1.601  17.063  1.6587 -1.9360 -3.8105
 3541SOL    HW222086   3.935   1.492  17.082 -0.0729  0.1921 -0.9519
 3542SOL     OW22087   4.004   0.153   0.076  0.2525  0.1223  0.0732
 3542SOL    HW122088   4.019   0.087   0.143  1.9701 -0.3471 -0.7763
 3542SOL    HW222089   3.928   0.114   0.033 -0.4034  1.9475 -0.4618
 3543SOL     OW22090   2.785   3.852  13.378 -0.4317 -0.4342 -0.0472
 3543SOL    HW122091   2.878   3.830  13.369  0.1129  2.1325 -0.7375
 3543SOL    HW222092   2.783   3.940  13.414 -1.4843 -0.8574  0.9250
 3544SOL     OW22093   3.763   2.880  10.482  0.1001  0.1477  0.0388
 3544SOL    HW122094   3.815   2.944  10.530 -0.5311  1.1610 -0.6221
 3544SOL    HW222095   3.702   2.937  10.434  0.5068  1.9271  1.6351
 3545SOL     OW22096   0.290   0.947  14.367  0.4717  1.0188 -0.5338
 3545SOL    HW122097   0.216   0.930  14.309 -0.1547 -1.5096  1.0537
 3545SOL    HW222098   0.365   0.926  14.311  0.2223  0.3914 -0.6381
 3546SOL     OW22099   0.995   1.651  12.488 -0.1018  0.6298 -0.1237
 3546SOL    HW122100   1.038   1.611  12.564  1.6967  1.7077 -0.5852
 3546SOL    HW222101   0.930   1.706  12.532  0.7511 -0.4724  2.5543
 3547SOL     OW22102   1.920   2.353  15.623 -0.3169 -0.4239  0.2299
 3547SOL    HW122103   1.961   2.381  15.541 -2.1944  0.5925 -0.3724
 3547SOL    HW222104   1.850   2.295  15.592  0.0734 -0.2960 -0.9076
 3548SOL     OW22105   1.976   2.292  14.015  0.6826 -0.4884  0.4891
 3548SOL    HW122106   2.061   2.309  14.054  1.7903 -1.3692 -1.5315
 3548SOL    HW222107   1.935   2.218  14.059 -1.2259  0.3077  0.0775
 3549SOL     OW22108   4.567   0.741  10.703 -0.0893 -0.2947  0.2311
 3549SOL    HW122109   4.489   0.694  10.674 -0.9786 -0.2295  2.5649
 3549SOL    HW222110   4.518   0.823  10.703 -1.3250 -1.0331  3.0813
 3550SOL     OW22111   3.799   0.548   7.173 -0.6022  0.7277  0.0840
 3550SOL    HW122112   3.811   0.491   7.248 -0.6037  2.3421  1.3148
 3550SOL    HW222113   3.853   0.623   7.197 -0.1094  0.4096 -0.0295
 3551SOL     OW22114   4.236   2.744  12.919 -0.6789  0.4789  0.0573
 3551SOL    HW122115   4.258   2.832  12.947 -0.2904 -0.4072  2.5165
 3551SOL    HW222116   4.154   2.759  12.873 -1.7665 -0.2076  1.7538
 3552SOL     OW22117   2.022   1.079   7.203  0.2013  0.2170 -0.2300
 3552SOL    HW122118   1.981   0.993   7.193  0.5062 -0.1046  1.1964
 3552SOL    HW222119   1.956   1.134   7.245  1.9948 -0.1658  3.1199
 3553SOL     OW22120   2.039   1.442  10.409 -0.5939  0.0526 -0.3199
 3553SOL    HW122121   1.947   1.446  10.382 -0.1224  1.3990 -1.6815
 3553SOL    HW222122   2.062   1.352  10.385 -5.0266 -1.7814  2.1011
 3554SOL     OW22123   4.428   0.461   4.850  0.3397  0.7659  0.2846
 3554SOL    HW122124   4.333   0.467   4.865 -0.0562 -2.2347 -1.1009
 3554SOL    HW222125   4.462   0.396   4.911 -1.8176 -1.0322 -0.4334
 3555SOL     OW22126   1.919   2.111   1.666  0.8151  0.0704  0.7715
 3555SOL    HW122127   1.964   2.041   1.714  0.9070 -0.0681  0.4851
 3555SOL    HW222128   1.968   2.187   1.697  0.8586  0.3589 -0.0155
 3556SOL     OW22129   1.563   4.670  12.972  0.1072 -0.1447  0.3813
 3556SOL    HW122130   1.541   0.017  12.911  2.5412  0.4021  0.1213
 3556SOL    HW222131   1.486   4.677  13.027 -1.3753 -0.6452 -1.6266
 3557SOL     OW22132   3.265   1.659   7.731  0.1077 -0.0245  0.2772
 3557SOL    HW122133   3.222   1.740   7.703  0.3169  0.1245  0.3858
 3557SOL    HW222134   3.340   1.692   7.780 -0.1710 -0.6969  1.1713
 3558SOL     OW22135   2.870   0.826   9.997 -0.3465 -0.0670  0.4220
 3558SOL    HW122136   2.911   0.816   9.912 -0.7927 -0.0681  0.2040
 3558SOL    HW222137   2.942   0.814  10.058 -0.2341  0.7544  0.4484
 3559SOL     OW22138   2.365   1.774   8.254  0.8257 -0.2562 -0.1458
 3559SOL    HW122139   2.398   1.732   8.334  1.4867  0.2048 -0.1726
 3559SOL    HW222140   2.385   1.713   8.182  0.7497 -0.0489 -0.3417
 3560SOL     OW22141   3.583   1.757  11.061  0.1935  0.0197 -0.5920
 3560SOL    HW122142   3.559   1.835  11.110  0.5793 -1.0078  1.2554
 3560SOL    HW222143   3.644   1.710  11.118 -1.6727  0.5675  1.8389
 3561SOL     OW22144   3.018   4.140   2.054  0.5094  0.3981  0.5618
 3561SOL    HW122145   3.012   4.133   1.958 -1.9714  2.1166  0.5890
 3561SOL    HW222146   3.038   4.049   2.075  3.0890  0.6397 -0.8766
 3562SOL     OW22147   2.678   3.703  11.866  0.8970  0.1789  0.0288
 3562SOL    HW122148   2.587   3.676  11.858  1.3583 -1.5002  0.4079
 3562SOL    HW222149   2.715   3.635  11.809  1.5255  0.1444  0.4735
 3563SOL     OW22150   1.764   4.382   2.380  0.0452  0.6099  0.1509
 3563SOL    HW122151   1.708   4.350   2.451  0.2384  2.2979  1.0804
 3563SOL    HW222152   1.811   4.300   2.365  1.7807  1.5430  0.4130
 3564SOL     OW22153   2.856   2.241  14.187  0.0144  0.1904  0.4007
 3564SOL    HW122154   2.818   2.328  14.202 -1.3176 -0.0763 -1.3928
 3564SOL    HW222155   2.899   2.227  14.271  0.1871 -0.0024  0.2800
 3565SOL     OW22156   3.622   1.910   6.390  0.0192  0.0800 -0.1744
 3565SOL    HW122157   3.680   1.986   6.399  1.0800 -0.7034 -0.3999
 3565SOL    HW222158   3.578   1.906   6.475 -1.2060 -0.3486 -0.8258
 3566SOL     OW22159   3.835   3.857   0.872  0.1058 -0.0022  0.3189
 3566SOL    HW122160   3.777   3.863   0.948 -2.1389 -2.0278 -1.2866
 3566SOL    HW222161   3.817   3.768   0.844  0.0270 -0.1609  0.8672
 3567SOL     OW22162   3.144   3.616   7.888 -0.0491  0.5002 -0.1197
 3567SOL    HW122163   3.222   3.661   7.856  0.5988 -0.4029  0.1859
 3567SOL    HW222164   3.103   3.586   7.807  0.3124  3.7312 -1.4957
 3568SOL     OW22165   0.858   4.224   9.104  0.5027  0.2638 -0.0027
 3568SOL    HW122166   0.939   4.191   9.144  0.2784  0.8867  0.9709
 3568SOL    HW222167   0.857   4.170   9.025 -0.1702  2.4126 -1.4530
 3569SOL     OW22168   0.141   2.029   3.321 -0.8056  0.8093  0.0978
 3569SOL    HW122169   0.197   1.953   3.340  0.4571  1.8547  0.5942
 3569SOL    HW222170   0.054   1.989   3.327  0.8679 -2.9565 -0.2573
 3570SOL     OW22171   3.276   1.462   3.367 -0.4167  0.4459  0.1994
 3570SOL    HW122172   3.276   1.551   3.402 -0.7777  0.4384  0.2160
 3570SOL    HW222173   3.183   1.462   3.342 -0.3515 -1.0979 -0.0483
 3571SOL     OW22174   4.435   0.605   9.744  0.0797  0.3793 -0.5036
 3571SOL    HW122175   4.482   0.575   9.667  0.4618 -1.3931  0.4201
 3571SOL    HW222176   4.507   0.621   9.806  0.3750 -1.1462 -0.4530
 3572SOL     OW22177   1.396   1.041   0.788 -0.2979  0.6957 -0.1028
 3572SOL    HW122178   1.482   1.058   0.751 -0.0367 -0.6266 -0.1237
 3572SOL    HW222179   1.371   1.130   0.812  1.0837  1.4186 -1.2968
 3573SOL     OW22180   2.945   1.033   2.951 -0.7511 -0.2770 -0.0760
 3573SOL    HW122181   2.948   1.054   2.857  1.5066  0.6213  0.2080
 3573SOL    HW222182   2.870   0.974   2.957 -0.5316 -0.5973 -0.4894
 3574SOL     OW22183   3.701   1.452   6.810  0.7417  0.6165 -0.4699
 3574SOL    HW122184   3.634   1.484   6.869 -0.9702 -1.8134 -1.1014
 3574SOL    HW222185   3.652   1.391   6.755 -0.0486  0.3928  0.4692
 3575SOL     OW22186   0.577   4.122   3.501 -0.0982  0.0426 -0.1007
 3575SOL    HW122187   0.491   4.163   3.491  0.9367  2.9698  3.0169
 3575SOL    HW222188   0.576   4.047   3.441  0.6742 -1.1131  1.3319
 3576SOL     OW22189   4.296   1.513   0.275 -0.2715 -0.5873  0.1360
 3576SOL    HW122190   4.387   1.541   0.277 -0.6474  0.5601  1.5084
 3576SOL    HW222191   4.251   1.598   0.265  0.3912 -0.4065 -1.2488
 3577SOL     OW22192   0.529   2.032   4.274  0.0263 -0.3657 -0.5166
 3577SOL    HW122193   0.592   2.105   4.273  0.8576 -1.0428  1.3565
 3577SOL    HW222194   0.539   2.001   4.364  0.1136  2.8370  0.5971
 3578SOL     OW22195   3.193   0.429  10.690 -0.1719 -0.1207  0.5508
 3578SOL    HW122196   3.118   0.489  10.694  1.7838  2.2658  1.0393
 3578SOL    HW222197   3.230   0.425  10.778 -0.1042  0.4167  0.5433
 3579SOL     OW22198   1.253   0.404   2.866  0.3376 -0.1108 -0.1540
 3579SOL    HW122199   1.256   0.478   2.927  1.7394 -0.1840 -0.1396
 3579SOL    HW222200   1.348   0.401   2.854  0.3374  1.8024 -0.7732
 3580SOL     OW22201   4.007   0.598  16.687 -0.0633  0.4405  0.2837
 3580SOL    HW122202   3.930   0.561  16.643  0.7188  0.2462 -0.9108
 3580SOL    HW222203   3.990   0.581  16.780 -1.2660  0.6400  0.1042
 3581SOL     OW22204   0.777   0.385   3.328  0.0459  0.0004 -0.2641
 3581SOL    HW122205   0.702   0.329   3.345 -0.2665  0.5537  0.1544
 3581SOL    HW222206   0.785   0.446   3.402 -2.4944 -0.9807  0.7918
 3582SOL     OW22207   0.233   1.284   3.886 -0.6851 -0.0723 -0.1733
 3582SOL    HW122208   0.328   1.294   3.885 -0.4416 -2.3374 -0.3250
 3582SOL    HW222209   0.224   1.214   3.951 -0.0614 -0.0613 -0.0769
 3583SOL     OW22210   1.504   2.307   2.650  0.1671 -0.5783  0.0394
 3583SOL    HW122211   1.461   2.322   2.566 -0.9826  1.0100  0.8855
 3583SOL    HW222212   1.590   2.283   2.617 -0.6767 -1.0939 -1.7936
 3584SOL     OW22213   3.500   3.218   0.072  0.1692  0.1941  0.8756
 3584SOL    HW122214   3.584   3.225   0.116  0.1117  1.9375  0.7205
 3584SOL    HW222215   3.506   3.124   0.056 -0.8868  0.3685 -0.5936
 3585SOL     OW22216   0.519   0.060  14.353  0.3617  0.0083 -0.2292
 3585SOL    HW122217   0.483   4.696  14.367  0.5948 -0.0497 -0.0018
 3585SOL    HW222218   0.519   0.075  14.259 -0.4288 -0.8955 -0.3696
 3586SOL     OW22219   3.561   0.041  15.307 -0.3692 -0.1121  0.2668
 3586SOL    HW122220   3.596   4.677  15.327  1.2957  0.9740  2.1048
 3586SOL    HW222221   3.546   0.032  15.213  1.6902  1.7596 -0.2482
 3587SOL     OW22222   1.023   3.880   4.812  0.1047 -0.8010  0.4043
 3587SOL    HW122223   1.104   3.891   4.862 -1.9457  0.0426  3.5712
 3587SOL    HW222224   1.001   3.791   4.837  1.9648 -1.0171  1.2533
 3588SOL     OW22225   3.463   4.119  10.147 -0.2279 -0.0831  0.0326
 3588SOL    HW122226   3.412   4.051  10.192  0.9385 -0.1109  1.3016
 3588SOL    HW222227   3.403   4.133  10.073 -0.1030  0.1934 -0.0139
 3589SOL     OW22228   4.389   0.038  14.302  0.1188  0.1597  0.4140
 3589SOL    HW122229   4.410   4.694  14.366  0.2720 -1.0895 -0.9465
 3589SOL    HW222230   4.387   4.717  14.217 -1.4544 -0.5496  0.8094
 3590SOL     OW22231   2.251   1.640  14.725  0.4852 -0.4993 -0.6199
 3590SOL    HW122232   2.247   1.598  14.811  0.3791  2.4967  0.8145
 3590SOL    HW222233   2.220   1.729  14.735 -1.9588 -1.2535 -1.4695
 3591SOL     OW22234   2.311   2.506   3.891 -0.1547 -0.0684  0.3341
 3591SOL    HW122235   2.292   2.593   3.854 -0.7633 -0.6529 -0.7299
 3591SOL    HW222236   2.372   2.474   3.824 -1.3643 -1.8998  0.1252
 3592SOL     OW22237   2.573   3.560   1.054 -0.0854  0.5676  0.1973
 3592SOL    HW122238   2.546   3.622   0.986  2.8499  0.5131 -0.9857
 3592SOL    HW222239   2.588   3.612   1.133 -0.6897 -1.6657  1.7647
 3593SOL     OW22240   2.555   1.406   5.475  0.6203  0.5078 -0.0975
 3593SOL    HW122241   2.518   1.381   5.390 -0.3939 -1.4630  0.9180
 3593SOL    HW222242   2.627   1.462   5.444  0.3775  0.7940 -0.1434
 3594SOL     OW22243   4.641   0.748  12.669  0.2298 -0.4775  0.3048
 3594SOL    HW122244   4.614   0.685  12.602  1.9933  1.0899 -1.9058
 3594SOL    HW222245   4.690   0.803  12.607 -1.1256  1.4608  0.9200
 3595SOL     OW22246   1.132   4.053   0.412  0.5946  0.0039 -0.2152
 3595SOL    HW122247   1.051   4.020   0.450 -1.0267  3.1460 -0.9355
 3595SOL    HW222248   1.150   3.974   0.361 -0.4764 -0.1141 -0.4005
 3596SOL     OW22249   3.437   1.254   8.609  0.3548  0.6012  0.2017
 3596SOL    HW122250   3.424   1.340   8.648 -0.3470  1.0052 -0.9448
 3596SOL    HW222251   3.473   1.215   8.689  1.5291 -3.0726 -2.1016
 3597SOL     OW22252   0.985   2.646   4.472  0.1126 -0.4431  0.0918
 3597SOL    HW122253   1.079   2.649   4.489 -0.0018 -1.3435  0.9391
 3597SOL    HW222254   0.979   2.603   4.387  1.0341 -0.4583  0.0372
 3598SOL     OW22255   4.422   0.320   0.897 -0.4589 -0.4461 -0.2253
 3598SOL    HW122256   4.490   0.369   0.851 -3.6637  2.5038 -1.8644
 3598SOL    HW222257   4.345   0.331   0.841 -0.1954 -2.2548 -0.9508
 3599SOL     OW22258   0.440   0.009   3.764  0.2916  0.0418  0.4088
 3599SOL    HW122259   0.423   0.048   3.679 -0.9458  0.8861  1.0354
 3599SOL    HW222260   0.453   4.642   3.737  0.3464  0.4659 -0.9730
 3600SOL     OW22261   1.391   3.155  11.235  0.0654 -1.0648 -0.3901
 3600SOL    HW122262   1.422   3.243  11.257 -0.0925 -0.3172 -3.0732
 3600SOL    HW222263   1.319   3.149  11.298 -0.2941 -1.0541 -0.8008
 3601SOL     OW22264   0.351   2.656   3.177  0.0370  0.3213 -0.3607
 3601SOL    HW122265   0.312   2.588   3.231 -0.0686  1.0282  0.4484
 3601SOL    HW222266   0.444   2.637   3.189 -0.3248 -1.3490 -0.3372
 3602SOL     OW22267   4.591   2.972   6.587 -0.2489 -0.0206 -0.1329
 3602SOL    HW122268   4.573   2.957   6.680 -0.1506 -0.4023 -0.1744
 3602SOL    HW222269   4.545   3.054   6.567 -0.9798 -0.5447 -0.6117
 3603SOL     OW22270   4.208   1.729   6.110  0.3624 -0.4245  0.1939
 3603SOL    HW122271   4.295   1.734   6.149  0.8420 -0.7690 -0.8357
 3603SOL    HW222272   4.164   1.802   6.153  1.5929 -0.7832  2.0654
 3604SOL     OW22273   0.990   2.146   1.549 -0.1137 -0.5474  0.0863
 3604SOL    HW122274   1.078   2.179   1.533 -1.2453  1.6058 -1.8513
 3604SOL    HW222275   0.998   2.098   1.631 -0.4461  1.0063  1.0318
 3605SOL     OW22276   4.473   3.087   5.142  0.5600  0.0141 -0.2294
 3605SOL    HW122277   4.385   3.050   5.152  0.8288 -0.2175  1.3067
 3605SOL    HW222278   4.536   3.045   5.201 -0.3856 -1.9190 -0.5924
 3606SOL     OW22279   1.688   0.917   0.331  0.0503 -0.0233 -0.6829
 3606SOL    HW122280   1.704   0.832   0.291  0.5870 -0.2783  0.0780
 3606SOL    HW222281   1.774   0.960   0.324  0.3537 -0.7927 -1.5834
 3607SOL     OW22282   1.124   3.839   7.338 -0.4387 -0.4856 -0.4790
 3607SOL    HW122283   1.059   3.821   7.406  1.4190  0.3830  1.5311
 3607SOL    HW222284   1.194   3.791   7.382  0.2133 -0.6013 -1.6677
 3608SOL     OW22285   2.204   0.907  16.637 -0.2811 -0.1494  0.0615
 3608SOL    HW122286   2.114   0.911  16.605 -0.2561  2.5220  0.2796
 3608SOL    HW222287   2.233   0.820  16.610 -1.6781 -0.2716 -1.0588
 3609SOL     OW22288   3.664   0.951   8.997  0.0432 -0.3057 -0.0604
 3609SOL    HW122289   3.635   0.867   8.961 -2.3333  0.7887 -0.6721
 3609SOL    HW222290   3.757   0.927   9.005  0.2304  0.3755 -0.1444
 3610SOL     OW22291   1.132   0.142   2.442 -0.0266 -0.0364  0.1703
 3610SOL    HW122292   1.151   0.221   2.390 -1.2817 -0.1731 -0.5066
 3610SOL    HW222293   1.066   0.180   2.501 -0.4937 -1.4319  0.5269
 3611SOL     OW22294   3.447   2.859  11.503  0.4863 -0.4329  0.7109
 3611SOL    HW122295   3.383   2.927  11.479  0.3196 -0.5738  0.7528
 3611SOL    HW222296   3.518   2.870  11.440 -0.7924  3.7292 -0.0241
 3612SOL     OW22297   4.294   2.210   3.743  0.5291  0.3822 -0.6798
 3612SOL    HW122298   4.318   2.295   3.780  0.0607 -0.2898  1.2091
 3612SOL    HW222299   4.200   2.209   3.726  0.0404 -2.3148  2.1386
 3613SOL     OW22300   1.413   2.464   4.343  0.4275 -0.2696 -0.4383
 3613SOL    HW122301   1.366   2.410   4.407  2.0210 -3.8265 -2.3051
 3613SOL    HW222302   1.403   2.551   4.383 -2.2296 -1.3208  1.2309
 3614SOL     OW22303   2.150   3.632   0.347 -0.3704  0.1029 -0.4396
 3614SOL    HW122304   2.075   3.649   0.290  0.8218 -2.0221 -2.6157
 3614SOL    HW222305   2.202   3.583   0.283  2.9899  3.6787 -0.4479
 3615SOL     OW22306   2.584   3.547  16.731 -0.3117  0.0246  0.2345
 3615SOL    HW122307   2.677   3.528  16.744 -0.3085  0.1412  0.3899
 3615SOL    HW222308   2.588   3.643  16.733 -2.2304  0.0512  2.8525
 3616SOL     OW22309   3.275   2.584   6.153  0.2570 -0.1705 -0.4825
 3616SOL    HW122310   3.324   2.517   6.105 -0.0898 -0.1759 -0.8287
 3616SOL    HW222311   3.328   2.662   6.135  0.6240 -0.5559 -1.0520
 3617SOL     OW22312   0.168   0.042   5.815 -0.1323 -0.5492 -0.3736
 3617SOL    HW122313   0.169   0.019   5.722 -0.1240 -0.4909 -0.3876
 3617SOL    HW222314   0.237   4.703   5.839  1.6504  1.1343 -1.1400
 3618SOL     OW22315   1.299   1.256  12.834 -0.3710  0.1338  0.3907
 3618SOL    HW122316   1.296   1.160  12.838  1.7188  0.1024  1.2618
 3618SOL    HW222317   1.210   1.289  12.824 -0.3657 -0.2503 -1.0122
 3619SOL     OW22318   2.554   1.750   5.843  0.6559  0.1851 -0.1322
 3619SOL    HW122319   2.473   1.796   5.821  1.1390  1.5121  0.8721
 3619SOL    HW222320   2.562   1.748   5.938  0.0840 -0.1848 -0.0952
 3620SOL     OW22321   1.687   2.378   3.286  0.5172  0.5905  0.2813
 3620SOL    HW122322   1.777   2.389   3.256  0.6183  0.8877  0.7042
 3620SOL    HW222323   1.662   2.291   3.255 -0.8179  1.3425 -0.7119
 3621SOL     OW22324   3.284   3.265  13.503 -0.4130  0.4097  0.6457
 3621SOL    HW122325   3.324   3.200  13.562 -0.5050 -0.3168 -0.0932
 3621SOL    HW222326   3.214   3.213  13.466 -0.2276 -0.0021  0.8676
 3622SOL     OW22327   0.808   2.367   7.285  0.2419 -0.1724 -0.0388
 3622SOL    HW122328   0.865   2.309   7.235 -0.1740 -1.2519  0.7225
 3622SOL    HW222329   0.746   2.299   7.314 -1.0088  0.6049 -0.8833
 3623SOL     OW22330   0.040   0.975  14.901  0.2702  0.0784  0.4310
 3623SOL    HW122331   4.716   0.892  14.905 -0.9244  0.8245  1.8206
 3623SOL    HW222332   0.075   0.965  14.812 -0.3324 -2.4704  0.4692
 3624SOL     OW22333   3.252   4.596   9.283 -0.4774  0.2608  0.6774
 3624SOL    HW122334   3.318   4.662   9.262 -0.4622  0.6315  1.8819
 3624SOL    HW222335   3.282   4.516   9.240 -1.0663 -0.2161  1.1447
 3625SOL     OW22336   3.772   3.279  12.899  0.7276  0.2312  0.6151
 3625SOL    HW122337   3.833   3.330  12.846  1.5835 -0.1676  1.2299
 3625SOL    HW222338   3.769   3.205  12.838  0.1691  2.6257 -2.2669
 3626SOL     OW22339   3.407   3.113   4.660 -0.4531  0.5156 -0.6887
 3626SOL    HW122340   3.432   3.205   4.656 -2.2552  1.0703  0.9604
 3626SOL    HW222341   3.312   3.117   4.672 -0.2376 -0.4412  1.3905
 3627SOL     OW22342   2.812   0.758   5.992 -0.1044 -0.4232  0.0310
 3627SOL    HW122343   2.769   0.718   6.068 -0.3763  0.8702  0.5568
 3627SOL    HW222344   2.750   0.739   5.922  0.5137 -2.8212  0.1173
 3628SOL     OW22345   4.556   3.252   9.255 -0.0881  0.1803 -0.6012
 3628SOL    HW122346   4.573   3.199   9.178 -1.2135 -0.0770 -0.6685
 3628SOL    HW222347   4.478   3.210   9.292  0.6375 -1.5715 -1.0485
 3629SOL     OW22348   0.046   3.009   4.348 -0.3295 -0.2478  0.2965
 3629SOL    HW122349   0.081   2.943   4.407 -0.6748  0.2486  1.0568
 3629SOL    HW222350   4.678   3.002   4.377 -0.2801  0.9121  0.7221
 3630SOL     OW22351   3.096   3.395   1.583 -0.6785  0.0846 -0.3753
 3630SOL    HW122352   3.134   3.307   1.574 -0.8742 -0.0529  0.1138
 3630SOL    HW222353   3.081   3.397   1.678 -0.6172 -0.9665 -0.3408
 3631SOL     OW22354   3.689   0.192   5.428  0.0891 -0.1749  0.1033
 3631SOL    HW122355   3.727   0.166   5.511 -0.4279 -1.3922 -0.0275
 3631SOL    HW222356   3.649   0.278   5.442 -0.9015 -0.7383  0.7456
 3632SOL     OW22357   2.434   4.117  16.673  0.6364  0.3483 -0.5390
 3632SOL    HW122358   2.522   4.078  16.672 -0.9634 -3.4021  1.6334
 3632SOL    HW222359   2.450   4.209  16.652 -0.9559  0.6231 -0.5353
 3633SOL     OW22360   0.761   4.426   3.991  0.1168 -0.0988 -0.3257
 3633SOL    HW122361   0.687   4.368   3.977 -0.1110 -0.0503  0.6655
 3633SOL    HW222362   0.729   4.511   3.961 -0.2568  0.3847  1.4302
 3634SOL     OW22363   1.887   3.038  15.425 -0.5124 -0.3481 -0.0123
 3634SOL    HW122364   1.796   3.027  15.452  0.0157 -2.2638  0.9460
 3634SOL    HW222365   1.922   3.049  15.513 -0.1728  0.5843 -0.2582
 3635SOL     OW22366   2.632   4.172   9.560  0.4245  0.0839  0.2723
 3635SOL    HW122367   2.566   4.194   9.627  0.2917 -1.2213  0.5680
 3635SOL    HW222368   2.704   4.223   9.598  0.8662  0.6735 -1.3729
 3636SOL     OW22369   2.628   3.915  15.991  0.4843  0.0264 -0.2309
 3636SOL    HW122370   2.645   3.993  16.043 -2.7006 -0.3598  1.4399
 3636SOL    HW222371   2.713   3.901  15.950 -0.0965  0.0710 -1.4545
 3637SOL     OW22372   3.520   4.024   9.806  0.5336 -0.8091 -0.3543
 3637SOL    HW122373   3.520   3.934   9.839  1.8970 -0.4346  0.6543
 3637SOL    HW222374   3.468   4.015   9.727  0.0807  0.6645 -0.2257
 3638SOL     OW22375   0.395   3.248   8.691 -0.1038 -0.3860  0.2445
 3638SOL    HW122376   0.409   3.154   8.695 -0.7908 -0.3947  2.3937
 3638SOL    HW222377   0.300   3.245   8.689 -0.0928 -0.5128 -0.0683
 3639SOL     OW22378   2.008   3.947   5.960 -0.6511  0.1079 -0.1966
 3639SOL    HW122379   2.013   3.904   6.045 -2.2505 -1.9828 -1.1546
 3639SOL    HW222380   1.917   3.933   5.932  0.0386 -1.3656 -1.6901
 3640SOL     OW22381   1.121   3.513   0.227 -0.0948 -0.4982 -0.5891
 3640SOL    HW122382   1.129   3.442   0.291 -0.4821 -1.2961 -1.4310
 3640SOL    HW222383   1.064   3.472   0.161 -1.3152 -1.1741  0.8788
 3641SOL     OW22384   0.984   3.103  10.162  0.2922  0.0175 -0.5972
 3641SOL    HW122385   0.915   3.037  10.166 -0.5554  1.0083  1.0977
 3641SOL    HW222386   0.930   3.180  10.146 -1.8348 -1.2973  0.2766
 3642SOL     OW22387   4.227   1.983  16.509 -0.6113  0.1649 -0.2673
 3642SOL    HW122388   4.261   2.000  16.597 -0.2095 -0.3057 -0.3322
 3642SOL    HW222389   4.231   2.066  16.463  0.2619  0.7241  0.8379
 3643SOL     OW22390   1.876   0.293   4.214 -0.6175  0.3381  0.2426
 3643SOL    HW122391   1.896   0.356   4.283 -2.0131 -1.2638  2.1255
 3643SOL    HW222392   1.824   0.339   4.148  1.6069  1.1286 -0.9288
 3644SOL     OW22393   4.137   2.193   6.083  0.0524 -0.1641  0.4483
 3644SOL    HW122394   4.213   2.248   6.100 -2.0308  2.4540  1.2895
 3644SOL    HW222395   4.109   2.210   5.993 -0.1013 -0.3006  0.4695
 3645SOL     OW22396   3.069   1.436   7.682 -0.2937  0.0049  0.0964
 3645SOL    HW122397   3.104   1.350   7.705  0.8932  0.9148  1.7494
 3645SOL    HW222398   3.143   1.490   7.712 -1.2055  2.0891 -1.3975
 3646SOL     OW22399   4.550   0.612   4.430 -0.0384 -0.4868  0.3252
 3646SOL    HW122400   4.533   0.549   4.360 -1.4696 -1.8603  1.9289
 3646SOL    HW222401   4.461   0.640   4.449  0.3749  1.9803 -1.3848
 3647SOL     OW22402   0.183   0.603   6.026  0.2927  0.1393 -0.2835
 3647SOL    HW122403   0.260   0.551   6.003  0.6217  0.8671 -0.8444
 3647SOL    HW222404   0.199   0.636   6.114 -2.0796 -1.7165  0.8459
 3648SOL     OW22405   2.227   0.847   5.333 -0.2615  0.2491 -0.5074
 3648SOL    HW122406   2.230   0.935   5.295 -2.3763  0.2464 -0.7053
 3648SOL    HW222407   2.254   0.801   5.254 -0.6245  3.1854 -2.3152
 3649SOL     OW22408   0.277   3.939   4.586 -0.3179 -0.0116  0.2004
 3649SOL    HW122409   0.328   3.959   4.664  0.8198 -2.5075  0.0849
 3649SOL    HW222410   0.265   3.847   4.610 -1.5789 -0.3149 -1.6014
 3650SOL     OW22411   4.290   0.404   2.904 -0.1481  0.2228  0.1292
 3650SOL    HW122412   4.362   0.424   2.845 -1.8153  0.6950 -1.7144
 3650SOL    HW222413   4.239   0.342   2.852 -0.0819 -1.1743  1.7145
 3651SOL     OW22414   4.250   3.470  10.990  0.3482  0.8594  0.3712
 3651SOL    HW122415   4.274   3.377  11.000 -2.3611  0.1072 -0.1532
 3651SOL    HW222416   4.299   3.518  11.057 -0.9250 -1.0609  2.7006
 3652SOL     OW22417   2.238   2.717   4.895 -0.6082  0.4579 -0.1890
 3652SOL    HW122418   2.237   2.636   4.844  0.1029  0.3683 -0.0637
 3652SOL    HW222419   2.232   2.674   4.980 -1.9057  0.9862 -0.0267
 3653SOL     OW22420   0.419   1.161  14.067 -0.0227  0.1266 -0.2240
 3653SOL    HW122421   0.435   1.072  14.035 -2.0140 -1.0405  1.9811
 3653SOL    HW222422   0.503   1.189  14.104 -0.7434  1.2972  0.5395
 3654SOL     OW22423   2.497   2.640   5.759 -0.1740  0.5414 -0.2013
 3654SOL    HW122424   2.457   2.553   5.756 -0.5255  0.6556  1.1244
 3654SOL    HW222425   2.425   2.697   5.732  0.1554  1.9840  1.9696
 3655SOL     OW22426   4.098   3.773  17.246 -0.2191  0.0672 -0.3627
 3655SOL    HW122427   4.050   3.700  17.205 -1.1675  0.8032 -0.5709
 3655SOL    HW222428   4.078   3.834  17.176 -1.7829 -0.4671 -0.3861
 3656SOL     OW22429   4.657   0.388  13.398  0.0286  0.2635  0.2037
 3656SOL    HW122430   4.688   0.434  13.321 -0.8001 -0.2448 -0.4355
 3656SOL    HW222431   0.009   0.387  13.457  1.1046  2.5844 -1.1621
 3657SOL     OW22432   4.378   1.246  14.606  0.6685 -0.1632 -0.2347
 3657SOL    HW122433   4.315   1.221  14.674  1.5082  0.0702  0.6180
 3657SOL    HW222434   4.309   1.268  14.542 -0.5823  0.1826  1.2363
 3658SOL     OW22435   4.535   3.520  15.825  0.6882  0.5112  0.2913
 3658SOL    HW122436   4.570   3.465  15.754  0.3241 -1.0746  1.3367
 3658SOL    HW222437   4.453   3.557  15.793  1.1697  0.3609 -1.1497
 3659SOL     OW22438   4.607   2.280   6.742 -0.1706 -0.1380  0.1215
 3659SOL    HW122439   4.565   2.299   6.826  0.4097 -1.0133  0.5994
 3659SOL    HW222440   4.696   2.282   6.776 -0.9397 -0.8198  2.2063
 3660SOL     OW22441   4.221   2.355   5.431  0.2273 -0.0002  0.5165
 3660SOL    HW122442   4.136   2.309   5.436 -1.0632  2.3236 -0.1326
 3660SOL    HW222443   4.230   2.370   5.337  1.5003 -0.9142  0.4941
 3661SOL     OW22444   2.347   4.280  10.224 -0.0969 -0.1962  0.3537
 3661SOL    HW122445   2.358   4.371  10.250  1.4530 -0.7416  1.6428
 3661SOL    HW222446   2.371   4.235  10.305  1.1912 -0.4365 -0.1636
 3662SOL     OW22447   3.443   4.311   3.512 -0.3876 -0.5775 -0.4330
 3662SOL    HW122448   3.503   4.382   3.535 -1.7570 -0.0094  1.3419
 3662SOL    HW222449   3.497   4.255   3.456  0.6850 -0.9684  1.0065
 3663SOL     OW22450   1.059   1.890  11.422  0.0104  0.8447 -0.2007
 3663SOL    HW122451   1.041   1.880  11.515  1.0074  0.4374 -0.0544
 3663SOL    HW222452   0.971   1.879  11.385 -1.0146  0.1343  2.4412
 3664SOL     OW22453   3.300   0.087   8.352  0.1968 -0.4485  0.2575
 3664SOL    HW122454   3.240   0.088   8.426 -0.5801  2.3954 -0.3955
 3664SOL    HW222455   3.260   0.024   8.292 -0.4631 -0.1768  0.4158
 3665SOL     OW22456   2.875   3.794  14.738  0.3110 -0.1416  0.8850
 3665SOL    HW122457   2.890   3.868  14.679 -1.8605 -1.6162 -1.5480
 3665SOL    HW222458   2.856   3.730  14.669  2.8546 -0.4389  0.4774
 3666SOL     OW22459   3.844   0.672   3.479  0.1219 -0.6186  0.2012
 3666SOL    HW122460   3.762   0.704   3.517 -1.0785  0.2357 -3.0350
 3666SOL    HW222461   3.917   0.706   3.530 -1.4261  0.3350  1.7637
 3667SOL     OW22462   4.151   1.203  11.841 -0.8856  0.1496  0.1862
 3667SOL    HW122463   4.237   1.247  11.837 -0.4547 -0.1402  5.6744
 3667SOL    HW222464   4.178   1.114  11.861  0.9904  0.8137  0.7012
 3668SOL     OW22465   3.012   4.582   8.705 -0.2626  0.1783  0.4091
 3668SOL    HW122466   2.971   4.609   8.787 -2.1117  2.2206 -1.1598
 3668SOL    HW222467   3.019   4.490   8.729 -2.9741 -0.5628 -1.5252
 3669SOL     OW22468   0.635   1.476  12.765  0.4996 -0.1452 -0.2511
 3669SOL    HW122469   0.620   1.382  12.765 -0.2347 -0.0325  0.5122
 3669SOL    HW222470   0.572   1.490  12.694  0.0836 -1.2950 -0.1130
 3670SOL     OW22471   0.019   3.672   4.203 -0.0128 -0.0001 -0.8511
 3670SOL    HW122472   0.033   3.746   4.262 -0.5037  0.5226 -1.3997
 3670SOL    HW222473   4.696   3.715   4.131  0.1837  0.3003 -0.7966
 3671SOL     OW22474   2.811   1.804  13.167  0.0837  0.8739 -0.3004
 3671SOL    HW122475   2.781   1.869  13.230  1.4093  1.6440 -0.4680
 3671SOL    HW222476   2.905   1.815  13.183  0.7575 -1.3796 -2.6317
 3672SOL     OW22477   1.465   0.586   3.877 -0.2696 -0.5452 -0.3764
 3672SOL    HW122478   1.404   0.562   3.947  1.1667 -0.3470  0.9449
 3672SOL    HW222479   1.463   0.680   3.895 -0.8801 -0.8757  1.3353
 3673SOL     OW22480   3.858   0.276   2.454 -0.0017 -0.8861 -0.0066
 3673SOL    HW122481   3.789   0.244   2.395  0.0605  0.1634 -0.6421
 3673SOL    HW222482   3.912   0.309   2.382 -0.1946 -2.3125 -0.8176
 3674SOL     OW22483   0.518   3.448   8.999  0.5002  0.1303 -0.5535
 3674SOL    HW122484   0.600   3.491   8.975  0.9304  0.0427  0.7208
 3674SOL    HW222485   0.554   3.359   9.008 -0.3480 -0.3362 -1.8202
 3675SOL     OW22486   2.907   1.960  13.585 -0.3212  0.5337 -0.0726
 3675SOL    HW122487   2.986   1.939  13.534  1.3823 -0.2301  2.8795
 3675SOL    HW222488   2.851   1.884  13.571  0.2204 -0.3015  2.2332
 3676SOL     OW22489   4.164   2.999   5.420 -0.4698 -0.0181  0.1027
 3676SOL    HW122490   4.244   2.958   5.452  0.4020 -0.7019 -2.9541
 3676SOL    HW222491   4.171   2.974   5.328  0.0637 -0.8987  0.3826
 3677SOL     OW22492   2.988   3.338   6.039 -0.5047  0.3979  0.4051
 3677SOL    HW122493   2.975   3.257   6.089 -3.0880  0.7835  0.3510
 3677SOL    HW222494   3.029   3.302   5.960 -1.0679 -1.1730  0.8252
 3678SOL     OW22495   4.057   1.207  13.893 -0.1442 -0.3791 -0.0011
 3678SOL    HW122496   4.053   1.128  13.840 -2.1504 -1.1316  1.2880
 3678SOL    HW222497   3.988   1.194  13.958 -1.1074  0.5718 -0.8193
 3679SOL     OW22498   2.128   1.629  16.468 -0.3108 -0.3344 -0.4666
 3679SOL    HW122499   2.040   1.638  16.431 -0.3914 -0.8197 -0.3975
 3679SOL    HW222500   2.112   1.648  16.560 -4.1883  0.3935 -1.2697
 3680SOL     OW22501   1.315   3.638  17.440  0.4558  0.0620  0.2390
 3680SOL    HW122502   1.292   3.703  17.373 -0.3434 -1.7126 -1.2247
 3680SOL    HW222503   1.311   3.693  17.518 -0.2120  1.2779 -0.6499
 3681SOL     OW22504   1.528   2.296  11.518 -0.0914  0.0396 -0.2887
 3681SOL    HW122505   1.524   2.234  11.590 -2.2411 -0.7811 -1.1243
 3681SOL    HW222506   1.478   2.369  11.555  1.1978  0.8439 -0.1376
 3682SOL     OW22507   2.672   1.585   3.595  0.2124 -0.2416  0.0746
 3682SOL    HW122508   2.591   1.582   3.546  0.9364 -0.9506 -1.0696
 3682SOL    HW222509   2.723   1.634   3.531  0.1121  0.6812  0.6978
 3683SOL     OW22510   1.091   4.118  17.296  0.1699  0.4126  0.1342
 3683SOL    HW122511   1.160   4.100  17.360 -0.7565  1.9320  1.5725
 3683SOL    HW222512   1.011   4.085  17.338  0.1780 -0.2410 -0.3449
 3684SOL     OW22513   1.602   4.451   4.705  0.7107  0.2670 -0.5698
 3684SOL    HW122514   1.667   4.433   4.637  0.4042 -0.3065 -0.7080
 3684SOL    HW222515   1.611   4.546   4.713  0.5781  0.3271 -1.1062
 3685SOL     OW22516   2.883   2.105  12.584 -0.1527 -0.2224 -0.6617
 3685SOL    HW122517   2.935   2.093  12.664  0.0695 -0.1241 -0.7935
 3685SOL    HW222518   2.861   2.197  12.595 -0.6058 -0.2535 -1.3667
 3686SOL     OW22519   3.321   4.723   6.685  0.5484 -0.0176 -0.4688
 3686SOL    HW122520   3.357   0.088   6.688  0.3087  0.0503  0.2449
 3686SOL    HW222521   3.384   4.685   6.746 -0.6928 -2.7521 -0.8731
 3687SOL     OW22522   2.994   0.624   4.322 -0.1868 -1.2666  0.0167
 3687SOL    HW122523   2.931   0.657   4.386  0.9366 -0.1477  0.5465
 3687SOL    HW222524   3.064   0.689   4.331  0.6966 -2.1756 -0.2557
 3688SOL     OW22525   2.893   2.326  10.457 -0.3793  0.6331 -0.1325
 3688SOL    HW122526   2.821   2.286  10.505 -0.4267  1.1400  0.2198
 3688SOL    HW222527   2.852   2.343  10.372 -2.2939 -1.1249  0.4447
 3689SOL     OW22528   4.191   2.206  16.342 -0.2577 -0.2324 -0.2258
 3689SOL    HW122529   4.167   2.269  16.410  0.3443  1.4364 -1.5461
 3689SOL    HW222530   4.178   2.256  16.261  0.1224 -0.0518 -0.1753
 3690SOL     OW22531   1.649   1.300   7.454 -0.4574 -0.4927  0.0544
 3690SOL    HW122532   1.584   1.361   7.490  0.8103  0.8656  0.0486
 3690SOL    HW222533   1.607   1.217   7.476  0.4644 -0.5047  1.7491
 3691SOL     OW22534   4.404   4.119   5.538  0.5115 -0.0569 -0.2837
 3691SOL    HW122535   4.415   4.030   5.505  1.4451 -1.0346  2.6575
 3691SOL    HW222536   4.487   4.138   5.583  0.6671 -1.1809 -0.0893
 3692SOL     OW22537   0.803   1.814  11.340 -0.0507  0.3050  0.3135
 3692SOL    HW122538   0.828   1.883  11.278 -1.8792 -1.4453 -2.4073
 3692SOL    HW222539   0.774   1.742  11.284  3.7188 -0.0770 -1.1744
 3693SOL     OW22540   2.048   1.439   5.206  0.2060  0.0195 -0.6129
 3693SOL    HW122541   2.044   1.527   5.167 -2.8166  0.0084 -0.3410
 3693SOL    HW222542   2.076   1.456   5.296 -0.8250  0.2857 -0.3337
 3694SOL     OW22543   3.845   0.436   9.449  0.0701 -0.3934  0.4091
 3694SOL    HW122544   3.850   0.405   9.359 -1.0434  0.6179 -0.0055
 3694SOL    HW222545   3.917   0.389   9.490 -0.7517 -0.4618  1.7749
 3695SOL     OW22546   3.283   1.411   1.372  0.4778  0.1090 -0.3155
 3695SOL    HW122547   3.246   1.495   1.399 -0.2857 -0.7520  1.3332
 3695SOL    HW222548   3.264   1.406   1.279  2.1161 -1.2278 -0.5888
 3696SOL     OW22549   0.800   1.845   3.492  0.1058 -0.5688 -0.0390
 3696SOL    HW122550   0.716   1.821   3.454  0.2325 -0.9596 -0.0724
 3696SOL    HW222551   0.799   1.793   3.572  0.2967  1.1133  1.0648
 3697SOL     OW22552   0.207   2.526   6.979 -0.4515 -0.9050 -0.3251
 3697SOL    HW122553   0.191   2.620   6.985 -0.0419 -0.9187  0.8673
 3697SOL    HW222554   0.251   2.507   7.061 -2.1051 -2.3151  0.2481
 3698SOL     OW22555   4.047   1.850   9.247 -0.0021 -0.0514  0.8384
 3698SOL    HW122556   4.008   1.926   9.290  1.5368  1.2857 -0.1284
 3698SOL    HW222557   4.138   1.881   9.243 -0.6089  1.5972  0.0409
 3699SOL     OW22558   1.162   1.894   8.305  0.2169  0.6910 -0.2378
 3699SOL    HW122559   1.186   1.851   8.387 -0.4005 -2.2960 -1.6094
 3699SOL    HW222560   1.224   1.967   8.309 -0.0194  1.0905 -3.6880
 3700SOL     OW22561   1.429   3.559   1.529 -0.1520  0.4623 -0.2850
 3700SOL    HW122562   1.337   3.564   1.502  0.4492  0.3260 -2.3888
 3700SOL    HW222563   1.439   3.465   1.546 -1.0823  0.7698  1.9286
 3701SOL     OW22564   0.502   0.192   9.606  0.0051 -0.5705  0.9476
 3701SOL    HW122565   0.575   0.203   9.546 -1.4330  1.6199 -0.4060
 3701SOL    HW222566   0.474   0.103   9.585 -0.6149 -0.1678  0.0320
 3702SOL     OW22567   3.515   1.268   1.128  0.0202  0.7873 -0.6170
 3702SOL    HW122568   3.564   1.259   1.046  1.4110  3.2228 -0.0735
 3702SOL    HW222569   3.555   1.339   1.179 -1.0733  0.8707  0.1122
 3703SOL     OW22570   2.478   3.249   4.791 -0.4003  0.4501  0.2250
 3703SOL    HW122571   2.398   3.250   4.843  0.1052  0.3548  1.0055
 3703SOL    HW222572   2.450   3.227   4.702  0.4282  3.9314 -0.8735
 3704SOL     OW22573   2.937   0.144   8.222 -0.3645 -0.7535 -0.1235
 3704SOL    HW122574   2.895   0.134   8.307 -0.2005 -0.2429  0.0162
 3704SOL    HW222575   3.022   0.187   8.225 -0.6168 -0.3986  1.6656
 3705SOL     OW22576   2.151   2.693  14.194 -0.4612  0.1552  0.3168
 3705SOL    HW122577   2.110   2.743  14.123 -0.5840  0.7338  0.8007
 3705SOL    HW222578   2.081   2.628  14.199 -0.1952 -0.0271  1.6974
 3706SOL     OW22579   1.451   3.971   8.657  0.5512 -0.5181 -0.5674
 3706SOL    HW122580   1.534   4.017   8.645  0.5865 -1.2116 -3.1099
 3706SOL    HW222581   1.381   4.033   8.636  3.7908  3.1320 -0.4680
 3707SOL     OW22582   0.128   2.255   6.396  0.3263  0.8036  0.2736
 3707SOL    HW122583   0.189   2.209   6.453 -1.7130 -0.4493  1.4006
 3707SOL    HW222584   0.185   2.322   6.357  0.9853  0.8826  1.3799
 3708SOL     OW22585   2.958   2.826   4.531 -0.2582  0.0636  0.5454
 3708SOL    HW122586   2.969   2.851   4.440 -1.7385 -0.4102  0.2333
 3708SOL    HW222587   2.935   2.911   4.568 -0.2444  0.2591  0.1041
 3709SOL     OW22588   0.691   2.552   5.313 -0.6230 -0.7499  0.2044
 3709SOL    HW122589   0.708   2.608   5.238 -0.5810  0.0027  0.7759
 3709SOL    HW222590   0.603   2.523   5.289 -1.4096 -0.5179  2.7745
 3710SOL     OW22591   1.663   1.774  16.528 -0.1331  0.0661  0.1291
 3710SOL    HW122592   1.586   1.832  16.529 -0.6633 -0.6055 -1.4565
 3710SOL    HW222593   1.619   1.690  16.521 -0.8142  0.5326 -1.1648
 3711SOL     OW22594   2.703   0.749   6.585  0.1962  0.0205  0.2089
 3711SOL    HW122595   2.612   0.776   6.589  0.2733  0.2516  0.4370
 3711SOL    HW222596   2.708   0.710   6.497 -1.9274  2.4660 -0.9837
 3712SOL     OW22597   2.063   4.623   3.627 -0.1511 -0.4065  0.2444
 3712SOL    HW122598   2.092   4.535   3.605  0.9603 -0.0949  0.4887
 3712SOL    HW222599   1.977   4.615   3.586 -0.6014  0.8832  0.9414
 3713SOL     OW22600   0.855   1.425   9.176  0.6159 -0.4594 -0.4710
 3713SOL    HW122601   0.946   1.440   9.201  0.2006  0.8109  0.2596
 3713SOL    HW222602   0.816   1.469   9.251 -0.6200 -2.2691 -0.0298
 3714SOL     OW22603   4.245   4.355   7.738  0.0283 -0.0077  0.2848
 3714SOL    HW122604   4.212   4.327   7.653  1.4600  0.4326 -0.3997
 3714SOL    HW222605   4.223   4.275   7.787 -0.8405  1.3760  2.1710
 3715SOL     OW22606   0.450   2.880   5.479  0.1639  0.2649  0.0375
 3715SOL    HW122607   0.411   2.804   5.436  1.0013 -0.8599  1.2608
 3715SOL    HW222608   0.510   2.908   5.410  1.2763 -2.2535 -0.0320
 3716SOL     OW22609   3.184   1.227   8.073 -0.0978 -0.4693  0.2054
 3716SOL    HW122610   3.275   1.214   8.102  0.1507 -0.0556 -0.3901
 3716SOL    HW222611   3.162   1.136   8.053 -1.6265  0.0059 -0.2408
 3717SOL     OW22612   1.009   2.409  16.891  0.2673  0.4414  0.0400
 3717SOL    HW122613   0.977   2.464  16.818  0.7744 -2.9871 -2.7536
 3717SOL    HW222614   1.062   2.345  16.844  1.4708  1.2112  0.3438
 3718SOL     OW22615   0.487   2.505  17.670  0.0282  0.3202 -0.4266
 3718SOL    HW122616   0.475   2.596  17.645 -0.0386  0.5066  0.2604
 3718SOL    HW222617   0.529   2.515   0.061 -0.1705 -0.3446 -0.2489
 3719SOL     OW22618   3.330   0.653   3.624  0.1828 -0.5401  0.8291
 3719SOL    HW122619   3.241   0.618   3.623  0.7179 -1.8616  0.0881
 3719SOL    HW222620   3.360   0.572   3.583  0.5538  0.6635 -1.2953
 3720SOL     OW22621   4.717   2.549  16.509 -0.1980 -0.6351 -0.3206
 3720SOL    HW122622   0.085   2.526  16.490 -0.9588 -0.4322 -4.1975
 3720SOL    HW222623   4.693   2.578  16.421 -1.4071 -2.7599 -0.6721
 3721SOL     OW22624   1.891   1.841  12.114  0.0540 -0.3004  0.1173
 3721SOL    HW122625   1.945   1.917  12.136  2.5623 -1.3998 -2.1232
 3721SOL    HW222626   1.954   1.774  12.086 -1.1441 -1.4494  0.1916
 3722SOL     OW22627   0.090   2.730   0.626 -0.5991 -0.7072  0.1133
 3722SOL    HW122628   0.054   2.787   0.558  1.1435 -1.4949 -1.4566
 3722SOL    HW222629   0.018   2.721   0.689  1.6451  3.2600  3.2748
 3723SOL     OW22630   0.621   2.529   3.134 -0.0805  0.2530  0.1294
 3723SOL    HW122631   0.622   2.467   3.207  1.2577  1.3289  1.0224
 3723SOL    HW222632   0.612   2.475   3.055 -0.7113 -1.5650  1.4359
 3724SOL     OW22633   4.136   3.910   3.781 -0.5850 -0.2903 -0.3942
 3724SOL    HW122634   4.068   3.915   3.848 -0.0541  2.0769 -0.0449
 3724SOL    HW222635   4.109   3.982   3.725 -0.3572 -0.7066 -1.0421
 3725SOL     OW22636   3.826   2.869  14.666  0.3704 -0.5879  0.5615
 3725SOL    HW122637   3.817   2.803  14.735 -1.0746 -1.3816 -0.3661
 3725SOL    HW222638   3.921   2.869  14.653  0.1814 -0.8728 -0.8296
 3726SOL     OW22639   0.560   1.105  11.919 -0.0435  0.2568  0.2509
 3726SOL    HW122640   0.493   1.174  11.919  0.6081  0.8773  1.9898
 3726SOL    HW222641   0.504   1.027  11.912 -0.1785  0.3525  0.2538
 3727SOL     OW22642   2.298   0.397   6.489 -0.4208  0.3277  0.2729
 3727SOL    HW122643   2.391   0.382   6.503 -0.3125  0.0884 -0.6964
 3727SOL    HW222644   2.256   0.331   6.544 -2.1409  1.3039  0.1307
 3728SOL     OW22645   0.971   0.632  11.138 -0.2472  0.6714 -0.2201
 3728SOL    HW122646   0.988   0.563  11.203 -1.2924 -0.2114 -0.8925
 3728SOL    HW222647   0.946   0.702  11.199  0.5514 -0.5454  1.5076
 3729SOL     OW22648   1.071   2.225   9.558 -0.1898  0.5485  0.8016
 3729SOL    HW122649   1.127   2.185   9.624  2.0382 -0.3389 -1.6251
 3729SOL    HW222650   1.069   2.315   9.589  3.1275  1.0185 -0.3171
 3730SOL     OW22651   0.835   2.722   0.296 -0.0523  0.4983 -0.0896
 3730SOL    HW122652   0.910   2.673   0.263 -0.9630 -0.9139 -0.0344
 3730SOL    HW222653   0.777   2.646   0.301 -1.2910  1.4799  0.4007
 3731SOL     OW22654   1.725   1.883   5.134  0.4988  0.0109  0.6541
 3731SOL    HW122655   1.663   1.914   5.067 -1.1611 -1.0317  1.7218
 3731SOL    HW222656   1.720   1.789   5.147  2.8764 -0.2393 -0.2809
 3732SOL     OW22657   1.488   3.390  11.320 -0.2805  0.2424  0.0849
 3732SOL    HW122658   1.465   3.434  11.238 -0.2360 -0.9372 -0.5602
 3732SOL    HW222659   1.466   3.464  11.378 -0.2210  1.5586 -1.5678
 3733SOL     OW22660   0.645   3.053   0.802  0.1868 -0.3355 -0.1958
 3733SOL    HW122661   0.705   3.123   0.827  1.7013 -1.5639 -0.3319
 3733SOL    HW222662   0.563   3.092   0.774  0.1345  0.9098  1.6938
 3734SOL     OW22663   0.524   2.761  10.428  0.7825  0.3823 -0.1530
 3734SOL    HW122664   0.467   2.760  10.351  1.2717 -2.0927 -0.4607
 3734SOL    HW222665   0.473   2.714  10.493  0.8027 -1.4693 -1.4849
 3735SOL     OW22666   1.677   3.039   3.697  0.8502  0.0176 -0.2513
 3735SOL    HW122667   1.620   2.975   3.740  1.6233 -0.9543 -0.6914
 3735SOL    HW222668   1.683   3.000   3.610  1.9669 -1.0343  0.3026
 3736SOL     OW22669   1.155   2.151   5.356  0.4403  0.4136  0.5117
 3736SOL    HW122670   1.154   2.241   5.323 -0.6549  0.1110 -0.2711
 3736SOL    HW222671   1.153   2.166   5.451  0.0575  0.6639  0.4673
 3737SOL     OW22672   4.502   1.715   2.145 -0.3398  1.5048  0.0343
 3737SOL    HW122673   4.584   1.764   2.141  0.1600  0.5180 -1.7198
 3737SOL    HW222674   4.526   1.642   2.202 -0.8089  1.7768  0.5826
 3738SOL     OW22675   2.369   1.772   4.032  0.5737  0.4728  0.1221
 3738SOL    HW122676   2.347   1.767   4.125  0.5887 -1.3805  0.0326
 3738SOL    HW222677   2.286   1.804   3.995  1.1785 -0.1698 -1.8188
 3739SOL     OW22678   4.081   3.426   7.246  0.1680 -0.5810 -0.2132
 3739SOL    HW122679   4.061   3.430   7.153 -1.7213  0.5152  0.2278
 3739SOL    HW222680   3.998   3.460   7.280 -1.2876 -2.4526 -1.9567
 3740SOL     OW22681   2.006   2.650  10.727 -0.1934  0.1231  0.5366
 3740SOL    HW122682   2.003   2.745  10.720 -0.6458  0.2038  1.8533
 3740SOL    HW222683   2.058   2.623  10.651 -0.2916  0.0452  0.4967
 3741SOL     OW22684   3.211   0.802  17.680  0.2670  0.1678  0.5531
 3741SOL    HW122685   3.245   0.800  17.590 -0.5684  0.8677  0.2170
 3741SOL    HW222686   3.121   0.836  17.672  1.0174  2.1875  0.7239
 3742SOL     OW22687   1.142   3.348   9.974 -0.3529 -0.3188 -0.4574
 3742SOL    HW122688   1.128   3.432   9.929 -1.0349 -0.2852 -0.1856
 3742SOL    HW222689   1.132   3.295   9.894 -1.5166 -0.0508 -0.4932
 3743SOL     OW22690   3.949   2.634   3.398 -0.0178  0.0616  0.5314
 3743SOL    HW122691   3.903   2.553   3.421  0.9253 -1.1271 -1.7611
 3743SOL    HW222692   3.987   2.660   3.482  1.0776  1.4566 -0.4050
 3744SOL     OW22693   1.578   4.025   6.671  0.0027  0.0107  0.4499
 3744SOL    HW122694   1.565   4.015   6.765 -0.2416 -2.5685  0.1358
 3744SOL    HW222695   1.623   4.110   6.674 -0.9967  0.6016 -0.9246
 3745SOL     OW22696   4.329   2.848   3.914 -0.7659 -0.2720  0.3741
 3745SOL    HW122697   4.382   2.809   3.844 -2.1634  0.4345 -1.0653
 3745SOL    HW222698   4.245   2.859   3.870 -1.7733 -0.7884  2.1713
 3746SOL     OW22699   1.958   1.690   8.830  0.2847 -0.4382  0.0126
 3746SOL    HW122700   1.907   1.636   8.769  1.2010 -0.8449 -0.3887
 3746SOL    HW222701   1.891   1.723   8.889 -0.8177 -0.4905 -1.2003
 3747SOL     OW22702   2.224   0.500  16.297  0.1608  0.2024 -0.0317
 3747SOL    HW122703   2.284   0.433  16.263 -1.0011 -0.7002 -0.3258
 3747SOL    HW222704   2.139   0.457  16.302 -0.6282  1.8555  0.7243
 3748SOL     OW22705   4.045   2.866  12.538 -0.3365  0.0032 -0.4059
 3748SOL    HW122706   4.054   2.899  12.627  0.7350 -0.3528 -0.3824
 3748SOL    HW222707   4.013   2.778  12.558 -0.9627  0.3955  0.3280
 3749SOL     OW22708   0.046   3.326   8.758 -1.3474  0.6760  0.2391
 3749SOL    HW122709   0.089   3.372   8.830  0.8760 -2.8906  1.2124
 3749SOL    HW222710   0.022   3.251   8.813  0.6000 -0.0996  0.0253
 3750SOL     OW22711   0.762   4.197   4.613  0.2751 -0.2626  0.0490
 3750SOL    HW122712   0.817   4.274   4.629 -0.0217  0.1835 -1.0804
 3750SOL    HW222713   0.675   4.233   4.626 -0.2128 -0.3134 -3.1743
 3751SOL     OW22714   3.961   4.266  17.551 -1.1165  0.0105 -0.4857
 3751SOL    HW122715   3.923   4.344  17.592  2.8276  0.8911  1.4677
 3751SOL    HW222716   3.917   4.196  17.599 -1.8754 -0.6820 -2.1715
 3752SOL     OW22717   4.503   3.007   9.658  0.6087 -0.0610 -0.1528
 3752SOL    HW122718   4.433   2.945   9.639  0.3977  0.1113  0.0780
 3752SOL    HW222719   4.570   2.949   9.695 -1.1462 -1.1582  1.2778
 3753SOL     OW22720   4.071   4.466   4.099  0.0694 -0.1257 -0.7783
 3753SOL    HW122721   4.053   4.401   4.031  4.1305 -0.7263 -1.2451
 3753SOL    HW222722   3.999   4.443   4.159  0.3484 -1.3400 -0.8976
 3754SOL     OW22723   1.256   2.707   3.292 -0.1873 -0.0495  0.2002
 3754SOL    HW122724   1.247   2.621   3.333  0.1103 -0.4052 -0.4751
 3754SOL    HW222725   1.255   2.678   3.201 -1.2502  0.7523 -0.0528
 3755SOL     OW22726   1.615   3.362   5.061  0.5941  0.6071 -0.1523
 3755SOL    HW122727   1.598   3.279   5.016  1.6943  0.6196 -0.5702
 3755SOL    HW222728   1.708   3.372   5.040  0.5364 -0.1543 -0.7539
 3756SOL     OW22729   0.559   1.813   9.098  0.0637 -0.2266  0.2571
 3756SOL    HW122730   0.541   1.905   9.079 -0.3093 -0.2937  0.2802
 3756SOL    HW222731   0.471   1.781   9.079 -0.3236  0.7656  0.3655
 3757SOL     OW22732   3.403   0.699   4.785  0.3911 -0.0467  0.0664
 3757SOL    HW122733   3.350   0.635   4.737  2.3653 -0.4068 -1.6528
 3757SOL    HW222734   3.494   0.688   4.757  0.9260 -0.8221  2.1047
 3758SOL     OW22735   1.082   3.163   0.747 -0.2835 -0.0843  0.2621
 3758SOL    HW122736   1.112   3.135   0.834  0.6838 -1.5899 -0.5497
 3758SOL    HW222737   1.161   3.159   0.693  0.8034  1.5083  1.7541
 3759SOL     OW22738   3.703   3.619   8.706 -0.2022 -0.2571 -0.3029
 3759SOL    HW122739   3.670   3.699   8.665  0.8380 -0.0854 -0.8123
 3759SOL    HW222740   3.682   3.625   8.799 -2.2037 -1.1901 -0.6837
 3760SOL     OW22741   3.439   2.117  15.994 -0.5011 -0.3824  0.1593
 3760SOL    HW122742   3.518   2.143  15.947 -0.8763  0.0989 -0.1997
 3760SOL    HW222743   3.409   2.041  15.943 -1.7203  0.0369  0.2569
 3761SOL     OW22744   1.468   1.334   0.800 -0.6251  0.7056 -0.4819
 3761SOL    HW122745   1.377   1.340   0.830  0.3215 -2.4887  3.1091
 3761SOL    HW222746   1.492   1.424   0.823 -0.9454  0.8493 -0.7139
 3762SOL     OW22747   3.411   1.537   5.626  0.2344 -0.2843  0.4660
 3762SOL    HW122748   3.437   1.549   5.535  0.6470 -2.1475  0.3459
 3762SOL    HW222749   3.482   1.488   5.667 -3.2028 -3.8621  2.0557
 3763SOL     OW22750   2.756   2.645  14.096  0.1837  0.1661 -0.2063
 3763SOL    HW122751   2.773   2.609  14.009  4.2238  2.6017 -0.4261
 3763SOL    HW222752   2.748   2.740  14.087  0.9508  0.2062 -0.4525
 3764SOL     OW22753   3.429   0.115   2.641  0.3304  0.1961  1.2328
 3764SOL    HW122754   3.377   0.055   2.696 -0.1007  0.3589  1.0044
 3764SOL    HW222755   3.414   0.072   2.557 -1.4402  2.8064  0.2280
 3765SOL     OW22756   3.898   1.287  11.784  0.2231  0.1549  0.3919
 3765SOL    HW122757   3.973   1.230  11.798  0.4941  0.2699 -0.5409
 3765SOL    HW222758   3.956   1.364  11.784 -0.1008  0.3972  0.5409
 3766SOL     OW22759   1.088   2.999   4.392 -0.2334 -0.2844  0.0609
 3766SOL    HW122760   1.006   3.048   4.398 -0.4776 -0.9519  2.3080
 3766SOL    HW222761   1.053   2.935   4.330 -1.1071  0.2464  0.0126
 3767SOL     OW22762   2.201   0.649   7.427  0.2543 -0.6841  0.2490
 3767SOL    HW122763   2.296   0.654   7.424  0.2006 -0.7887 -1.4031
 3767SOL    HW222764   2.185   0.591   7.353 -1.5006 -2.4891  2.0505
 3768SOL     OW22765   0.190   0.420   5.640  0.8458  0.2049  0.3514
 3768SOL    HW122766   0.218   0.496   5.690 -0.4291  2.1603 -1.9380
 3768SOL    HW222767   0.106   0.398   5.679  2.1998 -2.0314  2.0387
 3769SOL     OW22768   3.835   0.305  11.811  0.0701  0.7638 -0.1784
 3769SOL    HW122769   3.896   0.235  11.787 -0.8621 -0.0508 -0.1670
 3769SOL    HW222770   3.866   0.305  11.901  1.3277 -1.9253 -0.6047
 3770SOL     OW22771   4.383   2.802  13.186 -0.3099  0.3420  0.0881
 3770SOL    HW122772   4.462   2.792  13.133 -0.3732  0.2638  0.0091
 3770SOL    HW222773   4.345   2.887  13.160 -0.5666 -0.2824 -1.5655
 3771SOL     OW22774   3.526   1.051   5.573  0.2415 -0.2080 -0.0775
 3771SOL    HW122775   3.574   1.102   5.507  0.8873 -1.1381 -0.3341
 3771SOL    HW222776   3.442   1.096   5.567  0.3226  0.2073  1.9528
 3772SOL     OW22777   2.661   4.678   3.708 -0.0020 -0.5632 -0.1547
 3772SOL    HW122778   2.710   4.646   3.632  1.0313  1.4192 -0.3043
 3772SOL    HW222779   2.649   0.045   3.680  1.4189 -0.9176 -1.8930
 3773SOL     OW22780   0.418   0.100  12.263  0.5386 -0.0857 -0.0658
 3773SOL    HW122781   0.385   0.062  12.181 -2.3419  0.0309  1.0520
 3773SOL    HW222782   0.402   0.194  12.250  2.2778  0.2376  0.1156
 3774SOL     OW22783   3.863   3.051  11.549 -0.1343 -0.3669 -0.2699
 3774SOL    HW122784   3.900   3.042  11.636 -2.0982 -5.2321  0.0381
 3774SOL    HW222785   3.804   3.126  11.564  0.3586  0.1458 -0.8781
 3775SOL     OW22786   3.906   2.906   8.108 -0.3268  0.2142  0.1380
 3775SOL    HW122787   3.832   2.966   8.099 -2.7273 -2.6483  0.5973
 3775SOL    HW222788   3.956   2.951   8.175 -0.6667 -0.2317  0.6903
 3776SOL     OW22789   3.869   1.098   5.683  0.5518 -0.2317 -0.2639
 3776SOL    HW122790   3.926   1.175   5.682 -1.0410  0.9076 -1.6648
 3776SOL    HW222791   3.906   1.046   5.612  1.3330  0.2293 -0.2030
 3777SOL     OW22792   0.558   1.607   5.706  0.8217  0.3644 -0.7961
 3777SOL    HW122793   0.593   1.521   5.730  1.5969  0.8496 -0.1842
 3777SOL    HW222794   0.601   1.672   5.761 -1.6840  0.5688  0.9451
 3778SOL     OW22795   3.570   4.388   5.017  0.0012  0.0730 -0.3905
 3778SOL    HW122796   3.606   4.306   5.052 -1.5486 -0.1441  0.7194
 3778SOL    HW222797   3.500   4.354   4.962  1.1292 -3.5029  0.4012
 3779SOL     OW22798   2.686   0.510   0.457  0.3234  0.1260  0.1772
 3779SOL    HW122799   2.596   0.529   0.485  1.5060  1.7966  2.7887
 3779SOL    HW222800   2.702   0.594   0.415  0.1504 -0.8294 -1.8138
 3780SOL     OW22801   2.028   1.867  17.095  0.2777  0.0179  0.2106
 3780SOL    HW122802   1.981   1.802  17.043  0.4401  2.5369 -3.1211
 3780SOL    HW222803   1.964   1.884  17.164  1.1503 -0.1894  1.0755
 3781SOL     OW22804   0.028   0.523  14.734 -0.2398  0.3384  0.0582
 3781SOL    HW122805   4.713   0.469  14.803  1.2819  0.1576  0.7741
 3781SOL    HW222806   0.090   0.456  14.703  0.1556  0.5173  0.4557
 3782SOL     OW22807   0.101   0.841  11.091 -0.3564  0.2351  0.3870
 3782SOL    HW122808   0.158   0.855  11.015 -1.4520  3.6807  0.1788
 3782SOL    HW222809   0.021   0.805  11.055  0.3009 -2.5087  1.6514
 3783SOL     OW22810   1.131   1.499  14.486  0.0637 -0.3866  0.2749
 3783SOL    HW122811   1.191   1.514  14.558 -0.6149  0.4042  0.6755
 3783SOL    HW222812   1.057   1.556  14.507  0.4808 -0.0196  0.7428
 3784SOL     OW22813   0.549   0.233  17.132  0.2089  0.0653  0.2685
 3784SOL    HW122814   0.508   0.292  17.195 -2.2265 -2.2696  0.8801
 3784SOL    HW222815   0.639   0.267  17.127 -0.2854  1.7985  3.2751
 3785SOL     OW22816   3.182   4.696  14.677  0.2398  0.2812 -0.5269
 3785SOL    HW122817   3.096   4.655  14.669  0.4595 -0.7405  2.1468
 3785SOL    HW222818   3.162   0.064  14.656 -2.2607 -0.1903 -0.1335
 3786SOL     OW22819   4.448   1.134   0.472 -0.2230  0.1552  0.4342
 3786SOL    HW122820   4.394   1.060   0.444 -2.1758  1.5894  0.4124
 3786SOL    HW222821   4.388   1.179   0.532  0.9749 -0.7735  2.3293
 3787SOL     OW22822   4.126   3.332   6.429  0.6501  0.3477  0.2985
 3787SOL    HW122823   4.220   3.349   6.429  0.1462  3.0974  2.5533
 3787SOL    HW222824   4.107   3.281   6.351 -2.1814  1.5741  0.1930
 3788SOL     OW22825   1.564   2.794   1.477 -0.2860 -0.0544  0.7163
 3788SOL    HW122826   1.469   2.780   1.478 -0.4595  1.1462  0.8902
 3788SOL    HW222827   1.559   2.874   1.529  0.1615  0.1661  0.4229
 3789SOL     OW22828   1.730   1.854   2.418  0.0877  0.3693  0.4291
 3789SOL    HW122829   1.802   1.819   2.470 -2.5578 -2.9657  1.8449
 3789SOL    HW222830   1.710   1.779   2.363  0.8428  0.7870 -0.4202
 3790SOL     OW22831   0.134   3.456   8.967  0.3110  0.5886 -0.0476
 3790SOL    HW122832   0.170   3.379   9.013 -2.8724 -1.9597 -1.8845
 3790SOL    HW222833   0.072   3.488   9.032  0.1503 -1.1743  0.6525
 3791SOL     OW22834   0.412   4.279  12.053  0.2665  0.4230 -0.3323
 3791SOL    HW122835   0.322   4.252  12.036  0.7815 -0.6132 -1.4586
 3791SOL    HW222836   0.400   4.324  12.136  1.0721 -2.2404  1.2151
 3792SOL     OW22837   1.941   4.034   3.401 -0.0685  0.1970 -0.1310
 3792SOL    HW122838   2.005   4.002   3.338  1.8860 -0.1080  2.0311
 3792SOL    HW222839   1.968   3.995   3.484 -2.1966 -0.4958  0.2298
 3793SOL     OW22840   3.850   2.619   8.431  0.8409 -0.2585  0.1344
 3793SOL    HW122841   3.936   2.646   8.398  0.5361  0.3151 -0.1849
 3793SOL    HW222842   3.853   2.652   8.521  1.0017  0.4078 -0.1139
 3794SOL     OW22843   3.594   1.868  11.815  0.4669 -0.3587 -0.0881
 3794SOL    HW122844   3.590   1.959  11.846 -0.4299  0.1482 -1.7068
 3794SOL    HW222845   3.688   1.855  11.823  0.8180  2.7076  0.8597
 3795SOL     OW22846   3.958   3.371   2.699  0.4313  0.2044  0.3437
 3795SOL    HW122847   3.967   3.391   2.606  2.3874 -0.7897  0.3081
 3795SOL    HW222848   3.865   3.382   2.716  0.7530 -0.1148  2.3469
 3796SOL     OW22849   1.943   1.440   0.096 -0.6070  1.3491 -0.3075
 3796SOL    HW122850   1.891   1.360   0.094 -1.0516  1.6173  0.3734
 3796SOL    HW222851   2.030   1.415   0.128  0.1276  1.9618 -1.8207
 3797SOL     OW22852   3.649   0.103   8.256 -0.2210  0.1169 -0.6498
 3797SOL    HW122853   3.597   0.064   8.185 -3.1796 -0.1802  1.6900
 3797SOL    HW222854   3.681   0.025   8.301 -1.7079  0.1215  0.4151
 3798SOL     OW22855   4.295   2.594   8.104 -0.2697  0.3847 -0.5709
 3798SOL    HW122856   4.209   2.573   8.068 -0.5020 -0.2262  0.3343
 3798SOL    HW222857   4.301   2.514   8.156 -1.3327 -0.7895 -2.2421
 3799SOL     OW22858   4.318   2.806   9.523  0.2634  0.1466  0.0029
 3799SOL    HW122859   4.236   2.855   9.520 -0.9116 -1.7028  2.0019
 3799SOL    HW222860   4.372   2.851   9.458  1.4352 -0.5935  0.4589
 3800SOL     OW22861   3.912   3.020   8.815 -0.0162  0.1026  0.6867
 3800SOL    HW122862   3.919   2.934   8.855 -0.1816  0.0658  0.6372
 3800SOL    HW222863   3.926   3.085   8.884  1.3194  0.0782  0.4422
 3801SOL     OW22864   2.519   4.474  11.617  0.5975  0.4554 -0.1912
 3801SOL    HW122865   2.466   4.410  11.570 -0.3202  2.1050 -1.3884
 3801SOL    HW222866   2.570   4.521  11.550  0.7053 -1.6632 -1.6030
 3802SOL     OW22867   0.846   1.354   8.123  0.0476 -0.0367  0.5269
 3802SOL    HW122868   0.845   1.270   8.167 -0.2619  0.2386  1.0433
 3802SOL    HW222869   0.821   1.421   8.186  0.2201  0.5989 -0.0775
 3803SOL     OW22870   3.610   1.870   5.913 -0.3939 -0.2070  0.2918
 3803SOL    HW122871   3.586   1.878   5.821 -0.4962  2.3952  0.5408
 3803SOL    HW222872   3.574   1.949   5.953  2.0850  0.5627  0.9850
 3804SOL     OW22873   0.226   2.046   7.877  0.2265  0.5375  0.6210
 3804SOL    HW122874   0.176   1.967   7.862 -1.6175  1.5527  1.4054
 3804SOL    HW222875   0.296   2.013   7.933 -2.2140 -1.4010  2.4920
 3805SOL     OW22876   2.556   3.424  16.310  0.1393 -0.2194  0.1181
 3805SOL    HW122877   2.518   3.489  16.252 -3.9842 -1.4967  1.4093
 3805SOL    HW222878   2.639   3.410  16.263 -0.8797 -0.4192 -1.6342
 3806SOL     OW22879   1.685   2.881   7.955 -0.2794 -0.5313 -0.4147
 3806SOL    HW122880   1.609   2.862   8.010 -0.7670 -0.9761 -1.2346
 3806SOL    HW222881   1.685   2.976   7.951  2.0858 -0.5350 -0.4413
 3807SOL     OW22882   1.540   0.333   4.609  0.7290 -0.6493 -0.5238
 3807SOL    HW122883   1.514   0.306   4.697 -0.7731 -2.1678 -1.4300
 3807SOL    HW222884   1.606   0.399   4.630 -0.1425 -0.2024  0.8358
 3808SOL     OW22885   0.504   4.474   3.707  0.0791  0.0474  0.4383
 3808SOL    HW122886   0.469   4.407   3.649 -1.3322 -0.2206  1.6189
 3808SOL    HW222887   0.553   4.407   3.754 -1.1155 -0.2761  1.2177
 3809SOL     OW22888   0.477   1.774   2.060 -0.1552  0.5142 -0.5226
 3809SOL    HW122889   0.416   1.820   2.118  0.4186  0.9490 -0.2685
 3809SOL    HW222890   0.468   1.683   2.088 -1.9048  1.5803  2.4211
 3810SOL     OW22891   4.399   2.069   8.438  0.0567  0.2095 -0.0310
 3810SOL    HW122892   4.418   1.997   8.499  0.6657  0.8505  0.5352
 3810SOL    HW222893   4.320   2.038   8.394  2.2276 -0.2581 -3.6139
 3811SOL     OW22894   2.231   3.022   3.098 -0.7727 -0.4180 -0.6964
 3811SOL    HW122895   2.158   3.018   3.037 -0.5748 -5.0447 -0.6510
 3811SOL    HW222896   2.297   2.964   3.059  0.1116 -0.6107  1.0592
 3812SOL     OW22897   4.020   2.842   1.034 -0.5417 -0.1606 -0.0991
 3812SOL    HW122898   3.999   2.839   0.941 -2.3374  1.4590  0.2693
 3812SOL    HW222899   4.092   2.779   1.031  0.9988  1.5410  0.8249
 3813SOL     OW22900   1.466   4.091  12.594  0.1195  0.0057  0.7461
 3813SOL    HW122901   1.534   4.027  12.573  0.1478 -0.5400  2.5117
 3813SOL    HW222902   1.395   4.040  12.556 -1.0650  1.0762  1.5305
 3814SOL     OW22903   3.257   0.535  13.174  0.3959 -0.4339 -0.1889
 3814SOL    HW122904   3.210   0.464  13.218 -0.7426 -0.4873 -1.4792
 3814SOL    HW222905   3.296   0.484  13.103 -3.8553 -2.7207 -0.8806
 3815SOL     OW22906   4.486   2.359   0.754 -0.1804  0.0163  0.1076
 3815SOL    HW122907   4.457   2.366   0.663  0.3909 -3.4927 -0.3509
 3815SOL    HW222908   4.450   2.437   0.796 -1.1802 -2.0890  3.1520
 3816SOL     OW22909   1.882   3.074   6.236  0.0327  0.0248  0.1662
 3816SOL    HW122910   1.826   3.136   6.187  0.4698 -0.2530 -0.6924
 3816SOL    HW222911   1.892   2.998   6.178  0.7340  1.0061 -1.0177
 3817SOL     OW22912   2.746   0.437   5.886 -0.5684 -0.2128 -0.3149
 3817SOL    HW122913   2.745   0.352   5.841 -1.0777 -1.2537  1.6314
 3817SOL    HW222914   2.836   0.451   5.915 -1.2372  0.8943  1.2019
 3818SOL     OW22915   4.259   3.704  13.902 -0.3033 -0.2334  0.1414
 3818SOL    HW122916   4.233   3.782  13.950 -0.4825 -0.4712  0.4343
 3818SOL    HW222917   4.344   3.734  13.871 -0.4001 -2.4148 -2.2780
 3819SOL     OW22918   1.401   3.591   4.149 -0.6354 -0.1169  0.2811
 3819SOL    HW122919   1.372   3.549   4.230 -1.9516 -0.3463 -0.3138
 3819SOL    HW222920   1.320   3.637   4.130  1.7131  4.6153  1.7853
 3820SOL     OW22921   4.052   1.833  14.126 -0.0567 -0.0886  0.0344
 3820SOL    HW122922   4.089   1.815  14.040  1.7245 -0.4980  0.8900
 3820SOL    HW222923   4.081   1.924  14.130  0.2732 -0.1404 -1.2238
 3821SOL     OW22924   0.460   2.898   7.708  0.1415 -0.0623  0.1513
 3821SOL    HW122925   0.469   2.809   7.742  0.3113  0.0715  0.4509
 3821SOL    HW222926   0.368   2.918   7.723  0.6661  1.2690  1.5666
 3822SOL     OW22927   2.910   2.533   2.504  0.2496  0.3666  0.5069
 3822SOL    HW122928   2.977   2.551   2.439 -1.0700 -0.2644 -1.0100
 3822SOL    HW222929   2.944   2.576   2.583 -1.7738 -0.8035  2.0081
 3823SOL     OW22930   0.839   0.680  17.024  0.0635 -0.0493 -0.4108
 3823SOL    HW122931   0.764   0.665  16.966 -1.8342  0.2348  1.9828
 3823SOL    HW222932   0.825   0.769  17.056  0.3211 -0.0182 -0.3925
 3824SOL     OW22933   1.197   2.486   1.603  0.4069  0.3985 -0.2362
 3824SOL    HW122934   1.166   2.447   1.521 -0.9776 -0.9669  0.9175
 3824SOL    HW222935   1.256   2.556   1.576 -1.5111  1.6085 -1.2703
 3825SOL     OW22936   0.656   1.854   7.213  0.1184 -0.1951  0.2401
 3825SOL    HW122937   0.633   1.766   7.181  0.3442  0.4591 -1.7093
 3825SOL    HW222938   0.708   1.835   7.291  0.3934 -0.7329 -0.0727
 3826SOL     OW22939   0.483   1.953   5.424 -0.0008  0.0796 -0.6202
 3826SOL    HW122940   0.530   1.876   5.393 -2.1876 -0.9652 -1.2787
 3826SOL    HW222941   0.477   1.932   5.517 -0.2834  0.5787 -0.5217
 3827SOL     OW22942   3.762   0.761  16.832 -0.5907 -0.4260 -0.3356
 3827SOL    HW122943   3.810   0.829  16.880  0.8118 -2.3514  0.9703
 3827SOL    HW222944   3.808   0.682  16.859 -0.8714 -0.3995  0.2132
 3828SOL     OW22945   2.212   2.318   4.066  0.4077 -0.2597 -0.1433
 3828SOL    HW122946   2.200   2.255   3.995 -1.3537  2.1516 -1.9672
 3828SOL    HW222947   2.248   2.392   4.017  0.5790 -0.7667 -0.7825
 3829SOL     OW22948   0.571   0.618  16.943  0.1102  0.1690 -0.0818
 3829SOL    HW122949   0.530   0.675  16.879  0.5719  1.0022  0.3535
 3829SOL    HW222950   0.533   0.539  16.906 -0.8670  0.9699 -0.7485
 3830SOL     OW22951   2.029   3.587  10.917  0.1856  0.8398 -0.1707
 3830SOL    HW122952   2.039   3.580  11.012 -1.3992  3.3203  0.1472
 3830SOL    HW222953   2.099   3.649  10.895 -1.0115  1.7079 -1.4735
 3831SOL     OW22954   1.332   2.239   6.231 -0.1894 -0.0771 -0.1358
 3831SOL    HW122955   1.242   2.267   6.215 -0.3149 -0.8216 -0.7360
 3831SOL    HW222956   1.377   2.322   6.209  2.0035 -0.8839  1.3007
 3832SOL     OW22957   1.683   3.956  11.952  0.1340 -0.8836  0.2790
 3832SOL    HW122958   1.700   3.862  11.954  1.9797 -0.5486  0.7972
 3832SOL    HW222959   1.766   4.001  11.966 -0.4736  0.0753  0.7886
 3833SOL     OW22960   1.124   1.766  16.008  0.2029 -0.8372  0.2055
 3833SOL    HW122961   1.059   1.800  15.947 -1.3211 -1.3392  1.5477
 3833SOL    HW222962   1.099   1.822  16.081 -0.2614 -0.6060 -0.1277
 3834SOL     OW22963   0.218   3.631  13.558 -0.1623 -0.9374  0.1488
 3834SOL    HW122964   0.144   3.675  13.517  0.1141  0.0249  0.6700
 3834SOL    HW222965   0.302   3.662  13.522  0.4866 -1.6944  1.0228
 3835SOL     OW22966   1.751   2.979  11.599  0.3215 -0.0343  0.3062
 3835SOL    HW122967   1.688   2.932  11.653 -2.0556  0.3304 -2.1722
 3835SOL    HW222968   1.716   2.979  11.510  0.6508 -3.8701  0.1996
 3836SOL     OW22969   1.584   0.566  11.635  0.6367  0.0661  0.1352
 3836SOL    HW122970   1.539   0.489  11.669 -0.2588  0.8758  0.8162
 3836SOL    HW222971   1.630   0.598  11.713 -1.6746 -0.0019  1.5401
 3837SOL     OW22972   2.709   4.330   6.050 -0.2472  0.1663 -0.2306
 3837SOL    HW122973   2.717   4.239   6.077  1.0978  1.1277  2.6656
 3837SOL    HW222974   2.646   4.371   6.109  0.6760  0.7142  0.3713
 3838SOL     OW22975   1.578   2.702  10.541 -0.3070 -0.3943 -0.1975
 3838SOL    HW122976   1.525   2.648  10.600 -2.4896  0.9323 -0.9440
 3838SOL    HW222977   1.659   2.652  10.531 -0.2243  0.0158 -1.5092
 3839SOL     OW22978   2.268   2.537   2.010 -0.3074 -0.0159 -0.2999
 3839SOL    HW122979   2.349   2.507   2.051  0.2120  2.0797  0.2509
 3839SOL    HW222980   2.298   2.609   1.954  0.8047  0.0293  0.3549
 3840SOL     OW22981   4.659   4.072  16.134  0.8395 -0.1137 -0.0675
 3840SOL    HW122982   0.027   4.098  16.121  0.8671 -0.3217 -0.2939
 3840SOL    HW222983   4.648   4.136  16.204  2.0295 -2.9313  2.6401
 3841SOL     OW22984   1.426   3.986  13.552  0.6104 -0.3635  0.1420
 3841SOL    HW122985   1.374   3.939  13.485  1.5170  2.7901 -2.7635
 3841SOL    HW222986   1.383   3.960  13.633 -0.6825  0.6227 -0.2184
 3842SOL     OW22987   3.069   2.662   1.738 -0.2098 -0.0306 -0.2588
 3842SOL    HW122988   3.078   2.584   1.685  0.6148  1.2171 -1.9639
 3842SOL    HW222989   3.140   2.715   1.700 -0.5740 -0.4692 -1.5333
 3843SOL     OW22990   2.366   1.676   2.799  0.1138  0.4967  0.1158
 3843SOL    HW122991   2.334   1.586   2.791 -0.3159  0.7129 -0.5651
 3843SOL    HW222992   2.351   1.707   2.710 -0.3686 -0.7732 -0.2473
 3844SOL     OW22993   3.694   0.433   4.036  0.1246  0.1869  0.2069
 3844SOL    HW122994   3.721   0.503   4.096 -1.0383  2.1926 -1.6050
 3844SOL    HW222995   3.601   0.450   4.024 -0.1795 -2.3357 -1.1293
 3845SOL     OW22996   2.794   3.161   0.311  0.0010 -0.6330  0.2756
 3845SOL    HW122997   2.761   3.247   0.337  0.1249 -0.6580  0.5076
 3845SOL    HW222998   2.808   3.170   0.216  1.4887 -0.0530  0.5440
 3846SOL     OW22999   0.702   0.573   7.346  0.2604 -0.2153 -0.4134
 3846SOL    HW123000   0.751   0.540   7.421 -3.2837  1.8019  2.7909
 3846SOL    HW223001   0.671   0.660   7.372  0.9209 -0.4255  1.0441
 3847SOL     OW23002   2.999   2.507   6.454  0.3345  0.1075  0.5766
 3847SOL    HW123003   3.094   2.499   6.464  0.1454 -0.6374  1.6532
 3847SOL    HW223004   3.001   2.527   6.360  0.7256  0.0161  0.5684
 3848SOL     OW23005   0.696   3.463   7.950  0.4099  0.3720  0.0631
 3848SOL    HW123006   0.761   3.446   8.018  1.2718  0.3326 -0.7701
 3848SOL    HW223007   0.668   3.552   7.973 -1.9128 -0.9817  2.5921
 3849SOL     OW23008   1.075   1.060   4.439 -0.0528  0.5461 -0.0165
 3849SOL    HW123009   1.101   1.130   4.379 -2.8925  0.4164 -1.3672
 3849SOL    HW223010   1.160   1.038   4.478 -0.5172 -0.7373  0.2607
 3850SOL     OW23011   0.756   0.310  15.262 -0.8391  0.8956  0.2569
 3850SOL    HW123012   0.779   0.245  15.329 -0.2715 -3.2737 -3.9770
 3850SOL    HW223013   0.827   0.289  15.202 -1.1413  1.7899 -0.3963
 3851SOL     OW23014   3.960   1.733   4.448 -0.3037 -0.0735  0.2283
 3851SOL    HW123015   3.977   1.815   4.402  1.7347  0.3432  1.7555
 3851SOL    HW223016   3.978   1.678   4.372 -1.5978  0.7466 -0.6894
 3852SOL     OW23017   1.275   2.157   1.586  0.0043  0.0931 -0.4316
 3852SOL    HW123018   1.288   2.065   1.608  1.8420  0.1610 -1.2159
 3852SOL    HW223019   1.353   2.209   1.566  0.6006 -1.1898 -1.4608
 3853SOL     OW23020   0.611   3.296   3.219  0.0872 -0.9083  0.1640
 3853SOL    HW123021   0.565   3.240   3.282 -0.9716  0.3703  0.5246
 3853SOL    HW223022   0.673   3.235   3.180 -0.1867 -1.8250  1.1360
 3854SOL     OW23023   3.811   3.855   1.613 -0.2934  0.2314 -0.1154
 3854SOL    HW123024   3.801   3.799   1.690  0.7317  1.8779  1.1942
 3854SOL    HW223025   3.892   3.893   1.646 -0.5299  0.9429 -0.3566
 3855SOL     OW23026   1.172   0.327   3.386 -0.3294  0.1012 -0.5121
 3855SOL    HW123027   1.155   0.331   3.481 -0.7342 -0.6965 -0.5497
 3855SOL    HW223028   1.132   0.410   3.358 -0.8968 -0.5775 -1.6933
 3856SOL     OW23029   1.472   0.211  13.517 -0.4306 -0.2339  0.3279
 3856SOL    HW123030   1.534   0.173  13.455  0.2467 -3.0558  2.7209
 3856SOL    HW223031   1.386   0.180  13.488 -0.6987 -1.2765  2.2359
 3857SOL     OW23032   1.597   0.086  10.622 -0.3424 -0.0126 -0.0634
 3857SOL    HW123033   1.534   0.072  10.693  1.0248 -0.1392  1.1233
 3857SOL    HW223034   1.661   0.016  10.629 -2.1561 -1.6610 -0.0733
 3858SOL     OW23035   3.849   0.253  16.675 -0.1547  0.4089  0.9125
 3858SOL    HW123036   3.760   0.272  16.707 -0.3214  0.7383  0.2530
 3858SOL    HW223037   3.852   0.160  16.697 -0.6045 -0.0114 -0.8019
 3859SOL     OW23038   3.272   4.039   3.102  0.0238  0.0599 -0.6540
 3859SOL    HW123039   3.194   4.033   3.157  1.8712  1.5232  2.1492
 3859SOL    HW223040   3.293   4.132   3.106 -0.4389  0.0772  1.3621
 3860SOL     OW23041   0.392   2.069   3.064  0.3068 -0.1294 -0.2709
 3860SOL    HW123042   0.468   2.028   3.104 -0.3192 -0.7797  0.2420
 3860SOL    HW223043   0.381   2.005   2.993 -1.2440  0.7561 -0.8292
 3861SOL     OW23044   1.123   4.153   7.698  0.0405 -0.8816 -0.1854
 3861SOL    HW123045   1.121   4.217   7.769  0.0737 -1.2507  0.1509
 3861SOL    HW223046   1.100   4.074   7.747  2.3035 -0.9027  0.8269
 3862SOL     OW23047   0.685   1.250  14.069 -0.6130  0.1501 -0.2784
 3862SOL    HW123048   0.685   1.213  13.981 -1.7420 -0.8576  0.1448
 3862SOL    HW223049   0.780   1.254  14.083 -0.5487 -3.0824  0.2046
 3863SOL     OW23050   1.177   0.524   7.950 -0.4600 -0.2194 -0.7802
 3863SOL    HW123051   1.242   0.568   8.003 -1.1240  0.1286 -0.2517
 3863SOL    HW223052   1.231   0.518   7.871  1.0861 -0.0598  0.2712
 3864SOL     OW23053   2.433   2.603   2.441  0.4151 -0.4270 -0.0372
 3864SOL    HW123054   2.420   2.676   2.380 -1.1266 -1.1916 -0.6401
 3864SOL    HW223055   2.518   2.570   2.413  2.0032  3.1264  0.5497
 3865SOL     OW23056   0.616   3.992  15.298 -0.5379  0.0344 -0.3793
 3865SOL    HW123057   0.705   4.028  15.290 -0.8456  1.0630  0.9348
 3865SOL    HW223058   0.597   4.022  15.387 -1.2607 -0.8109 -0.2550
 3866SOL     OW23059   4.403   1.440   5.468 -0.7542  0.0491  0.0354
 3866SOL    HW123060   4.497   1.447   5.485 -0.4843  0.0280 -1.4175
 3866SOL    HW223061   4.361   1.508   5.520  0.4153  0.0097  1.0328
 3867SOL     OW23062   1.652   2.329   7.473  0.1851  0.1190  0.6636
 3867SOL    HW123063   1.649   2.304   7.565 -0.3609  0.5576  0.7679
 3867SOL    HW223064   1.567   2.373   7.473 -1.0139 -2.2062  1.7237
 3868SOL     OW23065   0.385   3.112   1.627 -0.0336 -0.4067 -0.8438
 3868SOL    HW123066   0.425   3.112   1.714 -3.1062 -1.1493  0.5733
 3868SOL    HW223067   0.460   3.123   1.569 -1.1627  0.3868 -2.1569
 3869SOL     OW23068   3.544   3.707  13.320 -0.1217 -0.3518 -0.2978
 3869SOL    HW123069   3.626   3.661  13.301 -1.2290 -2.3306 -0.2662
 3869SOL    HW223070   3.505   3.641  13.378  0.8579 -1.2980 -0.7264
 3870SOL     OW23071   1.904   4.216   8.820 -0.5841  0.2762 -0.0575
 3870SOL    HW123072   1.979   4.268   8.790  0.6344  0.1449  2.7573
 3870SOL    HW223073   1.949   4.148   8.870  1.6638  1.6032 -0.2864
 3871SOL     OW23074   2.125   3.838   4.525  0.1714  0.2445 -0.2099
 3871SOL    HW123075   2.206   3.880   4.555  0.5949  0.7946 -2.1808
 3871SOL    HW223076   2.159   3.748   4.524  0.6555  0.4492 -1.5043
 3872SOL     OW23077   3.244   0.534  14.040  0.3790 -0.1761 -0.1376
 3872SOL    HW123078   3.297   0.456  14.024  1.2267  0.2718  0.5528
 3872SOL    HW223079   3.316   0.596  14.049  0.4570 -0.2908  0.0204
 3873SOL     OW23080   3.328   1.090  13.392 -0.0973  0.2351 -0.0019
 3873SOL    HW123081   3.288   1.171  13.422 -2.6702 -0.6033 -1.2617
 3873SOL    HW223082   3.331   1.100  13.297 -2.5843 -0.0986 -0.0977
 3874SOL     OW23083   1.681   3.014   8.425  0.7421  0.8538 -0.5555
 3874SOL    HW123084   1.612   3.072   8.392 -0.7679 -0.6186  0.0143
 3874SOL    HW223085   1.753   3.073   8.446  1.1812 -0.0254  0.3899
 3875SOL     OW23086   1.619   1.696   5.389  0.0833 -0.0244  0.2883
 3875SOL    HW123087   1.559   1.622   5.399 -0.7652  0.8097  1.3513
 3875SOL    HW223088   1.661   1.664   5.309 -1.4916 -1.0498 -0.1235
 3876SOL     OW23089   2.569   2.927   6.054  0.2422 -0.2811  0.0769
 3876SOL    HW123090   2.484   2.884   6.042  0.6151 -0.3959 -2.2993
 3876SOL    HW223091   2.550   3.004   6.001  2.2177  0.5214  0.5550
 3877SOL     OW23092   0.882   1.137  12.301 -0.0573 -0.0972 -0.7019
 3877SOL    HW123093   0.920   1.214  12.343 -1.2784  0.0367  0.1388
 3877SOL    HW223094   0.882   1.077  12.375 -2.3468 -0.7297 -1.1941
 3878SOL     OW23095   1.485   3.074   3.329  0.2587  0.8181 -0.2878
 3878SOL    HW123096   1.409   3.039   3.284  1.2915 -2.3346  0.4035
 3878SOL    HW223097   1.484   3.018   3.407 -0.3967  0.2249 -0.7224
 3879SOL     OW23098   2.557   4.227   7.489 -0.4448 -0.1732  0.2633
 3879SOL    HW123099   2.550   4.159   7.422 -3.2020 -0.0523  0.4331
 3879SOL    HW223100   2.541   4.301   7.430  0.4834  1.2847  1.8657
 3880SOL     OW23101   1.349   1.003  12.686 -0.4707 -0.1283  0.2267
 3880SOL    HW123102   1.438   1.028  12.711 -0.6864  1.6562 -0.7925
 3880SOL    HW223103   1.368   0.990  12.593  2.1150 -2.0964  1.0212
 3881SOL     OW23104   0.481   4.455  12.237 -0.5148  0.0170  0.3940
 3881SOL    HW123105   0.493   4.485  12.327  0.1383  0.0730  0.2939
 3881SOL    HW223106   0.558   4.401  12.218 -1.3122 -0.7366 -0.6545
 3882SOL     OW23107   3.215   2.952   6.135  0.8796  0.4224  0.1599
 3882SOL    HW123108   3.206   2.916   6.047  0.6461  3.1649 -0.9449
 3882SOL    HW223109   3.159   2.893   6.186 -1.6608  1.8576 -0.9362
 3883SOL     OW23110   2.672   1.991  13.309 -0.1218 -0.3593  0.2004
 3883SOL    HW123111   2.693   1.980  13.401 -0.1051 -1.6648  0.0326
 3883SOL    HW223112   2.612   2.065  13.315  2.5197  1.8886 -0.9452
 3884SOL     OW23113   0.959   3.925   6.880  0.1926  0.1796  0.0985
 3884SOL    HW123114   0.948   3.875   6.799 -0.0549  0.3006  0.0563
 3884SOL    HW223115   1.011   3.861   6.928 -0.2279 -0.5951 -0.4720
 3885SOL     OW23116   4.668   1.798   2.457  0.3755 -0.2591  0.3470
 3885SOL    HW123117   4.683   1.781   2.365 -0.0880 -2.3448  0.6649
 3885SOL    HW223118   4.585   1.846   2.451  0.8392  0.6553  1.1670
 3886SOL     OW23119   2.921   3.830   4.584  0.5158  0.2214  0.3234
 3886SOL    HW123120   3.006   3.874   4.587 -0.5619  2.3409 -0.6778
 3886SOL    HW223121   2.931   3.767   4.655 -1.3012  1.9521  2.1110
 3887SOL     OW23122   3.510   2.592   7.642 -0.7648 -0.0703  0.0846
 3887SOL    HW123123   3.580   2.529   7.626 -1.4027 -0.3870 -1.4882
 3887SOL    HW223124   3.545   2.669   7.597  2.2943 -1.5924 -0.1355
 3888SOL     OW23125   0.538   4.713   5.546 -0.0614  0.4530  0.5878
 3888SOL    HW123126   0.512   0.080   5.528  0.7356  0.4721 -0.5135
 3888SOL    HW223127   0.611   0.004   5.606  0.5934  1.5781 -0.4662
 3889SOL     OW23128   0.350   2.259   2.791 -0.2322  0.3075  0.6225
 3889SOL    HW123129   0.380   2.198   2.724  1.2701 -1.4199  2.8289
 3889SOL    HW223130   0.338   2.197   2.864  0.2990 -0.3095  0.1826
 3890SOL     OW23131   2.225   0.316   1.338 -0.4141  0.0740 -0.7897
 3890SOL    HW123132   2.242   0.344   1.428 -2.0466 -1.8456  0.1078
 3890SOL    HW223133   2.251   0.389   1.281 -1.9311  0.4267 -1.0541
 3891SOL     OW23134   2.620   4.652   1.977  0.0761  0.2764  0.2373
 3891SOL    HW123135   2.689   4.639   2.042 -0.0663  0.5979  0.4510
 3891SOL    HW223136   2.670   4.714   1.925  2.6658 -1.3054  0.8630
 3892SOL     OW23137   4.651   2.176   3.635  0.0427  0.6281 -0.1697
 3892SOL    HW123138   4.681   2.104   3.690  3.6701  1.9606 -0.4107
 3892SOL    HW223139   4.558   2.151   3.640 -0.1062  0.9938 -1.2197
 3893SOL     OW23140   2.059   1.407  15.706 -0.1458  0.4073 -0.2318
 3893SOL    HW123141   2.060   1.484  15.763  0.0071  0.4234 -0.2555
 3893SOL    HW223142   1.987   1.362  15.750  1.2131 -0.5401  0.9899
 3894SOL     OW23143   4.234   2.251   8.929 -0.4025 -0.5019 -0.7737
 3894SOL    HW123144   4.325   2.255   8.899 -0.6630  0.3758 -1.4510
 3894SOL    HW223145   4.228   2.333   8.978 -0.1077 -1.1841  0.4086
 3895SOL     OW23146   3.356   1.668  10.969 -0.4627  0.0626  0.1015
 3895SOL    HW123147   3.371   1.574  10.960  1.5429  0.3095  0.8583
 3895SOL    HW223148   3.435   1.694  11.017 -0.3101  0.9455 -0.6375
 3896SOL     OW23149   0.812   2.223   0.665  0.2472  0.1651 -0.2841
 3896SOL    HW123150   0.762   2.251   0.742 -0.6463  2.1284 -1.5799
 3896SOL    HW223151   0.900   2.252   0.688  0.9939 -2.2720 -0.0269
 3897SOL     OW23152   1.556   2.775   8.414  0.2614  0.7246  0.4487
 3897SOL    HW123153   1.492   2.813   8.474 -0.6246 -3.5506  2.2080
 3897SOL    HW223154   1.628   2.838   8.410  0.2878  0.6124 -0.8009
 3898SOL     OW23155   2.680   0.037   5.465  0.5234 -0.2549 -0.1220
 3898SOL    HW123156   2.763   0.081   5.452  0.9750 -1.5137 -1.5172
 3898SOL    HW223157   2.698   4.702   5.539  1.1716 -0.6080 -0.5581
 3899SOL     OW23158   3.041   3.860   2.734 -0.2320 -0.5861 -0.2173
 3899SOL    HW123159   2.996   3.815   2.663 -1.0586 -0.1397  0.0265
 3899SOL    HW223160   3.064   3.784   2.787 -0.4392 -0.7258 -0.3281
 3900SOL     OW23161   3.880   3.809   3.458  0.0437  0.9010  0.0307
 3900SOL    HW123162   3.871   3.881   3.396 -0.3579  1.6054  0.9047
 3900SOL    HW223163   3.795   3.767   3.450  0.5750 -0.3994  1.2503
 3901SOL     OW23164   1.852   2.616   2.690  0.4219 -0.3866  0.3507
 3901SOL    HW123165   1.757   2.621   2.694  0.2675 -1.4510 -2.3148
 3901SOL    HW223166   1.869   2.671   2.613  1.6682  0.0184  0.9079
 3902SOL     OW23167   3.427   3.730  11.752 -0.2711 -0.4436  0.4947
 3902SOL    HW123168   3.367   3.804  11.765  1.1170  1.4073 -3.3660
 3902SOL    HW223169   3.513   3.771  11.740 -0.8352  0.7586  0.5173
 3903SOL     OW23170   2.732   1.579   2.902 -0.1746 -0.1467 -0.1447
 3903SOL    HW123171   2.735   1.633   2.823  0.9358 -0.5861 -0.4125
 3903SOL    HW223172   2.781   1.504   2.869 -4.2104 -2.9722  0.3046
 3904SOL     OW23173   3.347   0.483  10.469  0.2350 -0.5993 -0.6598
 3904SOL    HW123174   3.304   0.416  10.522 -2.7719  2.8062  1.2423
 3904SOL    HW223175   3.405   0.432  10.413  0.8167 -0.4154 -0.2220
 3905SOL     OW23176   2.940   2.234  15.366  0.5001 -0.6900 -0.1849
 3905SOL    HW123177   2.934   2.141  15.391 -0.4820 -0.8220 -0.9057
 3905SOL    HW223178   3.023   2.274  15.391 -0.1928 -1.5090  3.3981
 3906SOL     OW23179   0.820   3.685   9.877  0.6733  0.6399  0.4896
 3906SOL    HW123180   0.823   3.734   9.794  1.8595  1.0335  0.7646
 3906SOL    HW223181   0.751   3.625   9.850  0.1294  1.0808  0.8883
 3907SOL     OW23182   0.205   0.475   2.568  0.5578  0.4633 -0.1284
 3907SOL    HW123183   0.134   0.528   2.604  1.5802 -0.3605  3.1864
 3907SOL    HW223184   0.259   0.456   2.645 -0.3439 -0.3445  0.3020
 3908SOL     OW23185   3.046   4.702   7.392 -0.4986  0.0282  0.0245
 3908SOL    HW123186   3.021   0.015   7.478  1.2362  0.0819  0.5159
 3908SOL    HW223187   3.042   0.053   7.332  0.4257  0.5772  0.6455
 3909SOL     OW23188   0.710   4.632   9.241  0.1410  0.0067 -0.0851
 3909SOL    HW123189   0.713   4.624   9.336  2.8432 -0.3853 -0.2017
 3909SOL    HW223190   0.742   4.543   9.226  0.9725 -0.0767  2.2005
 3910SOL     OW23191   3.080   1.824   4.140 -0.1308  0.0825  0.3409
 3910SOL    HW123192   3.000   1.872   4.160  0.2991  0.8838  0.1769
 3910SOL    HW223193   3.076   1.755   4.206 -0.3947  1.7752  2.1212
 3911SOL     OW23194   2.390   3.058  12.564 -0.5087  0.3914 -0.5707
 3911SOL    HW123195   2.330   3.052  12.639 -0.2304  0.5101 -0.3364
 3911SOL    HW223196   2.402   2.965  12.546  0.6762  0.2896  0.7320
 3912SOL     OW23197   3.673   0.372   6.257 -0.5167  0.0725  0.4926
 3912SOL    HW123198   3.746   0.429   6.282  0.6037 -0.5967 -1.2689
 3912SOL    HW223199   3.607   0.442   6.254  1.6733  2.0923 -0.1052
 3913SOL     OW23200   0.162   3.874   9.724 -0.1627  0.4953 -0.3929
 3913SOL    HW123201   0.212   3.853   9.803 -0.2273  2.5150  0.2028
 3913SOL    HW223202   0.104   3.798   9.725 -0.8730  1.0400 -0.0026
 3914SOL     OW23203   4.268   1.620   9.813 -0.2055 -0.1412 -0.0703
 3914SOL    HW123204   4.322   1.566   9.871 -0.1244 -0.9688 -0.9267
 3914SOL    HW223205   4.324   1.606   9.737 -3.5254  0.8236 -2.6653
 3915SOL     OW23206   2.441   3.095   5.622 -0.2022  0.0176 -0.5569
 3915SOL    HW123207   2.505   3.137   5.564 -0.4866  0.5758 -0.4705
 3915SOL    HW223208   2.425   3.018   5.569  3.5842 -0.1406 -1.4673
 3916SOL     OW23209   0.050   2.614  10.622  0.2266 -0.4553  0.8330
 3916SOL    HW123210   0.048   2.692  10.567 -0.1811  0.4388  2.1233
 3916SOL    HW223211   0.053   2.657  10.708  0.2293  1.0083  0.0978
 3917SOL     OW23212   1.554   4.166   5.666  0.1490 -0.6141 -0.2162
 3917SOL    HW123213   1.628   4.116   5.701 -0.0753  0.7934  2.2706
 3917SOL    HW223214   1.588   4.207   5.587  1.0449  0.9278  0.9731
 3918SOL     OW23215   4.390   1.874  13.555 -0.1927 -0.2241  0.1025
 3918SOL    HW123216   4.393   1.904  13.464 -0.8981 -0.7392 -0.0971
 3918SOL    HW223217   4.337   1.940  13.599  1.8129  1.0377  0.6112
 3919SOL     OW23218   2.980   2.606   2.757 -0.3547  0.1289  0.0950
 3919SOL    HW123219   3.008   2.517   2.780 -1.0395  0.5071  2.4152
 3919SOL    HW223220   2.931   2.622   2.838  1.8431  0.4082  1.3671
 3920SOL     OW23221   0.949   2.195   2.869 -0.2787 -0.1438 -0.1363
 3920SOL    HW123222   1.020   2.150   2.915  0.5646 -0.4622 -1.7436
 3920SOL    HW223223   0.883   2.192   2.939  0.3306 -1.3116  0.3834
 3921SOL     OW23224   3.911   2.293   1.934  0.1430  0.1005 -0.0917
 3921SOL    HW123225   3.956   2.210   1.917 -1.3821 -0.8748  0.6223
 3921SOL    HW223226   3.900   2.285   2.028 -0.5068 -1.8892 -0.3424
 3922SOL     OW23227   1.105   1.655  10.509  0.6549  0.2390  0.5319
 3922SOL    HW123228   1.077   1.693  10.426  0.4267 -2.1152 -0.4627
 3922SOL    HW223229   1.176   1.712  10.538  0.5170  0.9558 -0.5260
 3923SOL     OW23230   1.561   3.502   0.004  0.0193  0.3732  0.3856
 3923SOL    HW123231   1.614   3.425   0.024 -0.4046 -0.1901 -0.6493
 3923SOL    HW223232   1.473   3.466   0.015 -0.0305  0.7137  1.1030
 3924SOL     OW23233   2.892   4.702  13.034 -0.5690 -0.2928 -0.5359
 3924SOL    HW123234   2.908   4.615  13.070 -1.4696  0.2385  1.1136
 3924SOL    HW223235   2.812   4.689  12.984 -0.3592 -2.6486 -0.2450
 3925SOL     OW23236   0.872   3.745  14.356  0.0741 -0.2970  0.1068
 3925SOL    HW123237   0.948   3.781  14.311  1.4347 -2.1537  0.9175
 3925SOL    HW223238   0.907   3.753  14.445  1.2086  1.9045 -0.5492
 3926SOL     OW23239   0.037   4.329   8.912  0.4782 -0.0365  0.5732
 3926SOL    HW123240   4.683   4.333   8.857  1.8552  0.4507 -1.3270
 3926SOL    HW223241   0.059   4.422   8.910 -0.1442  0.0928 -0.0784
 3927SOL     OW23242   1.174   1.743   4.730  0.4038 -0.2920  0.3540
 3927SOL    HW123243   1.126   1.780   4.804  1.1487  0.1039  0.6374
 3927SOL    HW223244   1.262   1.750   4.768  0.1675 -2.1021  1.2771
 3928SOL     OW23245   2.008   4.133   7.906 -0.3574  0.0688 -0.4855
 3928SOL    HW123246   1.944   4.186   7.860  0.8612  1.0298 -1.0570
 3928SOL    HW223247   2.003   4.051   7.857  2.8764 -0.8265  0.6439
 3929SOL     OW23248   1.454   1.853   2.957  0.1513  0.2921 -0.1101
 3929SOL    HW123249   1.432   1.919   2.891  0.2747 -0.3002 -0.7324
 3929SOL    HW223250   1.538   1.883   2.994  1.5313 -3.0226 -0.5905
 3930SOL     OW23251   3.714   3.149   5.883 -0.0000 -0.0811 -0.1397
 3930SOL    HW123252   3.630   3.104   5.876 -1.3695  2.3119  1.0160
 3930SOL    HW223253   3.704   3.224   5.824  0.8716  0.6544  0.6346
 3931SOL     OW23254   1.631   1.223   3.866  0.4027  0.3077  0.2110
 3931SOL    HW123255   1.675   1.151   3.822  0.3786  0.5096 -0.1395
 3931SOL    HW223256   1.563   1.240   3.801 -1.9078 -4.2326  1.3793
 3932SOL     OW23257   3.594   3.186   6.824  0.5074  0.2257 -0.0879
 3932SOL    HW123258   3.604   3.133   6.903  1.5488 -0.9647 -1.0050
 3932SOL    HW223259   3.513   3.148   6.789  0.3999  1.7289 -1.4668
 3933SOL     OW23260   2.125   2.316  10.840  0.4711  0.2289  0.8312
 3933SOL    HW123261   2.145   2.397  10.887 -1.0033  0.2898  1.3445
 3933SOL    HW223262   2.092   2.262  10.911 -0.7830 -1.0162 -0.6893
 3934SOL     OW23263   3.387   3.348   2.484  0.7601  0.1389 -0.2865
 3934SOL    HW123264   3.479   3.353   2.460  0.3271  0.4082 -1.8720
 3934SOL    HW223265   3.405   3.332   2.577 -0.9320 -0.3353 -0.0381
 3935SOL     OW23266   3.502   3.446   6.977 -0.0330  0.5051  0.6747
 3935SOL    HW123267   3.492   3.437   7.071 -1.0521 -0.7005  0.4606
 3935SOL    HW223268   3.522   3.356   6.952  1.4459  0.8963  0.4280
 3936SOL     OW23269   1.510   0.571   3.599  0.2048 -0.7522  0.7861
 3936SOL    HW123270   1.519   0.666   3.592  3.0307 -1.1340 -0.8274
 3936SOL    HW223271   1.494   0.556   3.692 -2.6317  1.4247  0.6548
 3937SOL     OW23272   4.172   0.364  13.933  0.1204 -0.5303 -0.3749
 3937SOL    HW123273   4.137   0.275  13.932 -1.7763  0.2375 -1.3717
 3937SOL    HW223274   4.096   0.418  13.953  1.6983  0.7274  2.1843
 3938SOL     OW23275   3.651   3.322   5.680 -0.1511  0.4740 -0.0505
 3938SOL    HW123276   3.650   3.232   5.646  0.8001 -0.5333  2.5859
 3938SOL    HW223277   3.560   3.343   5.661 -0.4231 -3.0170 -2.6671
 3939SOL     OW23278   2.118   1.601   8.347 -0.2985 -0.2360  0.3978
 3939SOL    HW123279   2.191   1.639   8.298 -0.1804  0.7441  1.3473
 3939SOL    HW223280   2.140   1.507   8.346  2.0091  0.2997 -0.2050
 3940SOL     OW23281   1.780   4.545   8.374  0.2277 -0.2593  0.4489
 3940SOL    HW123282   1.815   4.485   8.439  0.6011 -0.0073  0.4764
 3940SOL    HW223283   1.829   4.520   8.295  1.8264  2.6917  0.5108
 3941SOL     OW23284   3.895   3.588  17.474  0.6700 -0.3436 -0.3621
 3941SOL    HW123285   3.909   3.575  17.380  2.0094  2.7754 -0.5590
 3941SOL    HW223286   3.799   3.581  17.482  0.7029  0.7496  0.8710
 3942SOL     OW23287   2.431   0.674  13.920  0.2393 -0.1415  0.0226
 3942SOL    HW123288   2.350   0.626  13.938  0.1803  1.0092  2.7859
 3942SOL    HW223289   2.470   0.667  14.008  1.8391  1.1731 -0.5911
 3943SOL     OW23290   2.009   3.296  11.952 -0.1037  0.5800  0.4301
 3943SOL    HW123291   1.936   3.246  11.989  1.0180 -0.5086  1.2032
 3943SOL    HW223292   1.995   3.261  11.864  1.0569  0.7800  0.1687
 3944SOL     OW23293   1.608   2.801   8.937  0.0088 -0.4871 -0.5252
 3944SOL    HW123294   1.702   2.787   8.927  0.3342 -1.2576  3.4204
 3944SOL    HW223295   1.583   2.837   8.852 -0.8802 -0.7448 -0.3795
 3945SOL     OW23296   2.370   0.033   7.214 -0.4059  0.1087 -0.2674
 3945SOL    HW123297   2.353   0.059   7.305  2.5469  0.5690  0.1356
 3945SOL    HW223298   2.391   0.118   7.176 -0.2326  0.4416  0.5827
 3946SOL     OW23299   1.079   1.486   9.392  0.0375 -0.0677 -0.5786
 3946SOL    HW123300   1.161   1.491   9.441  2.0330 -2.0156 -3.6966
 3946SOL    HW223301   1.020   1.491   9.467  0.8542 -4.3411  0.3653
 3947SOL     OW23302   0.274   0.093   6.879 -0.0255  0.1699  0.1578
 3947SOL    HW123303   0.263   0.136   6.794  1.1313  0.0853 -0.0428
 3947SOL    HW223304   0.367   0.113   6.890 -0.2287  0.1765  1.7464
 3948SOL     OW23305   0.261   1.564   7.869  0.0787 -0.0641  0.1320
 3948SOL    HW123306   0.298   1.515   7.942 -1.6463 -2.3339 -0.5307
 3948SOL    HW223307   0.340   1.610   7.839 -0.1335  0.3955  0.2680
 3949SOL     OW23308   1.001   0.867   8.270 -0.3850  0.3021  0.0985
 3949SOL    HW123309   1.031   0.873   8.360 -0.3099 -0.3076  0.1154
 3949SOL    HW223310   0.950   0.786   8.263  1.9374 -1.4701  3.8981
 3950SOL     OW23311   1.865   2.122   1.395 -0.2895  0.0456 -0.2857
 3950SOL    HW123312   1.817   2.199   1.426 -0.4263 -0.2947  0.3463
 3950SOL    HW223313   1.919   2.101   1.471 -0.1107 -0.3565 -0.5268
 3951SOL     OW23314   1.612   4.419   2.030 -0.3567 -0.5397 -0.1497
 3951SOL    HW123315   1.592   4.453   2.117  0.6662 -2.4792  0.8638
 3951SOL    HW223316   1.525   4.385   2.010 -0.6499 -0.7519  1.5041
 3952SOL     OW23317   2.248   2.192   2.887  0.8266  0.0876  0.6164
 3952SOL    HW123318   2.323   2.153   2.932 -0.6485 -2.4245  0.8583
 3952SOL    HW223319   2.172   2.169   2.940  0.2440  1.2531  0.2815
 3953SOL     OW23320   1.322   0.160   1.889 -0.1208  0.5142 -0.3376
 3953SOL    HW123321   1.279   0.111   1.959 -0.0850  0.8123 -0.1075
 3953SOL    HW223322   1.361   0.226   1.947  0.7407 -0.1569 -0.1537
 3954SOL     OW23323   4.345   1.462   1.666 -0.2408  0.1936 -0.2576
 3954SOL    HW123324   4.356   1.408   1.588  2.0269  2.9076 -1.8304
 3954SOL    HW223325   4.438   1.476   1.683 -0.7205 -0.1529  2.7052
 3955SOL     OW23326   4.129   3.535   4.861 -0.0917  0.0005  0.3494
 3955SOL    HW123327   4.048   3.554   4.814  2.0376  0.9968 -2.9555
 3955SOL    HW223328   4.120   3.445   4.893 -0.9315 -1.0465 -2.8510
 3956SOL     OW23329   1.058   0.013   5.346 -0.0781  0.9731  0.7585
 3956SOL    HW123330   1.107   0.075   5.400  1.9111  0.2736 -0.2493
 3956SOL    HW223331   1.119   4.663   5.350  3.4117  3.8966  1.5076
 3957SOL     OW23332   2.002   0.059   1.470  0.0927  0.6249  0.7500
 3957SOL    HW123333   1.909   0.051   1.449  1.1965 -2.8654 -2.7835
 3957SOL    HW223334   2.007   0.001   1.546 -1.0452 -1.3223 -0.6695
 3958SOL     OW23335   4.158   3.563   8.396  0.3366 -0.1002  0.1485
 3958SOL    HW123336   4.084   3.549   8.455  1.0488 -1.1643  0.7724
 3958SOL    HW223337   4.226   3.537   8.458 -0.8753  1.2143  2.0180
 3959SOL     OW23338   3.277   3.675   3.075 -0.2982  0.3003 -0.2861
 3959SOL    HW123339   3.355   3.719   3.040 -1.0038  1.6336 -0.1729
 3959SOL    HW223340   3.227   3.665   2.994  0.1974  1.2680 -0.7063
 3960SOL     OW23341   3.353   3.821   0.842  0.0617  0.1937 -0.1986
 3960SOL    HW123342   3.390   3.733   0.852 -0.8034 -0.3515 -1.7752
 3960SOL    HW223343   3.358   3.846   0.934 -1.5205 -0.1135 -0.0276
 3961SOL     OW23344   3.502   1.300   2.081 -0.6032 -0.1958 -0.2524
 3961SOL    HW123345   3.424   1.270   2.127 -1.2734 -0.7484 -1.7893
 3961SOL    HW223346   3.464   1.344   2.006 -1.4051 -1.9894 -0.8855
 3962SOL     OW23347   1.205   0.954   6.920  0.4538  0.4879 -0.1452
 3962SOL    HW123348   1.270   0.976   6.853 -0.9062  0.9067 -1.3323
 3962SOL    HW223349   1.154   1.033   6.939 -2.3866 -1.5313  0.7121
 3963SOL     OW23350   1.850   1.341   7.628  0.1372  0.3875 -0.4251
 3963SOL    HW123351   1.882   1.251   7.636  0.9618  0.7793  0.6804
 3963SOL    HW223352   1.787   1.334   7.556  0.9698  0.1712 -1.1252
 3964SOL     OW23353   2.240   3.706   4.968  0.6304  0.4043  0.7435
 3964SOL    HW123354   2.287   3.772   5.020  1.1050 -0.1043  0.9543
 3964SOL    HW223355   2.160   3.694   5.019  0.1154 -1.2104 -0.4683
 3965SOL     OW23356   2.327   3.773  15.660 -0.4954 -0.0405 -0.4115
 3965SOL    HW123357   2.236   3.791  15.682 -0.3962 -0.9390  0.7725
 3965SOL    HW223358   2.312   3.714  15.587 -0.6869 -2.8285  1.9039
 3966SOL     OW23359   2.381   3.238   3.478 -0.1955  0.1176  0.2132
 3966SOL    HW123360   2.374   3.204   3.567  0.5890 -2.3148 -0.6546
 3966SOL    HW223361   2.300   3.208   3.436 -1.3005  3.9954 -0.4173
 3967SOL     OW23362   0.214   2.566   7.284  0.2907  0.0528  0.4424
 3967SOL    HW123363   0.140   2.606   7.331 -0.4523  0.9053 -1.4582
 3967SOL    HW223364   0.273   2.555   7.359  0.4349  3.9270  0.8834
 3968SOL     OW23365   3.179   0.026  15.473 -0.4403 -0.5577 -0.4582
 3968SOL    HW123366   3.105   0.080  15.446 -1.6792 -1.4750  1.1516
 3968SOL    HW223367   3.129   4.683  15.520  0.8850 -0.7115  0.7419
 3969SOL     OW23368   0.530   2.248  12.432  0.1789 -0.0402  0.0959
 3969SOL    HW123369   0.518   2.244  12.527 -0.4347  1.1189  0.0647
 3969SOL    HW223370   0.560   2.337  12.413  0.9621 -0.5310 -0.9942
 3970SOL     OW23371   2.545   0.204   4.943 -0.7909  0.5602 -0.8987
 3970SOL    HW123372   2.632   0.188   4.908 -1.6017  1.4629 -3.2701
 3970SOL    HW223373   2.565   0.206   5.037  0.6358  0.5006 -1.2151
 3971SOL     OW23374   3.032   1.548   8.540  0.1749  0.3135 -0.3438
 3971SOL    HW123375   3.058   1.467   8.496 -0.2836  0.0478 -0.1218
 3971SOL    HW223376   2.949   1.518   8.578  1.0110 -0.9103  0.5313
 3972SOL     OW23377   4.684   1.425   1.012  0.0423 -0.0764  0.1369
 3972SOL    HW123378   0.048   1.388   1.026  1.6529  2.9883 -1.6245
 3972SOL    HW223379   4.698   1.480   0.934 -0.3034 -0.1493  0.0249
 3973SOL     OW23380   2.539   3.572   9.676 -0.0360 -0.0098 -0.1217
 3973SOL    HW123381   2.536   3.559   9.581  3.5874  0.5346 -0.3235
 3973SOL    HW223382   2.560   3.484   9.708  0.3109  0.0909 -0.0697
 3974SOL     OW23383   4.266   4.525   8.227  0.3519 -0.6936  0.3087
 3974SOL    HW123384   4.284   4.505   8.135  1.6020 -3.1544  1.1027
 3974SOL    HW223385   4.173   4.507   8.239 -0.0146  0.1964 -1.1838
 3975SOL     OW23386   1.976   1.299   1.590 -0.2022 -0.1241  0.2125
 3975SOL    HW123387   2.025   1.226   1.628  0.0699  0.2872  0.6544
 3975SOL    HW223388   1.981   1.288   1.495  1.6019 -2.5246  0.5648
 3976SOL     OW23389   3.637   1.565   4.705  0.0978 -0.2097 -0.5699
 3976SOL    HW123390   3.619   1.627   4.634  2.8554  1.3590  0.1090
 3976SOL    HW223391   3.653   1.620   4.782  1.2997 -0.2404 -0.7982
 3977SOL     OW23392   2.258   4.412  11.755 -0.0479 -0.3195  0.0866
 3977SOL    HW123393   2.239   4.379  11.667  1.0387  1.7426 -0.9278
 3977SOL    HW223394   2.350   4.433  11.740  0.0196 -1.3289 -0.9434
 3978SOL     OW23395   3.788   3.898   7.461  0.1049  0.4567 -0.1962
 3978SOL    HW123396   3.783   3.971   7.399  2.3138  1.4124  0.7651
 3978SOL    HW223397   3.821   3.942   7.539  0.1885  1.0963 -0.5928
 3979SOL     OW23398   0.072   3.349  12.742  0.4108  0.7455  0.1183
 3979SOL    HW123399   0.111   3.374  12.658 -1.3334 -0.1003 -0.9507
 3979SOL    HW223400   4.716   3.300  12.719  0.9949 -0.5899  0.9528
 3980SOL     OW23401   0.792   2.307   1.664 -0.1383 -0.5605  0.8210
 3980SOL    HW123402   0.764   2.219   1.689  1.1020 -1.4589 -0.9900
 3980SOL    HW223403   0.881   2.282   1.641  0.5362  1.5347  1.1659
 3981SOL     OW23404   3.772   1.884   9.528 -0.3007  0.8896 -0.2098
 3981SOL    HW123405   3.835   1.945   9.491 -1.6058  0.6636 -2.8504
 3981SOL    HW223406   3.757   1.823   9.455  4.1306  2.3322 -2.3174
 3982SOL     OW23407   2.764   1.045   5.948 -0.0039  0.6386  0.3140
 3982SOL    HW123408   2.806   1.125   5.981 -0.0350  0.8969 -0.2819
 3982SOL    HW223409   2.812   0.978   5.997  0.5931  0.2428 -0.8314
 3983SOL     OW23410   1.680   0.747  15.749 -0.1886 -0.0232 -0.1677
 3983SOL    HW123411   1.748   0.795  15.796  0.4227 -0.1186 -0.9684
 3983SOL    HW223412   1.685   0.670  15.805 -1.8815  0.0314  0.0642
 3984SOL     OW23413   1.192   3.008   2.004  0.0676  0.3783 -0.5191
 3984SOL    HW123414   1.102   3.012   2.037  0.2208 -2.6592  0.2972
 3984SOL    HW223415   1.179   2.930   1.951 -0.9742  0.3888 -0.2890
 3985SOL     OW23416   3.992   3.405   0.001 -0.2326 -0.1614 -0.9460
 3985SOL    HW123417   4.071   3.447   0.036 -2.3082  0.7028  2.7096
 3985SOL    HW223418   3.984   3.451  17.613 -1.9403 -0.4417 -0.9352
 3986SOL     OW23419   0.906   3.822   8.671  0.3958 -0.2355  0.0548
 3986SOL    HW123420   0.902   3.800   8.764 -0.7109 -0.5378 -0.0639
 3986SOL    HW223421   0.978   3.884   8.676  1.2330 -1.3301  1.4605
 3987SOL     OW23422   0.706   3.549   7.501 -0.1464  0.4856 -0.1741
 3987SOL    HW123423   0.776   3.520   7.560 -1.8146 -1.0848  1.0164
 3987SOL    HW223424   0.671   3.623   7.551 -2.6465 -0.1407 -1.0430
 3988SOL     OW23425   2.207   2.372  13.879 -0.5621 -0.2752 -0.1564
 3988SOL    HW123426   2.265   2.297  13.894  0.6121  0.7961  0.6917
 3988SOL    HW223427   2.282   2.431  13.875  0.1250 -1.0853  0.8167
 3989SOL     OW23428   4.347   0.891   3.907 -0.1111  0.2755  0.5374
 3989SOL    HW123429   4.272   0.946   3.883 -0.3535 -0.2149  0.1717
 3989SOL    HW223430   4.301   0.821   3.954  0.6925 -0.2354  0.5588
 3990SOL     OW23431   4.096   2.443  13.018 -0.3892 -0.0128 -0.0614
 3990SOL    HW123432   4.052   2.412  12.939 -2.7407  1.6385  0.6173
 3990SOL    HW223433   4.156   2.370  13.036 -1.7323 -0.8696  0.9723
 3991SOL     OW23434   0.617   3.909   8.647  0.2972  0.4976 -0.4446
 3991SOL    HW123435   0.651   3.990   8.611  0.6185 -0.1525 -1.5951
 3991SOL    HW223436   0.694   3.875   8.693  0.2106 -0.6778 -1.1750
 3992SOL     OW23437   1.438   4.554  16.102 -0.1229  0.0628  0.1987
 3992SOL    HW123438   1.482   4.607  16.035  3.2356 -0.7564  1.7476
 3992SOL    HW223439   1.369   4.522  16.044  1.5069  0.0769 -1.7515
 3993SOL     OW23440   4.266   0.665   4.164 -0.7081 -0.8530 -0.4556
 3993SOL    HW123441   4.225   0.745   4.131 -1.1889 -0.6183  0.7174
 3993SOL    HW223442   4.228   0.591   4.116 -0.6208 -1.2908  0.1484
 3994SOL     OW23443   2.850   3.355  15.746 -0.3295 -0.0827  0.0456
 3994SOL    HW123444   2.858   3.259  15.745  0.5401 -0.0242  1.3548
 3994SOL    HW223445   2.937   3.393  15.743 -0.3269 -0.0312  0.7829
 3995SOL     OW23446   3.631   3.843   8.249 -0.0900  0.2464  0.0159
 3995SOL    HW123447   3.702   3.881   8.301  1.4318  1.3931 -2.9418
 3995SOL    HW223448   3.554   3.882   8.291 -0.8103 -1.0650 -0.0895
 3996SOL     OW23449   2.111   3.810   7.084 -0.2734 -0.7148 -0.4061
 3996SOL    HW123450   2.142   3.875   7.021 -0.2284  0.3243  0.6788
 3996SOL    HW223451   2.018   3.830   7.095 -0.4578 -1.6586 -0.2869
 3997SOL     OW23452   1.458   0.990   5.863  0.0612  0.3999 -0.2460
 3997SOL    HW123453   1.471   1.065   5.922 -2.0123  1.8575 -1.6427
 3997SOL    HW223454   1.545   0.950   5.858 -1.1137 -2.0251 -0.8384
 3998SOL     OW23455   0.927   2.575   7.110 -0.1990 -0.1453 -0.4528
 3998SOL    HW123456   0.927   2.527   7.028 -0.8293 -0.3979 -0.3037
 3998SOL    HW223457   0.892   2.505   7.165  1.0669  0.1770  0.7442
 3999SOL     OW23458   1.554   4.148   6.365  0.2275 -0.3692 -0.9204
 3999SOL    HW123459   1.544   4.133   6.271  0.3092  0.2024 -1.0175
 3999SOL    HW223460   1.480   4.097   6.398  0.2742  0.2040  0.0932
 4000SOL     OW23461   2.203   3.490   8.204 -0.0556  0.0559 -0.0349
 4000SOL    HW123462   2.282   3.514   8.155 -0.0048  0.0146  0.0258
 4000SOL    HW223463   2.128   3.504   8.146 -1.7818 -2.7994  1.5172
 4001SOL     OW23464   2.975   1.274   2.159 -0.6657 -0.4879 -0.2065
 4001SOL    HW123465   2.889   1.233   2.156 -0.5487 -0.7190 -0.4029
 4001SOL    HW223466   2.992   1.282   2.065  3.8467 -4.0091  0.3161
 4002SOL     OW23467   3.176   3.288   5.617 -0.2679  0.0836  0.0598
 4002SOL    HW123468   3.104   3.345   5.642  0.5789  1.2578 -0.1525
 4002SOL    HW223469   3.197   3.239   5.696  1.5449  2.8741  1.3188
 4003SOL     OW23470   3.986   0.826   3.088  0.1667  0.2901  0.2434
 4003SOL    HW123471   3.969   0.780   3.170  1.7635 -3.4526 -1.5683
 4003SOL    HW223472   4.020   0.752   3.039  2.1322  2.6323 -1.9696
 4004SOL     OW23473   1.925   1.408   0.438 -0.2113 -0.5625 -0.0791
 4004SOL    HW123474   1.935   1.464   0.515 -1.2377 -1.8226  0.9483
 4004SOL    HW223475   1.974   1.456   0.370 -0.5768  2.6590  1.9271
 4005SOL     OW23476   2.506   0.548   5.651  0.1035 -0.2974 -0.0536
 4005SOL    HW123477   2.516   0.456   5.625 -0.3285 -0.4214  0.2314
 4005SOL    HW223478   2.444   0.579   5.586  0.0164  1.9197  1.1064
 4006SOL     OW23479   2.079   4.277   2.564  0.6078  0.9201  0.0721
 4006SOL    HW123480   2.125   4.355   2.594  0.9835  1.8546 -2.9116
 4006SOL    HW223481   2.152   4.219   2.542  0.3104  1.1459 -1.5285
 4007SOL     OW23482   1.120   0.488   2.626 -0.5245 -0.1555 -0.0575
 4007SOL    HW123483   1.042   0.434   2.639 -1.1270  1.2359  2.0274
 4007SOL    HW223484   1.167   0.456   2.704  0.6269 -0.1872 -0.7672
 4008SOL     OW23485   1.649   4.682   9.227  0.0402 -0.5189 -0.2510
 4008SOL    HW123486   1.712   0.030   9.232  0.8851 -1.2158 -0.9035
 4008SOL    HW223487   1.590   4.706   9.155 -0.3092  0.5024  0.3786
 4009SOL     OW23488   3.208   2.560  14.580 -0.5178 -0.1614  0.5543
 4009SOL    HW123489   3.288   2.561  14.632 -0.2441 -1.4224  0.1548
 4009SOL    HW223490   3.243   2.543  14.493 -1.3217  0.9659  0.0013
 4010SOL     OW23491   0.286   0.630  10.511  0.8297 -0.0677 -0.0035
 4010SOL    HW123492   0.242   0.644  10.595  3.1890  2.2036  0.8622
 4010SOL    HW223493   0.239   0.703  10.472 -0.4269 -1.3465 -0.8627
 4011SOL     OW23494   4.262   1.532   7.484  0.9935 -0.0319 -0.4109
 4011SOL    HW123495   4.329   1.597   7.463  1.9371 -0.3708  1.5700
 4011SOL    HW223496   4.322   1.466   7.520 -0.9068 -1.4054  0.2087
 4012SOL     OW23497   2.837   3.886   5.413  0.0630 -0.1568  1.2147
 4012SOL    HW123498   2.828   3.965   5.466 -1.8251  0.2723  0.2542
 4012SOL    HW223499   2.923   3.849   5.436  0.3445 -1.9458 -2.6838
 4013SOL     OW23500   2.823   3.586  15.426 -0.3029 -0.4109  0.7723
 4013SOL    HW123501   2.806   3.516  15.363  1.2759 -2.0725  2.1908
 4013SOL    HW223502   2.870   3.652  15.374 -1.3652 -3.2020 -3.7424
 4014SOL     OW23503   0.204   0.001   2.014 -0.3598  0.2758 -0.0994
 4014SOL    HW123504   0.294   4.720   2.046 -0.2937 -0.1557 -0.3449
 4014SOL    HW223505   0.220   4.701   1.923 -1.1908 -0.2961 -0.1042
 4015SOL     OW23506   2.157   1.259   2.196 -0.5032 -0.1969  0.0511
 4015SOL    HW123507   2.151   1.168   2.226  0.3486 -0.3370 -0.2106
 4015SOL    HW223508   2.089   1.259   2.129  0.6558  1.4993 -1.1425
 4016SOL     OW23509   2.359   1.283   6.637 -0.1937 -0.0293 -0.1026
 4016SOL    HW123510   2.370   1.361   6.691 -0.5921 -1.0711  1.4755
 4016SOL    HW223511   2.291   1.242   6.690 -0.7370 -0.6615 -1.2774
 4017SOL     OW23512   1.731   1.719  12.994  0.4994 -0.2492 -0.0592
 4017SOL    HW123513   1.823   1.744  12.995  0.6367 -0.8332  1.5733
 4017SOL    HW223514   1.684   1.771  12.929  0.3616  0.4059  0.5678
 4018SOL     OW23515   2.791   1.376   3.984 -0.2608  0.2482 -0.4885
 4018SOL    HW123516   2.759   1.455   3.939  0.2942  0.7355 -0.0365
 4018SOL    HW223517   2.795   1.313   3.912 -1.7918 -0.7663  0.3174
 4019SOL     OW23518   3.164   4.593   4.553 -0.2391  0.4954 -0.1867
 4019SOL    HW123519   3.152   4.687   4.567  0.2972  0.0686  3.0849
 4019SOL    HW223520   3.205   4.567   4.636 -1.5020  1.7491  0.8229
 4020SOL     OW23521   0.368   1.872   2.893 -0.4406  0.2255  0.2413
 4020SOL    HW123522   0.275   1.889   2.880 -0.6358 -1.1843 -0.2547
 4020SOL    HW223523   0.384   1.809   2.822 -1.2744  1.1731 -0.7727
 4021SOL     OW23524   0.797   0.673   7.841  0.1242 -0.6711  0.2254
 4021SOL    HW123525   0.702   0.681   7.854  0.0681  0.8047 -1.0717
 4021SOL    HW223526   0.828   0.764   7.848 -0.6072 -0.3279 -0.9716
 4022SOL     OW23527   1.053   0.372   6.462 -0.1791  0.3106  0.1053
 4022SOL    HW123528   1.058   0.441   6.529 -1.4927 -0.7279  1.2757
 4022SOL    HW223529   1.017   0.302   6.517  0.9739  0.5440  1.1580
 4023SOL     OW23530   4.353   3.727   6.543  0.5895 -0.0955  0.1429
 4023SOL    HW123531   4.261   3.752   6.532  0.7964  1.7272  2.5448
 4023SOL    HW223532   4.396   3.807   6.512 -0.5508  1.3639  2.3000
 4024SOL     OW23533   1.913   4.504  11.154 -0.2616  0.0593 -0.4361
 4024SOL    HW123534   1.897   4.593  11.184  0.9809  0.5196 -1.1148
 4024SOL    HW223535   1.940   4.447  11.226  1.4575  2.4814  0.8479
 4025SOL     OW23536   3.174   1.557  13.242  0.0821 -0.0862 -0.3281
 4025SOL    HW123537   3.156   1.523  13.155 -3.7489  0.3559  0.2927
 4025SOL    HW223538   3.133   1.642  13.228 -1.9296 -0.4521  3.2810
 4026SOL     OW23539   3.375   1.492  14.038 -0.2025  0.4556 -0.1241
 4026SOL    HW123540   3.408   1.552  14.106  0.4174  0.3509 -0.3273
 4026SOL    HW223541   3.434   1.524  13.969  1.1154  0.5609  1.0389
 4027SOL     OW23542   2.726   0.956   9.455  0.0696  0.4185 -0.3633
 4027SOL    HW123543   2.733   0.921   9.544 -1.4595  2.3447  0.5002
 4027SOL    HW223544   2.704   1.045   9.480 -0.9798  0.3465 -1.0243
 4028SOL     OW23545   2.635   3.477  15.573 -0.0223 -0.1901  0.2025
 4028SOL    HW123546   2.701   3.525  15.523  0.4358  0.3206  1.2979
 4028SOL    HW223547   2.582   3.447  15.500  0.7236 -1.7001  0.2787
 4029SOL     OW23548   2.922   0.076   2.615 -0.0999  0.7597  0.1165
 4029SOL    HW123549   2.878   0.072   2.530  1.8271  1.1274 -0.8968
 4029SOL    HW223550   3.000   0.121   2.582 -0.9542  2.0902 -0.0905
 4030SOL     OW23551   0.731   1.801   1.623 -0.2488  0.6511  0.3277
 4030SOL    HW123552   0.638   1.787   1.641  0.5164 -1.3024  2.7914
 4030SOL    HW223553   0.748   1.714   1.587  1.0034  0.4976  1.2884
 4031SOL     OW23554   3.798   0.097   4.829  0.0102  0.1492 -0.3549
 4031SOL    HW123555   3.706   0.073   4.841 -0.0507 -0.5061 -2.0967
 4031SOL    HW223556   3.828   0.096   4.920 -1.5386 -0.4356  0.1332
 4032SOL     OW23557   2.384   1.855   7.008  0.5228 -0.0207  0.1525
 4032SOL    HW123558   2.383   1.854   7.103  3.3078  0.5984  0.1958
 4032SOL    HW223559   2.368   1.948   6.989  2.1113  0.1995 -0.1175
 4033SOL     OW23560   1.616   4.409  11.569 -0.4841 -0.1439 -0.5273
 4033SOL    HW123561   1.613   4.478  11.635  1.3044 -0.9600  0.4094
 4033SOL    HW223562   1.693   4.364  11.604 -0.4087  1.0876  0.8979
 4034SOL     OW23563   0.845   0.907   8.950 -0.1111  0.0464 -0.4595
 4034SOL    HW123564   0.894   0.969   9.003 -1.0437  0.6716 -0.3272
 4034SOL    HW223565   0.756   0.939   8.968 -0.6598 -2.1427  0.7100
 4035SOL     OW23566   0.636   1.898   3.043 -0.5660  0.4605 -0.3215
 4035SOL    HW123567   0.566   1.865   2.987 -0.0659  1.5811 -1.6242
 4035SOL    HW223568   0.711   1.899   2.983 -0.6312  1.8581 -0.3815
 4036SOL     OW23569   2.578   1.924   7.229 -0.2137 -0.6832  0.2154
 4036SOL    HW123570   2.554   2.015   7.212 -1.9170 -0.7483  2.3134
 4036SOL    HW223571   2.493   1.893   7.260 -0.5028 -1.5139 -1.3798
 4037SOL     OW23572   2.290   4.273   3.310 -0.4516  0.1493 -0.1149
 4037SOL    HW123573   2.351   4.216   3.356  1.7244 -0.0478 -3.1875
 4037SOL    HW223574   2.351   4.341   3.282  0.5563 -1.6146 -2.2410
 4038SOL     OW23575   3.027   0.347   4.357 -0.3377  0.3062  0.3101
 4038SOL    HW123576   3.022   0.335   4.262  0.3290  0.4319  0.2610
 4038SOL    HW223577   3.025   0.442   4.366  0.3389  0.2598  0.9833
 4039SOL     OW23578   3.230   4.356  13.350 -0.4077 -0.3356 -0.1276
 4039SOL    HW123579   3.230   4.327  13.259  2.5536  0.3950 -0.3646
 4039SOL    HW223580   3.293   4.427  13.337 -2.3657  1.2483 -0.8649
 4040SOL     OW23581   3.213   0.395   8.743  0.2735  0.4029 -0.2452
 4040SOL    HW123582   3.221   0.312   8.790 -0.6853  0.2482 -0.3529
 4040SOL    HW223583   3.254   0.456   8.803  0.2121  1.5342 -1.3416
 4041SOL     OW23584   1.637   4.693   1.913 -0.1445  1.2025 -0.2674
 4041SOL    HW123585   1.680   4.613   1.943 -0.5728  1.2973  0.6034
 4041SOL    HW223586   1.692   0.037   1.955  2.1110  1.6406 -3.9792
 4042SOL     OW23587   4.528   2.853  16.310  0.0257  0.2332 -0.8218
 4042SOL    HW123588   4.544   2.780  16.250  0.7149 -1.0911  0.9759
 4042SOL    HW223589   4.604   2.844  16.368 -0.6264 -1.2260 -0.1841
 4043SOL     OW23590   4.544   3.657   8.338 -0.9270 -0.2311 -0.7501
 4043SOL    HW123591   4.527   3.637   8.430 -0.0157  0.2287 -0.4741
 4043SOL    HW223592   4.594   3.739   8.342  0.7905 -1.4666  3.1950
 4044SOL     OW23593   3.483   4.481   2.597 -0.5561 -0.8832  0.3228
 4044SOL    HW123594   3.444   4.394   2.606  0.1338 -1.0588  1.6739
 4044SOL    HW223595   3.560   4.467   2.542 -0.1032  1.4056  0.3659
 4045SOL     OW23596   0.844   0.962  12.069  0.2685 -0.3579  0.2811
 4045SOL    HW123597   0.864   1.006  12.152  0.8301 -0.8177  0.3793
 4045SOL    HW223598   0.917   0.986  12.012 -0.1073 -1.3433 -0.6122
 4046SOL     OW23599   0.885   2.824  17.052 -0.3405 -0.0380 -0.4817
 4046SOL    HW123600   0.894   2.914  17.082 -1.7238 -0.1073  0.1642
 4046SOL    HW223601   0.934   2.824  16.970 -2.2069 -0.6687 -1.6039
 4047SOL     OW23602   0.702   1.757   2.330  1.1549 -0.8466  0.0553
 4047SOL    HW123603   0.628   1.703   2.302 -0.8981  1.7591  0.5175
 4047SOL    HW223604   0.770   1.719   2.274  1.1783 -1.3870  0.4435
 4048SOL     OW23605   4.099   0.755  12.707  0.2300  0.4071 -0.1412
 4048SOL    HW123606   4.126   0.846  12.724  0.9553  0.2318 -0.3394
 4048SOL    HW223607   4.053   0.766  12.624  0.6332  0.1290 -0.4013
 4049SOL     OW23608   1.789   4.302   7.649 -0.2866  0.2528  0.0625
 4049SOL    HW123609   1.862   4.311   7.587  0.8252 -0.4035  1.2770
 4049SOL    HW223610   1.800   4.388   7.689  3.3613 -0.8197  1.2989
 4050SOL     OW23611   0.158   3.577  14.753  0.4154  0.4717  0.5581
 4050SOL    HW123612   0.183   3.633  14.826  1.9770  0.2334  0.2262
 4050SOL    HW223613   0.064   3.592  14.753  0.6522  2.0253  0.1578
 4051SOL     OW23614   1.803   1.347   5.311  0.7314  0.1482  0.3544
 4051SOL    HW123615   1.727   1.331   5.254  1.7837  0.4408 -1.1410
 4051SOL    HW223616   1.874   1.330   5.249 -0.6763 -1.2483 -0.8774
 4052SOL     OW23617   2.913   4.640  17.464 -0.2306 -0.1178 -0.2526
 4052SOL    HW123618   2.957   4.557  17.445  0.6653 -0.3185  2.6836
 4052SOL    HW223619   2.952   4.654  17.551  0.9332 -1.5885 -0.5372
 4053SOL     OW23620   1.887   2.291   7.840 -0.2694 -0.3215 -0.0403
 4053SOL    HW123621   1.969   2.262   7.800  0.7539  0.3711  1.5707
 4053SOL    HW223622   1.911   2.293   7.932 -0.7733  1.2645  0.0578
 4054SOL     OW23623   2.978   2.445   8.859 -0.2251 -0.9739 -0.5156
 4054SOL    HW123624   2.997   2.537   8.876 -1.1413 -0.8534 -0.1210
 4054SOL    HW223625   3.031   2.439   8.780  0.8612  2.5706 -0.0176
 4055SOL     OW23626   2.098   3.072   1.918  0.1095  0.2347  0.5724
 4055SOL    HW123627   2.172   3.078   1.857 -0.7849 -2.3200 -0.7282
 4055SOL    HW223628   2.148   3.006   1.966 -1.0589 -0.0858  1.3461
 4056SOL     OW23629   0.823   0.839   3.207  0.0632  0.7264 -0.1996
 4056SOL    HW123630   0.796   0.927   3.180 -0.6805  0.3176 -0.7621
 4056SOL    HW223631   0.760   0.816   3.275  1.1871  2.1976  1.3401
 4057SOL     OW23632   2.359   2.954  11.290  0.5540  0.1807 -0.3785
 4057SOL    HW123633   2.448   2.978  11.265  0.7518  1.2840  1.4639
 4057SOL    HW223634   2.362   2.969  11.384 -0.4038 -0.4597 -0.2518
 4058SOL     OW23635   4.567   0.566   0.516  0.2229  0.1251 -0.1136
 4058SOL    HW123636   4.533   0.625   0.583 -0.4000 -0.1106 -0.2275
 4058SOL    HW223637   4.657   0.573   0.549  1.1181 -3.3491 -1.8715
 4059SOL     OW23638   4.680   0.611   5.708  0.2448 -0.3964  0.7428
 4059SOL    HW123639   4.604   0.612   5.649  2.3465  2.4830 -1.9698
 4059SOL    HW223640   4.681   0.517   5.727 -1.8073 -0.6731 -0.4550
 4060SOL     OW23641   1.256   3.486   3.914 -0.1358  0.2393  0.0310
 4060SOL    HW123642   1.243   3.478   3.820 -0.1475  0.9315 -0.0210
 4060SOL    HW223643   1.277   3.579   3.921  1.2207 -0.0900  0.3903
 4061SOL     OW23644   2.687   2.254  12.864 -0.0412  0.3341  0.5824
 4061SOL    HW123645   2.745   2.307  12.809 -0.2328  1.0440  1.0697
 4061SOL    HW223646   2.720   2.287  12.948  1.6971 -1.4847  0.6360
 4062SOL     OW23647   3.814   1.601   7.314  0.8836 -0.4067 -0.2035
 4062SOL    HW123648   3.907   1.620   7.328  0.2774  3.8524 -1.7880
 4062SOL    HW223649   3.797   1.604   7.408 -0.2468 -1.0245 -0.3912
 4063SOL     OW23650   0.479   0.708   7.198 -0.2127  0.2099  0.0997
 4063SOL    HW123651   0.566   0.674   7.178 -0.3779  0.8018 -1.6496
 4063SOL    HW223652   0.498   0.761   7.275  0.6934  0.0271  0.0096
 4064SOL     OW23653   4.171   3.100   4.254  0.2712  0.4103 -0.0754
 4064SOL    HW123654   4.249   3.043   4.254 -0.1089 -0.1035 -1.5598
 4064SOL    HW223655   4.194   3.173   4.312  1.0550 -0.3395  0.5646
 4065SOL     OW23656   1.220   0.106   3.895  0.4753  0.1615 -0.0078
 4065SOL    HW123657   1.220   0.016   3.862  0.4310 -0.2268  1.0657
 4065SOL    HW223658   1.155   0.102   3.965  2.1889  1.6548  1.6592
 4066SOL     OW23659   1.047   1.577  11.244  0.3784 -0.2738 -0.1573
 4066SOL    HW123660   1.104   1.568  11.321 -1.0736  0.6776  1.0395
 4066SOL    HW223661   0.960   1.561  11.281  0.6723 -2.1704 -0.3288
 4067SOL     OW23662   0.186   3.053   8.655 -0.0457  0.0785 -0.2811
 4067SOL    HW123663   0.134   3.086   8.582 -0.9014 -0.8485 -0.0894
 4067SOL    HW223664   0.141   2.971   8.678  1.1195 -0.2170  0.9720
 4068SOL     OW23665   0.994   0.048  10.162  0.5246  0.6536 -0.0314
 4068SOL    HW123666   0.957   0.133  10.137  0.4724  0.8815  0.8111
 4068SOL    HW223667   0.985   0.001  10.079 -0.2174  0.6391  0.0577
 4069SOL     OW23668   3.341   4.072   5.629 -0.0505  0.2848 -0.5613
 4069SOL    HW123669   3.401   4.138   5.665  0.6156 -0.5766 -0.1111
 4069SOL    HW223670   3.263   4.100   5.676 -0.3051 -0.3656 -0.6066
 4070SOL     OW23671   1.182   0.786  12.968 -0.3250  0.4279 -0.4658
 4070SOL    HW123672   1.241   0.806  13.041 -0.9232 -0.3435  0.2309
 4070SOL    HW223673   1.125   0.722  13.012  1.2537  1.3389  2.9307
 4071SOL     OW23674   1.355   4.052   3.081 -0.8719 -0.4001  0.2276
 4071SOL    HW123675   1.383   4.142   3.065 -0.4536 -0.4916  0.4442
 4071SOL    HW223676   1.291   4.061   3.152 -1.8477  3.9631 -1.2177
 4072SOL     OW23677   3.554   1.729   0.318 -0.4343 -0.0660 -0.0532
 4072SOL    HW123678   3.598   1.800   0.272  1.4273 -0.3637  1.2736
 4072SOL    HW223679   3.525   1.669   0.249 -2.5133 -0.2413  0.9666
 4073SOL     OW23680   1.732   3.786   2.800  0.4402  0.0142  0.2530
 4073SOL    HW123681   1.814   3.775   2.847  0.0164  3.3652  1.8105
 4073SOL    HW223682   1.757   3.870   2.761  0.5706  0.6651  1.7416
 4074SOL     OW23683   0.502   0.664   4.149 -0.3138  0.0174  0.7139
 4074SOL    HW123684   0.511   0.602   4.222 -0.1751 -2.2027 -1.1761
 4074SOL    HW223685   0.412   0.692   4.163 -0.2745 -0.1968  1.4305
 4075SOL     OW23686   2.923   4.331  15.646  0.2860 -0.4484 -0.7732
 4075SOL    HW123687   2.834   4.367  15.646  1.4711  2.4430  2.0872
 4075SOL    HW223688   2.909   4.242  15.681 -0.1901  0.0221  0.2527
 4076SOL     OW23689   3.277   2.589   3.740  0.8215 -0.5724  0.2040
 4076SOL    HW123690   3.349   2.642   3.706 -0.5146  0.8552 -0.3936
 4076SOL    HW223691   3.304   2.566   3.829  2.4770  0.5895  0.0043
 4077SOL     OW23692   3.498   1.501   0.115  0.6674 -0.1810 -0.6367
 4077SOL    HW123693   3.538   1.570   0.063  0.8531 -0.3323 -0.6930
 4077SOL    HW223694   3.565   1.434   0.100  0.3340 -0.4858 -0.7813
 4078SOL     OW23695   3.239   1.923   8.093 -0.1092 -0.1809  0.0943
 4078SOL    HW123696   3.168   1.858   8.091 -1.6577  1.5950 -3.0365
 4078SOL    HW223697   3.311   1.862   8.108  0.7905  0.1683 -2.7331
 4079SOL     OW23698   0.487   4.707   3.431  0.5626  0.1171  0.6900
 4079SOL    HW123699   0.581   4.698   3.414  0.6998  0.0950  1.4954
 4079SOL    HW223700   0.455   0.039   3.359  1.4304 -0.3322 -0.0491
 4080SOL     OW23701   4.196   0.953   5.948 -0.2727  0.1673 -0.1369
 4080SOL    HW123702   4.275   0.973   5.897 -1.1522  0.7261 -1.2918
 4080SOL    HW223703   4.218   0.989   6.033 -1.3764 -0.1557  0.2890
 4081SOL     OW23704   1.759   0.166   1.612 -0.1469  0.2378 -0.0847
 4081SOL    HW123705   1.742   0.242   1.557  1.5433 -0.4995 -1.6259
 4081SOL    HW223706   1.730   0.089   1.564 -0.8546  0.8555 -0.6533
 4082SOL     OW23707   1.639   1.276   7.110 -0.2052 -0.1951 -0.2833
 4082SOL    HW123708   1.652   1.369   7.132 -1.7534 -0.1208  0.3288
 4082SOL    HW223709   1.564   1.257   7.166 -1.4648  1.5188 -1.3949
 4083SOL     OW23710   2.854   1.913   9.157  0.6982  0.1875  0.4548
 4083SOL    HW123711   2.765   1.924   9.123  0.3962  0.2882  1.2663
 4083SOL    HW223712   2.908   1.964   9.098  0.1359  0.8053  0.4690
 4084SOL     OW23713   1.119   1.596   8.107 -0.0127 -0.4855  0.6944
 4084SOL    HW123714   1.136   1.506   8.134 -0.4594 -1.0185 -0.7636
 4084SOL    HW223715   1.115   1.634   8.195 -2.0263 -2.2217  1.3789
 4085SOL     OW23716   2.321   2.463   8.576  0.2672 -0.3825 -0.0626
 4085SOL    HW123717   2.374   2.502   8.646 -1.8652 -1.8947  2.3898
 4085SOL    HW223718   2.300   2.543   8.526  1.7078  0.2424  0.3366
 4086SOL     OW23719   4.723   2.831  10.450  0.1922  0.3023 -0.0760
 4086SOL    HW123720   4.656   2.797  10.391 -1.0623 -0.6169  1.9027
 4086SOL    HW223721   0.067   2.872  10.396  0.3753 -0.1039 -0.1560
 4087SOL     OW23722   2.050   3.721   4.114 -0.9675 -0.3149  0.5151
 4087SOL    HW123723   2.036   3.656   4.045  3.0592  2.4824 -2.9141
 4087SOL    HW223724   1.981   3.784   4.092  0.0569  0.6071 -0.0531
 4088SOL     OW23725   1.874   0.542  16.214  0.4964  0.1124 -0.3275
 4088SOL    HW123726   1.800   0.557  16.273  0.9453 -0.4673  0.3818
 4088SOL    HW223727   1.916   0.473  16.265 -0.3631 -1.9079 -2.3632
 4089SOL     OW23728   0.121   2.909   7.160  0.6827  0.2908  0.0521
 4089SOL    HW123729   0.215   2.904   7.146  0.6538  0.4824 -0.2065
 4089SOL    HW223730   0.094   2.819   7.143 -0.0733  0.3681  0.8491
 4090SOL     OW23731   2.918   4.674   8.965 -0.0363 -0.0676  0.9966
 4090SOL    HW123732   2.834   4.713   8.990 -1.0369 -0.8032 -1.2249
 4090SOL    HW223733   2.940   4.625   9.045 -0.1733  0.8485  1.5960
 4091SOL     OW23734   2.785   1.443   8.580  0.3152 -0.4110  0.2745
 4091SOL    HW123735   2.711   1.425   8.522 -0.3716  2.0141  0.3789
 4091SOL    HW223736   2.772   1.375   8.645  0.6625 -0.1802  0.5862
 4092SOL     OW23737   2.294   3.272   3.028 -0.4226 -0.7844  0.2181
 4092SOL    HW123738   2.348   3.214   2.974  1.3477  0.0207  1.1232
 4092SOL    HW223739   2.224   3.214   3.056 -0.4371  0.6665  3.1340
 4093SOL     OW23740   1.339   1.410   6.680  0.2716  0.2781  0.5158
 4093SOL    HW123741   1.272   1.459   6.728 -0.0939  1.4929 -1.2182
 4093SOL    HW223742   1.340   1.474   6.609  2.5438 -1.7863 -1.3004
 4094SOL     OW23743   3.882   0.653   0.261  0.4154  0.3812  0.1213
 4094SOL    HW123744   3.809   0.658   0.199  0.3525 -0.0854  0.1544
 4094SOL    HW223745   3.914   0.564   0.244 -1.4127 -0.3995  0.7035
 4095SOL     OW23746   4.081   0.561   7.586  0.0629 -0.4878  0.1642
 4095SOL    HW123747   4.071   0.646   7.629  1.5440 -0.8388  1.2302
 4095SOL    HW223748   4.158   0.520   7.627  0.8006  1.7244  0.9766
 4096SOL     OW23749   2.111   1.043  16.030  0.5128  0.0342  0.2761
 4096SOL    HW123750   2.189   1.007  15.988 -0.7293 -1.8088 -0.4698
 4096SOL    HW223751   2.123   1.138  16.020  1.5906 -0.1913 -0.6564
 4097SOL     OW23752   3.759   0.594   3.196 -0.1043  0.4728 -0.2859
 4097SOL    HW123753   3.834   0.537   3.217 -1.0579 -0.9557 -0.7547
 4097SOL    HW223754   3.762   0.640   3.279 -2.4839 -0.2176  0.1593
 4098SOL     OW23755   0.905   3.694   8.249  0.3389 -0.6420  0.0640
 4098SOL    HW123756   0.992   3.692   8.288 -0.3222  0.7400  1.5970
 4098SOL    HW223757   0.855   3.720   8.327  0.8908  1.6720 -0.3627
 4099SOL     OW23758   4.210   3.451   8.153  0.4966 -0.0828 -0.1341
 4099SOL    HW123759   4.136   3.391   8.145 -1.0856  2.0043 -0.9843
 4099SOL    HW223760   4.191   3.482   8.242 -1.0415  0.5499 -0.6998
 4100SOL     OW23761   1.035   4.200   2.828  0.4162  0.3781 -0.0585
 4100SOL    HW123762   1.001   4.267   2.768  0.4661  0.5264  0.0784
 4100SOL    HW223763   1.078   4.263   2.887 -0.6252  1.3253 -0.3072
 4101SOL     OW23764   1.023   1.106  11.895  0.1787 -0.2744 -1.0966
 4101SOL    HW123765   1.074   1.128  11.817 -0.6794  1.7025 -1.1215
 4101SOL    HW223766   1.039   1.183  11.949 -1.6332 -0.2878 -0.5277
 4102SOL     OW23767   3.599   3.628  17.057  0.1594 -0.1889 -0.4908
 4102SOL    HW123768   3.652   3.706  17.077  0.1199 -0.7567  1.8032
 4102SOL    HW223769   3.518   3.666  17.024 -0.7286  0.6872  2.6720
 4103SOL     OW23770   1.080   0.588   3.387  0.4604 -0.3949 -0.4067
 4103SOL    HW123771   1.171   0.617   3.382 -0.1576  1.2250 -2.0600
 4103SOL    HW223772   1.044   0.649   3.452  1.9384  0.7440 -0.6495
 4104SOL     OW23773   2.986   4.310  10.721 -0.1635  0.5478 -0.0674
 4104SOL    HW123774   2.967   4.394  10.678 -0.9078  0.4452  0.0560
 4104SOL    HW223775   3.039   4.332  10.798 -4.1585  1.4027  2.4995
 4105SOL     OW23776   1.768   1.358  11.385  0.5981  0.0414 -0.1796
 4105SOL    HW123777   1.683   1.392  11.413  0.3451  0.0801 -0.9919
 4105SOL    HW223778   1.811   1.425  11.331  1.9475 -1.6520 -1.2131
 4106SOL     OW23779   1.927   1.121  11.447  0.5400 -0.4252 -0.3436
 4106SOL    HW123780   1.880   1.199  11.417 -0.4303 -1.4730 -1.5846
 4106SOL    HW223781   1.951   1.153  11.534  2.7395 -0.5090 -0.9226
 4107SOL     OW23782   0.208   4.404   9.594 -0.6275  0.3662 -0.1643
 4107SOL    HW123783   0.166   4.427   9.511 -0.1943 -1.4417 -0.8949
 4107SOL    HW223784   0.183   4.312   9.601 -1.7981  0.6482 -0.5584
 4108SOL     OW23785   3.329   1.909   6.766  0.3986 -0.4042  0.0651
 4108SOL    HW123786   3.298   1.932   6.853 -2.3512 -0.5611 -0.8950
 4108SOL    HW223787   3.354   1.819   6.786  2.3114 -0.1709 -1.2697
 4109SOL     OW23788   4.191   1.888   5.882  0.1879  0.1207 -0.4507
 4109SOL    HW123789   4.101   1.921   5.883 -0.0394 -0.5251  0.1130
 4109SOL    HW223790   4.179   1.812   5.939 -0.6362  0.5812 -0.0214
 4110SOL     OW23791   4.128   3.780  15.158  0.0224  0.1277 -0.7337
 4110SOL    HW123792   4.180   3.809  15.234 -2.4196 -0.3243  1.1188
 4110SOL    HW223793   4.185   3.718  15.113  1.4828 -0.1840  1.5180
 4111SOL     OW23794   2.128   3.280   7.358 -0.3686 -0.6635  0.1086
 4111SOL    HW123795   2.113   3.334   7.281 -1.0168 -0.2515  0.5296
 4111SOL    HW223796   2.207   3.233   7.329  0.2106  0.8808 -0.8228
 4112SOL     OW23797   2.079   4.549  17.343 -0.6514  0.6849 -0.1837
 4112SOL    HW123798   2.039   4.524  17.260 -0.6965  1.2384 -0.3287
 4112SOL    HW223799   2.125   4.623  17.303 -1.2815  0.2637 -1.6654
 4113SOL     OW23800   3.278   3.146   8.558  0.5347 -0.3368  0.2924
 4113SOL    HW123801   3.274   3.232   8.517  1.9250  0.0077  0.8484
 4113SOL    HW223802   3.367   3.152   8.593  1.5357  1.4013 -2.5509
 4114SOL     OW23803   4.386   3.779  13.645 -0.1286  0.1474 -0.1029
 4114SOL    HW123804   4.435   3.697  13.655  1.0540  0.7610 -0.9769
 4114SOL    HW223805   4.353   3.763  13.557  1.1594  0.4835 -0.6381
 4115SOL     OW23806   2.843   3.487  12.861  0.2390 -0.2271  0.6509
 4115SOL    HW123807   2.775   3.544  12.897 -1.5491 -1.7240 -0.3640
 4115SOL    HW223808   2.915   3.549  12.847  0.5733 -0.4662  1.2982
 4116SOL     OW23809   0.197   0.951  11.902  0.3873  0.2231 -0.5724
 4116SOL    HW123810   0.218   1.010  11.829 -2.0393 -0.9840 -2.2130
 4116SOL    HW223811   0.266   0.886  11.889 -0.8243 -1.3749  1.1723
 4117SOL     OW23812   0.944   3.030  17.565 -0.0187  0.2075 -0.1757
 4117SOL    HW123813   0.896   3.017  17.483  0.5928  1.7504 -0.7889
 4117SOL    HW223814   1.013   2.967  17.548  0.8163  1.2126 -0.5409
 4118SOL     OW23815   1.286   4.270   0.129  0.2356  0.1205 -0.3131
 4118SOL    HW123816   1.332   4.186   0.127 -0.0642 -0.0746  0.8591
 4118SOL    HW223817   1.353   4.325   0.169  0.6148 -0.9080  0.4883
 4119SOL     OW23818   1.828   1.940   7.829  0.0351  0.7152  0.3383
 4119SOL    HW123819   1.772   1.982   7.894  2.4787  3.6015  0.5970
 4119SOL    HW223820   1.763   1.928   7.760  0.0870 -2.2771  0.8270
 4120SOL     OW23821   3.769   2.980   7.683  0.1155 -0.6403 -1.0614
 4120SOL    HW123822   3.840   3.032   7.721 -1.2651 -0.5048  1.2877
 4120SOL    HW223823   3.708   3.050   7.659  0.8420  0.7760  1.2015
 4121SOL     OW23824   0.490   2.922   1.325  0.3930  0.2376 -0.3884
 4121SOL    HW123825   0.499   3.006   1.370 -0.9526 -0.6111  1.4546
 4121SOL    HW223826   0.461   2.858   1.389  0.1189 -0.0510 -0.7976
 4122SOL     OW23827   1.545   4.472   2.738 -0.0968 -0.1205  0.2951
 4122SOL    HW123828   1.609   4.496   2.805  0.5003  2.3461 -1.1802
 4122SOL    HW223829   1.490   4.410   2.787 -0.8854  0.5360  0.2414
 4123SOL     OW23830   4.187   2.662   4.146  0.0699  0.1994  0.2648
 4123SOL    HW123831   4.113   2.612   4.112 -0.9461  0.7266  1.6999
 4123SOL    HW223832   4.251   2.653   4.076  0.0499 -0.8310  0.3748
 4124SOL     OW23833   4.216   0.364   4.602  0.2956  0.3416 -0.4484
 4124SOL    HW123834   4.153   0.345   4.672 -0.4732 -0.0045 -1.2329
 4124SOL    HW223835   4.165   0.338   4.525 -0.0495  0.9735 -0.4270
 4125SOL     OW23836   3.908   4.537   5.070  0.3452  1.1579  0.0565
 4125SOL    HW123837   3.862   4.519   5.153  0.6349  2.4309  0.4819
 4125SOL    HW223838   3.840   4.574   5.014  0.6721  0.1175 -1.0366
 4126SOL     OW23839   0.945   2.082   2.419 -0.3945 -0.0163  0.4832
 4126SOL    HW123840   0.919   2.151   2.357  2.1433  0.4028 -0.1087
 4126SOL    HW223841   1.032   2.055   2.391 -0.1452  1.2715  0.0261
 4127SOL     OW23842   3.975   3.724   2.886  0.5447 -0.0640  0.0410
 4127SOL    HW123843   4.006   3.634   2.902 -1.3542 -0.8101 -0.5279
 4127SOL    HW223844   3.886   3.715   2.920 -0.0033  0.5456 -1.2495
 4128SOL     OW23845   1.001   3.957   5.764 -0.1899 -0.5265 -0.1033
 4128SOL    HW123846   0.930   3.947   5.826 -0.4295  2.9675  0.2309
 4128SOL    HW223847   1.077   3.956   5.822 -1.1711  2.8220  1.2459
 4129SOL     OW23848   2.023   3.730  11.781 -0.2454  0.5152 -0.0607
 4129SOL    HW123849   2.099   3.677  11.803  0.6322  2.2110  0.9729
 4129SOL    HW223850   2.052   3.783  11.707 -2.0814  1.1300 -0.3422
 4130SOL     OW23851   3.481   0.931   8.116 -0.1009  0.3133 -0.6525
 4130SOL    HW123852   3.559   0.931   8.061  1.8003 -1.9290  2.0070
 4130SOL    HW223853   3.448   1.021   8.120 -0.3911  0.0924  2.1961
 4131SOL     OW23854   0.584   2.310  16.190  0.3641 -0.4490 -0.1235
 4131SOL    HW123855   0.637   2.388  16.170  0.5804 -0.7115 -0.5870
 4131SOL    HW223856   0.621   2.283  16.274  2.1209  0.0209 -0.7558
 4132SOL     OW23857   2.758   4.132   3.397  0.3869 -0.0247 -0.0281
 4132SOL    HW123858   2.786   4.223   3.406  0.3139 -0.1987  1.9461
 4132SOL    HW223859   2.842   4.089   3.409  0.7890  0.3948 -1.4162
 4133SOL     OW23860   0.986   3.113   6.342  0.0873  0.0074  0.6170
 4133SOL    HW123861   0.945   3.066   6.415 -1.2421 -0.1971 -0.2443
 4133SOL    HW223862   0.978   3.204   6.368  1.7297  0.6515 -1.1428
 4134SOL     OW23863   0.750   0.397  10.697  0.6193 -0.2905  0.3883
 4134SOL    HW123864   0.777   0.306  10.683 -0.2558 -0.9979  3.3787
 4134SOL    HW223865   0.829   0.421  10.746  2.0429  0.7721 -2.3878
 4135SOL     OW23866   3.076   3.115   3.619  0.4850  0.2742  0.2897
 4135SOL    HW123867   3.132   3.037   3.621 -0.7217 -0.6159 -0.8351
 4135SOL    HW223868   3.075   3.138   3.526 -1.3762 -0.2259  0.1914
 4136SOL     OW23869   4.332   2.747   4.614  0.2758 -0.2123  0.2870
 4136SOL    HW123870   4.409   2.710   4.571 -1.2154 -1.6671 -1.1198
 4136SOL    HW223871   4.285   2.766   4.533  1.9324 -0.4485 -0.7392
 4137SOL     OW23872   0.887   2.071   5.746 -0.0503 -0.3278  0.4868
 4137SOL    HW123873   0.862   2.069   5.653  1.8157 -0.7069 -0.0030
 4137SOL    HW223874   0.801   2.098   5.779 -0.0542  1.0181 -0.6004
 4138SOL     OW23875   3.346   2.872  16.848  0.5805  0.3512 -0.2082
 4138SOL    HW123876   3.265   2.875  16.798 -0.6172 -0.7153  1.6989
 4138SOL    HW223877   3.398   2.925  16.788 -1.0392  1.2850 -0.7839
 4139SOL     OW23878   2.759   0.646   7.419  0.5861  0.0304 -0.5362
 4139SOL    HW123879   2.729   0.598   7.342 -1.0196 -1.1966  0.8535
 4139SOL    HW223880   2.762   0.736   7.386 -0.8375  0.6064  0.9080
 4140SOL     OW23881   0.776   0.074   3.676  0.1931  0.5476 -0.1347
 4140SOL    HW123882   0.821   0.070   3.761 -2.2635  0.1794  1.1268
 4140SOL    HW223883   0.711   0.143   3.688 -1.1509 -1.1325  1.9362
 4141SOL     OW23884   2.169   1.583   1.239  0.4541 -0.1468  0.5817
 4141SOL    HW123885   2.200   1.501   1.278  1.4581  0.8304  1.8392
 4141SOL    HW223886   2.087   1.599   1.286 -0.3263  0.5714 -1.0258
 4142SOL     OW23887   0.664   3.831  14.171  0.2533  0.8510 -0.2758
 4142SOL    HW123888   0.729   3.801  14.234 -1.3634  1.5541  1.7293
 4142SOL    HW223889   0.582   3.793  14.203 -0.0491 -0.2751 -2.3898
 4143SOL     OW23890   0.122   3.640   8.699  0.2546 -0.2778  0.0957
 4143SOL    HW123891   0.178   3.602   8.631 -0.4890  0.8259 -1.1229
 4143SOL    HW223892   0.190   3.673   8.757 -1.3114  1.1913  1.0858
 4144SOL     OW23893   0.651   0.223  12.687 -0.3009  0.3000 -0.3815
 4144SOL    HW123894   0.606   0.165  12.749 -1.3952  1.6936  0.1403
 4144SOL    HW223895   0.730   0.240  12.738  0.2313 -0.7062 -0.8799
 4145SOL     OW23896   4.356   1.327   7.626  0.2758  0.3068 -0.3123
 4145SOL    HW123897   4.388   1.251   7.578  2.1186 -0.2655  1.8961
 4145SOL    HW223898   4.422   1.331   7.694  0.5519 -0.1000 -0.5574
 4146SOL     OW23899   1.485   3.333   7.854 -0.2584 -0.2619  0.7144
 4146SOL    HW123900   1.569   3.357   7.816 -1.0523  1.7298  0.2029
 4146SOL    HW223901   1.521   3.307   7.939  0.2639 -1.6510  0.0560
 4147SOL     OW23902   0.423   2.652  11.111 -0.4769 -0.1777  0.5444
 4147SOL    HW123903   0.356   2.604  11.062 -0.8093  0.2159  0.6164
 4147SOL    HW223904   0.499   2.614  11.067  0.0988  1.0047  0.5200
 4148SOL     OW23905   4.669   0.712   5.975 -0.2323  0.9176 -0.0439
 4148SOL    HW123906   4.659   0.658   5.897  2.1011  1.7230 -0.8997
 4148SOL    HW223907   0.029   0.675   6.005  1.4480  1.8595 -3.5662
 4149SOL     OW23908   1.246   2.090   3.330  0.1007 -0.1289 -0.4170
 4149SOL    HW123909   1.162   2.052   3.356 -1.4974  1.8943 -2.6253
 4149SOL    HW223910   1.314   2.053   3.387 -0.9325  2.6690  2.6259
 4150SOL     OW23911   4.611   3.433   1.900  0.2943 -0.1978  0.4156
 4150SOL    HW123912   4.591   3.495   1.971 -0.3266  0.1873 -0.0926
 4150SOL    HW223913   4.678   3.384   1.948  0.7330  0.3588  0.3611
 4151SOL     OW23914   3.956   4.224   3.110 -0.3024 -0.1828 -0.1841
 4151SOL    HW123915   4.007   4.285   3.163  1.2224 -0.6412 -1.0883
 4151SOL    HW223916   3.889   4.282   3.076  1.6073  1.0769 -1.8142
 4152SOL     OW23917   4.511   0.682   1.533  0.5254 -0.1339 -0.2273
 4152SOL    HW123918   4.495   0.664   1.440  1.3669  0.7517 -0.5512
 4152SOL    HW223919   4.489   0.775   1.536 -0.9914 -0.4771 -0.5631
 4153SOL     OW23920   1.262   2.676   6.907  0.1540  0.4610 -0.3302
 4153SOL    HW123921   1.242   2.736   6.978  0.3777  0.0012  0.1264
 4153SOL    HW223922   1.218   2.725   6.838 -1.6284  0.1353  0.5681
 4154SOL     OW23923   1.375   4.148  17.021  0.4530  0.3570  0.3073
 4154SOL    HW123924   1.414   4.184  16.942 -0.1796  1.0081  0.2964
 4154SOL    HW223925   1.431   4.186  17.087  0.5742 -0.0850  0.4594
 4155SOL     OW23926   2.105   4.690   1.050  0.6169 -0.1362 -0.1355
 4155SOL    HW123927   2.161   0.003   1.119 -1.4357  1.4882  0.6797
 4155SOL    HW223928   2.153   4.715   0.971  0.7755 -3.0914 -0.9518
 4156SOL     OW23929   1.301   2.117   6.625 -0.0058  0.0588 -0.0129
 4156SOL    HW123930   1.387   2.135   6.588  1.0289  1.2864  3.0772
 4156SOL    HW223931   1.306   2.173   6.702 -2.7597  0.5621 -0.1922
 4157SOL     OW23932   0.914   0.212   2.179 -0.0822 -0.2106 -1.0039
 4157SOL    HW123933   1.007   0.234   2.173  0.0382 -0.8681 -1.6401
 4157SOL    HW223934   0.875   0.267   2.111  1.6877 -0.6156 -2.3581
 4158SOL     OW23935   1.508   4.621  11.698  0.6157 -0.3009  0.7125
 4158SOL    HW123936   1.455   4.582  11.767 -0.5246  1.8942  1.0827
 4158SOL    HW223937   1.452   4.602  11.622  0.7494  2.8705 -0.2011
 4159SOL     OW23938   2.951   1.806   2.766 -0.0405  0.1271  0.1303
 4159SOL    HW123939   2.984   1.720   2.742 -2.2857 -0.8180  0.4798
 4159SOL    HW223940   2.991   1.866   2.702 -0.7330 -0.0848 -0.4940
 4160SOL     OW23941   3.972   3.952   5.004  0.0376  0.0440 -0.5896
 4160SOL    HW123942   4.037   4.007   4.961  1.1192 -1.7422 -1.2563
 4160SOL    HW223943   4.026   3.910   5.071  0.3508  1.1614 -0.1557
 4161SOL     OW23944   1.431   1.128   5.313 -0.3507  0.4989 -0.3125
 4161SOL    HW123945   1.513   1.104   5.271  0.3466  1.5261  0.4504
 4161SOL    HW223946   1.370   1.077   5.260  0.1064 -1.6531  1.2149
 4162SOL     OW23947   3.470   0.625   3.851  0.2035 -0.3729 -0.6913
 4162SOL    HW123948   3.442   0.656   3.765  0.1653 -0.0076 -0.5467
 4162SOL    HW223949   3.410   0.551   3.860  1.4739 -1.4935 -1.3670
 4163SOL     OW23950   2.409   1.430   5.898 -0.1215 -0.1963 -0.2269
 4163SOL    HW123951   2.490   1.385   5.923 -1.6053 -1.9283  1.3805
 4163SOL    HW223952   2.409   1.506   5.956 -1.1067 -1.6534  1.6760
 4164SOL     OW23953   2.470   0.532   9.062  0.4891 -0.8819 -0.0730
 4164SOL    HW123954   2.472   0.625   9.040  0.0768 -0.7201  0.5506
 4164SOL    HW223955   2.419   0.499   8.988 -0.8155 -0.9669  0.8529
 4165SOL     OW23956   0.825   2.770   7.358 -0.8444 -0.0784  0.4973
 4165SOL    HW123957   0.910   2.740   7.327 -1.0633 -0.1546 -0.0217
 4165SOL    HW223958   0.825   2.778   7.454 -2.0501  0.3559  0.4675
 4166SOL     OW23959   3.644   2.814   3.931  0.5666 -0.3377  0.2744
 4166SOL    HW123960   3.556   2.846   3.915  0.8175 -0.0740 -0.6104
 4166SOL    HW223961   3.636   2.743   3.867  0.5518  0.7833 -0.9647
 4167SOL     OW23962   4.087   4.655   7.936  0.1079  0.0001  0.2603
 4167SOL    HW123963   4.054   4.566   7.930  2.7847 -1.1994  3.1089
 4167SOL    HW223964   4.072   4.665   8.031  0.6286 -1.0637  0.4484
 4168SOL     OW23965   4.677   3.963   2.633  0.2158  0.2435  0.0596
 4168SOL    HW123966   4.615   3.964   2.707 -1.0685 -0.8872 -0.9943
 4168SOL    HW223967   0.007   4.042   2.639  0.3298  0.1336  0.5324
 4169SOL     OW23968   3.255   2.383   4.886  0.2327 -0.6608  0.3732
 4169SOL    HW123969   3.207   2.406   4.965 -0.8930 -1.6853 -0.0161
 4169SOL    HW223970   3.240   2.290   4.873 -0.1578 -1.0880  3.8096
 4170SOL     OW23971   0.331   0.467  14.445  0.6358  0.1246 -0.0951
 4170SOL    HW123972   0.330   0.510  14.530 -0.8273 -3.4767  1.6905
 4170SOL    HW223973   0.311   0.379  14.477  1.7580  0.6833  2.1581
 4171SOL     OW23974   4.681   3.972   1.727 -0.3244 -0.1941  0.6956
 4171SOL    HW123975   4.604   3.940   1.680 -2.1709  2.9237  1.6507
 4171SOL    HW223976   0.021   3.964   1.656 -2.0217 -0.2756 -0.8040
 4172SOL     OW23977   1.315   2.870  11.092  0.3662 -0.0962 -0.0481
 4172SOL    HW123978   1.335   2.939  11.155 -1.3963  0.5365 -0.1847
 4172SOL    HW223979   1.329   2.794  11.148  0.4700 -0.5856 -0.7294
 4173SOL     OW23980   3.715   1.574   5.633 -0.0950  0.6474 -0.1960
 4173SOL    HW123981   3.715   1.643   5.566  0.2147  0.0072 -0.8628
 4173SOL    HW223982   3.808   1.564   5.650  0.3896  0.4030 -2.9931
 4174SOL     OW23983   0.603   2.445   5.564 -0.0469  0.6760 -0.3030
 4174SOL    HW123984   0.657   2.434   5.643  0.0556  1.1058 -0.3160
 4174SOL    HW223985   0.668   2.495   5.514 -2.4462  0.9098 -3.1571
 4175SOL     OW23986   2.872   3.659  10.325 -0.8231  0.0322 -0.2933
 4175SOL    HW123987   2.875   3.699  10.238  0.0420 -0.9880 -0.7274
 4175SOL    HW223988   2.777   3.645  10.328 -0.7850 -0.2462 -0.4213
 4176SOL     OW23989   4.438   2.187   7.938  0.7124  0.0342 -0.7540
 4176SOL    HW123990   4.342   2.192   7.931  0.6658 -0.9163 -0.7702
 4176SOL    HW223991   4.449   2.093   7.952  1.5177  0.5251  1.8909
 4177SOL     OW23992   4.463   0.621   2.114 -0.0132 -0.6849 -0.1499
 4177SOL    HW123993   4.548   0.579   2.101 -1.6429 -3.7647 -0.9322
 4177SOL    HW223994   4.423   0.595   2.031  0.1936 -1.1967 -0.0885
 4178SOL     OW23995   2.042   3.921  11.573  0.4667  0.2447 -0.3564
 4178SOL    HW123996   2.105   3.974  11.623 -1.1183  0.2773  1.5977
 4178SOL    HW223997   1.964   3.957  11.614  3.0416  0.5956  4.2678
 4179SOL     OW23998   3.901   0.844   1.979 -0.2213 -0.0478  0.2771
 4179SOL    HW123999   3.933   0.917   1.928  0.0043  0.4223  1.0829
 4179SOL    HW224000   3.984   0.820   2.020 -1.2527 -1.1751  1.7224
 4180SOL     OW24001   1.393   1.470   3.169  0.3797 -0.5126  0.5283
 4180SOL    HW124002   1.300   1.493   3.167  0.4472 -0.3167 -0.5273
 4180SOL    HW224003   1.425   1.553   3.206  0.1971 -0.8561  1.4457
 4181SOL     OW24004   2.550   4.127   6.947  0.0477 -0.0978 -0.0213
 4181SOL    HW124005   2.591   4.200   6.994  2.2917 -0.1513 -1.8691
 4181SOL    HW224006   2.528   4.181   6.871  1.1580  0.6755  0.1907
 4182SOL     OW24007   1.612   0.881   0.919 -0.6477 -0.4073 -0.3355
 4182SOL    HW124008   1.646   0.909   1.004 -1.7861  1.9879 -0.6788
 4182SOL    HW224009   1.519   0.904   0.911 -1.3629 -2.5361  1.7696
 4183SOL     OW24010   2.203   0.631   4.310  0.4681  0.5353 -0.4933
 4183SOL    HW124011   2.283   0.683   4.313 -0.0891  1.4332 -1.3332
 4183SOL    HW224012   2.199   0.600   4.219 -1.2045 -0.5698 -0.0446
 4184SOL     OW24013   3.964   0.408   0.204  0.3366  0.4302  0.3119
 4184SOL    HW124014   3.953   0.365   0.119  1.0354 -0.0236  0.4504
 4184SOL    HW224015   4.039   0.360   0.241  0.6419  2.6661  2.5636
 4185SOL     OW24016   1.158   1.927   6.185  0.4887 -0.1323 -0.1225
 4185SOL    HW124017   1.103   1.961   6.256  2.1797 -1.4487  1.8345
 4185SOL    HW224018   1.098   1.968   6.124  0.3554  0.2089  0.2396
 4186SOL     OW24019   3.603   3.773   2.182 -0.3854  0.1709 -0.0264
 4186SOL    HW124020   3.597   3.859   2.140 -0.2260  0.8028  1.2541
 4186SOL    HW224021   3.678   3.737   2.134 -0.2922 -0.1562  0.3662
 4187SOL     OW24022   0.037   1.831  12.966 -0.0231  0.3196 -0.6964
 4187SOL    HW124023   0.092   1.874  13.031 -0.5079 -0.0525 -0.0462
 4187SOL    HW224024   0.058   1.881  12.887  1.5056 -0.6302 -0.8915
 4188SOL     OW24025   0.881   3.481   7.681  0.1409  0.1736 -0.2866
 4188SOL    HW124026   0.828   3.453   7.756  0.4755 -1.1520 -0.5477
 4188SOL    HW224027   0.952   3.527   7.725  0.8188 -0.9346 -0.2174
 4189SOL     OW24028   2.788   3.387  16.158  0.2133  0.3552 -0.3071
 4189SOL    HW124029   2.863   3.341  16.197 -0.0153 -1.1558 -1.6467
 4189SOL    HW224030   2.836   3.456  16.113  0.0068  0.2452 -0.6949
 4190SOL     OW24031   0.100   4.578  10.133  0.3032 -0.3477  0.1631
 4190SOL    HW124032   0.088   4.487  10.161  1.3925 -1.0921 -1.8157
 4190SOL    HW224033   0.136   4.558  10.047 -0.7154  0.6904 -0.5037
 4191SOL     OW24034   1.900   1.694   6.821  0.4674 -0.1734  0.0062
 4191SOL    HW124035   1.886   1.671   6.729  0.6010  0.6768 -0.2340
 4191SOL    HW224036   1.828   1.755   6.836  1.5151  1.3612 -1.0998
 4192SOL     OW24037   4.141   3.148   2.726  0.2839  0.5102 -0.0238
 4192SOL    HW124038   4.103   3.234   2.705  0.4190  0.4067 -0.6674
 4192SOL    HW224039   4.060   3.097   2.727  0.5916 -0.0099 -1.9339
 4193SOL     OW24040   3.231   3.191   7.510 -0.4867  0.0093 -0.0006
 4193SOL    HW124041   3.312   3.234   7.483 -1.4177  1.9620  0.2801
 4193SOL    HW224042   3.228   3.114   7.453 -2.4026  0.1370 -0.0955
 4194SOL     OW24043   2.084   1.760   8.558  0.1476  0.0792 -0.2837
 4194SOL    HW124044   2.004   1.730   8.601  0.4174  0.2595  0.3514
 4194SOL    HW224045   2.104   1.696   8.490  1.6691 -0.7180  0.8960
 4195SOL     OW24046   4.401   3.977   4.884  0.1864 -0.1644  0.1420
 4195SOL    HW124047   4.449   4.048   4.928 -0.5071 -0.1259  0.8281
 4195SOL    HW224048   4.328   3.972   4.944  0.0442 -2.8582 -0.2695
 4196SOL     OW24049   0.757   4.158   6.680 -0.0200 -0.2573  0.1759
 4196SOL    HW124050   0.805   4.102   6.620 -1.4118  1.0304 -2.1079
 4196SOL    HW224051   0.746   4.101   6.756 -0.4023 -0.4826 -0.0526
 4197SOL     OW24052   2.356   2.631   2.738 -0.1044 -0.1558 -0.2485
 4197SOL    HW124053   2.340   2.552   2.686  1.4365 -0.4430 -0.2810
 4197SOL    HW224054   2.332   2.587   2.819  0.3191 -1.4716 -0.8440
 4198SOL     OW24055   1.992   4.277  11.635 -0.4602 -0.3544 -0.6309
 4198SOL    HW124056   2.059   4.214  11.662  0.0942  0.1163 -0.9119
 4198SOL    HW224057   1.920   4.245  11.690 -0.0678  1.4633  0.9233
 4199SOL     OW24058   1.219   4.175  12.000 -0.4787 -0.1676  0.1444
 4199SOL    HW124059   1.168   4.154  11.922  0.3918  2.1327 -1.0615
 4199SOL    HW224060   1.307   4.139  11.989 -0.9672 -0.2850 -3.2823
 4200SOL     OW24061   2.856   2.897  14.942  0.6838 -0.9431  0.0669
 4200SOL    HW124062   2.857   2.987  14.908 -1.0841 -0.9637 -0.0437
 4200SOL    HW224063   2.822   2.850  14.866 -0.4630 -1.3801  0.8462
 4201SOL     OW24064   1.309   2.495  17.628 -0.2758 -0.9223  0.1908
 4201SOL    HW124065   1.222   2.519  17.596  0.3750  1.6481  0.3028
 4201SOL    HW224066   1.363   2.550  17.571 -2.8653  0.5886 -0.7881
 4202SOL     OW24067   1.535   3.943   4.756  0.0911 -0.1353 -0.2258
 4202SOL    HW124068   1.541   3.938   4.851 -2.4618  1.7678  0.0500
 4202SOL    HW224069   1.484   3.867   4.728 -0.8642 -0.6879  3.0622
 4203SOL     OW24070   4.399   4.643   0.516 -0.0280  0.3282 -0.7533
 4203SOL    HW124071   4.409   4.577   0.584  2.7140 -0.3145 -1.7626
 4203SOL    HW224072   4.366   4.715   0.570  2.1834  0.0335  0.9834
 4204SOL     OW24073   3.748   2.967  12.732 -0.3809  0.8245 -0.1414
 4204SOL    HW124074   3.654   2.958  12.717 -0.1312 -0.2430 -1.0519
 4204SOL    HW224075   3.769   3.051  12.690  0.2901 -0.7556 -3.0242
 4205SOL     OW24076   3.744   2.345   5.366  0.0915 -0.4231 -0.1899
 4205SOL    HW124077   3.690   2.270   5.393 -1.9035  1.1422  0.1238
 4205SOL    HW224078   3.686   2.416   5.394 -1.2398 -1.3885 -0.4931
 4206SOL     OW24079   0.842   3.234  12.726  0.4318  0.2665  0.1264
 4206SOL    HW124080   0.880   3.199  12.806  0.4795 -0.0765 -0.0476
 4206SOL    HW224081   0.917   3.288  12.701 -0.9139  2.1708  0.1325
 4207SOL     OW24082   1.262   3.409  17.302  0.1903 -0.0695 -0.3043
 4207SOL    HW124083   1.269   3.494  17.345 -1.7540 -0.4873  0.8388
 4207SOL    HW224084   1.306   3.349  17.363  0.9012  2.1859  1.3884
 4208SOL     OW24085   1.512   4.703   2.955 -0.4201  0.2153 -0.1498
 4208SOL    HW124086   1.572   4.646   3.002 -1.1245  0.0288  0.5249
 4208SOL    HW224087   1.510   0.057   3.011 -0.2097  0.1423 -0.0437
 4209SOL     OW24088   4.702   2.107   2.179  0.7523  0.0423 -0.4116
 4209SOL    HW124089   0.032   2.088   2.102  1.9519 -0.6277  0.5905
 4209SOL    HW224090   4.655   2.186   2.153  1.0983 -0.2453 -1.8836
 4210SOL     OW24091   3.034   4.563   0.022  0.1424  0.2214  0.2124
 4210SOL    HW124092   2.983   4.548   0.102  0.1682 -0.4211  0.1090
 4210SOL    HW224093   3.113   4.582   0.072 -0.4022  0.1743  1.1003
 4211SOL     OW24094   1.952   3.687   2.620  0.2543 -0.2512  0.0632
 4211SOL    HW124095   2.032   3.639   2.600  1.1051  1.2887 -0.2602
 4211SOL    HW224096   1.995   3.740   2.687 -1.5435  1.1736  0.0929
 4212SOL     OW24097   0.492   3.077   4.559 -0.3012 -0.7032 -0.0304
 4212SOL    HW124098   0.434   3.137   4.511 -0.6806  0.2243  1.5821
 4212SOL    HW224099   0.562   3.080   4.494 -0.2911  0.9481  0.0451
 4213SOL     OW24100   1.383   0.818   2.520 -0.3158 -0.2344  0.5856
 4213SOL    HW124101   1.291   0.800   2.539 -0.5970 -1.0655 -1.5849
 4213SOL    HW224102   1.391   0.759   2.445 -2.7450 -0.0374  0.1491
 4214SOL     OW24103   1.105   1.907   9.760  0.8543  0.0343  0.6466
 4214SOL    HW124104   1.119   1.999   9.784 -1.1364  0.1724  1.2559
 4214SOL    HW224105   1.015   1.892   9.790  1.5974  2.0569  3.8793
 4215SOL     OW24106   1.284   0.187  13.093 -0.2311  0.3526  0.1694
 4215SOL    HW124107   1.334   0.176  13.012  1.7344  0.1645  1.3841
 4215SOL    HW224108   1.335   0.259  13.132  0.9219 -1.0628  1.2722
 4216SOL     OW24109   1.605   2.012  14.050  0.5366 -0.2728 -0.0595
 4216SOL    HW124110   1.555   1.945  14.004  1.7616  0.6807 -2.7580
 4216SOL    HW224111   1.661   1.962  14.110 -1.0083 -1.2539  0.5747
 4217SOL     OW24112   1.446   4.436   0.305  0.3256 -0.4879  0.1777
 4217SOL    HW124113   1.431   4.358   0.359  1.9205 -1.4398 -0.7879
 4217SOL    HW224114   1.540   4.444   0.319  0.6452 -1.8377 -1.2236
 4218SOL     OW24115   0.283   0.750  16.391  0.0097  0.1484 -0.0667
 4218SOL    HW124116   0.288   0.845  16.378  2.3378 -0.0583 -0.7435
 4218SOL    HW224117   0.204   0.754  16.445 -0.2573  0.3921 -0.4780
 4219SOL     OW24118   2.196   0.598   5.714 -0.1164  0.4183 -0.7744
 4219SOL    HW124119   2.236   0.617   5.629  2.4987  0.5085  0.4627
 4219SOL    HW224120   2.235   0.670   5.764 -0.9051  0.0265  0.3855
 4220SOL     OW24121   4.000   3.346  10.627 -0.2414  0.2355 -0.0782
 4220SOL    HW124122   4.029   3.411  10.563 -1.8173  0.8784 -0.1511
 4220SOL    HW224123   4.065   3.351  10.697  1.6401 -1.0429 -1.7371
 4221SOL     OW24124   4.030   0.782   3.676 -0.1760  0.5981  0.4214
 4221SOL    HW124125   4.114   0.734   3.680 -1.3892 -1.5992 -0.1056
 4221SOL    HW224126   4.062   0.872   3.682 -2.3416  1.3632  0.2474
 4222SOL     OW24127   4.189   1.461   3.934  0.4868  0.2021  0.5132
 4222SOL    HW124128   4.165   1.537   3.881  3.5835  0.5425 -0.4012
 4222SOL    HW224129   4.110   1.406   3.925  0.5208  0.3586 -0.7675
 4223SOL     OW24130   3.578   1.545   8.961  0.6758  0.0470 -0.2192
 4223SOL    HW124131   3.550   1.484   9.029  0.4217 -1.4235 -1.6381
 4223SOL    HW224132   3.624   1.619   9.001 -0.5394  0.2046  0.8856
 4224SOL     OW24133   1.382   0.822   5.511 -0.1405  0.1562 -0.0767
 4224SOL    HW124134   1.392   0.736   5.552  1.8374 -0.0041 -0.8682
 4224SOL    HW224135   1.307   0.792   5.459 -0.1531 -1.8272  1.0603
 4225SOL     OW24136   0.731   1.075   9.637 -0.2099 -0.0956 -0.1978
 4225SOL    HW124137   0.785   1.034   9.570 -0.2941  1.7544 -1.3944
 4225SOL    HW224138   0.702   1.152   9.590 -0.2017 -0.1160 -0.2361
 4226SOL     OW24139   2.346   4.283   4.573  0.2785  0.1993  0.5482
 4226SOL    HW124140   2.267   4.334   4.560  0.7706  1.3954  2.2844
 4226SOL    HW224141   2.348   4.234   4.490 -1.6700 -0.2455  0.7650
 4227SOL     OW24142   1.092   4.159  16.278  0.1866  0.0532 -0.0693
 4227SOL    HW124143   1.128   4.185  16.363 -1.1521  2.0200 -0.1059
 4227SOL    HW224144   1.060   4.242  16.241 -0.4901 -0.0873  0.2118
 4228SOL     OW24145   4.575   4.209  10.993 -0.4105  0.7962  0.8311
 4228SOL    HW124146   4.482   4.199  11.011 -0.6857  0.7791 -0.5817
 4228SOL    HW224147   4.560   4.182  10.902 -0.4071 -2.8240  1.9164
 4229SOL     OW24148   0.577   4.113   7.817  0.2799 -0.1960 -0.9799
 4229SOL    HW124149   0.511   4.052   7.784 -1.0787  0.7352  0.0261
 4229SOL    HW224150   0.552   4.132   7.907  0.1987 -0.7065 -0.8904
 4230SOL     OW24151   1.933   2.498  14.189  0.6530 -0.1143 -0.0560
 4230SOL    HW124152   1.874   2.463  14.256 -0.6309 -0.4967 -1.3850
 4230SOL    HW224153   1.940   2.427  14.125 -1.7112  0.1575 -0.5995
 4231SOL     OW24154   4.168   2.078  16.841  0.1135 -0.0438 -0.0230
 4231SOL    HW124155   4.094   2.021  16.821  1.6474 -1.9367 -0.3290
 4231SOL    HW224156   4.136   2.167  16.829 -0.2419 -0.3876 -1.6752
 4232SOL     OW24157   0.234   2.622  11.615 -0.0148  0.9948  0.1794
 4232SOL    HW124158   0.242   2.618  11.520 -0.1338 -2.3179  0.3221
 4232SOL    HW224159   0.143   2.592  11.627  0.9557 -1.0963  2.3445
 4233SOL     OW24160   1.112   2.862   0.837 -0.6291 -0.0400 -0.0186
 4233SOL    HW124161   1.058   2.862   0.758  1.2930 -1.9612 -1.3086
 4233SOL    HW224162   1.141   2.772   0.824 -0.7735 -0.1092  0.1500
 4234SOL     OW24163   0.885   1.122   3.298 -0.9526  0.1422  0.1315
 4234SOL    HW124164   0.926   1.179   3.363 -0.5012 -0.6309  0.5174
 4234SOL    HW224165   0.850   1.057   3.358  1.0788 -2.3691 -1.4208
 4235SOL     OW24166   2.515   3.021   6.831 -0.0369 -0.3739  0.3041
 4235SOL    HW124167   2.524   3.112   6.857 -1.4603 -0.7319  2.0281
 4235SOL    HW224168   2.602   2.993   6.857  0.4987  1.4085  0.4489
 4236SOL     OW24169   1.965   2.720   2.391 -0.1034 -0.3350  0.4065
 4236SOL    HW124170   1.953   2.800   2.441  0.8499  1.2065 -1.8555
 4236SOL    HW224171   1.873   2.690   2.393 -0.9053  2.1066 -0.5110
 4237SOL     OW24172   3.675   3.731   5.219  0.7016  0.2746 -0.5039
 4237SOL    HW124173   3.684   3.743   5.124 -0.1997 -1.1430 -0.7750
 4237SOL    HW224174   3.766   3.703   5.232  0.9091  1.3491  0.2517
 4238SOL     OW24175   3.090   0.893   3.919 -0.3910 -0.3016  0.0774
 4238SOL    HW124176   3.173   0.932   3.892 -0.7302  2.5420  3.2157
 4238SOL    HW224177   3.033   0.935   3.855 -1.2271 -1.1327  0.2745
 4239SOL     OW24178   0.899   1.100  14.414  0.1715  0.2950  0.0816
 4239SOL    HW124179   0.872   1.192  14.409 -2.5709 -0.6539 -3.0898
 4239SOL    HW224180   0.942   1.092  14.499 -0.0110  2.0625  0.3413
 4240SOL     OW24181   0.235   4.097   7.465  0.2511 -0.0846 -0.6020
 4240SOL    HW124182   0.199   4.167   7.409 -3.2538 -1.6183 -0.2559
 4240SOL    HW224183   0.330   4.106   7.457  0.1150  0.4254 -1.6433
 4241SOL     OW24184   4.486   0.449   5.563  0.3534  0.3414 -0.1558
 4241SOL    HW124185   4.470   0.481   5.474  1.5577 -1.2511 -0.9360
 4241SOL    HW224186   4.504   0.358   5.541 -0.8988  0.6118 -2.3178
 4242SOL     OW24187   0.550   1.816   4.855 -0.5637  0.0679  0.1854
 4242SOL    HW124188   0.524   1.825   4.764  0.3880 -3.0874 -0.3866
 4242SOL    HW224189   0.620   1.880   4.867  1.6031 -1.8458 -2.5188
 4243SOL     OW24190   2.821   4.304   5.769  0.4116  0.1228  0.2905
 4243SOL    HW124191   2.787   4.352   5.845  0.1225  1.0366 -0.4088
 4243SOL    HW224192   2.903   4.270   5.803 -0.3509 -2.0141 -0.0127
 4244SOL     OW24193   3.210   0.980   4.810 -0.2348 -0.3079 -0.1180
 4244SOL    HW124194   3.274   1.017   4.870 -0.4633 -0.2024  0.0630
 4244SOL    HW224195   3.162   1.060   4.788 -0.4052 -0.6205 -0.8873
 4245SOL     OW24196   1.946   0.225   1.186  0.1128  0.3194  0.2657
 4245SOL    HW124197   2.012   0.205   1.252  0.5656  2.2634  0.4212
 4245SOL    HW224198   1.904   0.142   1.166 -2.2578  0.9504  2.4702
 4246SOL     OW24199   1.245   2.418  13.323  0.7236  0.1687 -0.1623
 4246SOL    HW124200   1.255   2.512  13.309 -1.2253  0.3426 -0.4127
 4246SOL    HW224201   1.164   2.392  13.279 -1.2072  1.3871  2.6297
 4247SOL     OW24202   3.268   3.400   4.996 -0.0352 -0.8629 -0.0154
 4247SOL    HW124203   3.354   3.364   5.017 -1.3225 -4.3245 -0.6125
 4247SOL    HW224204   3.243   3.433   5.083  2.2183  2.4413 -0.6461
 4248SOL     OW24205   0.617   4.285  10.294 -0.3604  0.3112  0.3791
 4248SOL    HW124206   0.633   4.377  10.273 -2.6442  0.6200 -0.0634
 4248SOL    HW224207   0.674   4.234  10.236 -0.5869 -2.5605  2.6818
 4249SOL     OW24208   3.529   2.095   5.173  0.2970  0.2930 -0.0558
 4249SOL    HW124209   3.544   2.174   5.120  0.7846 -1.0653 -1.9553
 4249SOL    HW224210   3.498   2.043   5.099  0.1790  0.8149 -0.3758
 4250SOL     OW24211   4.550   4.190   4.749 -1.1726 -0.1515  0.0422
 4250SOL    HW124212   4.623   4.140   4.786 -1.5733 -0.8222 -0.0649
 4250SOL    HW224213   4.579   4.279   4.769 -1.4547  0.1041 -0.7109
 4251SOL     OW24214   2.399   0.762   1.879 -0.6994 -0.3209 -0.9096
 4251SOL    HW124215   2.479   0.816   1.879 -1.8824  1.4482 -0.9408
 4251SOL    HW224216   2.335   0.819   1.837 -1.0395 -0.9212 -1.2005
 4252SOL     OW24217   2.776   3.495   4.101  0.3033 -0.1345 -0.2805
 4252SOL    HW124218   2.686   3.465   4.117  0.9808 -2.3770 -0.7910
 4252SOL    HW224219   2.808   3.529   4.185 -1.6726 -1.2991  0.9390
 4253SOL     OW24220   3.177   0.235   5.408  0.5058 -0.0258  0.0062
 4253SOL    HW124221   3.220   0.321   5.402 -0.4033  0.3757 -0.8215
 4253SOL    HW224222   3.239   0.192   5.349 -0.7492 -2.3524  0.4258
 4254SOL     OW24223   4.631   3.282   7.643  0.0939  0.1321  0.8158
 4254SOL    HW124224   4.639   3.287   7.738 -0.7044  0.1986  0.8761
 4254SOL    HW224225   4.559   3.219   7.640 -0.2224  0.3846  3.0565
 4255SOL     OW24226   1.572   2.261   8.638  0.3633  0.3703 -0.4242
 4255SOL    HW124227   1.569   2.210   8.558 -3.0549  1.3161 -0.8715
 4255SOL    HW224228   1.607   2.345   8.609  1.0845  0.1318 -0.2420
 4256SOL     OW24229   3.096   3.875   8.185 -0.1038  0.1137  0.0673
 4256SOL    HW124230   3.005   3.868   8.156  0.4361 -1.2056 -1.3332
 4256SOL    HW224231   3.105   3.797   8.239  0.8275 -0.3099 -0.6894
 4257SOL     OW24232   2.191   1.542   8.010 -0.2671  0.3589 -0.2084
 4257SOL    HW124233   2.146   1.600   7.947 -0.7009  1.6226  1.2644
 4257SOL    HW224234   2.160   1.457   7.981  0.2328 -0.2985  1.2342
 4258SOL     OW24235   3.248   0.274   4.757 -0.0985 -0.0813 -0.4709
 4258SOL    HW124236   3.339   0.248   4.741 -0.6064 -2.0651 -0.1572
 4258SOL    HW224237   3.242   0.289   4.852  0.1277 -0.3152 -0.4197
 4259SOL     OW24238   4.159   3.246   5.261  0.0790 -0.1057  0.3295
 4259SOL    HW124239   4.122   3.209   5.341  2.5381  0.4160  1.6815
 4259SOL    HW224240   4.226   3.302   5.298  0.2323 -0.1133  0.0648
 4260SOL     OW24241   2.963   4.409  13.528  0.1156 -0.0861 -0.5998
 4260SOL    HW124242   2.970   4.442  13.618  2.8996 -2.5744  0.1016
 4260SOL    HW224243   3.044   4.428  13.481 -0.9609  0.1244 -2.3842
 4261SOL     OW24244   2.747   3.452   4.611 -0.3083  0.6669  0.1487
 4261SOL    HW124245   2.840   3.439   4.591 -0.1836 -2.4498  2.7395
 4261SOL    HW224246   2.749   3.501   4.694  0.6500  0.3925  0.2953
 4262SOL     OW24247   1.461   3.126  12.180 -0.5542 -0.4447 -0.2241
 4262SOL    HW124248   1.474   3.097  12.270  1.4299 -1.4131 -0.8175
 4262SOL    HW224249   1.535   3.185  12.166 -1.8173  1.3822  0.8368
 4263SOL     OW24250   3.655   4.473   3.249  0.1210 -0.1437  0.4584
 4263SOL    HW124251   3.700   4.558   3.247 -0.3828  0.1150  0.2600
 4263SOL    HW224252   3.631   4.471   3.157 -0.1206  2.3046  0.4855
 4264SOL     OW24253   0.618   2.117   7.782 -0.1923 -0.2066  0.5525
 4264SOL    HW124254   0.636   2.025   7.762 -0.7218  0.0203 -0.9069
 4264SOL    HW224255   0.528   2.126   7.751 -0.0886 -0.9640  0.0349
 4265SOL     OW24256   4.217   0.364   8.703 -0.1075  0.4386  0.1622
 4265SOL    HW124257   4.172   0.283   8.679  0.3220 -0.3505  1.9814
 4265SOL    HW224258   4.140   0.418   8.723  0.3111  0.7080  1.0345
 4266SOL     OW24259   0.963   2.135   7.592 -0.4815  0.4812 -0.2778
 4266SOL    HW124260   1.058   2.128   7.581 -0.3878 -0.0187  0.8991
 4266SOL    HW224261   0.942   2.225   7.565 -0.3678  1.4668  2.8811
 4267SOL     OW24262   2.839   3.603  15.963 -0.6363  0.1185 -0.1079
 4267SOL    HW124263   2.829   3.688  16.005  0.1954  1.1174 -1.9310
 4267SOL    HW224264   2.934   3.596  15.962 -0.8315 -2.7208  0.8692
 4268SOL     OW24265   2.331   2.966  12.266  0.1346 -0.5536  0.1309
 4268SOL    HW124266   2.325   2.940  12.358 -0.2703  2.5783  0.9841
 4268SOL    HW224267   2.354   3.058  12.278  1.9409 -1.1873  1.5848
 4269SOL     OW24268   4.495   1.402  13.834  0.1269  0.3237 -0.2476
 4269SOL    HW124269   4.496   1.483  13.783 -1.9793  1.6276  1.8238
 4269SOL    HW224270   4.440   1.432  13.906  1.7446 -1.3601  1.7133
 4270SOL     OW24271   0.433   1.264  10.046 -0.0641 -0.2995 -0.2506
 4270SOL    HW124272   0.415   1.221   9.962 -2.0168  1.1796 -0.5890
 4270SOL    HW224273   0.379   1.209  10.103  1.4880 -0.5646  0.9544
 4271SOL     OW24274   2.316   2.482  15.835 -0.0752  0.5136  0.3079
 4271SOL    HW124275   2.310   2.418  15.764  2.1171  1.8666 -1.0999
 4271SOL    HW224276   2.278   2.429  15.905 -3.0683  0.9286 -1.0127
 4272SOL     OW24277   0.301   3.916   4.199  0.5400  0.3068 -0.3658
 4272SOL    HW124278   0.238   3.901   4.129  1.4657 -2.7715 -0.5643
 4272SOL    HW224279   0.343   3.830   4.196 -2.9012 -1.2542 -2.8837
 4273SOL     OW24280   0.872   0.907   3.777  0.2787  0.2793 -0.3370
 4273SOL    HW124281   0.927   0.980   3.806 -0.3281  0.7388 -0.3438
 4273SOL    HW224282   0.861   0.854   3.856  1.2814 -1.0534 -1.0865
 4274SOL     OW24283   3.716   1.869   3.374 -0.2572 -0.5791 -0.2896
 4274SOL    HW124284   3.625   1.848   3.396  0.3749 -2.2825  0.7184
 4274SOL    HW224285   3.726   1.806   3.302 -1.4083 -0.2120 -0.7743
 4275SOL     OW24286   0.073   0.511   4.999 -0.0929  0.6881 -0.0839
 4275SOL    HW124287   0.167   0.530   4.997  0.2206 -0.6556  2.7739
 4275SOL    HW224288   0.041   0.592   5.039  3.3587  1.1652  1.7737
 4276SOL     OW24289   4.185   1.057   7.222 -0.2659  0.3561  0.2862
 4276SOL    HW124290   4.279   1.073   7.229 -0.0466 -1.4600  1.3631
 4276SOL    HW224291   4.167   1.127   7.284  0.6510  0.8049  0.0378
 4277SOL     OW24292   0.582   0.997  10.436  0.5619 -0.2975 -0.6370
 4277SOL    HW124293   0.652   0.931  10.439  0.2071 -0.7082 -1.2850
 4277SOL    HW224294   0.570   1.023  10.527 -1.2959 -1.0469 -0.6685
 4278SOL     OW24295   0.156   0.914   9.396  0.4763 -0.3651 -0.4344
 4278SOL    HW124296   0.141   0.996   9.443 -1.2559  0.0349 -1.6590
 4278SOL    HW224297   0.087   0.855   9.428  1.8472 -2.2564 -1.0261
 4279SOL     OW24298   1.853   1.708   3.018 -0.3869  0.4598  1.0227
 4279SOL    HW124299   1.906   1.746   3.089 -1.1589  0.3596  1.6556
 4279SOL    HW224300   1.914   1.650   2.972 -0.7878  0.7821  0.1038
 4280SOL     OW24301   1.664   4.117   1.544  0.1296 -0.3846  0.0919
 4280SOL    HW124302   1.677   4.206   1.512 -0.4378 -0.0457  0.8218
 4280SOL    HW224303   1.625   4.073   1.468  1.5911 -1.5753  0.0172
 4281SOL     OW24304   2.334   0.946   7.621 -0.2409  0.4320 -0.0115
 4281SOL    HW124305   2.283   0.931   7.700 -0.8933  0.0523 -0.5073
 4281SOL    HW224306   2.279   1.010   7.577 -1.0248 -0.0752  0.2259
 4282SOL     OW24307   0.391   4.498  13.051  0.5102 -0.3364 -0.3949
 4282SOL    HW124308   0.395   4.534  12.962 -0.2873  1.2951  0.2365
 4282SOL    HW224309   0.359   4.412  13.022  1.0220 -0.9793  0.9852
 4283SOL     OW24310   2.946   2.511   4.873  0.0426 -0.4417  0.3059
 4283SOL    HW124311   3.026   2.562   4.887 -0.2879  0.2299 -0.2489
 4283SOL    HW224312   2.878   2.576   4.858  1.3756  0.5511 -1.5043
 4284SOL     OW24313   0.426   0.752   5.557  0.2513  0.3097  0.4832
 4284SOL    HW124314   0.491   0.778   5.622  0.6770  0.4802 -0.0126
 4284SOL    HW224315   0.344   0.750   5.607  0.3751  1.2536  0.7381
 4285SOL     OW24316   3.426   0.341   8.301 -0.0565 -0.3604 -0.2435
 4285SOL    HW124317   3.507   0.327   8.252 -0.6945 -0.5858 -1.2377
 4285SOL    HW224318   3.386   0.255   8.314 -1.3545  0.6143  2.1119
 4286SOL     OW24319   0.861   3.787   6.670  0.1301  0.0523  0.2868
 4286SOL    HW124320   0.896   3.797   6.581 -0.2237 -1.7748 -0.0609
 4286SOL    HW224321   0.821   3.702   6.656  0.2639  0.0849 -0.2876
 4287SOL     OW24322   4.542   1.694   9.909 -0.2438 -0.1554 -0.1284
 4287SOL    HW124323   4.515   1.760   9.972 -1.4611 -0.0105 -0.7983
 4287SOL    HW224324   4.593   1.636   9.965  1.0346  0.4100 -0.7143
 4288SOL     OW24325   4.395   2.371   7.226  1.0012 -0.0401 -0.2033
 4288SOL    HW124326   4.456   2.356   7.154 -0.9196 -0.9435 -1.6574
 4288SOL    HW224327   4.375   2.465   7.222 -0.9143 -0.4522 -0.3747
 4289SOL     OW24328   3.540   2.310  13.645 -0.5868  0.0515 -0.2151
 4289SOL    HW124329   3.596   2.298  13.722  1.2980  0.3358 -1.5481
 4289SOL    HW224330   3.565   2.238  13.587 -0.1079 -0.7821  1.0231
 4290SOL     OW24331   2.371   0.156  14.426  0.7044 -0.4421  0.4069
 4290SOL    HW124332   2.455   0.199  14.410 -1.5731  2.4965 -3.5584
 4290SOL    HW224333   2.392   0.077  14.477 -0.5949 -0.7172  0.5052
 4291SOL     OW24334   0.691   1.577   9.733  0.1497 -0.1660  0.3494
 4291SOL    HW124335   0.650   1.658   9.762 -0.5739 -0.4996  0.2442
 4291SOL    HW224336   0.609   1.532   9.714  0.2101 -0.0582 -0.1715
 4292SOL     OW24337   3.086   2.872   8.409  0.5247  0.1321 -0.2294
 4292SOL    HW124338   3.119   2.851   8.495  0.8916  0.5400 -0.2709
 4292SOL    HW224339   3.154   2.837   8.351  1.3477 -0.4243  1.0863
 4293SOL     OW24340   3.371   4.066   1.892 -0.2325  0.0592  0.0142
 4293SOL    HW124341   3.284   4.039   1.862  0.9795 -0.3941 -3.1031
 4293SOL    HW224342   3.428   4.029   1.824 -0.1358  0.1031  0.0711
 4294SOL     OW24343   4.443   4.192   0.101 -0.2582  0.2290  0.2734
 4294SOL    HW124344   4.460   4.273   0.148 -3.0678  1.1408 -0.3344
 4294SOL    HW224345   4.477   4.134   0.170 -1.2240 -0.2480  0.3406
 4295SOL     OW24346   1.277   0.297   1.217  0.4314 -0.3131 -0.0814
 4295SOL    HW124347   1.216   0.245   1.269 -0.2039  1.5232  0.9990
 4295SOL    HW224348   1.262   0.255   1.132  0.4381  0.4245 -0.4483
 4296SOL     OW24349   3.250   2.897  12.282  0.1121 -0.6115 -0.5547
 4296SOL    HW124350   3.293   2.934  12.205 -2.1472  1.5731 -0.7587
 4296SOL    HW224351   3.324   2.899  12.343 -0.8389 -0.7479  0.6101
 4297SOL     OW24352   4.495   1.859  13.050  0.2656  0.8638  0.2734
 4297SOL    HW124353   4.574   1.836  13.002  1.0814 -1.6150  2.7848
 4297SOL    HW224354   4.466   1.775  13.085 -0.5924  1.0875  0.1119
 4298SOL     OW24355   0.068   4.018   4.801 -0.8655  0.5571 -0.4734
 4298SOL    HW124356   0.060   3.931   4.839  1.5671 -0.9045 -3.3033
 4298SOL    HW224357   0.157   4.011   4.766 -0.8314  2.1028 -0.6976
 4299SOL     OW24358   2.445   0.706   3.286  0.2628  0.2841 -0.3871
 4299SOL    HW124359   2.491   0.628   3.318 -0.3247  0.0856 -0.0268
 4299SOL    HW224360   2.353   0.680   3.277  0.2852 -0.0671  0.3860
 4300SOL     OW24361   1.049   1.736   9.282 -0.1908  0.0171  0.3297
 4300SOL    HW124362   1.137   1.762   9.309  0.0197 -0.8736  0.4987
 4300SOL    HW224363   1.046   1.647   9.317  0.0977 -0.2794 -0.4219
 4301SOL     OW24364   1.043   3.834   7.615 -0.0616  0.2119 -0.0457
 4301SOL    HW124365   0.959   3.858   7.654  0.6179 -1.6970  2.6143
 4301SOL    HW224366   1.076   3.784   7.690  0.2508  0.3469 -0.0893
 4302SOL     OW24367   0.746   3.276   5.334  0.1198  0.1496  0.6803
 4302SOL    HW124368   0.815   3.223   5.374 -0.7750  1.1494  3.4839
 4302SOL    HW224369   0.669   3.239   5.376  0.0479  0.1817  0.5756
 4303SOL     OW24370   1.448   2.512   7.488  0.1979  0.2764 -0.2529
 4303SOL    HW124371   1.414   2.491   7.402  3.0597 -0.3984 -1.2405
 4303SOL    HW224372   1.471   2.604   7.470  0.2806  0.8302  2.6391
 4304SOL     OW24373   0.757   3.321   4.601  0.1645  0.3230 -0.2614
 4304SOL    HW124374   0.675   3.359   4.633 -0.6205 -2.3179  0.8499
 4304SOL    HW224375   0.748   3.352   4.511 -0.2224 -0.6820 -0.5698
 4305SOL     OW24376   1.218   2.125  11.515  0.3332 -0.0428 -0.0310
 4305SOL    HW124377   1.181   2.039  11.496  0.2677 -0.6958  3.1872
 4305SOL    HW224378   1.175   2.146  11.597  0.7666 -1.7453  0.6413
 4306SOL     OW24379   2.716   4.182   4.598  0.4645 -0.2640 -0.3424
 4306SOL    HW124380   2.746   4.243   4.532  2.0299  0.7592  1.3238
 4306SOL    HW224381   2.653   4.229   4.653  0.0677 -0.5283 -0.5733
 4307SOL     OW24382   0.077   3.587  11.979  0.5771  0.0924  0.2123
 4307SOL    HW124383   0.133   3.514  11.954 -3.9610 -2.5539 -2.2007
 4307SOL    HW224384   0.134   3.659  12.006 -3.1468  2.3895  2.1225
 4308SOL     OW24385   0.289   0.240   8.512  0.3611  0.1137  0.0121
 4308SOL    HW124386   0.332   0.193   8.441 -0.0778  0.0818 -0.2349
 4308SOL    HW224387   0.362   0.256   8.572 -0.2967  2.3941  0.1827
 4309SOL     OW24388   0.808   4.555  10.651  0.5869 -0.1050 -0.5904
 4309SOL    HW124389   0.733   4.555  10.592  0.4857  1.6202 -0.4420
 4309SOL    HW224390   0.849   4.640  10.636  1.5369 -0.4050  0.2198
 4310SOL     OW24391   0.571   2.089   9.020  0.0875  0.5509  0.2746
 4310SOL    HW124392   0.643   2.119   9.076  0.7561 -1.9127  0.7314
 4310SOL    HW224393   0.495   2.120   9.070  0.2434  0.8463  0.3322
 4311SOL     OW24394   1.813   2.231   4.716 -0.4629  0.4025  0.1299
 4311SOL    HW124395   1.907   2.248   4.720 -0.6009  0.4119  2.8184
 4311SOL    HW224396   1.777   2.271   4.794  0.5702  0.1702  0.7204
 4312SOL     OW24397   3.475   0.778   5.603 -0.3301  0.1195 -0.6031
 4312SOL    HW124398   3.480   0.873   5.605 -1.2696  0.1807 -0.8158
 4312SOL    HW224399   3.469   0.758   5.510 -1.8810 -0.9385 -0.2923
 4313SOL     OW24400   1.844   3.052   2.776  0.3445  0.2298  0.2615
 4313SOL    HW124401   1.795   3.123   2.733  0.3044  0.3330  0.4790
 4313SOL    HW224402   1.791   2.979   2.744  3.0067 -0.9067 -1.5045
 4314SOL     OW24403   3.633   1.851   8.694 -0.1306 -0.1495 -0.2617
 4314SOL    HW124404   3.579   1.805   8.629  1.8982 -1.6240 -0.8999
 4314SOL    HW224405   3.567   1.853   8.763 -0.4089  1.4430 -0.5614
 4315SOL     OW24406   2.849   4.586   3.985  0.5814  0.7834  0.9533
 4315SOL    HW124407   2.918   4.586   3.919 -0.2714  2.2987  0.0731
 4315SOL    HW224408   2.785   4.646   3.946  1.0220  0.5953 -0.0547
 4316SOL     OW24409   1.942   2.026  15.076  0.0031 -0.6206  0.3736
 4316SOL    HW124410   1.963   1.966  15.004 -1.2709  0.1726 -0.6791
 4316SOL    HW224411   1.979   1.985  15.153 -3.2362 -0.4622  1.9940
 4317SOL     OW24412   1.802   2.695   3.104 -0.1552 -0.1818  0.4586
 4317SOL    HW124413   1.727   2.738   3.062  1.0791  1.1373 -0.3707
 4317SOL    HW224414   1.806   2.753   3.181  1.8527  0.6421 -0.2786
 4318SOL     OW24415   2.988   4.050   6.199 -0.3995 -0.2833 -0.1412
 4318SOL    HW124416   3.054   4.008   6.254 -1.8402 -1.3492  0.7972
 4318SOL    HW224417   2.907   4.028   6.246  0.4646 -0.9911  1.0314
 4319SOL     OW24418   0.774   1.487   0.806 -0.1188 -0.2675  0.1207
 4319SOL    HW124419   0.704   1.431   0.841 -0.6739  0.9282  0.9257
 4319SOL    HW224420   0.723   1.567   0.808 -0.8545 -0.6237 -3.2287
 4320SOL     OW24421   4.631   3.499   9.160 -0.4909 -0.6442  0.3942
 4320SOL    HW124422   4.559   3.495   9.097  0.3792 -0.6215 -0.6196
 4320SOL    HW224423   4.622   3.417   9.209 -1.9268 -1.4244 -1.1675
 4321SOL     OW24424   2.441   3.459   3.176 -0.1659  0.1044  0.3315
 4321SOL    HW124425   2.511   3.431   3.117  0.0286 -1.5084  1.3513
 4321SOL    HW224426   2.374   3.398   3.147  0.1448 -0.3539  0.5746
 4322SOL     OW24427   3.090   0.088   3.726  0.4322  0.2107  0.6294
 4322SOL    HW124428   3.062   0.006   3.766 -1.3331  0.0508 -0.9517
 4322SOL    HW224429   3.185   0.077   3.725  0.3080 -0.9693  3.5985
 4323SOL     OW24430   2.495   4.120   9.026 -0.3200  0.5339  0.2586
 4323SOL    HW124431   2.512   4.148   9.116  1.0663 -0.0174  0.1712
 4323SOL    HW224432   2.506   4.024   9.027  2.1955  0.7784 -2.2186
 4324SOL     OW24433   1.320   0.605   7.669 -0.0978  0.0691 -0.2546
 4324SOL    HW124434   1.361   0.621   7.584 -2.0681 -1.7303 -1.5244
 4324SOL    HW224435   1.286   0.693   7.684 -0.0210 -0.1083  0.9958
 4325SOL     OW24436   0.746   3.368   2.600 -0.4900  0.2627 -0.4765
 4325SOL    HW124437   0.679   3.300   2.601  0.8815 -1.0508  2.2971
 4325SOL    HW224438   0.707   3.440   2.550  0.7142 -0.3982 -2.3760
 4326SOL     OW24439   1.507   2.793   5.668 -0.1343 -0.0436 -0.2816
 4326SOL    HW124440   1.434   2.849   5.644 -0.9122 -0.4798  1.0665
 4326SOL    HW224441   1.527   2.730   5.598  0.9066  0.8101 -0.7477
 4327SOL     OW24442   2.208   4.073  11.705  0.2675 -0.3947  0.2742
 4327SOL    HW124443   2.300   4.095  11.695  0.3223 -0.0642  1.4778
 4327SOL    HW224444   2.191   4.096  11.797 -1.8703  0.3690 -0.2989
 4328SOL     OW24445   1.319   3.633   3.652 -0.3730  0.0221  0.4352
 4328SOL    HW124446   1.357   3.702   3.597 -1.1971 -0.4617 -0.7394
 4328SOL    HW224447   1.228   3.660   3.660 -0.2256  0.5587  0.3164
 4329SOL     OW24448   0.182   1.444   2.345 -0.1129  0.2665  0.4688
 4329SOL    HW124449   0.091   1.425   2.365  0.1801 -1.6470 -0.0209
 4329SOL    HW224450   0.205   1.367   2.293 -3.1501  0.5398 -1.2321
 4330SOL     OW24451   1.494   2.798   7.138  0.0130  0.1352 -0.2895
 4330SOL    HW124452   1.504   2.881   7.091  0.8946 -0.7129 -1.5900
 4330SOL    HW224453   1.561   2.746   7.095  1.5855  1.8914  0.0455
 4331SOL     OW24454   0.239   1.028   8.993 -0.0682  0.2356  0.1219
 4331SOL    HW124455   0.293   0.968   9.044 -1.6331 -0.2287  1.2419
 4331SOL    HW224456   0.175   1.048   9.062 -0.6185 -1.0632 -0.0193
 4332SOL     OW24457   4.717   1.535   6.744  0.2790  0.0481  0.3169
 4332SOL    HW124458   4.642   1.504   6.796  1.7877  0.7592  2.9320
 4332SOL    HW224459   0.009   1.463   6.683 -1.3150 -0.3789  0.4143
 4333SOL     OW24460   2.723   2.655   4.532  0.0063 -0.0478 -0.1257
 4333SOL    HW124461   2.731   2.638   4.625  1.1527 -0.5607 -0.3199
 4333SOL    HW224462   2.802   2.704   4.510  0.5925 -0.3034  1.4252
 4334SOL     OW24463   4.709   0.525  13.158  0.3980  0.1705  0.3496
 4334SOL    HW124464   4.665   0.474  13.089  0.0732 -0.7315  1.2186
 4334SOL    HW224465   4.667   0.610  13.154  0.1480 -0.0299 -1.4822
 4335SOL     OW24466   1.412   2.300   5.230  0.3409  0.2887 -0.3301
 4335SOL    HW124467   1.321   2.296   5.201 -0.3219  0.0045  1.7929
 4335SOL    HW224468   1.438   2.213   5.200  0.4960  0.2838 -0.1780
 4336SOL     OW24469   0.694   1.459   3.749  0.5065 -0.0263 -0.1779
 4336SOL    HW124470   0.618   1.449   3.691  1.0535  1.3700 -1.1478
 4336SOL    HW224471   0.664   1.400   3.818 -0.8131  0.3502 -0.4329
 4337SOL     OW24472   4.280   1.629  11.806  0.6213 -0.6929 -0.0304
 4337SOL    HW124473   4.312   1.662  11.722  0.1195  2.8219  1.1911
 4337SOL    HW224474   4.228   1.696  11.849  1.2092  0.4246 -1.0719
 4338SOL     OW24475   0.070   0.959   7.574 -0.0474  0.7334  0.5040
 4338SOL    HW124476   0.129   0.893   7.610  0.5964 -0.2551 -2.3566
 4338SOL    HW224477   0.058   0.921   7.487 -1.7631  0.3255  0.9200
 4339SOL     OW24478   1.901   4.676   5.511  0.0093 -0.5445  0.1450
 4339SOL    HW124479   1.924   4.585   5.530  1.1767 -0.2746  0.0588
 4339SOL    HW224480   1.988   4.705   5.484 -1.1558  2.4980 -0.3841
 4340SOL     OW24481   1.133   1.389  14.208  0.0010 -0.1408  0.4326
 4340SOL    HW124482   1.219   1.403  14.168  0.4905 -0.6240  1.3221
 4340SOL    HW224483   1.160   1.418  14.295 -0.1627  1.3924 -0.0246
 4341SOL     OW24484   0.448   3.390   2.512  0.0044  0.3199  0.3912
 4341SOL    HW124485   0.467   3.483   2.523 -0.2086  0.0991  2.7389
 4341SOL    HW224486   0.397   3.389   2.431  1.1976 -2.9253 -0.2989
 4342SOL     OW24487   1.174   1.950  11.157 -0.3138 -0.0591 -0.1802
 4342SOL    HW124488   1.124   1.934  11.237  1.0649  0.9115  0.8673
 4342SOL    HW224489   1.238   2.016  11.182 -0.8500 -0.0537  1.1548
 4343SOL     OW24490   3.952   0.381   3.165 -0.0838 -0.0938 -0.3228
 4343SOL    HW124491   4.017   0.316   3.138 -0.0796 -1.4614  2.9572
 4343SOL    HW224492   3.902   0.321   3.220  0.3010 -1.1580 -1.1353
 4344SOL     OW24493   0.729   2.120   4.558 -0.0996 -0.2155  0.5583
 4344SOL    HW124494   0.737   2.117   4.463  0.4099  1.1338  0.5591
 4344SOL    HW224495   0.696   2.206   4.583 -1.5061 -0.1339 -1.5776
 4345SOL     OW24496   1.263   2.463   8.330  0.7162  0.3602 -0.2421
 4345SOL    HW124497   1.198   2.467   8.260  0.8526  0.9531 -0.3337
 4345SOL    HW224498   1.218   2.407   8.394 -0.5030 -0.2343 -1.6326
 4346SOL     OW24499   4.093   4.680   6.562  0.5942 -0.8751 -0.1219
 4346SOL    HW124500   4.064   4.591   6.585  1.0092 -1.1274 -0.5618
 4346SOL    HW224501   4.114   4.717   6.648 -2.5399  0.7808 -0.0721
 4347SOL     OW24502   2.635   0.493   7.192 -0.2118  0.0451  0.7306
 4347SOL    HW124503   2.662   0.477   7.102 -1.9048 -1.3100  0.4728
 4347SOL    HW224504   2.572   0.564   7.181  0.6751  1.3263  3.7384
 4348SOL     OW24505   1.413   4.296   4.145 -0.1681  0.0433 -0.4605
 4348SOL    HW124506   1.415   4.363   4.213  0.4528 -0.3230 -0.1202
 4348SOL    HW224507   1.406   4.216   4.196  2.1528  0.4064  0.4374
 4349SOL     OW24508   3.643   1.755   2.448 -0.1533 -0.0601 -0.0093
 4349SOL    HW124509   3.611   1.843   2.430  0.3153  0.2230  0.5286
 4349SOL    HW224510   3.664   1.722   2.361 -1.8471  0.5476 -0.6430
 4350SOL     OW24511   1.584   4.604   3.659 -0.1086 -0.3910 -0.1667
 4350SOL    HW124512   1.602   4.667   3.729 -2.2802 -0.7268  0.7047
 4350SOL    HW224513   1.563   4.524   3.707 -1.6437 -1.0113 -1.8942
 4351SOL     OW24514   4.023   1.298   6.349 -0.5376 -0.7502 -0.2384
 4351SOL    HW124515   3.977   1.359   6.406 -0.4584 -1.3468  0.4641
 4351SOL    HW224516   3.969   1.285   6.271  0.2388 -2.2501 -0.5292
 4352SOL     OW24517   3.428   3.596  17.655  0.1069 -0.3871 -0.0330
 4352SOL    HW124518   3.341   3.600  17.617  0.5206  1.7653 -0.7416
 4352SOL    HW224519   3.399   3.545   0.036 -3.0074 -2.6254 -2.7388
 4353SOL     OW24520   3.244   2.997   8.015 -0.2831 -0.1408  0.3518
 4353SOL    HW124521   3.244   3.033   8.103  2.1359  0.5248  0.0728
 4353SOL    HW224522   3.197   2.914   8.027 -1.0993  0.3829  0.7645
 4354SOL     OW24523   2.737   4.418   4.471 -0.8544  0.1147 -0.2282
 4354SOL    HW124524   2.678   4.406   4.396  1.2825  2.3001 -2.2759
 4354SOL    HW224525   2.799   4.482   4.434  3.0322 -3.0893  0.7673
 4355SOL     OW24526   3.605   4.180   2.611 -0.4962 -0.0608 -0.3890
 4355SOL    HW124527   3.555   4.124   2.551 -2.4736  1.6337 -0.2882
 4355SOL    HW224528   3.618   4.251   2.548 -1.2668 -0.9209 -1.5165
 4356SOL     OW24529   3.034   3.580   5.682 -0.1991  0.3719  0.1267
 4356SOL    HW124530   2.990   3.600   5.764  2.4085 -1.4233  1.9378
 4356SOL    HW224531   3.119   3.551   5.715  1.0643  1.3476 -2.2442
 4357SOL     OW24532   2.237   1.965   7.860  0.2326 -0.0542  0.0952
 4357SOL    HW124533   2.188   2.017   7.924 -1.5960 -1.8589  0.1508
 4357SOL    HW224534   2.327   1.981   7.887  0.0769  1.7265 -0.4225
 4358SOL     OW24535   0.595   2.595   8.462 -0.1838  0.7124  0.3944
 4358SOL    HW124536   0.548   2.529   8.514  0.7839  0.2512  0.6847
 4358SOL    HW224537   0.629   2.540   8.392 -1.5223  2.0225 -1.2804
 4359SOL     OW24538   0.071   2.961   8.135  0.2339  0.3751  0.7903
 4359SOL    HW124539   0.037   2.882   8.177  0.4223 -0.7052 -1.0818
 4359SOL    HW224540   0.027   2.953   8.050 -1.0096  2.5076  1.2281
 4360SOL     OW24541   0.761   1.782  13.962 -0.2456  0.2323 -0.3427
 4360SOL    HW124542   0.687   1.770  13.903 -0.0047  1.8212 -0.9653
 4360SOL    HW224543   0.825   1.798  13.892 -0.9478 -0.1338 -1.0742
 4361SOL     OW24544   1.568   1.381  15.318 -0.0555 -0.1703 -0.1431
 4361SOL    HW124545   1.476   1.378  15.344 -0.1082 -1.6278 -0.4916
 4361SOL    HW224546   1.618   1.359  15.396 -0.9593  1.1278  0.8086
 4362SOL     OW24547   4.039   2.210   3.129 -0.0388  0.6091  0.2735
 4362SOL    HW124548   4.126   2.248   3.116  1.2445 -2.4249  0.1694
 4362SOL    HW224549   4.035   2.188   3.222  0.2225  0.3593  0.2236
 4363SOL     OW24550   1.284   4.503  14.322 -0.3377  0.0339  0.0354
 4363SOL    HW124551   1.277   4.426  14.377  1.2656 -0.9308 -1.0915
 4363SOL    HW224552   1.202   4.543  14.349 -0.1402  0.5094 -0.0635
 4364SOL     OW24553   2.076   1.847   7.256  0.0346  0.7368 -0.3420
 4364SOL    HW124554   2.115   1.867   7.341  0.2584  0.5514 -0.4037
 4364SOL    HW224555   2.132   1.775   7.229  0.8321  1.2397 -0.0139
 4365SOL     OW24556   3.000   2.446   9.356 -0.6340  0.0570  0.0158
 4365SOL    HW124557   2.923   2.502   9.372 -1.1863 -0.3018 -1.4237
 4365SOL    HW224558   3.003   2.403   9.441 -0.0834 -0.9154 -0.4995
 4366SOL     OW24559   1.468   0.866   8.037  0.2181  0.1934  0.0928
 4366SOL    HW124560   1.408   0.882   7.964  2.1665 -0.9839 -1.7852
 4366SOL    HW224561   1.549   0.894   7.994  1.2942  0.3701  2.2450
 4367SOL     OW24562   0.190   1.351   1.145 -0.0487 -0.6480  0.6506
 4367SOL    HW124563   0.204   1.386   1.233  0.4689  1.2484 -0.1827
 4367SOL    HW224564   0.267   1.298   1.127  0.2780 -0.4888  1.5847
 4368SOL     OW24565   0.342   0.972   7.914 -0.1682 -0.2521 -0.6021
 4368SOL    HW124566   0.316   0.964   8.006  0.3840 -1.0083 -0.5154
 4368SOL    HW224567   0.260   0.972   7.865 -1.4984 -0.7543  1.6157
 4369SOL     OW24568   3.429   3.271   2.998  0.1887 -0.0886  0.2225
 4369SOL    HW124569   3.510   3.240   3.039  0.1411  0.3552  0.6527
 4369SOL    HW224570   3.388   3.337   3.055  1.3730  1.1638 -0.3908
 4370SOL     OW24571   0.152   4.105  15.302  1.0231  0.6904 -0.3309
 4370SOL    HW124572   0.183   4.132  15.388  1.4013  1.2105 -0.6315
 4370SOL    HW224573   0.169   4.187  15.256  2.2379  1.1173  0.8962
 4371SOL     OW24574   0.931   0.196   3.139  0.2236 -0.4404  0.1257
 4371SOL    HW124575   0.898   0.283   3.160  1.8352  0.6881 -2.0099
 4371SOL    HW224576   0.918   0.151   3.222 -3.0804  1.0539  0.4311
 4372SOL     OW24577   0.834   1.984   8.001 -0.1638 -0.1809  0.0615
 4372SOL    HW124578   0.873   1.899   7.981  1.2617 -0.2946  3.3148
 4372SOL    HW224579   0.783   1.967   8.080  0.3922 -1.1815  0.2043
 4373SOL     OW24580   1.992   3.066   4.559 -0.1400 -0.1630 -0.2007
 4373SOL    HW124581   1.947   2.996   4.511  0.3764  0.2262 -1.2584
 4373SOL    HW224582   2.045   3.102   4.487  0.1595  0.7105  0.4527
 4374SOL     OW24583   0.674   1.568   6.214 -0.7775 -0.2978  0.7138
 4374SOL    HW124584   0.640   1.479   6.221 -0.3278 -0.2417  3.5719
 4374SOL    HW224585   0.627   1.605   6.139  1.8775 -0.0795 -0.8254
 4375SOL     OW24586   2.610   3.484   4.868 -0.1205  0.5723 -0.2093
 4375SOL    HW124587   2.556   3.432   4.809 -0.7240  1.1694 -0.1950
 4375SOL    HW224588   2.693   3.439   4.875 -0.3721 -0.2082 -2.2691
 4376SOL     OW24589   3.040   3.308  16.232  0.2514  0.0307 -0.0307
 4376SOL    HW124590   3.053   3.358  16.152  0.4040  3.2370  1.9752
 4376SOL    HW224591   3.109   3.328  16.295 -0.1591 -1.7558  1.0008
 4377SOL     OW24592   3.584   0.366  13.659 -0.6739 -0.8287  0.3007
 4377SOL    HW124593   3.500   0.384  13.617 -1.0349 -1.3440  0.8038
 4377SOL    HW224594   3.550   0.313  13.731  0.9877 -2.2572  0.0622
 4378SOL     OW24595   2.830   2.155  14.502  0.2453  0.3770 -0.2214
 4378SOL    HW124596   2.770   2.137  14.574  1.6241  0.2718  0.8965
 4378SOL    HW224597   2.860   2.067  14.481 -1.2505 -0.3799  0.9127
 4379SOL     OW24598   0.386   2.517   7.507 -0.0608 -0.4786 -0.3284
 4379SOL    HW124599   0.476   2.543   7.487 -1.2288  4.2135  0.5076
 4379SOL    HW224600   0.373   2.564   7.589  1.7942  2.3158 -1.6228
 4380SOL     OW24601   2.634   0.049  13.182 -0.2314 -0.3028  0.3110
 4380SOL    HW124602   2.605   4.714  13.112  3.1164  1.7103 -2.7234
 4380SOL    HW224603   2.653   0.129  13.133 -0.1565  0.1362  1.0445
 4381SOL     OW24604   0.171   0.992   1.169  0.0751 -0.0568 -0.0756
 4381SOL    HW124605   0.193   1.064   1.109 -0.7261  0.7741  0.6153
 4381SOL    HW224606   0.255   0.952   1.148 -0.2638 -0.9064  0.1779
 4382SOL     OW24607   2.745   0.934   2.450  0.3256  0.2815  0.0480
 4382SOL    HW124608   2.671   0.926   2.389  0.5678  1.6504 -0.4271
 4382SOL    HW224609   2.804   0.957   2.378 -0.1429  0.3612 -0.3100
 4383SOL     OW24610   1.160   2.342   3.718 -0.2358  0.2245  0.0555
 4383SOL    HW124611   1.248   2.331   3.683  0.2796  0.4813  1.2581
 4383SOL    HW224612   1.101   2.325   3.644  1.4690 -2.7688 -0.6394
 4384SOL     OW24613   1.363   1.638   7.819  0.4035  0.2429 -0.1497
 4384SOL    HW124614   1.322   1.644   7.905  1.2010 -1.3554  0.3383
 4384SOL    HW224615   1.381   1.730   7.799 -1.0367  1.0160  2.1635
 4385SOL     OW24616   3.820   0.974   2.283  0.0277 -0.0583 -0.5681
 4385SOL    HW124617   3.769   1.053   2.268 -0.7615 -0.3487  0.5423
 4385SOL    HW224618   3.798   0.930   2.201  0.1044  0.3898 -0.8241
 4386SOL     OW24619   2.870   0.665  16.515 -0.4737 -0.8370 -0.3146
 4386SOL    HW124620   2.819   0.705  16.444  1.0764  1.5957 -0.0418
 4386SOL    HW224621   2.958   0.697  16.495 -0.4936 -0.7791 -0.3098
 4387SOL     OW24622   1.065   1.325  10.959  0.0790  0.1145  0.0214
 4387SOL    HW124623   0.978   1.286  10.961  0.6974 -1.3215 -1.1106
 4387SOL    HW224624   1.114   1.276  10.893  0.7309 -0.4323  0.9180
 4388SOL     OW24625   2.425   4.449   1.986  0.1344  0.1376  0.2709
 4388SOL    HW124626   2.468   4.378   1.939 -0.1760 -0.2224  0.5366
 4388SOL    HW224627   2.494   4.515   1.991  1.0796 -0.7102 -1.4003
 4389SOL     OW24628   0.979   4.402  12.893 -0.2927 -0.3600 -0.2433
 4389SOL    HW124629   1.055   4.431  12.943 -0.3995  0.9288 -0.8338
 4389SOL    HW224630   1.016   4.375  12.808 -0.6792  0.3214 -0.6263
 4390SOL     OW24631   3.588   2.562   5.443 -0.5998 -0.1910 -0.5315
 4390SOL    HW124632   3.495   2.577   5.455 -1.1469 -2.3834 -1.9852
 4390SOL    HW224633   3.623   2.581   5.530  0.1630 -2.0146 -0.4379
 4391SOL     OW24634   0.011   1.914   4.994  0.2397 -0.2132  0.2363
 4391SOL    HW124635   4.660   1.890   5.049 -0.9333 -0.3162 -1.3898
 4391SOL    HW224636   0.083   1.871   5.041 -0.4318 -0.8260  0.7173
 4392SOL     OW24637   2.348   3.750   6.040 -0.3044 -0.0374  0.3027
 4392SOL    HW124638   2.406   3.802   6.095 -1.1834  1.1253  0.1330
 4392SOL    HW224639   2.384   3.662   6.050  2.2967  0.9164 -0.6188
 4393SOL     OW24640   4.145   4.672  11.316  0.2116 -0.1425  0.2579
 4393SOL    HW124641   4.214   4.608  11.295  2.2515  2.3362 -0.5160
 4393SOL    HW224642   4.186   0.035  11.314  0.5076 -0.3034 -0.6549
 4394SOL     OW24643   4.225   3.351   3.123  0.4191  0.5601 -0.1242
 4394SOL    HW124644   4.276   3.318   3.196  0.7846  0.3670 -0.4662
 4394SOL    HW224645   4.174   3.273   3.100 -0.7569  1.4324 -0.4958
 4395SOL     OW24646   0.083   2.420  13.224  0.3660  0.0037 -0.4740
 4395SOL    HW124647   0.142   2.489  13.194 -0.1349  0.7359  0.2240
 4395SOL    HW224648   0.080   2.445  13.316 -1.6551  1.1373 -0.8212
 4396SOL     OW24649   1.663   0.688   4.113 -0.1907  1.0068  0.4879
 4396SOL    HW124650   1.581   0.640   4.122  1.3657 -1.7748 -0.0727
 4396SOL    HW224651   1.625   0.746   4.048  0.4226  0.4847 -0.3361
 4397SOL     OW24652   1.159   3.076   6.753  0.0188  0.4595  0.1943
 4397SOL    HW124653   1.160   3.077   6.848 -0.2096  0.2461  0.2004
 4397SOL    HW224654   1.099   3.150   6.746  0.9824  1.1708 -0.5411
 4398SOL     OW24655   2.885   0.985   8.077  0.2256  0.2362 -0.1698
 4398SOL    HW124656   2.886   0.944   8.164  1.0155 -1.9660 -1.2178
 4398SOL    HW224657   2.794   0.965   8.053  1.0110 -2.9229 -0.5188
 4399SOL     OW24658   3.304   0.999   6.216  0.2869 -0.0357  0.0951
 4399SOL    HW124659   3.303   1.089   6.248  0.2888 -0.7504  2.0879
 4399SOL    HW224660   3.397   0.999   6.193  0.0350 -0.0330 -0.9056
 4400SOL     OW24661   4.611   0.740  10.978  0.2770 -0.1708 -0.3357
 4400SOL    HW124662   4.516   0.729  10.982  0.2122  1.0304  1.3177
 4400SOL    HW224663   4.618   0.740  10.882  2.0913  0.5783 -0.2112
 4401SOL     OW24664   1.554   1.360  10.782  0.2266 -0.1783 -0.0758
 4401SOL    HW124665   1.550   1.331  10.873  2.9086  0.8539  0.3519
 4401SOL    HW224666   1.469   1.404  10.775  1.2036  1.2589 -2.8479
 4402SOL     OW24667   3.587   1.285   7.838 -0.1430  0.0429 -0.1120
 4402SOL    HW124668   3.586   1.354   7.904  0.9072  1.2713 -1.4040
 4402SOL    HW224669   3.656   1.234   7.880  1.9854  1.1475 -2.2833
 4403SOL     OW24670   1.131   2.602  14.947  0.4208  0.2339 -0.1082
 4403SOL    HW124671   1.065   2.553  14.899 -0.9402  1.8804  0.0697
 4403SOL    HW224672   1.116   2.581  15.039 -0.5248  1.4778  0.0225
 4404SOL     OW24673   4.540   0.645  15.151  0.6366  0.4000  0.0565
 4404SOL    HW124674   4.563   0.553  15.164  0.0346  0.3882  1.0646
 4404SOL    HW224675   4.560   0.684  15.237 -0.7307  1.3474 -0.0683
 4405SOL     OW24676   1.733   4.503   4.233 -0.0313 -0.1379 -0.0842
 4405SOL    HW124677   1.723   4.568   4.163  0.0572  0.2052  0.2180
 4405SOL    HW224678   1.743   4.424   4.181  1.0690  0.3405 -0.6054
 4406SOL     OW24679   3.935   1.518   6.899 -0.3100  0.5916 -0.5578
 4406SOL    HW124680   3.851   1.499   6.857 -0.7007  0.0018  0.4978
 4406SOL    HW224681   3.964   1.428   6.912 -0.1516  0.4337 -1.9917
 4407SOL     OW24682   2.194   4.127   3.646  0.0130  0.6438 -0.6733
 4407SOL    HW124683   2.161   4.200   3.594 -1.3974 -1.4602 -2.6878
 4407SOL    HW224684   2.111   4.087   3.670  0.9081 -1.7526 -1.6592
 4408SOL     OW24685   0.644   0.457   1.220 -0.1848  0.3936 -0.3784
 4408SOL    HW124686   0.562   0.465   1.269  0.1353 -1.2521  0.4161
 4408SOL    HW224687   0.613   0.396   1.154 -2.2831 -0.0068  0.9653
 4409SOL     OW24688   0.831   0.965   7.805  0.0295 -0.1918  0.1367
 4409SOL    HW124689   0.738   0.977   7.822  0.8731  2.7218  2.5941
 4409SOL    HW224690   0.847   1.045   7.756  1.0617 -0.5124 -0.0651
 4410SOL     OW24691   0.951   3.500  12.639  0.0198  0.4655  0.0635
 4410SOL    HW124692   0.957   3.595  12.639 -0.0982  0.4762 -0.4532
 4410SOL    HW224693   0.857   3.483  12.642  0.4847 -1.6416  3.2425
 4411SOL     OW24694   2.288   4.523   7.101 -0.2621 -0.1858  0.6306
 4411SOL    HW124695   2.310   4.612   7.127 -0.6091 -0.2196  1.0372
 4411SOL    HW224696   2.205   4.542   7.057  0.7788 -0.5921 -1.5193
 4412SOL     OW24697   0.884   2.741   2.016  0.6918  0.2714 -0.7787
 4412SOL    HW124698   0.922   2.672   1.961 -0.8905 -0.0703 -1.4396
 4412SOL    HW224699   0.792   2.749   1.990 -0.0354 -2.3287  0.9865
 4413SOL     OW24700   0.623   3.504   4.999 -0.6382 -0.1531  0.1650
 4413SOL    HW124701   0.574   3.568   4.946  0.2056 -0.6488 -1.1997
 4413SOL    HW224702   0.557   3.481   5.065  0.0835 -1.0414  0.5747
 4414SOL     OW24703   0.412   4.512   2.243  0.6059 -0.5896  0.3276
 4414SOL    HW124704   0.391   4.605   2.244 -2.1984 -1.2273 -0.5012
 4414SOL    HW224705   0.476   4.506   2.314 -0.0084  1.2089  1.0215
 4415SOL     OW24706   1.706   0.817   6.341 -0.0982  0.4192 -0.0522
 4415SOL    HW124707   1.700   0.781   6.252  0.8965 -0.0887  0.0825
 4415SOL    HW224708   1.751   0.742   6.380 -2.8700 -0.4424  1.4291
 4416SOL     OW24709   0.070   2.507   4.987 -0.4314  1.0110 -0.3121
 4416SOL    HW124710   4.699   2.491   4.985 -0.8985  3.8459 -0.3495
 4416SOL    HW224711   0.091   2.450   5.061 -1.8311  0.9103  0.0146
 4417SOL     OW24712   4.238   3.628   6.224 -0.1135 -0.2802 -0.5496
 4417SOL    HW124713   4.162   3.596   6.176 -0.7514 -0.3696  0.5398
 4417SOL    HW224714   4.218   3.722   6.221 -1.9875 -0.6421  0.7408
 4418SOL     OW24715   1.085   0.007   6.361  0.2179  0.2801  0.0159
 4418SOL    HW124716   1.174   0.007   6.395 -0.4966  1.0712  1.9131
 4418SOL    HW224717   1.102   0.024   6.268  1.4547 -1.4786 -0.0880
 4419SOL     OW24718   4.697   4.698  15.483 -0.0815  0.0218 -0.0639
 4419SOL    HW124719   0.004   4.706  15.392 -0.0353  0.1005 -0.0414
 4419SOL    HW224720   4.631   0.043  15.475 -0.2509  0.1072  2.0908
 4420SOL     OW24721   3.174   1.068  13.869  0.1992  0.6787 -0.3258
 4420SOL    HW124722   3.172   1.153  13.825  1.5177  0.1587 -1.4271
 4420SOL    HW224723   3.142   1.081  13.958  1.3064  1.9558 -0.0988
 4421SOL     OW24724   4.498   4.447   2.409 -0.0545 -1.0025 -0.2400
 4421SOL    HW124725   4.529   4.421   2.496 -0.7908  2.6365  1.1005
 4421SOL    HW224726   4.534   4.382   2.349  0.2048 -0.1212 -1.0376
 4422SOL     OW24727   4.115   3.068   6.516 -0.5995 -0.3686 -0.2547
 4422SOL    HW124728   4.141   3.080   6.608 -0.7110  0.7546 -0.3816
 4422SOL    HW224729   4.142   3.151   6.478  0.2950 -0.0939  0.9555
 4423SOL     OW24730   2.879   4.089   2.600 -0.3476  0.1507 -0.5633
 4423SOL    HW124731   2.921   4.017   2.648 -2.2661  0.5492  1.6902
 4423SOL    HW224732   2.806   4.099   2.661  0.2646 -0.9446  0.3489
 4424SOL     OW24733   0.156   2.584   2.202  0.5445 -0.3332  0.1362
 4424SOL    HW124734   0.071   2.542   2.212 -0.0744  1.0012  0.3921
 4424SOL    HW224735   0.180   2.602   2.293  0.3342  2.3075 -0.3290
 4425SOL     OW24736   3.678   2.414   2.890 -0.2939  0.0500 -0.0841
 4425SOL    HW124737   3.596   2.453   2.920  1.1808  2.1184  1.2671
 4425SOL    HW224738   3.688   2.353   2.963  1.7831 -0.1918 -0.5634
 4426SOL     OW24739   4.118   1.678   1.979  0.1425  0.0853  0.3835
 4426SOL    HW124740   4.027   1.683   1.950  0.3031  3.0956  0.4755
 4426SOL    HW224741   4.111   1.734   2.055  2.8928  1.4306 -0.3381
 4427SOL     OW24742   2.503   0.235   6.230  0.0842  0.3245 -0.5592
 4427SOL    HW124743   2.530   0.144   6.233 -0.1609  0.2722  0.1702
 4427SOL    HW224744   2.408   0.240   6.214 -0.1733  0.0702  0.8396
 4428SOL     OW24745   1.589   3.898  12.481  0.0219  0.3864  0.3588
 4428SOL    HW124746   1.639   3.879  12.401 -0.9622  0.3868 -0.2632
 4428SOL    HW224747   1.516   3.836  12.474  1.8806 -1.5301 -2.2274
 4429SOL     OW24748   2.747   2.840  14.337 -0.7216  0.0231  0.2839
 4429SOL    HW124749   2.813   2.776  14.364  1.1638  2.0344  0.3661
 4429SOL    HW224750   2.739   2.893  14.416 -1.6216 -0.5268  0.5632
 4430SOL     OW24751   2.190   2.007   4.207  0.1849 -0.0361  0.3257
 4430SOL    HW124752   2.199   1.994   4.301  2.8637 -0.3792  0.0080
 4430SOL    HW224753   2.270   2.051   4.178  0.3213 -0.9091 -0.6359
 4431SOL     OW24754   0.727   3.612   4.617 -0.5971  0.0906 -0.2575
 4431SOL    HW124755   0.723   3.706   4.635 -1.1826 -0.5110  2.7597
 4431SOL    HW224756   0.811   3.586   4.656 -1.7931  1.9565  3.5914
 4432SOL     OW24757   0.997   2.685   8.499 -0.1988 -0.4865  0.1525
 4432SOL    HW124758   1.032   2.701   8.586 -2.8227  2.1571  0.7410
 4432SOL    HW224759   0.914   2.733   8.509 -0.5341 -1.0504  0.0856
 4433SOL     OW24760   1.669   4.067   0.687  0.4437 -0.0693 -0.0188
 4433SOL    HW124761   1.620   4.124   0.746  1.2996  1.5939 -0.9361
 4433SOL    HW224762   1.706   4.002   0.747  1.2757  1.4520  1.1121
 4434SOL     OW24763   2.985   2.052   8.988  0.5799  0.8218 -0.4343
 4434SOL    HW124764   3.080   2.064   8.984  0.7809 -0.6546  0.0525
 4434SOL    HW224765   2.948   2.140   8.994 -0.2538  0.5359 -1.3720
 4435SOL     OW24766   1.926   2.138   8.878  0.0757 -0.1110 -0.3627
 4435SOL    HW124767   1.841   2.111   8.843  0.1748 -0.6469 -0.1952
 4435SOL    HW224768   1.938   2.214   8.822  0.3953  0.1383  0.0451
 4436SOL     OW24769   1.849   1.077  13.515 -0.7013 -0.1157 -0.2472
 4436SOL    HW124770   1.836   0.998  13.566  1.1425  0.2504  0.7896
 4436SOL    HW224771   1.928   1.116  13.552 -0.2027 -1.8740  0.4887
 4437SOL     OW24772   2.599   4.316   7.733 -0.1888  0.0781  0.4082
 4437SOL    HW124773   2.598   4.227   7.768  1.1688 -0.8815 -1.9891
 4437SOL    HW224774   2.562   4.305   7.645 -0.3422  2.8673  0.1240
 4438SOL     OW24775   1.223   4.025   9.579 -0.8652  0.0927  0.4491
 4438SOL    HW124776   1.248   3.964   9.510 -1.6083  1.2132 -0.8274
 4438SOL    HW224777   1.208   3.962   9.649 -0.2035 -0.0631  0.4457
 4439SOL     OW24778   3.381   3.661   2.273  0.2193  0.4918 -0.1265
 4439SOL    HW124779   3.353   3.748   2.301  2.6790  0.3806  2.6876
 4439SOL    HW224780   3.459   3.687   2.224  0.8051  0.1233  0.6089
 4440SOL     OW24781   0.508   2.521   9.763 -0.0740  0.1445  0.1079
 4440SOL    HW124782   0.548   2.493   9.680 -0.7413 -1.7294  0.4219
 4440SOL    HW224783   0.481   2.429   9.774  1.4308 -0.5336 -1.7649
 4441SOL     OW24784   4.566   3.465   7.352 -0.7219  0.2697  0.8501
 4441SOL    HW124785   4.500   3.492   7.289 -0.6388 -1.5759 -0.0334
 4441SOL    HW224786   4.515   3.403   7.404  1.9921 -1.0994  1.9131
 4442SOL     OW24787   4.382   2.858   4.904  0.4261  0.0010  0.3636
 4442SOL    HW124788   4.288   2.844   4.903  0.5163 -0.6463  0.5610
 4442SOL    HW224789   4.410   2.818   4.822  0.6598 -0.9984  0.9328
 4443SOL     OW24790   1.612   4.194   0.127  0.3665  0.2115 -0.0068
 4443SOL    HW124791   1.622   4.112   0.174  0.2303  1.0077  1.4038
 4443SOL    HW224792   1.629   4.255   0.199  0.9375 -1.8967  1.6177
 4444SOL     OW24793   4.550   1.183   1.099 -0.3681 -0.3597  0.4750
 4444SOL    HW124794   4.568   1.277   1.096 -1.9653 -0.1156 -1.7408
 4444SOL    HW224795   4.561   1.167   1.005 -0.8646  0.1022  0.3388
 4445SOL     OW24796   4.442   3.073   6.167 -0.2296  0.5886  0.6870
 4445SOL    HW124797   4.403   3.042   6.086  1.3241  2.0193 -0.5959
 4445SOL    HW224798   4.431   3.166   6.147 -2.0069  0.8355  2.7721
 4446SOL     OW24799   4.180   2.359   9.560 -0.1314  0.4984 -0.3184
 4446SOL    HW124800   4.233   2.432   9.593 -0.4392  0.7335 -0.3410
 4446SOL    HW224801   4.115   2.334   9.625 -0.5412  1.1615 -0.4644
 4447SOL     OW24802   0.147   3.013  10.764 -0.0224 -1.3425  0.4106
 4447SOL    HW124803   0.059   2.983  10.740  0.0102 -0.5629 -0.6737
 4447SOL    HW224804   0.137   3.065  10.843  0.2317  2.1051 -1.8329
 4448SOL     OW24805   0.827   2.396   6.239  0.2455 -0.1608 -0.3736
 4448SOL    HW124806   0.764   2.457   6.278  1.1736  2.1856 -2.5376
 4448SOL    HW224807   0.860   2.342   6.311 -0.2582  0.4650  0.3353
 4449SOL     OW24808   1.481   2.519   6.836  0.3627  0.3480 -0.1060
 4449SOL    HW124809   1.412   2.577   6.870 -0.7060 -0.3133 -1.1582
 4449SOL    HW224810   1.556   2.551   6.886 -1.2937  2.0757  1.3256
 4450SOL     OW24811   1.802   0.712   4.864  0.0295  0.8225  0.0662
 4450SOL    HW124812   1.779   0.693   4.774 -1.5965 -0.4860  0.7642
 4450SOL    HW224813   1.861   0.788   4.863 -1.9436  2.3558  0.2324
 4451SOL     OW24814   1.925   2.984  16.225 -0.4004 -0.0943  0.2580
 4451SOL    HW124815   1.899   2.971  16.316  0.6180 -1.1565  0.3906
 4451SOL    HW224816   2.020   2.980  16.224 -0.4164 -0.3512 -0.8517
 4452SOL     OW24817   3.188   0.280   5.041  0.3786  0.1827 -0.1025
 4452SOL    HW124818   3.115   0.331   5.006 -2.0091 -3.0392  0.1230
 4452SOL    HW224819   3.138   0.199   5.056 -2.5596  1.8996 -0.6565
 4453SOL     OW24820   1.897   4.115  14.421 -0.3348  0.4585 -0.5147
 4453SOL    HW124821   1.977   4.078  14.384 -0.2169  1.0503 -0.8396
 4453SOL    HW224822   1.891   4.077  14.509  3.2203 -1.3843 -1.0893
 4454SOL     OW24823   4.365   2.425   7.516  0.5495  0.2461  0.0246
 4454SOL    HW124824   4.448   2.377   7.516 -0.0487 -0.7795  1.1112
 4454SOL    HW224825   4.330   2.380   7.440  0.8655  0.9079 -0.5153
 4455SOL     OW24826   0.640   3.850  16.695  0.2226  0.4316  0.1589
 4455SOL    HW124827   0.720   3.859  16.642 -0.5278  2.1748 -0.6773
 4455SOL    HW224828   0.633   3.931  16.745 -0.2244  1.8858 -2.2232
 4456SOL     OW24829   3.665   2.128   7.001  0.0038  0.5672 -0.1098
 4456SOL    HW124830   3.686   2.063   6.933 -1.5923 -2.2616  2.0869
 4456SOL    HW224831   3.569   2.132   7.007  0.0292  1.1545 -0.1010
 4457SOL     OW24832   1.056   4.156   4.251 -0.2770 -0.1915  0.1153
 4457SOL    HW124833   1.140   4.135   4.291 -0.1602  0.5666  0.2820
 4457SOL    HW224834   1.019   4.071   4.230 -0.2422  0.0311 -0.8575
 4458SOL     OW24835   1.767   1.969   3.002 -0.3711  0.4952  0.4560
 4458SOL    HW124836   1.785   1.961   2.908  0.2067  1.1672  0.5155
 4458SOL    HW224837   1.781   1.875   3.016  0.1931  0.2581 -1.6580
 4459SOL     OW24838   1.579   1.714  12.227  0.4050  0.3040  0.2614
 4459SOL    HW124839   1.517   1.782  12.200  1.5727  1.7548  1.1717
 4459SOL    HW224840   1.556   1.642  12.170 -5.0411  1.1827  1.3939
 4460SOL     OW24841   0.001   0.933   3.442 -0.1580  0.3408  0.0073
 4460SOL    HW124842   4.647   0.959   3.492 -1.7874 -1.0555 -1.7834
 4460SOL    HW224843   4.709   0.932   3.348  1.4954  0.4562 -0.2753
 4461SOL     OW24844   1.599   2.598  11.602  0.0425  0.1656  0.1586
 4461SOL    HW124845   1.659   2.528  11.576 -1.3401 -1.2912  0.9245
 4461SOL    HW224846   1.513   2.558  11.614  0.3226 -0.3787  0.3364
 4462SOL     OW24847   1.000   0.301   1.694 -0.4035 -0.0222 -0.3563
 4462SOL    HW124848   1.004   0.232   1.627 -1.1842  0.6437 -1.0773
 4462SOL    HW224849   1.089   0.299   1.729 -0.0019  0.0842 -1.3867
 4463SOL     OW24850   3.466   0.766   1.579 -0.2182  0.7049 -0.2274
 4463SOL    HW124851   3.493   0.854   1.552 -1.8824  0.5551 -2.3980
 4463SOL    HW224852   3.397   0.781   1.643  0.2758 -2.8233  1.1348
 4464SOL     OW24853   2.664   4.076   7.822 -0.3020 -0.1062 -0.1699
 4464SOL    HW124854   2.725   4.025   7.768 -0.4471 -0.2120 -0.2334
 4464SOL    HW224855   2.726   4.095   7.892 -0.9532  0.1027  0.3514
 4465SOL     OW24856   0.893   0.902   7.101  0.0086  0.2373 -0.0717
 4465SOL    HW124857   0.848   0.955   7.167 -1.7158 -1.5869  0.2455
 4465SOL    HW224858   0.911   0.829   7.161 -0.1545 -0.1980 -0.5557
 4466SOL     OW24859   1.253   3.996   5.933  0.3551  0.1973  0.4931
 4466SOL    HW124860   1.298   3.927   5.980 -0.6323  0.0864  1.2682
 4466SOL    HW224861   1.291   4.077   5.968 -0.6083  0.3674  1.1677
 4467SOL     OW24862   3.425   2.384  12.116 -0.4134  0.8876 -0.6023
 4467SOL    HW124863   3.406   2.455  12.176  0.1028 -0.1113  0.7500
 4467SOL    HW224864   3.429   2.429  12.032  0.9554  1.3373 -0.2945
 4468SOL     OW24865   2.641   2.162   0.879  0.2536  0.0580  0.0621
 4468SOL    HW124866   2.575   2.166   0.810 -0.2760 -1.3010  0.4745
 4468SOL    HW224867   2.658   2.068   0.875  3.5936  0.6052  1.3977
 4469SOL     OW24868   2.147   0.244  16.732  0.5197 -0.3143 -0.6179
 4469SOL    HW124869   2.132   0.338  16.732  0.7047 -0.2937 -1.4331
 4469SOL    HW224870   2.069   0.210  16.687 -1.4857 -0.5228  2.9865
 4470SOL     OW24871   3.405   4.479   4.288  0.1319  0.2344 -0.4718
 4470SOL    HW124872   3.407   4.544   4.218 -0.4670  1.7550  0.9202
 4470SOL    HW224873   3.488   4.497   4.332  0.6230  0.9189 -1.7012
 4471SOL     OW24874   0.693   3.849  11.600 -0.1101 -0.1201 -0.3865
 4471SOL    HW124875   0.622   3.892  11.554  0.4402 -1.1584 -2.2024
 4471SOL    HW224876   0.665   3.758  11.603  1.0345 -0.4427  0.7741
 4472SOL     OW24877   4.278   3.642  10.082  0.0562  0.0302  0.3893
 4472SOL    HW124878   4.313   3.572  10.026  0.0840  0.1605  0.2428
 4472SOL    HW224879   4.285   3.708  10.013  0.8616  0.3809  0.8026
 4473SOL     OW24880   0.926   0.951   5.750 -0.0209  1.0236  0.4262
 4473SOL    HW124881   1.020   0.938   5.744 -0.1731  0.7579 -1.3903
 4473SOL    HW224882   0.914   0.980   5.660  0.8400 -1.4940 -0.5062
 4474SOL     OW24883   1.278   2.499  16.304 -0.3744 -0.2666 -0.3750
 4474SOL    HW124884   1.332   2.470  16.231 -0.2255  1.5188 -0.9688
 4474SOL    HW224885   1.297   2.426  16.363 -1.1879  0.6347  1.0158
 4475SOL     OW24886   1.234   4.359   3.566 -0.5205  0.6942  0.2571
 4475SOL    HW124887   1.213   4.302   3.640  3.0024  0.7274  1.2577
 4475SOL    HW224888   1.287   4.428   3.607 -0.9400  0.2203  1.6122
 4476SOL     OW24889   1.444   3.963  17.423 -0.5424  0.3356 -0.0240
 4476SOL    HW124890   1.437   3.880  17.376  0.7268  0.4690 -0.4254
 4476SOL    HW224891   1.452   4.025  17.350 -1.6399 -0.2972 -0.6755
 4477SOL     OW24892   3.897   3.878   4.464  0.2997  0.1073 -0.3106
 4477SOL    HW124893   3.843   3.943   4.419  1.8867  2.5434  1.2997
 4477SOL    HW224894   3.865   3.792   4.438 -1.5205  0.4897  0.6316
 4478SOL     OW24895   2.179   4.366   0.355 -0.5914  0.5122 -0.2093
 4478SOL    HW124896   2.254   4.380   0.296  1.6529 -0.4962  2.4177
 4478SOL    HW224897   2.194   4.278   0.388 -1.3419  0.5374  0.2032
 4479SOL     OW24898   0.392   1.410   6.546 -0.0653  0.3390  0.5608
 4479SOL    HW124899   0.388   1.343   6.478 -0.3906  1.2721 -0.3400
 4479SOL    HW224900   0.391   1.490   6.493  3.6411  0.2315  0.2764
 4480SOL     OW24901   2.082   4.360   4.700  0.4780  0.5759  0.3410
 4480SOL    HW124902   2.140   4.389   4.771  1.3298  0.7533 -0.4222
 4480SOL    HW224903   2.016   4.429   4.708 -0.4941 -0.0872 -1.9606
 4481SOL     OW24904   0.773   1.843   9.719  0.3422 -0.0627 -0.1864
 4481SOL    HW124905   0.713   1.894   9.774 -3.2930 -1.0844 -3.1623
 4481SOL    HW224906   0.734   1.839   9.632  2.7761  0.0616 -1.2748
 4482SOL     OW24907   2.303   0.122  14.869 -1.1262 -0.0023  0.4703
 4482SOL    HW124908   2.373   0.142  14.807 -1.2287 -1.1359 -0.0028
 4482SOL    HW224909   2.343   0.043  14.904 -0.0950  0.3138 -0.0130
 4483SOL     OW24910   2.620   0.902   1.881 -0.0465 -0.3482 -0.0773
 4483SOL    HW124911   2.715   0.900   1.892  0.0652  0.6480 -0.9491
 4483SOL    HW224912   2.612   0.972   1.817 -0.6692  0.3120  0.7214
 4484SOL     OW24913   0.227   2.565   9.074 -0.6677 -0.8823  0.5708
 4484SOL    HW124914   0.180   2.485   9.097  0.8449 -1.4892  1.6032
 4484SOL    HW224915   0.172   2.586   8.999 -2.7168  0.6594  2.4887
 4485SOL     OW24916   4.313   4.243   4.636 -0.4911 -0.7859  0.0077
 4485SOL    HW124917   4.403   4.251   4.668 -0.5792  1.5329 -0.3414
 4485SOL    HW224918   4.275   4.183   4.700 -2.9577  1.3797  0.5703
 4486SOL     OW24919   2.049   2.221   6.200  0.6963  0.3626  0.0381
 4486SOL    HW124920   2.134   2.247   6.234  0.1154  1.3708  0.7432
 4486SOL    HW224921   2.072   2.241   6.110 -1.7891 -0.4917 -0.7967
 4487SOL     OW24922   3.837   2.663  11.490 -0.1692  0.1082 -0.0328
 4487SOL    HW124923   3.808   2.723  11.558 -2.8765 -1.2475  0.0151
 4487SOL    HW224924   3.784   2.691  11.415  0.2684 -1.7694 -1.0607
 4488SOL     OW24925   2.077   4.398  17.590  0.8477  0.2273 -0.3809
 4488SOL    HW124926   2.085   4.433  17.501  3.7442  1.5498  0.3940
 4488SOL    HW224927   2.010   4.457  17.624  0.2971  0.0412 -1.1425
 4489SOL     OW24928   1.397   4.718   4.955 -0.3668 -0.0401  0.3753
 4489SOL    HW124929   1.370   0.045   5.032  0.6078 -0.3666  0.9297
 4489SOL    HW224930   1.492   4.721   4.968 -0.6220  1.1887  1.9088
 4490SOL     OW24931   1.863   2.268   8.096 -0.0021  0.0763  0.4203
 4490SOL    HW124932   1.815   2.348   8.076 -0.9574 -0.7004 -0.3723
 4490SOL    HW224933   1.922   2.300   8.165  0.5163  2.7867 -1.2753
 4491SOL     OW24934   1.715   4.408  17.564 -0.2501  0.7940 -0.3129
 4491SOL    HW124935   1.657   4.378  17.634  2.6213  0.8944  2.0969
 4491SOL    HW224936   1.659   4.469  17.516 -0.6178 -0.1398 -1.0760
 4492SOL     OW24937   3.170   3.658   4.445  0.1858  0.1227 -0.0748
 4492SOL    HW124938   3.260   3.669   4.414  0.2792 -0.4448  0.0046
 4492SOL    HW224939   3.155   3.752   4.457 -2.6623 -0.5158  1.4675
 4493SOL     OW24940   2.571   2.936   3.750 -0.5629 -0.5681 -0.0987
 4493SOL    HW124941   2.629   2.887   3.809 -1.8206 -0.4493  1.2461
 4493SOL    HW224942   2.624   3.013   3.729 -0.0806 -1.6503 -2.8376
 4494SOL     OW24943   3.052   3.305   3.852  0.3598 -0.1983  0.2244
 4494SOL    HW124944   2.961   3.316   3.823 -0.1068 -0.8298  1.4685
 4494SOL    HW224945   3.090   3.241   3.793  3.0070 -0.4897  2.2672
 4495SOL     OW24946   1.456   2.010   6.116  0.1675  0.0472 -0.1675
 4495SOL    HW124947   1.447   2.087   6.172 -0.7974  0.0346 -0.3104
 4495SOL    HW224948   1.374   2.012   6.067  0.1279 -0.8570 -0.1397
 4496SOL     OW24949   3.854   2.427   2.673 -0.0048 -0.8468  0.1345
 4496SOL    HW124950   3.854   2.346   2.725  1.7262 -1.1880 -0.4156
 4496SOL    HW224951   3.764   2.459   2.684 -0.3284 -2.2849  1.6586
 4497SOL     OW24952   2.228   0.703   8.660  0.4247 -0.6168  0.2753
 4497SOL    HW124953   2.302   0.642   8.651  1.2789  0.2809  1.1894
 4497SOL    HW224954   2.160   0.638   8.674  1.9179 -2.4665 -1.1125
 4498SOL     OW24955   2.096   0.207   2.269  0.0534  0.6215  0.3894
 4498SOL    HW124956   2.065   0.182   2.356  0.8602 -2.8279 -0.3027
 4498SOL    HW224957   2.050   0.145   2.213  1.9306 -0.4354  0.0042
 4499SOL     OW24958   2.562   4.404   9.971  0.3978  0.2674 -0.0563
 4499SOL    HW124959   2.654   4.417   9.996  0.6701 -2.0137  0.0755
 4499SOL    HW224960   2.528   4.372  10.054  1.3885  0.4411  0.4256
 4500SOL     OW24961   3.420   0.079  15.578  0.1197 -0.2553 -0.5692
 4500SOL    HW124962   3.474   0.097  15.501  0.3374  2.3414  0.1941
 4500SOL    HW224963   3.339   0.048  15.538 -0.9856 -1.2571  2.4119
 4501SOL     OW24964   3.012   2.580   0.537 -0.2552 -0.2267  0.8364
 4501SOL    HW124965   2.951   2.574   0.464 -0.5416  0.6829  0.9963
 4501SOL    HW224966   3.016   2.492   0.574 -1.1928 -0.8950 -0.6643
 4502SOL     OW24967   4.146   2.914   9.808  0.8156  0.2214  0.3730
 4502SOL    HW124968   4.132   3.008   9.801  1.6296  0.5970  3.7674
 4502SOL    HW224969   4.115   2.873   9.727 -1.2883  1.4214  0.5817
 4503SOL     OW24970   2.532   0.327  12.443  0.1883  0.0813 -0.0820
 4503SOL    HW124971   2.493   0.364  12.364  1.2479  1.4017  0.0109
 4503SOL    HW224972   2.609   0.309  12.390  0.9918  0.7662  0.8420
 4504SOL     OW24973   2.460   3.350   1.286 -0.4121 -0.3055 -0.1577
 4504SOL    HW124974   2.454   3.413   1.214  1.1374  1.4182  1.2183
 4504SOL    HW224975   2.425   3.396   1.361 -0.7888 -0.2279 -0.3818
 4505SOL     OW24976   1.297   1.135   1.932  0.7706 -0.5951 -0.2365
 4505SOL    HW124977   1.305   1.064   1.868  0.2046 -1.0580  0.2082
 4505SOL    HW224978   1.380   1.119   1.977 -0.2887 -1.7666  1.2914
 4506SOL     OW24979   0.785   1.500   5.102  0.0066  0.0301 -0.0254
 4506SOL    HW124980   0.759   1.443   5.175 -0.4245  1.0151  0.6057
 4506SOL    HW224981   0.715   1.565   5.094 -0.9074 -1.1895 -1.7653
 4507SOL     OW24982   2.598   3.420   5.766 -0.0342 -0.8024 -0.5825
 4507SOL    HW124983   2.677   3.467   5.794  0.0575 -2.0933  1.3337
 4507SOL    HW224984   2.623   3.413   5.674 -1.2699  1.3544 -1.0756
 4508SOL     OW24985   0.709   4.300   7.085 -0.4991  0.3792  0.1491
 4508SOL    HW124986   0.756   4.217   7.087  0.3448  0.8002 -2.1267
 4508SOL    HW224987   0.721   4.338   7.172 -1.7961  1.5948 -0.2059
 4509SOL     OW24988   1.503   2.018   3.476  0.4654 -0.3350  0.3658
 4509SOL    HW124989   1.521   1.936   3.521  2.9905 -0.9586 -1.8136
 4509SOL    HW224990   1.562   2.010   3.401 -1.2559  0.0947 -1.0305
 4510SOL     OW24991   4.414   4.020   9.785  0.2740  0.2323 -0.5757
 4510SOL    HW124992   4.508   4.037   9.779  0.6750 -1.5493  0.9491
 4510SOL    HW224993   4.391   4.099   9.735  0.4178 -1.3002 -3.0425
 4511SOL     OW24994   1.292   3.038  17.249  0.1881 -0.1708 -0.3049
 4511SOL    HW124995   1.228   3.098  17.288  0.0973 -0.4003 -0.1000
 4511SOL    HW224996   1.280   3.065  17.158 -0.0962 -1.7058 -0.7219
 4512SOL     OW24997   1.149   4.285  11.527  0.0508  0.5792 -0.0513
 4512SOL    HW124998   1.061   4.325  11.527  0.0070  0.4833  0.2648
 4512SOL    HW224999   1.122   4.213  11.470 -1.5276 -1.3251  3.0953
 4513SOL     OW25000   3.888   0.624  12.254  0.0363  0.5979  0.5979
 4513SOL    HW125001   3.895   0.672  12.336  1.8808  1.5029 -0.0869
 4513SOL    HW225002   3.962   0.661  12.205 -1.1452 -0.4250 -1.9808
 4514SOL     OW25003   3.980   3.995   2.783 -0.2391  0.2879 -0.1291
 4514SOL    HW125004   3.967   4.081   2.743  2.0573  1.2780  1.2460
 4514SOL    HW225005   3.893   3.959   2.797 -0.2096 -0.9117 -3.0151
 4515SOL     OW25006   3.647   4.660   5.003  0.3505 -0.0598 -0.3294
 4515SOL    HW125007   3.593   4.582   4.993 -1.0192  0.8252  0.1825
 4515SOL    HW225008   3.591   0.000   5.047 -0.2781 -1.0373  0.2749
 4516SOL     OW25009   2.602   4.349   8.892  0.4117  0.2077  0.0964
 4516SOL    HW125010   2.565   4.276   8.941  0.7352  1.7303  2.6150
 4516SOL    HW225011   2.543   4.416   8.927  0.5514 -0.7697  2.2205
 4517SOL     OW25012   4.048   1.234   3.233 -0.4666 -0.3623 -0.2637
 4517SOL    HW125013   3.953   1.223   3.229 -0.1179 -3.3227 -0.3018
 4517SOL    HW225014   4.082   1.203   3.149 -2.8103  3.1260 -2.5122
 4518SOL     OW25015   2.436   0.672  16.338  0.5314 -0.1789  0.4930
 4518SOL    HW125016   2.471   0.650  16.425  0.7967 -2.0575 -0.0845
 4518SOL    HW225017   2.367   0.606  16.326  1.8496 -1.4902 -0.0005
 4519SOL     OW25018   3.629   3.508   4.857  0.4458 -0.7233 -0.8681
 4519SOL    HW125019   3.626   3.603   4.871  2.2487 -0.7889 -0.0432
 4519SOL    HW225020   3.717   3.504   4.822  0.5713  2.1412 -0.8619
 4520SOL     OW25021   2.310   3.145   6.129  0.1729 -0.3301 -0.5104
 4520SOL    HW125022   2.359   3.063   6.122  1.9231  0.7643 -1.0555
 4520SOL    HW225023   2.253   3.134   6.053  0.8101  1.7506 -1.2843
 4521SOL     OW25024   0.111   3.178   7.087  0.0885 -0.5900 -0.3394
 4521SOL    HW125025   0.112   3.082   7.092 -1.6996 -0.6845 -1.9046
 4521SOL    HW225026   0.126   3.201   7.179  1.0608 -0.5716 -0.5063
 4522SOL     OW25027   1.656   2.685   5.910 -0.0273  0.1762 -0.3580
 4522SOL    HW125028   1.603   2.737   5.849 -1.1054 -0.1154  0.3204
 4522SOL    HW225029   1.632   2.726   5.993  0.3578 -1.1833  0.4072
 4523SOL     OW25030   0.629   1.320   7.936  0.4268 -0.2013 -0.3717
 4523SOL    HW125031   0.617   1.235   7.977  0.5474  0.6726  1.4784
 4523SOL    HW225032   0.717   1.346   7.965 -0.5127 -0.0248  2.2365
 4524SOL     OW25033   2.174   1.329   8.374  0.1743  0.7645 -0.2463
 4524SOL    HW125034   2.155   1.236   8.381 -3.0064  1.2142 -2.4009
 4524SOL    HW225035   2.130   1.346   8.458  1.0578  1.8415 -0.0086
 4525SOL     OW25036   1.014   4.223   7.460  0.2195  0.2332 -0.3488
 4525SOL    HW125037   0.949   4.154   7.445  2.4445 -1.6739 -1.1085
 4525SOL    HW225038   1.060   4.201   7.541 -0.5144  0.7610  0.2089
 4526SOL     OW25039   4.444   3.335   2.361  0.1455 -0.2347  0.5248
 4526SOL    HW125040   4.383   3.348   2.287  1.4451 -1.3522 -0.7332
 4526SOL    HW225041   4.433   3.243   2.386  1.3478 -0.4578  0.2243
 4527SOL     OW25042   3.906   0.210   7.940 -0.2921 -0.2275 -0.4838
 4527SOL    HW125043   3.913   0.119   7.911 -0.1304  0.0457 -1.3110
 4527SOL    HW225044   3.824   0.202   7.988  0.4330  0.2402  0.8198
 4528SOL     OW25045   1.010   3.515   4.116 -0.1316  0.4424  0.6982
 4528SOL    HW125046   1.067   3.532   4.041  1.1166  0.8473  1.7433
 4528SOL    HW225047   0.994   3.600   4.157  0.7502 -0.4465  2.8914
 4529SOL     OW25048   3.387   0.958   6.728  0.3767 -0.1105 -0.0198
 4529SOL    HW125049   3.324   0.970   6.656  0.5854  0.5725 -0.0915
 4529SOL    HW225050   3.434   0.883   6.692 -0.1056  0.1035 -1.0924
 4530SOL     OW25051   0.740   2.078   5.505  1.2204 -0.1582 -0.8750
 4530SOL    HW125052   0.668   2.035   5.458  0.4075  0.1077  0.1241
 4530SOL    HW225053   0.778   2.116   5.426  1.0430 -1.7041 -1.7153
 4531SOL     OW25054   4.188   2.343   4.803 -0.5014  0.3826 -0.4132
 4531SOL    HW125055   4.183   2.438   4.814  1.5981  0.2078  2.1511
 4531SOL    HW225056   4.100   2.313   4.825  1.0209 -1.5697  2.9961
 4532SOL     OW25057   3.323   1.675   9.096  0.1832  0.2303  0.8947
 4532SOL    HW125058   3.351   1.585   9.077 -2.2997 -0.4905  0.5336
 4532SOL    HW225059   3.232   1.662   9.122 -0.2908 -0.3846 -1.0375
 4533SOL     OW25060   0.277   0.765   8.849 -0.4331 -0.3587 -0.2103
 4533SOL    HW125061   0.235   0.761   8.934 -0.5641 -2.4149 -0.3742
 4533SOL    HW225062   0.282   0.857   8.823 -1.3451 -0.7905 -1.9501
 4534SOL     OW25063   3.440   0.989   0.230 -0.1861 -0.1168  0.0704
 4534SOL    HW125064   3.406   1.030   0.150  0.9387 -1.0495 -0.8864
 4534SOL    HW225065   3.531   1.021   0.232 -0.7212  1.3578  0.3996
 4535SOL     OW25066   2.649   2.760   6.704  0.3813 -0.4719  1.0010
 4535SOL    HW125067   2.627   2.685   6.760 -1.9926 -0.1082  0.5366
 4535SOL    HW225068   2.583   2.756   6.635  1.2086  0.5176  0.1495
 4536SOL     OW25069   2.183   1.617   6.501 -0.6428 -0.3965 -0.8486
 4536SOL    HW125070   2.202   1.610   6.594  2.9207  0.4465 -1.4840
 4536SOL    HW225071   2.272   1.641   6.473 -0.1101 -1.4885 -0.0894
 4537SOL     OW25072   0.710   2.701   4.691  0.3719  0.3005  0.3040
 4537SOL    HW125073   0.700   2.780   4.745 -0.9149  0.8441 -0.7097
 4537SOL    HW225074   0.787   2.665   4.735  0.5203  0.4344  0.1532
 4538SOL     OW25075   1.563   2.005  10.247 -0.5218 -0.5456  0.5990
 4538SOL    HW125076   1.538   1.974  10.160 -0.3781  0.0387  0.3428
 4538SOL    HW225077   1.480   2.038  10.282 -1.7197 -2.8142 -0.1360
 4539SOL     OW25078   3.600   2.222   6.300 -0.3008 -0.1945 -0.2157
 4539SOL    HW125079   3.541   2.205   6.373  2.6985 -2.0853  1.8081
 4539SOL    HW225080   3.663   2.281   6.341 -2.0367  1.4683  0.0309
 4540SOL     OW25081   3.727   3.787   4.928  0.3653 -0.4286  0.0145
 4540SOL    HW125082   3.813   3.825   4.949 -0.5351 -0.5418  3.8017
 4540SOL    HW225083   3.685   3.858   4.879  1.6101  0.6458  0.4705
 4541SOL     OW25084   4.190   1.812   5.264  0.0268  0.7202 -0.1882
 4541SOL    HW125085   4.104   1.837   5.230 -0.4602  3.5535  3.1230
 4541SOL    HW225086   4.228   1.898   5.278 -1.0683  1.3825 -1.2748
 4542SOL     OW25087   4.397   3.330   6.135  0.2610 -0.2276  0.2362
 4542SOL    HW125088   4.361   3.384   6.065 -0.3272 -0.9442 -0.0020
 4542SOL    HW225089   4.440   3.403   6.179 -0.7642 -0.7912  2.1714
 4543SOL     OW25090   2.198   1.346  15.492  0.0018 -0.0275  0.3776
 4543SOL    HW125091   2.142   1.362  15.568 -2.0227  1.4963 -1.4511
 4543SOL    HW225092   2.166   1.411  15.429 -3.1720 -1.1296  0.8824
 4544SOL     OW25093   1.788   2.726   1.299  0.3101 -0.8426 -0.1849
 4544SOL    HW125094   1.862   2.781   1.323 -0.5175  0.7237 -1.2470
 4544SOL    HW225095   1.725   2.772   1.353  0.8414  1.2130 -1.3102
 4545SOL     OW25096   1.553   0.503   7.510  0.1365  0.2897  0.2332
 4545SOL    HW125097   1.565   0.435   7.443 -1.7304 -0.8256  1.0169
 4545SOL    HW225098   1.596   0.577   7.467 -0.3501 -0.1332 -1.0040
 4546SOL     OW25099   0.022   1.081   8.296  0.3478 -0.1094 -0.6845
 4546SOL    HW125100   4.719   1.091   8.387 -0.1039  0.0379 -0.8292
 4546SOL    HW225101   4.712   1.167   8.271  1.0838  0.5607  0.6618
 4547SOL     OW25102   3.598   4.600   9.497  0.1224  0.3034  0.0812
 4547SOL    HW125103   3.570   4.552   9.419  1.6970 -0.5936  0.0641
 4547SOL    HW225104   3.518   4.630   9.540  0.5629  2.0714 -0.3185
 4548SOL     OW25105   3.530   3.964  16.640 -0.0805  0.2604 -0.2255
 4548SOL    HW125106   3.499   3.937  16.553  0.6527  1.2112 -0.7746
 4548SOL    HW225107   3.469   4.036  16.655 -0.2841  0.1293 -0.4220
 4549SOL     OW25108   0.601   4.123  16.748  0.0016 -0.0487  0.8142
 4549SOL    HW125109   0.566   4.119  16.659 -0.8255  0.6912  1.1039
 4549SOL    HW225110   0.526   4.164  16.792 -0.8990  1.1407 -1.8189
 4550SOL     OW25111   0.481   0.156   7.192 -0.2172  0.1512  0.4785
 4550SOL    HW125112   0.405   0.200   7.231 -0.4808 -0.3903  0.5782
 4550SOL    HW225113   0.488   0.197   7.106  0.2813  0.6237  0.7458
 4551SOL     OW25114   4.333   1.828  16.076  0.1736  0.2265  0.5054
 4551SOL    HW125115   4.247   1.836  16.036  0.7164 -0.6411 -0.8135
 4551SOL    HW225116   4.382   1.781  16.009  0.9629  0.3510  0.9835
 4552SOL     OW25117   4.297   0.633   7.064  0.2666 -0.1860  0.1781
 4552SOL    HW125118   4.226   0.696   7.053  1.9201  2.1065  2.4644
 4552SOL    HW225119   4.367   0.671   7.010  0.1591  0.7215  0.6764
 4553SOL     OW25120   1.796   0.069   2.748 -0.3773  0.3168  0.4306
 4553SOL    HW125121   1.839   0.017   2.816 -1.1531 -1.0716 -0.1349
 4553SOL    HW225122   1.703   0.072   2.774 -0.2542 -1.8020  1.1530
 4554SOL     OW25123   2.481   2.480  14.157  0.4729 -0.0057 -0.2997
 4554SOL    HW125124   2.489   2.385  14.148  2.1875  0.1122  0.0846
 4554SOL    HW225125   2.464   2.508  14.067  1.6174 -0.4208 -0.6394
 4555SOL     OW25126   3.540   0.631   1.827  0.6419  0.1247 -0.2085
 4555SOL    HW125127   3.542   0.694   1.898  1.3751  1.7122 -1.6492
 4555SOL    HW225128   3.532   0.678   1.745  2.3938  0.8520  0.0599
 4556SOL     OW25129   1.765   3.467   2.751  0.0392 -0.4348  0.6545
 4556SOL    HW125130   1.690   3.525   2.738  0.1424 -0.2219  1.0231
 4556SOL    HW225131   1.827   3.514   2.696  0.1498  0.0076  1.1577
 4557SOL     OW25132   1.211   0.976   5.740 -0.0451 -0.0994 -0.2194
 4557SOL    HW125133   1.290   0.984   5.793 -0.0101  1.2220 -0.4643
 4557SOL    HW225134   1.248   1.018   5.662 -1.3639 -1.6030 -1.6572
 4558SOL     OW25135   2.476   3.568   7.806 -0.3596  0.2368  0.4147
 4558SOL    HW125136   2.422   3.501   7.848 -0.9230  0.2852 -0.2175
 4558SOL    HW225137   2.471   3.626   7.882  0.0715 -0.2793  0.8268
 4559SOL     OW25138   3.538   0.957  14.144  0.0056  0.4009 -0.4920
 4559SOL    HW125139   3.491   1.039  14.159  1.8207  1.3329  0.1014
 4559SOL    HW225140   3.569   0.939  14.233 -1.0478  2.5523  0.3367
 4560SOL     OW25141   0.433   1.419   3.361  0.3084 -0.0048  0.0963
 4560SOL    HW125142   0.523   1.443   3.341  0.4272 -1.4082 -1.1009
 4560SOL    HW225143   0.431   1.431   3.456  2.1187 -0.1169  0.1468
 4561SOL     OW25144   2.245   2.893   6.468  0.3528 -0.4475  0.8718
 4561SOL    HW125145   2.234   2.987   6.478 -2.4851 -0.7614  0.7107
 4561SOL    HW225146   2.165   2.865   6.424 -0.1357  0.8322  0.9584
 4562SOL     OW25147   1.314   2.750   6.007  0.2397  0.2250 -0.6816
 4562SOL    HW125148   1.387   2.796   6.049  0.0491 -0.2337  0.1519
 4562SOL    HW225149   1.241   2.796   6.049  0.4826 -1.9145  2.1011
 4563SOL     OW25150   0.540   2.332  13.100 -0.0420  0.2044 -0.1403
 4563SOL    HW125151   0.579   2.260  13.051 -0.8696 -1.1489  1.1741
 4563SOL    HW225152   0.452   2.299  13.120 -0.5293  0.8872 -1.1525
 4564SOL     OW25153   4.073   4.228   6.012 -0.0737 -0.3187 -0.5127
 4564SOL    HW125154   4.104   4.163   5.948  0.9185  0.5842 -0.9536
 4564SOL    HW225155   4.158   4.254   6.049  0.0562 -0.6423 -0.5788
 4565SOL     OW25156   2.577   0.213   3.636 -0.3027 -0.1485 -0.0622
 4565SOL    HW125157   2.485   0.241   3.645  0.0046  0.9107 -0.1356
 4565SOL    HW225158   2.628   0.294   3.643  1.0821 -1.2663  2.4515
 4566SOL     OW25159   0.843   0.590  15.897 -0.1230  0.4981  0.0245
 4566SOL    HW125160   0.760   0.637  15.882  2.2258  4.6674  0.1178
 4566SOL    HW225161   0.815   0.499  15.900 -0.8782  0.7094 -0.5395
 4567SOL     OW25162   4.271   3.410   7.891  0.3826  0.3387 -0.3421
 4567SOL    HW125163   4.247   3.319   7.909 -0.8516  0.5503 -0.9377
 4567SOL    HW225164   4.242   3.449   7.973 -0.9533  0.2340 -0.7698
 4568SOL     OW25165   0.659   2.072   1.727 -0.2382 -0.0014  0.1697
 4568SOL    HW125166   0.699   1.991   1.695  1.2698  0.8515 -0.1326
 4568SOL    HW225167   0.622   2.045   1.812  0.8825  0.5520  0.8412
 4569SOL     OW25168   2.521   2.021  13.063  0.9966  0.3236  0.3203
 4569SOL    HW125169   2.493   1.942  13.109  0.2068 -0.7339 -1.9586
 4569SOL    HW225170   2.547   2.084  13.130  1.8442  2.0222 -1.5974
 4570SOL     OW25171   1.986   0.449   2.211  0.2446 -0.0774 -0.1519
 4570SOL    HW125172   2.038   0.370   2.217 -1.2165 -1.1540 -1.4435
 4570SOL    HW225173   1.965   0.467   2.302 -2.7524  1.8923 -1.2165
 4571SOL     OW25174   1.980   3.968   3.694  0.6168  0.4435 -0.6058
 4571SOL    HW125175   1.930   3.996   3.770 -0.8322  2.8000 -2.4190
 4571SOL    HW225176   1.997   3.880   3.727 -1.2783  0.2059 -0.2563
 4572SOL     OW25177   1.647   0.565   7.099  0.3629  0.0693 -0.1322
 4572SOL    HW125178   1.599   0.483   7.092 -1.4183  1.0877  0.0968
 4572SOL    HW225179   1.664   0.591   7.009 -1.7081  1.2921 -0.1800
 4573SOL     OW25180   4.461   2.015   6.341 -0.1577  0.6421 -0.2710
 4573SOL    HW125181   4.513   2.023   6.420  2.0448 -2.7022 -1.3650
 4573SOL    HW225182   4.467   1.922   6.320  1.9987  1.0705 -1.5982
 4574SOL     OW25183   2.791   2.481   5.548  0.0451 -0.1905  0.0680
 4574SOL    HW125184   2.791   2.567   5.590 -1.0714 -0.7050  1.1204
 4574SOL    HW225185   2.884   2.457   5.548  0.7564  2.5557 -0.3228
 4575SOL     OW25186   2.068   2.962   4.160  0.2690 -0.4204  0.0621
 4575SOL    HW125187   2.072   3.021   4.235  0.9774 -1.8845  1.1893
 4575SOL    HW225188   2.093   3.018   4.087  0.2998  1.0658  1.2151
 4576SOL     OW25189   3.529   3.970   0.672 -0.0992  0.5121  0.2242
 4576SOL    HW125190   3.477   3.907   0.721  0.7942 -0.9433 -0.7008
 4576SOL    HW225191   3.525   4.046   0.730  1.4947  1.0245 -0.3256
 4577SOL     OW25192   1.479   0.642   0.445  0.5274 -0.0845  0.4272
 4577SOL    HW125193   1.536   0.574   0.410  1.9712  1.2864  0.1459
 4577SOL    HW225194   1.527   0.679   0.519  0.4122  1.4197 -0.2416
 4578SOL     OW25195   4.315   2.560   9.665  0.2969  0.2394 -0.2749
 4578SOL    HW125196   4.233   2.578   9.711  0.2526 -0.0849 -0.2288
 4578SOL    HW225197   4.342   2.648   9.638 -1.1339  0.4938 -0.8743
 4579SOL     OW25198   0.683   0.934   1.111 -0.2042 -0.6886 -0.4526
 4579SOL    HW125199   0.720   0.848   1.130 -1.9299 -1.1293  0.8126
 4579SOL    HW225200   0.593   0.904   1.099  0.0208 -1.2107 -0.8228
 4580SOL     OW25201   3.169   3.972   4.116 -0.4759  0.0841 -0.3232
 4580SOL    HW125202   3.218   3.997   4.195 -2.4689  1.1174  0.5689
 4580SOL    HW225203   3.099   3.913   4.146 -2.1301  1.7298 -0.9911
 4581SOL     OW25204   4.089   2.510  15.883 -0.2013  0.1374  0.1030
 4581SOL    HW125205   4.161   2.573  15.885 -0.7297  0.7640 -0.6113
 4581SOL    HW225206   4.028   2.554  15.824  0.0695  1.2911  0.6904
 4582SOL     OW25207   1.208   3.231   2.615 -0.3920  0.4393 -0.2537
 4582SOL    HW125208   1.138   3.231   2.550  0.3568 -1.0905 -1.0639
 4582SOL    HW225209   1.162   3.276   2.686 -0.9564  2.6235 -2.0160
 4583SOL     OW25210   4.374   2.870   0.741  0.3927 -0.3196  0.2303
 4583SOL    HW125211   4.287   2.834   0.719 -0.3095  0.3499  1.9317
 4583SOL    HW225212   4.336   2.951   0.774  0.2267 -0.5042  0.5003
 4584SOL     OW25213   3.716   1.695   3.154  0.1138 -0.0652  0.0034
 4584SOL    HW125214   3.649   1.632   3.182  0.4103 -0.6850 -0.6691
 4584SOL    HW225215   3.711   1.673   3.060  0.4264 -0.5441  0.1009
 4585SOL     OW25216   3.703   4.083   2.847  0.0948 -0.4072 -0.1914
 4585SOL    HW125217   3.740   4.168   2.873 -0.0868 -0.5953  0.6795
 4585SOL    HW225218   3.662   4.105   2.764 -0.1704 -1.3419 -0.3033
 4586SOL     OW25219   3.155   0.140   7.919  0.2542 -0.3509  0.0613
 4586SOL    HW125220   3.124   0.084   7.990  1.6773 -2.0512 -0.6688
 4586SOL    HW225221   3.080   0.134   7.859  1.5707 -0.0445 -1.6212
 4587SOL     OW25222   1.303   1.820   5.303 -0.0116 -0.0664  0.0949
 4587SOL    HW125223   1.218   1.813   5.346 -0.1672  0.6472 -0.1006
 4587SOL    HW225224   1.275   1.794   5.215 -0.4323 -0.7195  0.4157
 4588SOL     OW25225   4.020   4.373   7.958 -0.0796 -0.4948 -0.1088
 4588SOL    HW125226   4.080   4.300   7.944  0.8064 -0.1614  1.9712
 4588SOL    HW225227   4.015   4.356   8.052 -0.7927 -0.0226 -0.0595
 4589SOL     OW25228   0.275   1.760   9.067  0.7029  0.1427  0.0952
 4589SOL    HW125229   0.202   1.735   9.011  0.9334 -0.9299  0.2742
 4589SOL    HW225230   0.239   1.735   9.152 -1.3971  1.2732 -0.4668
 4590SOL     OW25231   1.486   0.567  11.374 -0.1146 -0.3499  0.4111
 4590SOL    HW125232   1.535   0.562  11.457  1.4032  0.2512 -0.4622
 4590SOL    HW225233   1.532   0.506  11.316  1.8919  0.1671  1.4660
 4591SOL     OW25234   2.273   1.599   6.113 -0.8604 -0.2913  0.0179
 4591SOL    HW125235   2.204   1.577   6.051  0.3824  3.1066 -2.5553
 4591SOL    HW225236   2.233   1.679   6.145  0.6663 -0.0971  1.4407
 4592SOL     OW25237   3.960   4.137   8.701  0.1426 -0.4566 -0.0474
 4592SOL    HW125238   4.050   4.115   8.725 -1.0234 -3.0861  1.9469
 4592SOL    HW225239   3.920   4.059   8.662 -0.2473  0.7311 -2.0083
 4593SOL     OW25240   2.989   1.891   6.408 -0.1347  0.3469 -0.3522
 4593SOL    HW125241   3.033   1.820   6.361 -1.4691 -1.1437  0.6718
 4593SOL    HW225242   2.903   1.849   6.419  0.8141 -1.0922  1.4807
 4594SOL     OW25243   1.676   0.106   5.462 -0.1828  0.0740 -0.2103
 4594SOL    HW125244   1.720   0.166   5.401 -0.1010 -0.1462 -0.3706
 4594SOL    HW225245   1.753   0.049   5.473 -1.4052 -1.7045 -0.8663
 4595SOL     OW25246   2.457   4.710  15.554 -0.1520  0.2257 -0.5307
 4595SOL    HW125247   2.375   4.668  15.529 -0.6752  0.2760  1.1097
 4595SOL    HW225248   2.495   4.633  15.596 -0.2523  1.5260  1.9385
 4596SOL     OW25249   3.415   4.231  10.815 -0.0509  0.2565  0.3030
 4596SOL    HW125250   3.459   4.244  10.731 -1.6610  1.1382 -0.3963
 4596SOL    HW225251   3.339   4.289  10.811  0.7164  1.2814  0.5554
 4597SOL     OW25252   2.966   4.556   4.865 -0.1132 -0.1009 -0.3360
 4597SOL    HW125253   2.967   4.588   4.775 -0.4963  1.7717  0.3130
 4597SOL    HW225254   2.897   4.490   4.865 -0.5902  0.3842  0.6836
 4598SOL     OW25255   4.706   3.949  12.294 -0.0205  0.2201  0.1646
 4598SOL    HW125256   4.684   3.927  12.203 -1.7896 -0.7331  0.8194
 4598SOL    HW225257   0.050   4.014  12.274 -0.5434  1.2592  1.8426
 4599SOL     OW25258   3.519   1.425   2.381 -0.7405 -0.0965 -0.4176
 4599SOL    HW125259   3.537   1.478   2.303  1.5284 -0.8683 -0.4308
 4599SOL    HW225260   3.542   1.334   2.361 -1.3772 -0.2264 -0.5734
 4600SOL     OW25261   3.678   4.568   9.051 -0.0958 -0.6331 -0.0318
 4600SOL    HW125262   3.689   4.591   8.958  1.1261 -1.5485 -0.1195
 4600SOL    HW225263   3.709   4.650   9.089  0.0548 -0.9051  0.4279
 4601SOL     OW25264   3.308   4.461   5.721  0.0833  0.1932  0.1392
 4601SOL    HW125265   3.330   4.510   5.801 -1.5558 -0.3811  0.9315
 4601SOL    HW225266   3.396   4.430   5.697 -0.7122 -1.0523 -1.1406
 4602SOL     OW25267   2.610   2.077   5.751 -0.2191  0.0233  0.2603
 4602SOL    HW125268   2.654   2.128   5.683 -1.1717 -0.8170 -0.9664
 4602SOL    HW225269   2.675   2.014   5.782  0.8625  1.2450  0.5170
 4603SOL     OW25270   4.202   1.693  10.135  0.2828 -0.9005  0.1654
 4603SOL    HW125271   4.297   1.697  10.148  0.5745 -3.8189 -0.9343
 4603SOL    HW225272   4.173   1.775  10.174  0.3679 -2.2930  3.2439
 4604SOL     OW25273   4.510   1.608   3.415 -0.2558  0.0142 -0.6464
 4604SOL    HW125274   4.550   1.693   3.431  1.4920 -1.1602  1.1306
 4604SOL    HW225275   4.578   1.544   3.397  0.0290  0.0937  0.1673
 4605SOL     OW25276   4.119   2.813   2.488  0.1450 -0.3036  0.0067
 4605SOL    HW125277   4.150   2.730   2.454 -1.6209 -0.9321 -0.0522
 4605SOL    HW225278   4.090   2.848   2.403  0.3479 -1.2232 -0.4387
 4606SOL     OW25279   0.007   4.196  17.226  0.2704  0.0446  0.4634
 4606SOL    HW125280   4.687   4.231  17.148 -0.4459 -0.6651  0.5468
 4606SOL    HW225281   4.661   4.213  17.290 -1.6744 -0.6948 -1.4491
 4607SOL     OW25282   3.031   2.669   6.698  0.0788  0.4246 -0.4518
 4607SOL    HW125283   3.054   2.721   6.621  0.8633  0.3806 -0.2450
 4607SOL    HW225284   2.945   2.633   6.674 -0.2405  0.3533  0.7805
 4608SOL     OW25285   0.055   1.184   4.659  0.2143 -0.4376  0.0094
 4608SOL    HW125286   0.106   1.210   4.735  0.7783  0.8811 -0.8205
 4608SOL    HW225287   0.052   1.091   4.680 -3.2086 -0.5864 -1.1246
 4609SOL     OW25288   3.265   1.931  11.139  0.8565  0.4560  0.2270
 4609SOL    HW125289   3.260   2.025  11.122  0.5824  0.1625 -1.2929
 4609SOL    HW225290   3.350   1.931  11.182  1.3701  0.4423 -0.7980
 4610SOL     OW25291   2.144   2.106   8.278 -0.3791  0.3167 -0.1421
 4610SOL    HW125292   2.160   2.143   8.365  0.4332 -1.3629  0.4447
 4610SOL    HW225293   2.068   2.050   8.295  0.2817 -0.8763 -1.1315
 4611SOL     OW25294   3.362   3.347   6.054 -0.7740 -0.1947 -0.3895
 4611SOL    HW125295   3.303   3.312   6.121  1.1384 -0.5936  1.0819
 4611SOL    HW225296   3.409   3.270   6.023  0.9557  1.0812 -0.9167
 4612SOL     OW25297   1.630   2.094   1.016  0.2140 -0.4628  0.5777
 4612SOL    HW125298   1.698   2.027   1.012  2.0175  1.5453 -1.5701
 4612SOL    HW225299   1.682   2.165   1.052 -0.5660  0.5669 -0.3495
 4613SOL     OW25300   4.524   0.760   0.727  0.8242 -0.8409  0.4762
 4613SOL    HW125301   4.586   0.822   0.689  1.4372 -1.4092  0.5488
 4613SOL    HW225302   4.514   0.792   0.817 -0.5479 -3.6375  1.3415
 4614SOL     OW25303   3.954   1.404  17.564  0.0729  0.7612 -0.1531
 4614SOL    HW125304   3.974   1.486  17.610 -0.3652  0.5474  0.4152
 4614SOL    HW225305   4.033   1.351  17.578  0.3155  0.6561 -1.8729
 4615SOL     OW25306   4.074   2.051   6.339 -0.2580 -0.3532  0.1241
 4615SOL    HW125307   4.093   2.076   6.249 -1.4571 -0.6361 -0.2082
 4615SOL    HW225308   4.134   2.105   6.391 -0.0301 -0.5100  0.0203
 4616SOL     OW25309   0.294   0.572  14.675  0.1917  0.0821 -0.1159
 4616SOL    HW125310   0.327   0.661  14.667 -1.5228  0.4837 -2.4902
 4616SOL    HW225311   0.203   0.585  14.700  0.0659  1.3932 -1.2269
 4617SOL     OW25312   0.350   0.520   4.969  0.1982 -0.2846  1.1683
 4617SOL    HW125313   0.379   0.452   4.908  1.4679 -0.7013  2.2242
 4617SOL    HW225314   0.399   0.596   4.938 -0.1634  0.0363  1.3901
 4618SOL     OW25315   2.257   1.511   4.201 -0.2438  0.0665 -0.1332
 4618SOL    HW125316   2.193   1.441   4.186  1.0467 -1.0220 -0.5798
 4618SOL    HW225317   2.208   1.570   4.259  1.8790  1.0144  0.6848
 4619SOL     OW25318   3.081   0.058   2.265 -0.2702 -0.3554  0.0317
 4619SOL    HW125319   3.168   0.078   2.297 -0.7877  0.7109  0.7609
 4619SOL    HW225320   3.095   0.036   2.173 -1.0036 -0.4771 -0.0571
 4620SOL     OW25321   0.662   3.924   8.236 -0.0801  0.3767  0.1110
 4620SOL    HW125322   0.603   3.905   8.308  1.7216 -2.0770  0.9520
 4620SOL    HW225323   0.668   4.019   8.246  0.4608  0.5184 -1.5497
 4621SOL     OW25324   0.885   3.267   7.484 -0.0279  0.0620  0.2774
 4621SOL    HW125325   0.814   3.236   7.428  1.5504 -0.8896 -1.1769
 4621SOL    HW225326   0.863   3.348   7.530  0.0672  0.2276  0.0290
 4622SOL     OW25327   0.423   0.437   6.077  0.2611 -0.2316  0.4342
 4622SOL    HW125328   0.390   0.353   6.047 -0.6083 -0.9180  3.2796
 4622SOL    HW225329   0.476   0.421   6.155  1.5826 -2.5320 -0.9346
 4623SOL     OW25330   2.636   3.250   3.395 -0.2396 -0.3700 -0.6117
 4623SOL    HW125331   2.544   3.247   3.422  0.3843 -2.6661  1.2446
 4623SOL    HW225332   2.634   3.320   3.329  0.9692  0.1788 -0.0553
 4624SOL     OW25333   4.051   2.194   2.477 -0.0907 -0.1178  0.3183
 4624SOL    HW125334   4.105   2.115   2.482  0.3959  0.1336 -0.8868
 4624SOL    HW225335   4.103   2.235   2.408 -2.0774  0.3803 -0.8674
 4625SOL     OW25336   3.076   0.897   8.652 -0.8681  0.5492  0.8112
 4625SOL    HW125337   2.997   0.945   8.674 -0.9941  0.8772 -0.3628
 4625SOL    HW225338   3.114   0.957   8.588  1.9547  1.0023  2.8897
 4626SOL     OW25339   2.318   4.286   7.830  0.4774 -0.0834 -0.3243
 4626SOL    HW125340   2.308   4.191   7.831 -1.8361  0.1765  1.7713
 4626SOL    HW225341   2.412   4.297   7.814  0.1406 -0.2152 -2.3371
 4627SOL     OW25342   3.345   4.011   3.903  0.0607  0.6197  0.6824
 4627SOL    HW125343   3.275   4.002   3.968  0.2173  0.2307  0.7929
 4627SOL    HW225344   3.318   4.093   3.861  0.0759 -0.5601 -1.6486
 4628SOL     OW25345   3.670   1.860   4.307  0.3874 -0.1228 -0.0733
 4628SOL    HW125346   3.676   1.812   4.224 -2.2979  0.5445 -0.6566
 4628SOL    HW225347   3.756   1.901   4.317 -0.0308  0.9577 -0.8767
 4629SOL     OW25348   3.165   1.966   6.966  0.2270  0.0564  0.2846
 4629SOL    HW125349   3.146   1.982   7.058  1.1879  0.9976  0.3169
 4629SOL    HW225350   3.077   1.949   6.932  1.3115 -3.5436 -0.7229
 4630SOL     OW25351   3.151   2.277   6.689  0.8835  0.1448 -0.0007
 4630SOL    HW125352   3.201   2.197   6.674 -1.5311 -1.3971  0.1921
 4630SOL    HW225353   3.154   2.322   6.604 -2.7372  0.3806 -0.0278
 4631SOL     OW25354   0.345   3.535  15.962 -0.1126  0.0833 -0.3898
 4631SOL    HW125355   0.383   3.618  15.990 -0.5626  0.1764 -0.0615
 4631SOL    HW225356   0.269   3.563  15.911  0.3431  0.8043 -0.6823
 4632SOL     OW25357   0.890   2.102   3.350  0.2690  0.1257 -0.0371
 4632SOL    HW125358   0.830   2.146   3.291 -0.3803 -0.5034  0.1588
 4632SOL    HW225359   0.831   2.034   3.383  1.6022  0.2818  2.7426
 4633SOL     OW25360   3.070   4.451  11.282  0.3155 -0.3179 -0.0722
 4633SOL    HW125361   3.009   4.524  11.280 -2.6182 -2.7646  0.6258
 4633SOL    HW225362   3.141   4.493  11.233 -0.8668  1.2184 -0.4731
 4634SOL     OW25363   0.540   4.351   0.645 -0.1688 -0.2346  0.0990
 4634SOL    HW125364   0.544   4.275   0.704  1.1275 -2.0762 -2.3385
 4634SOL    HW225365   0.604   4.319   0.581 -0.1650 -2.1913  1.0697
 4635SOL     OW25366   3.121   4.182  12.057  0.2930 -1.3456  0.2794
 4635SOL    HW125367   3.160   4.108  12.104 -0.0778 -1.7333 -0.0120
 4635SOL    HW225368   3.195   4.241  12.047 -0.0005 -0.9462  0.4435
 4636SOL     OW25369   1.310   3.382   0.036 -0.6008  0.3514 -0.0199
 4636SOL    HW125370   1.215   3.386   0.043 -0.4161  3.6791  0.5290
 4636SOL    HW225371   1.322   3.326  17.654 -0.0981  0.5794 -0.1060
 4637SOL     OW25372   3.173   1.315   2.636 -0.0306  0.0843 -0.2395
 4637SOL    HW125373   3.122   1.276   2.565 -0.8741  0.4067  0.1923
 4637SOL    HW225374   3.212   1.241   2.682 -1.9942 -0.4698  0.5382
 4638SOL     OW25375   2.159   4.199   1.054 -0.5122 -0.2541 -0.1504
 4638SOL    HW125376   2.094   4.239   0.996  0.8453  2.0661 -0.0818
 4638SOL    HW225377   2.233   4.258   1.041  0.2673 -1.1540  0.2071
 4639SOL     OW25378   0.019   1.006  11.276  0.4539 -0.3093 -0.0319
 4639SOL    HW125379   0.058   0.940  11.220 -0.2672 -0.6954 -0.0833
 4639SOL    HW225380   4.660   1.029  11.233  1.3415 -0.9714 -2.0947
 4640SOL     OW25381   0.953   2.307   4.973  0.0375 -0.0372  0.2097
 4640SOL    HW125382   0.924   2.233   5.025 -0.2457  0.3586  0.6137
 4640SOL    HW225383   0.971   2.280   4.883 -2.1593 -3.1357  0.7029
 4641SOL     OW25384   2.322   2.689   1.499  0.0018  0.2392  0.4729
 4641SOL    HW125385   2.282   2.645   1.424  2.3085 -0.7496 -0.1462
 4641SOL    HW225386   2.273   2.772   1.502  0.7193  0.7557 -1.6627
 4642SOL     OW25387   2.993   2.039   0.541 -0.5277 -0.6756 -0.4051
 4642SOL    HW125388   3.006   1.973   0.473  0.1600  0.9893 -1.8725
 4642SOL    HW225389   2.992   2.121   0.491 -0.2366  0.2865  1.1728
 4643SOL     OW25390   3.282   3.794   4.854 -0.1232  0.1628 -0.2680
 4643SOL    HW125391   3.312   3.706   4.833 -1.1005  0.1186 -1.4426
 4643SOL    HW225392   3.190   3.784   4.879 -0.4451  0.5561 -1.2737
 4644SOL     OW25393   1.650   1.653   2.222 -0.0564 -0.3557 -0.1405
 4644SOL    HW125394   1.557   1.635   2.232 -0.0857 -0.1283 -0.0130
 4644SOL    HW225395   1.681   1.566   2.196  0.2585  1.2019 -5.1095
 4645SOL     OW25396   0.960   3.247   9.093 -0.3982 -0.1666 -0.0032
 4645SOL    HW125397   0.940   3.234   9.000 -1.4922  1.2127  0.0320
 4645SOL    HW225398   0.902   3.322   9.107  0.0798  0.0243  1.0046
 4646SOL     OW25399   3.402   0.070  11.438  0.5523 -0.0580  0.1463
 4646SOL    HW125400   3.396   0.166  11.433 -2.2948 -0.1455  2.6160
 4646SOL    HW225401   3.314   0.036  11.451  1.3528 -0.7104  3.7170
 4647SOL     OW25402   1.426   2.442   3.355 -0.0642  0.1393  0.1735
 4647SOL    HW125403   1.426   2.519   3.412  1.0470  0.0084  0.3516
 4647SOL    HW225404   1.517   2.457   3.328 -0.0379  0.8367  0.6418
 4648SOL     OW25405   4.465   3.944   5.839  1.0542 -0.6442  0.4015
 4648SOL    HW125406   4.497   3.920   5.752 -0.8990 -2.2657  0.1283
 4648SOL    HW225407   4.491   4.036   5.849 -0.2419 -0.5193  2.5789
 4649SOL     OW25408   3.264   1.486   2.422  0.4548 -0.1609 -0.6369
 4649SOL    HW125409   3.359   1.476   2.419  0.5180 -0.0911  0.9228
 4649SOL    HW225410   3.230   1.433   2.494  2.3086 -0.8923 -0.3141
 4650SOL     OW25411   2.083   0.320   1.888 -0.0122  0.1057  0.2511
 4650SOL    HW125412   2.014   0.254   1.887 -1.1873  1.3461 -1.3916
 4650SOL    HW225413   2.092   0.333   1.794 -0.5687  1.2141  0.3502
 4651SOL     OW25414   3.373   0.256  13.355  0.4669 -0.2392  0.0249
 4651SOL    HW125415   3.410   0.344  13.363  2.3291 -0.9174 -1.1252
 4651SOL    HW225416   3.281   0.282  13.355  0.1996 -1.1741 -0.0103
 4652SOL     OW25417   3.821   1.350   1.338  0.1433  0.5464 -0.4616
 4652SOL    HW125418   3.734   1.363   1.301  0.0489 -0.7654 -0.7101
 4652SOL    HW225419   3.820   1.386   1.427  2.0390  2.1263 -1.0759
 4653SOL     OW25420   4.344   2.379   3.023 -0.5804  0.5782  0.2463
 4653SOL    HW125421   4.293   2.449   2.983  1.7486  1.0471 -1.8393
 4653SOL    HW225422   4.311   2.308   2.968 -0.0594 -0.6211  1.4605
 4654SOL     OW25423   0.834   4.009   7.460  0.0499 -0.2657 -0.4252
 4654SOL    HW125424   0.804   3.938   7.403  2.0497 -2.4713  1.2584
 4654SOL    HW225425   0.818   3.974   7.548  1.6225 -0.6699 -0.3058
 4655SOL     OW25426   3.883   1.893  13.901  0.4928  0.1954 -0.1385
 4655SOL    HW125427   3.950   1.825  13.897  2.1451  1.7144  1.4351
 4655SOL    HW225428   3.804   1.840  13.897 -0.2147  1.1821  0.6809
 4656SOL     OW25429   2.164   3.441   4.831  0.1936 -0.4671 -0.0640
 4656SOL    HW125430   2.148   3.517   4.886 -1.6191 -1.4769  0.7838
 4656SOL    HW225431   2.241   3.399   4.870  2.4173  1.4837 -2.2863
 4657SOL     OW25432   1.284   3.481   8.128  0.0302 -0.3814  0.0256
 4657SOL    HW125433   1.339   3.559   8.115  0.6873 -0.9478 -0.6413
 4657SOL    HW225434   1.318   3.448   8.211  0.2623 -0.3677 -0.0622
 4658SOL     OW25435   3.292   1.724   5.827 -0.1916  0.2378  0.1146
 4658SOL    HW125436   3.341   1.692   5.751 -1.8573 -1.2021 -0.3633
 4658SOL    HW225437   3.346   1.799   5.850  0.6779 -0.0128 -1.1037
 4659SOL     OW25438   3.987   0.664  10.880  0.0301 -0.1042  0.1274
 4659SOL    HW125439   3.900   0.636  10.853  0.7423 -1.3587 -0.8557
 4659SOL    HW225440   3.974   0.698  10.969 -2.1682  0.1239 -0.2867
 4660SOL     OW25441   0.608   4.012   7.217  0.0344 -0.1715  0.6069
 4660SOL    HW125442   0.695   4.031   7.183  0.0896  0.0277  0.8540
 4660SOL    HW225443   0.568   4.010   7.131  1.1523 -2.0934  0.1248
 4661SOL     OW25444   0.538   0.857  14.251  0.2333  0.2731  0.1197
 4661SOL    HW125445   0.585   0.777  14.276 -2.0876 -0.7356  1.2894
 4661SOL    HW225446   0.564   0.903  14.330  0.2828  2.5089 -1.2014
 4662SOL     OW25447   3.127   3.743   1.891 -0.1656  0.4941 -0.2249
 4662SOL    HW125448   3.206   3.690   1.878 -0.8286 -0.9764  1.7350
 4662SOL    HW225449   3.142   3.827   1.847  0.5497  0.0437 -0.8468
 4663SOL     OW25450   4.217   1.327  17.675  0.4386  0.5885  0.1452
 4663SOL    HW125451   4.215   1.403   0.039  1.5033  0.0484  0.8975
 4663SOL    HW225452   4.219   1.251   0.039  0.0913  0.4261 -0.0538
 4664SOL     OW25453   2.222   3.780   1.296  0.7646  0.0240 -0.2112
 4664SOL    HW125454   2.175   3.859   1.322  2.4591  0.0634  2.6897
 4664SOL    HW225455   2.150   3.721   1.273 -1.1933  2.0354  0.7579
 4665SOL     OW25456   0.035   3.249   3.325  0.1253 -0.0770 -0.2179
 4665SOL    HW125457   4.685   3.241   3.263 -0.2775  1.7270  0.0040
 4665SOL    HW225458   0.104   3.217   3.268  0.8062  1.5715 -0.3115
 4666SOL     OW25459   3.285   2.155   5.828  0.0898  0.9354  0.7441
 4666SOL    HW125460   3.315   2.113   5.909 -0.1214  0.8130  0.7580
 4666SOL    HW225461   3.374   2.163   5.793  0.2833 -0.9474  0.7847
 4667SOL     OW25462   4.144   2.083   7.458 -0.5545  0.3266  0.1222
 4667SOL    HW125463   4.069   2.025   7.471 -2.3741  2.8201  0.7428
 4667SOL    HW225464   4.212   2.037   7.508  0.3543 -0.1847 -1.5726
 4668SOL     OW25465   0.859   0.311   8.239  0.1369 -0.5156 -0.0134
 4668SOL    HW125466   0.934   0.265   8.275 -0.3299 -2.1146 -1.0851
 4668SOL    HW225467   0.896   0.349   8.159  1.5241  2.3089  1.9644
 4669SOL     OW25468   3.503   0.628   9.244 -0.1645 -0.4926 -0.2733
 4669SOL    HW125469   3.539   0.662   9.163 -1.8887  0.4893 -0.6309
 4669SOL    HW225470   3.566   0.643   9.315 -1.3772  0.4273  0.6185
 4670SOL     OW25471   3.068   0.073   6.741 -0.4802  0.2684 -0.0307
 4670SOL    HW125472   3.161   0.054   6.735 -0.0640  1.6610  2.1182
 4670SOL    HW225473   3.060   0.117   6.825  1.3470  1.0463 -0.2587
 4671SOL     OW25474   1.177   1.968  14.823 -0.3215  0.4905  0.0728
 4671SOL    HW125475   1.211   1.886  14.860  2.0086  0.1347 -2.8725
 4671SOL    HW225476   1.082   1.962  14.831 -0.2119 -0.2084  0.8932
 4672SOL     OW25477   1.580   2.628   2.692  0.5944 -0.1163 -0.5122
 4672SOL    HW125478   1.505   2.574   2.715  1.3855 -0.6317  0.8774
 4672SOL    HW225479   1.542   2.715   2.700  1.9499  0.5033 -0.6775
 4673SOL     OW25480   0.224   2.625   9.884 -0.0536  0.0595 -0.7061
 4673SOL    HW125481   0.158   2.578   9.834  2.0200 -2.0403 -1.4624
 4673SOL    HW225482   0.167   2.685   9.932 -0.1307 -1.1985  0.7583
 4674SOL     OW25483   2.983   2.079   4.479  0.3048 -0.2517  0.1239
 4674SOL    HW125484   2.967   2.151   4.540  1.0535 -0.4851  0.5983
 4674SOL    HW225485   3.019   2.117   4.400  0.6737  0.4968  0.6507
 4675SOL     OW25486   4.420   1.754   2.819  0.3382  0.7425  0.0519
 4675SOL    HW125487   4.400   1.845   2.801 -1.6950  0.6567  2.0350
 4675SOL    HW225488   4.396   1.737   2.910  0.0347  0.8929 -0.0017
 4676SOL     OW25489   0.280   3.724  11.405  0.1615  0.1887  0.4859
 4676SOL    HW125490   0.260   3.639  11.445  0.9319 -0.1897  0.0660
 4676SOL    HW225491   0.313   3.773  11.480  1.0810  0.6813 -0.2471
 4677SOL     OW25492   2.647   3.655  12.977  0.3288  0.2567  0.0058
 4677SOL    HW125493   2.665   3.620  13.065 -0.3646  0.9868  0.4425
 4677SOL    HW225494   2.551   3.651  12.980  0.3910 -0.3813  1.5721
 4678SOL     OW25495   3.493   0.191   5.099 -0.2238  0.1301 -0.2210
 4678SOL    HW125496   3.425   0.235   5.048 -1.0139 -0.3374  0.4361
 4678SOL    HW225497   3.577   0.228   5.072  0.8619 -0.6217  2.1218
 4679SOL     OW25498   0.241   1.163   8.547  0.3100 -0.3441  0.1540
 4679SOL    HW125499   0.179   1.236   8.538 -0.9769 -1.5346 -0.6122
 4679SOL    HW225500   0.319   1.203   8.510  0.3767 -1.1326 -0.5700
 4680SOL     OW25501   4.452   0.951  15.040  0.3428  0.6922 -0.1371
 4680SOL    HW125502   4.480   0.861  15.021  1.8260  0.9340  0.8809
 4680SOL    HW225503   4.358   0.938  15.026  0.6845  0.6285 -2.3919
 4681SOL     OW25504   2.608   1.967   8.997  0.9264  0.4070 -0.1091
 4681SOL    HW125505   2.571   2.037   8.944  1.6071  2.6061  2.3384
 4681SOL    HW225506   2.532   1.937   9.047  0.3809  1.4662 -0.2983
 4682SOL     OW25507   1.389   4.563  11.042 -0.5797 -0.4480  0.2482
 4682SOL    HW125508   1.353   4.556  11.131 -0.3568 -1.6762  0.2435
 4682SOL    HW225509   1.480   4.550  11.068 -0.3820  1.3743  0.4534
 4683SOL     OW25510   1.866   3.182   5.839  0.0541 -0.3515  0.5668
 4683SOL    HW125511   1.935   3.248   5.831  1.1222 -1.5075  0.2260
 4683SOL    HW225512   1.807   3.232   5.896  1.0809  0.3830  0.9821
 4684SOL     OW25513   0.301   1.065  11.341  0.2327  0.3605  0.0146
 4684SOL    HW125514   0.208   1.044  11.329  1.0226 -2.1574 -1.6013
 4684SOL    HW225515   0.291   1.157  11.363  0.7056  0.5832 -0.7014
 4685SOL     OW25516   1.041   4.481   7.379  0.4103 -0.6400 -0.4032
 4685SOL    HW125517   1.027   4.390   7.405  2.1673 -0.4989  1.0511
 4685SOL    HW225518   1.114   4.508   7.435 -0.4460  1.8390 -0.4904
 4686SOL     OW25519   2.323   1.507   7.739 -0.1360  0.4140  0.3351
 4686SOL    HW125520   2.382   1.471   7.805  1.4514  2.0290 -0.2037
 4686SOL    HW225521   2.241   1.515   7.788 -1.1547  2.2074 -1.6802
 4687SOL     OW25522   2.720   2.677  12.995 -0.1790  0.8533  0.0393
 4687SOL    HW125523   2.657   2.740  12.960  0.3190  0.5877 -1.3374
 4687SOL    HW225524   2.796   2.729  13.021 -0.6195  0.5365  2.0131
 4688SOL     OW25525   3.118   0.386  13.318 -0.0751  0.6133  0.1075
 4688SOL    HW125526   3.084   0.327  13.250 -5.6991  0.4356  3.0711
 4688SOL    HW225527   3.039   0.399  13.370  0.9050  1.9888  1.2314
 4689SOL     OW25528   0.567   3.660  13.103 -0.0337  0.0909 -0.7316
 4689SOL    HW125529   0.656   3.657  13.138 -0.5204 -3.4080  0.1271
 4689SOL    HW225530   0.581   3.621  13.017 -0.4084  0.2381 -0.8594
 4690SOL     OW25531   3.345   3.648  12.199 -0.3181  0.1311 -0.2401
 4690SOL    HW125532   3.315   3.558  12.211 -1.7842  0.7142  0.5293
 4690SOL    HW225533   3.429   3.625  12.159 -0.3679 -2.0802  0.9256
 4691SOL     OW25534   1.362   0.243  12.036 -0.1362 -0.2835 -0.2615
 4691SOL    HW125535   1.453   0.270  12.025  1.0984 -4.4470 -0.1317
 4691SOL    HW225536   1.340   0.256  11.944 -3.6864 -1.2677  0.4592
 4692SOL     OW25537   2.722   0.751   5.548 -0.4868  0.0014  0.1187
 4692SOL    HW125538   2.650   0.688   5.555 -0.9129  0.3533 -1.0765
 4692SOL    HW225539   2.789   0.698   5.592  1.0871  2.0007  0.1388
 4693SOL     OW25540   2.558   0.423   9.851  0.3390  0.9552  0.2728
 4693SOL    HW125541   2.650   0.416   9.825  1.0117  1.7066  2.4491
 4693SOL    HW225542   2.571   0.510   9.890  2.2508  0.5381  0.5958
 4694SOL     OW25543   1.638   3.994  17.570 -0.3227 -0.1271 -0.1584
 4694SOL    HW125544   1.628   3.934  17.644  0.9248 -1.1307 -0.8091
 4694SOL    HW225545   1.565   3.977  17.512  0.6492 -1.2727 -1.0388
 4695SOL     OW25546   1.510   3.693   6.291 -0.6745 -0.0014  0.0676
 4695SOL    HW125547   1.529   3.691   6.197  1.9377 -1.2942  0.6455
 4695SOL    HW225548   1.596   3.668   6.324 -0.5263  0.1578 -0.2040
 4696SOL     OW25549   1.725   2.789   0.794  0.2287 -0.2268 -0.4496
 4696SOL    HW125550   1.678   2.741   0.863 -0.9613  0.7258 -0.5937
 4696SOL    HW225551   1.805   2.816   0.838 -1.3375  0.1567  2.1618
 4697SOL     OW25552   3.038   2.787   9.060 -0.2707  0.2711 -0.1331
 4697SOL    HW125553   3.083   2.710   9.095  1.2287  1.4809  0.6217
 4697SOL    HW225554   2.959   2.753   9.019  0.9942 -2.5788 -0.1375
 4698SOL     OW25555   3.270   3.659  16.452  0.0787 -0.4332  0.0028
 4698SOL    HW125556   3.356   3.644  16.411 -0.1203 -1.0208 -0.1941
 4698SOL    HW225557   3.221   3.584  16.417 -0.4517  0.7431 -1.7518
 4699SOL     OW25558   1.770   0.282   5.282 -0.0049 -0.1497 -0.5984
 4699SOL    HW125559   1.859   0.251   5.264  0.4444  1.6071 -1.3972
 4699SOL    HW225560   1.781   0.366   5.327 -0.8961  0.2284 -1.0758
 4700SOL     OW25561   1.101   2.223   5.986  0.3220  0.1650  0.5185
 4700SOL    HW125562   1.185   2.253   5.950 -0.3540  1.2048 -0.1879
 4700SOL    HW225563   1.055   2.305   6.000 -1.5907 -0.6529 -0.8962
 4701SOL     OW25564   4.040   0.147   5.871 -0.4632 -0.5930 -0.2059
 4701SOL    HW125565   3.996   0.064   5.892 -0.5996 -1.1408 -2.6790
 4701SOL    HW225566   4.108   0.131   5.936 -0.9033  2.1580  0.8971
 4702SOL     OW25567   0.388   0.912   4.604  0.6321 -0.3057 -0.0568
 4702SOL    HW125568   0.473   0.948   4.580  0.3534  0.6775  0.3951
 4702SOL    HW225569   0.334   0.983   4.568 -0.6938 -2.2125 -1.7819
 4703SOL     OW25570   1.941   2.471   3.194 -0.4515  0.2968  0.0680
 4703SOL    HW125571   1.886   2.529   3.142  1.4228  2.3965  0.4551
 4703SOL    HW225572   2.001   2.524   3.246 -1.2701 -0.7327  2.0675
 4704SOL     OW25573   2.333   3.582  11.161 -0.7181  0.3520  0.3154
 4704SOL    HW125574   2.355   3.577  11.068 -0.2678  1.4247  0.3597
 4704SOL    HW225575   2.238   3.577  11.163 -0.6905 -0.0890  0.4543
 4705SOL     OW25576   3.377   2.903   7.449  0.6607  0.1992  0.4783
 4705SOL    HW125577   3.368   2.909   7.354 -0.2773  2.1002  0.6803
 4705SOL    HW225578   3.325   2.828   7.476  0.6379  0.6628  1.7068
 4706SOL     OW25579   0.440   2.993  16.579  0.0962 -0.0496  0.2315
 4706SOL    HW125580   0.516   2.956  16.624 -2.6548 -0.9363  4.1892
 4706SOL    HW225581   0.402   3.056  16.641  1.0629 -0.7815  1.5703
 4707SOL     OW25582   3.813   3.752   6.088 -0.2529  0.3743  0.0700
 4707SOL    HW125583   3.737   3.746   6.030  0.0038 -0.0900 -0.2248
 4707SOL    HW225584   3.855   3.833   6.057  1.3701 -0.2033  0.7544
 4708SOL     OW25585   0.146   4.224   9.180 -0.2986 -0.1598  0.2226
 4708SOL    HW125586   0.072   4.166   9.199 -0.0452 -0.2623  0.8708
 4708SOL    HW225587   0.139   4.226   9.084  2.0413 -2.2587  0.0170
 4709SOL     OW25588   2.984   4.339   3.665  0.2104 -0.0574  0.1164
 4709SOL    HW125589   2.913   4.303   3.718 -0.4875  0.1819 -0.6509
 4709SOL    HW225590   2.947   4.316   3.580 -0.2904  0.8422  0.0960
 4710SOL     OW25591   0.889   3.223   2.953  0.1107 -0.0620 -0.0725
 4710SOL    HW125592   0.863   3.174   3.030 -2.6064  2.6270  0.7032
 4710SOL    HW225593   0.958   3.166   2.918  0.4023  0.8866 -1.0413
 4711SOL     OW25594   1.185   1.177   7.973 -0.2970  0.4360  0.4961
 4711SOL    HW125595   1.188   1.091   8.014  0.3500  0.2291  0.0093
 4711SOL    HW225596   1.270   1.189   7.931 -0.7064  1.6507 -0.0104
 4712SOL     OW25597   3.871   2.186  13.944 -0.0024 -0.3292  0.1325
 4712SOL    HW125598   3.929   2.213  14.015 -2.1579 -0.8152  2.0620
 4712SOL    HW225599   3.923   2.109  13.919 -2.1921 -1.0569 -2.1473
 4713SOL     OW25600   2.910   3.181   2.500  0.1285  0.4707 -0.5994
 4713SOL    HW125601   2.989   3.161   2.549 -0.6685  2.0755  1.3102
 4713SOL    HW225602   2.928   3.272   2.475  2.6885  0.5665  1.6030
 4714SOL     OW25603   1.345   4.355   7.453 -0.0349 -0.5955  0.0307
 4714SOL    HW125604   1.381   4.426   7.506  2.8650 -1.3396 -0.9419
 4714SOL    HW225605   1.316   4.296   7.522 -0.0340  0.1369  0.6700
 4715SOL     OW25606   4.089   2.355  16.555 -0.3033 -0.6989 -0.2924
 4715SOL    HW125607   4.079   2.338  16.649 -2.7115  0.7949 -0.2650
 4715SOL    HW225608   4.016   2.411  16.528 -0.2704 -0.8636 -0.7318
 4716SOL     OW25609   0.147   2.293   8.165  0.2494 -0.0473 -0.2037
 4716SOL    HW125610   0.058   2.261   8.182  0.2354  0.8683  1.4542
 4716SOL    HW225611   0.189   2.274   8.249  0.6120  1.5073 -0.0475
 4717SOL     OW25612   1.189   2.184   9.816 -0.1892  0.0658  0.1689
 4717SOL    HW125613   1.163   2.209   9.905  1.1819 -0.9445  0.8612
 4717SOL    HW225614   1.274   2.222   9.793 -1.1541  1.4987 -0.9440
 4718SOL     OW25615   0.935   4.407   4.646 -0.1009 -0.3747 -0.2385
 4718SOL    HW125616   0.869   4.463   4.603 -0.3052 -0.4999 -0.0881
 4718SOL    HW225617   1.016   4.436   4.606  0.3069 -1.9156 -0.5029
 4719SOL     OW25618   0.776   3.985   2.713  0.1594  0.3497  0.0426
 4719SOL    HW125619   0.795   4.023   2.627 -3.6029  0.3867 -0.7727
 4719SOL    HW225620   0.690   4.023   2.730 -0.0185 -1.2553  2.6229
 4720SOL     OW25621   2.978   0.247   1.726  0.0502  0.1838  0.4527
 4720SOL    HW125622   3.022   0.230   1.643  2.3452 -0.4122  1.7802
 4720SOL    HW225623   3.046   0.289   1.779 -0.7139  1.0009  0.7896
 4721SOL     OW25624   2.171   0.625   8.050 -0.1308  0.4666  0.4651
 4721SOL    HW125625   2.168   0.656   8.140  0.6988  1.3939  0.1665
 4721SOL    HW225626   2.108   0.553   8.054 -0.1680  0.4125 -1.0585
 4722SOL     OW25627   4.411   2.172   5.870 -0.6526 -0.5069  0.6825
 4722SOL    HW125628   4.357   2.096   5.893 -0.6709 -0.8159 -0.3774
 4722SOL    HW225629   4.429   2.221   5.950 -2.1264  0.2699  0.5393
 4723SOL     OW25630   3.014   3.248   8.043  0.4834 -0.4324 -0.0097
 4723SOL    HW125631   2.959   3.314   7.999 -0.9037 -1.2029  0.5618
 4723SOL    HW225632   3.091   3.296   8.072  0.1272  0.7556 -1.0293
 4724SOL     OW25633   2.652   0.576   4.885 -0.1019  0.7544  0.4355
 4724SOL    HW125634   2.709   0.510   4.846  0.7195  0.8924  1.4001
 4724SOL    HW225635   2.708   0.625   4.946 -1.5807  0.5546  1.9558
 4725SOL     OW25636   3.907   2.508  16.395 -0.0967  0.4444  0.0003
 4725SOL    HW125637   3.894   2.443  16.325  0.5440 -0.3259  0.6084
 4725SOL    HW225638   3.819   2.525  16.429  0.8599  0.2936  2.5518
 4726SOL     OW25639   2.291   2.353   4.335 -0.4278 -0.4353 -0.5704
 4726SOL    HW125640   2.339   2.430   4.304  0.1618 -0.2421  0.8469
 4726SOL    HW225641   2.250   2.323   4.253  2.0989 -1.7897 -1.3423
 4727SOL     OW25642   2.214   2.096  17.495  0.2729  0.1961  0.4136
 4727SOL    HW125643   2.224   2.123  17.404 -2.9596  1.9977  0.5988
 4727SOL    HW225644   2.181   2.009  17.474  0.5248  0.1123  0.3541
 4728SOL     OW25645   1.847   0.150   9.146  0.2329 -0.0129 -0.4319
 4728SOL    HW125646   1.872   0.227   9.097 -2.1954  0.9483 -0.1756
 4728SOL    HW225647   1.832   0.189   9.232  3.8754 -0.2547  0.3084
 4729SOL     OW25648   0.453   1.446   9.255 -0.0365 -0.2163  0.1641
 4729SOL    HW125649   0.421   1.411   9.172  0.1345  1.0558 -0.4390
 4729SOL    HW225650   0.392   1.408   9.318 -0.9443  0.0151 -0.5733
 4730SOL     OW25651   1.116   4.096   7.213 -0.0531  0.3604 -0.0650
 4730SOL    HW125652   1.120   4.147   7.294  2.1734 -0.1683  0.1529
 4730SOL    HW225653   1.147   4.010   7.239  0.8940  1.0199  0.9983
 4731SOL     OW25654   0.579   4.673   5.182  0.2829  0.1032 -0.1358
 4731SOL    HW125655   0.627   4.612   5.126  0.2962 -1.6249  1.7778
 4731SOL    HW225656   0.652   4.719   5.223  0.2902 -0.4536  0.4771
 4732SOL     OW25657   4.438   3.399  11.922 -0.0323 -0.3874  0.1071
 4732SOL    HW125658   4.448   3.305  11.906  1.4962 -0.5833  2.1492
 4732SOL    HW225659   4.391   3.396  12.005  0.4142 -1.5870  0.3182
 4733SOL     OW25660   0.889   1.646   7.296  0.7047 -0.0300  0.3175
 4733SOL    HW125661   0.936   1.706   7.354 -1.6756  0.6516  1.5292
 4733SOL    HW225662   0.931   1.562   7.317 -0.7870 -0.4715  1.4906
 4734SOL     OW25663   4.355   0.311   0.509 -0.2229 -0.4438  0.2540
 4734SOL    HW125664   4.350   0.397   0.551 -0.7054  0.5088 -1.7798
 4734SOL    HW225665   4.447   0.292   0.490 -0.6503 -0.4816 -1.7993
 4735SOL     OW25666   0.156   1.512   6.003  0.4226 -0.0358 -0.5325
 4735SOL    HW125667   0.146   1.487   5.911  1.3676  0.2340 -0.7034
 4735SOL    HW225668   0.250   1.505   6.020  0.5560 -0.1822 -1.3345
 4736SOL     OW25669   1.073   3.960   7.896 -0.3999 -0.6116  0.1299
 4736SOL    HW125670   1.151   3.956   7.951  0.2946 -1.8876 -0.9574
 4736SOL    HW225671   1.014   3.922   7.961 -1.0114  0.2097  0.0695
 4737SOL     OW25672   0.181   4.442   8.351  0.3396 -0.4331 -0.0095
 4737SOL    HW125673   0.264   4.423   8.394 -0.5184 -0.1126  1.8192
 4737SOL    HW225674   0.216   4.464   8.265  0.5688 -0.4848  0.0710
 4738SOL     OW25675   0.133   4.591  11.893  0.0409  0.2250 -0.1475
 4738SOL    HW125676   0.162   4.682  11.905  0.5187  0.1644 -0.9192
 4738SOL    HW225677   0.053   4.600  11.841  0.6976 -0.0261 -1.1796
 4739SOL     OW25678   4.649   1.676  13.254 -0.7444  0.1919 -0.3329
 4739SOL    HW125679   4.602   1.601  13.288  0.0490  0.2184  0.8481
 4739SOL    HW225680   4.700   1.648  13.178 -0.2151 -0.1830  0.1641
 4740SOL     OW25681   0.617   3.296  12.915 -0.0152 -0.1384  0.2833
 4740SOL    HW125682   0.665   3.269  12.994  0.1703 -2.9833 -0.8038
 4740SOL    HW225683   0.527   3.296  12.950 -0.4567 -0.8723 -0.8417
 4741SOL     OW25684   4.092   0.462   7.046 -0.7411 -0.2619  0.2431
 4741SOL    HW125685   4.182   0.491   7.058 -1.4327  1.5009  1.2843
 4741SOL    HW225686   4.060   0.491   7.131 -2.9315  2.0844 -1.3851
 4742SOL     OW25687   3.191   4.322   3.396  0.1827 -0.3134 -1.2576
 4742SOL    HW125688   3.254   4.311   3.467  1.5948  1.5500 -2.2126
 4742SOL    HW225689   3.188   4.233   3.360  0.5706 -1.1450  0.7883
 4743SOL     OW25690   0.532   1.597  16.958 -0.4062 -0.8022  0.3487
 4743SOL    HW125691   0.589   1.637  17.024 -0.4787 -0.7749  0.3944
 4743SOL    HW225692   0.584   1.524  16.924 -1.1085 -0.0635 -2.3133
 4744SOL     OW25693   4.192   4.317   9.849  0.3054 -0.1372 -0.1900
 4744SOL    HW125694   4.184   4.413   9.853 -1.1931 -0.2469 -0.6838
 4744SOL    HW225695   4.214   4.295   9.759  1.4998  0.1506  0.0380
 4745SOL     OW25696   3.714   3.884   5.444 -0.2864 -0.1519  0.3382
 4745SOL    HW125697   3.773   3.948   5.405 -0.6332  0.9862  1.6774
 4745SOL    HW225698   3.709   3.819   5.374 -1.7352  0.7899 -0.4207
 4746SOL     OW25699   1.390   1.108   4.282  0.4669  0.1157 -0.3783
 4746SOL    HW125700   1.344   1.191   4.272  2.1733  1.1172  0.1337
 4746SOL    HW225701   1.377   1.094   4.376  1.5087 -1.7654 -0.5023
 4747SOL     OW25702   4.538   3.666  11.949 -0.5643  0.0584 -0.0436
 4747SOL    HW125703   4.633   3.661  11.957 -0.5989 -0.6130 -0.0912
 4747SOL    HW225704   4.503   3.579  11.929  0.6380 -0.4928  0.3114
 4748SOL     OW25705   1.336   0.087   7.729  0.5335 -0.2682  0.7231
 4748SOL    HW125706   1.249   0.108   7.695  0.4603  0.9335  1.6392
 4748SOL    HW225707   1.380   0.172   7.723 -1.8807  0.8772 -0.8536
 4749SOL     OW25708   0.640   1.011   5.023 -0.1069 -0.0818 -0.2806
 4749SOL    HW125709   0.582   1.087   5.012  0.4045  0.3584  0.0585
 4749SOL    HW225710   0.718   1.054   5.057 -0.9997 -0.4806  2.2933
 4750SOL     OW25711   2.859   2.343   3.423  0.2363  0.1775 -0.2172
 4750SOL    HW125712   2.884   2.367   3.512  2.3536  0.0100 -0.7664
 4750SOL    HW225713   2.941   2.354   3.374  1.1951 -0.7470  1.2049
 4751SOL     OW25714   3.865   4.070   0.038 -0.4419 -0.4698 -0.0451
 4751SOL    HW125715   3.879   3.982   0.003  0.5850 -0.3584  0.0811
 4751SOL    HW225716   3.805   4.050   0.109  2.8464 -2.8568  2.0815
 4752SOL     OW25717   3.857   1.117  14.047 -0.1367 -0.2048  0.5105
 4752SOL    HW125718   3.829   1.034  14.088  0.6151 -1.3530 -1.3048
 4752SOL    HW225719   3.805   1.183  14.092  0.7473  1.6081 -1.1654
 4753SOL     OW25720   1.735   3.220   1.023  0.5069  0.2509 -0.4610
 4753SOL    HW125721   1.784   3.160   1.079 -0.7483 -1.4592 -1.1687
 4753SOL    HW225722   1.787   3.225   0.943 -1.2378 -0.5719 -1.6552
 4754SOL     OW25723   0.230   2.250   4.529 -0.2397  0.2914  0.4961
 4754SOL    HW125724   0.157   2.208   4.575  0.1511 -1.2011 -0.2645
 4754SOL    HW225725   0.253   2.172   4.479 -0.0320 -0.2579  1.4456
 4755SOL     OW25726   3.940   3.504   7.026  0.2859  0.7095 -0.5972
 4755SOL    HW125727   3.856   3.532   6.990 -1.2241 -2.2412  0.6129
 4755SOL    HW225728   3.953   3.416   6.992 -0.3518  0.2796  0.2565
 4756SOL     OW25729   2.688   2.292   7.318 -0.0595  0.1845  0.2117
 4756SOL    HW125730   2.701   2.339   7.400 -0.4193 -0.8661  0.8702
 4756SOL    HW225731   2.778   2.272   7.290 -0.2710 -1.1710  0.5062
 4757SOL     OW25732   4.390   3.416  16.742  0.3550  0.3270 -0.6315
 4757SOL    HW125733   4.359   3.329  16.718  1.3367 -0.7810  2.2356
 4757SOL    HW225734   4.408   3.446  16.652 -0.0632  0.8074 -0.5559
 4758SOL     OW25735   2.767   1.628  15.667 -0.2670 -0.2913  0.3393
 4758SOL    HW125736   2.780   1.587  15.581 -0.0197 -0.1067  0.2874
 4758SOL    HW225737   2.691   1.684  15.656  1.8874  2.1541 -2.1584
 4759SOL     OW25738   3.916   3.266   5.547  0.2430  0.2909 -0.0310
 4759SOL    HW125739   3.894   3.260   5.640  1.8913  1.8522  0.4558
 4759SOL    HW225740   3.990   3.327   5.547  1.2193 -0.8792 -3.0866
 4760SOL     OW25741   2.875   3.700   2.601 -0.4155 -0.1260  0.2602
 4760SOL    HW125742   2.848   3.665   2.516 -1.4844 -1.3318  1.1059
 4760SOL    HW225743   2.804   3.663   2.653  0.7802 -3.2268 -0.2508
 4761SOL     OW25744   1.375   3.152  10.038  0.2763  0.1521  0.0919
 4761SOL    HW125745   1.300   3.184   9.986 -0.5761 -1.0711  0.5654
 4761SOL    HW225746   1.448   3.187   9.987 -0.0412 -1.3017 -1.3666
 4762SOL     OW25747   4.706   1.414   8.866 -0.2141 -0.8072 -0.1939
 4762SOL    HW125748   4.689   1.411   8.772  1.2271 -1.5535 -0.4343
 4762SOL    HW225749   4.690   1.321   8.883 -0.5813 -0.7693 -0.3521
 4763SOL     OW25750   1.604   3.143   4.858  0.1044 -0.3675  0.3688
 4763SOL    HW125751   1.603   3.101   4.944 -0.3891 -1.0013  0.0489
 4763SOL    HW225752   1.696   3.129   4.834  0.4370  0.6362  1.0571
 4764SOL     OW25753   4.209   3.797   7.607  0.3541  0.4760 -0.2583
 4764SOL    HW125754   4.175   3.886   7.598  0.2923  0.4848  0.0674
 4764SOL    HW225755   4.123   3.754   7.607  1.5056 -1.8446  1.4014
 4765SOL     OW25756   0.652   2.512  12.362  0.3517  0.7311  0.4670
 4765SOL    HW125757   0.602   2.570  12.420 -0.9207 -0.2552  0.3664
 4765SOL    HW225758   0.720   2.570  12.328 -0.3396  0.3330 -1.5733
 4766SOL     OW25759   2.366   3.364   7.918  0.2817  0.1113 -0.0879
 4766SOL    HW125760   2.364   3.296   7.985  1.4255  1.9846  1.8408
 4766SOL    HW225761   2.310   3.325   7.850  0.1632 -0.4029  0.3104
 4767SOL     OW25762   4.148   0.266   6.226  0.4109 -0.4522  0.3545
 4767SOL    HW125763   4.098   0.338   6.188 -0.9896 -0.9656  1.2645
 4767SOL    HW225764   4.137   0.301   6.314 -1.8077  0.0830 -0.1459
 4768SOL     OW25765   4.114   3.032  17.182 -0.1070 -0.0181 -0.1769
 4768SOL    HW125766   4.083   3.118  17.209 -1.4374 -0.1542 -1.2517
 4768SOL    HW225767   4.179   2.999  17.244 -1.1940  0.0594  0.9895
 4769SOL     OW25768   4.259   1.148  14.825 -0.0473 -0.2447 -0.1611
 4769SOL    HW125769   4.250   1.064  14.871  2.0803  1.2799  3.0322
 4769SOL    HW225770   4.288   1.210  14.892  2.4828  0.2737 -1.7580
 4770SOL     OW25771   3.642   0.790   2.048  0.1948  0.3401 -0.0730
 4770SOL    HW125772   3.733   0.807   2.023  0.7041 -1.3310  0.6202
 4770SOL    HW225773   3.603   0.877   2.035  0.5541  0.4598 -0.3563
 4771SOL     OW25774   4.606   4.268   9.462  0.2726  0.0459  1.0460
 4771SOL    HW125775   4.511   4.280   9.469  0.1297 -0.0707 -0.5173
 4771SOL    HW225776   4.636   4.342   9.409  2.2955 -1.7185 -0.2541
 4772SOL     OW25777   1.385   3.153   6.579  0.0127 -0.5413  0.1919
 4772SOL    HW125778   1.409   3.220   6.642 -0.7727 -1.5154  1.5229
 4772SOL    HW225779   1.354   3.085   6.638 -0.2240 -0.7680 -0.1938
 4773SOL     OW25780   1.299   3.268   4.806  0.1061  0.6879  0.6093
 4773SOL    HW125781   1.379   3.318   4.789  1.0387 -1.3205 -0.8721
 4773SOL    HW225782   1.292   3.228   4.719  0.5372  1.3623  0.2587
 4774SOL     OW25783   1.408   3.747   8.452 -0.0944 -0.1572 -0.2414
 4774SOL    HW125784   1.457   3.778   8.377  0.8608  1.3858  1.0353
 4774SOL    HW225785   1.455   3.805   8.511  0.5842 -2.3750  1.4020
 4775SOL     OW25786   4.352   2.851   2.733 -0.4046 -0.8997  0.1543
 4775SOL    HW125787   4.300   2.847   2.653  0.5023 -1.4079 -0.4031
 4775SOL    HW225788   4.284   2.840   2.799  0.5955 -1.7133  1.0569
 4776SOL     OW25789   1.958   4.323   2.805 -0.6681  0.1082  0.2573
 4776SOL    HW125790   2.002   4.332   2.720  0.1867  1.5917  0.8671
 4776SOL    HW225791   2.025   4.374   2.850 -0.4265 -1.2585  1.4725
 4777SOL     OW25792   2.867   1.511   0.683  0.2319  0.0706  0.6224
 4777SOL    HW125793   2.803   1.440   0.680  0.7560 -0.2786 -2.0524
 4777SOL    HW225794   2.894   1.516   0.591 -1.2838  2.8489  0.3345
 4778SOL     OW25795   0.178   4.323  12.386 -0.3901 -0.3497 -0.1664
 4778SOL    HW125796   0.169   4.389  12.316  0.2137 -0.7445 -0.6230
 4778SOL    HW225797   0.183   4.243  12.334 -3.4946 -1.1387  0.7626
 4779SOL     OW25798   2.721   3.965  10.180 -0.2657 -0.0067  0.4209
 4779SOL    HW125799   2.714   3.987  10.087 -1.3862 -3.2464 -0.2445
 4779SOL    HW225800   2.636   3.987  10.217 -0.9670 -0.1013 -1.1473
 4780SOL     OW25801   2.792   3.385   3.735  0.1520  0.0536 -0.1011
 4780SOL    HW125802   2.714   3.356   3.781  0.7730 -3.1955 -1.0505
 4780SOL    HW225803   2.791   3.476   3.764  0.7229  0.5716 -1.7101
 4781SOL     OW25804   4.564   3.564   5.346  0.3406 -0.1886 -0.3666
 4781SOL    HW125805   4.627   3.571   5.274 -0.3473  0.4437 -0.9184
 4781SOL    HW225806   4.601   3.496   5.401  0.4783  0.5597  0.4582
 4782SOL     OW25807   0.175   0.741   6.727 -0.3010  0.2045 -0.7004
 4782SOL    HW125808   0.230   0.803   6.774 -1.0392 -0.3070  0.8482
 4782SOL    HW225809   0.242   0.686   6.688 -2.0999 -2.1534 -0.4978
 4783SOL     OW25810   3.537   1.136   8.830 -0.1742 -0.6682 -0.3072
 4783SOL    HW125811   3.610   1.137   8.891  0.5128  1.1457 -1.1507
 4783SOL    HW225812   3.551   1.057   8.778 -0.2057  0.4169 -1.9699
 4784SOL     OW25813   2.568   0.335   4.067 -0.0074 -0.1604  0.3428
 4784SOL    HW125814   2.534   0.383   3.991 -0.3165 -0.1492  0.4877
 4784SOL    HW225815   2.493   0.303   4.117  0.0696 -1.5450 -0.4291
 4785SOL     OW25816   0.195   3.472   6.407  0.1800 -0.1329 -0.8151
 4785SOL    HW125817   0.117   3.452   6.460  0.2941 -0.1109 -0.6361
 4785SOL    HW225818   0.179   3.442   6.318  0.5774 -1.1547 -0.5424
 4786SOL     OW25819   1.022   3.241   4.215  0.0497 -0.2757  0.0698
 4786SOL    HW125820   1.097   3.215   4.161 -0.6041 -1.0390 -0.4774
 4786SOL    HW225821   0.993   3.313   4.159 -2.1841 -0.9831  0.3167
 4787SOL     OW25822   1.108   3.147   9.773  0.1829 -0.4948  0.3730
 4787SOL    HW125823   1.091   3.058   9.805  0.6109 -0.5842  0.3433
 4787SOL    HW225824   1.150   3.125   9.690 -1.1288 -0.1594 -0.3760
 4788SOL     OW25825   3.075   1.474   6.859  0.4072  0.1247  0.0528
 4788SOL    HW125826   3.133   1.400   6.840  2.2607  1.5336  0.2073
 4788SOL    HW225827   2.994   1.426   6.873 -0.3237  0.5136 -2.7914
 4789SOL     OW25828   2.923   4.577  12.374 -0.0547  0.1380  0.7088
 4789SOL    HW125829   3.017   4.558  12.372 -0.2175 -0.7333  1.2138
 4789SOL    HW225830   2.917   4.641  12.303 -0.6139 -1.1748 -0.4422
 4790SOL     OW25831   2.650   0.470   3.578 -0.0243  0.4638  0.0819
 4790SOL    HW125832   2.713   0.535   3.609 -1.1180  1.2298  0.6787
 4790SOL    HW225833   2.648   0.486   3.484  1.2689  0.7732  0.1073
 4791SOL     OW25834   1.810   1.750  15.057  0.5553 -0.4208  0.2391
 4791SOL    HW125835   1.871   1.689  15.099  1.5071 -0.9918 -1.9658
 4791SOL    HW225836   1.866   1.775  14.984 -1.3436  1.4577 -0.5937
 4792SOL     OW25837   3.764   1.808  14.197 -0.3444 -0.1470  0.4230
 4792SOL    HW125838   3.844   1.784  14.151  0.1417  1.4541  0.4538
 4792SOL    HW225839   3.807   1.855  14.268  0.0186 -0.7769  0.6209
 4793SOL     OW25840   2.660   2.936   3.418 -0.4392 -0.1359  0.7075
 4793SOL    HW125841   2.582   2.911   3.368  0.5425 -2.2190  0.2034
 4793SOL    HW225842   2.663   3.027   3.391  1.6455 -0.2499  0.6026
 4794SOL     OW25843   2.470   4.237   9.772  0.0885  0.4468 -0.3090
 4794SOL    HW125844   2.406   4.192   9.827  0.6335 -0.3781 -0.3510
 4794SOL    HW225845   2.481   4.327   9.804  0.9451 -0.0687  0.8309
 4795SOL     OW25846   1.091   1.357   5.104  0.1963 -0.4622 -0.2186
 4795SOL    HW125847   1.120   1.292   5.040 -1.2529 -1.3649  0.0256
 4795SOL    HW225848   1.048   1.424   5.052  0.8233  0.0921 -0.0160
 4796SOL     OW25849   0.449   0.949  13.478  0.1678  0.2196  0.8039
 4796SOL    HW125850   0.464   0.940  13.572 -1.1134  0.9854  1.0912
 4796SOL    HW225851   0.370   1.004  13.476  0.1508  0.1263 -0.7999
 4797SOL     OW25852   0.900   1.203   5.880  0.3068 -0.6532 -0.5919
 4797SOL    HW125853   0.931   1.172   5.965 -0.9575  0.3473  0.2288
 4797SOL    HW225854   0.920   1.130   5.822 -1.2607 -2.9955  1.7898
 4798SOL     OW25855   3.771   0.450   2.206  0.2810  0.2820 -0.5278
 4798SOL    HW125856   3.707   0.513   2.240 -0.9865 -1.9370  1.2078
 4798SOL    HW225857   3.723   0.394   2.144  0.2483  0.1157 -0.3515
 4799SOL     OW25858   1.384   4.320  12.434  0.7200  0.3499 -0.0110
 4799SOL    HW125859   1.376   4.400  12.485  4.7109 -1.0268  2.7774
 4799SOL    HW225860   1.432   4.266  12.497 -2.6049 -2.9984 -0.2869
 4800SOL     OW25861   0.113   3.646   9.299  0.4987  0.2436 -0.1501
 4800SOL    HW125862   0.188   3.609   9.251  0.7249  1.4776 -0.7507
 4800SOL    HW225863   0.043   3.608   9.246  1.0578 -0.7113 -0.1964
 4801SOL     OW25864   0.762   2.961  10.048 -0.0340 -0.1456  0.0133
 4801SOL    HW125865   0.733   2.871  10.028  0.1682 -0.3793  0.7692
 4801SOL    HW225866   0.685   3.006  10.082  1.1763  1.6258  0.3859
 4802SOL     OW25867   1.960   3.802   1.073 -0.1853  0.7077 -0.1981
 4802SOL    HW125868   1.954   3.717   1.117 -1.0057  0.0163 -1.6222
 4802SOL    HW225869   1.997   3.853   1.145  1.2487  1.7627 -1.6735
 4803SOL     OW25870   0.347   3.697   5.061 -0.1732  0.2148 -0.3057
 4803SOL    HW125871   0.408   3.767   5.083 -0.6679  1.3545 -2.5578
 4803SOL    HW225872   0.300   3.695   5.144 -0.7312  0.3019 -0.6134
 4804SOL     OW25873   3.324   0.089   3.072 -0.0632  0.7051 -0.2986
 4804SOL    HW125874   3.305   0.024   3.004 -1.7436 -1.5645  2.3432
 4804SOL    HW225875   3.268   0.164   3.049  1.6042  1.7832 -0.8720
 4805SOL     OW25876   1.129   2.012   8.942  0.2837 -0.0190 -0.5848
 4805SOL    HW125877   1.127   2.033   8.848  1.2317  2.2025 -0.1032
 4805SOL    HW225878   1.186   1.936   8.932  0.5548  0.0121  0.8177
 4806SOL     OW25879   2.107   3.279   1.153 -0.5594 -0.3932  0.0374
 4806SOL    HW125880   2.033   3.219   1.156 -0.8844  0.1195  2.0937
 4806SOL    HW225881   2.109   3.305   1.245  1.6694 -0.1250 -0.0889
 4807SOL     OW25882   4.302   0.142  17.640  0.2215 -0.2436  0.0357
 4807SOL    HW125883   4.350   0.224  17.650  2.2525 -1.2155 -1.8271
 4807SOL    HW225884   4.281   0.131   0.038 -3.7668 -0.3441 -0.8739
 4808SOL     OW25885   2.418   1.707   6.414  0.2556  0.2015 -0.2558
 4808SOL    HW125886   2.429   1.793   6.372 -1.9421 -0.2029 -1.6544
 4808SOL    HW225887   2.478   1.726   6.486 -0.4137  1.3296  0.0002
 4809SOL     OW25888   0.965   0.282   6.191  0.2548 -0.1888  0.2435
 4809SOL    HW125889   0.972   0.366   6.146 -0.2979 -0.5340 -0.4725
 4809SOL    HW225890   0.995   0.305   6.279  1.0745 -1.4499  0.2976
 4810SOL     OW25891   2.696   1.947   2.779  0.5828  0.0777  0.0439
 4810SOL    HW125892   2.688   1.854   2.755  0.9061 -0.3420  1.6123
 4810SOL    HW225893   2.786   1.956   2.809 -0.2864  2.0725  2.0469
 4811SOL     OW25894   4.399   4.006   6.407 -0.1956  0.6448  0.2268
 4811SOL    HW125895   4.338   4.078   6.389 -0.2680  0.4423 -0.3391
 4811SOL    HW225896   4.486   4.040   6.424  0.0720  0.8512 -1.5101
 4812SOL     OW25897   4.366   3.074  16.871 -0.3107  0.3072  0.2705
 4812SOL    HW125898   4.367   2.978  16.879 -0.9232  0.3859  1.2346
 4812SOL    HW225899   4.449   3.085  16.918  1.0498  0.4107 -2.1356
 4813SOL     OW25900   2.274   4.456   4.206 -0.2068  0.2186 -0.8287
 4813SOL    HW125901   2.269   4.550   4.191  1.1365  0.5367  0.6997
 4813SOL    HW225902   2.186   4.449   4.243 -0.1567  2.2745 -0.2983
 4814SOL     OW25903   0.001   1.557  12.979  0.7966 -0.6841 -0.1544
 4814SOL    HW125904   0.014   1.651  12.965 -2.7458 -0.3022 -0.8612
 4814SOL    HW225905   0.086   1.517  12.961  1.3419  0.8364 -0.9355
 4815SOL     OW25906   2.302   0.030   2.696  0.0542 -0.0301 -0.0184
 4815SOL    HW125907   2.342   0.038   2.609  0.2427  3.0786  0.3574
 4815SOL    HW225908   2.244   0.105   2.707  3.3512  2.0717  3.0911
 4816SOL     OW25909   2.828   0.795   6.998 -0.1099 -0.1280  0.4478
 4816SOL    HW125910   2.893   0.827   7.060 -0.4453 -1.4126  1.4977
 4816SOL    HW225911   2.833   0.701   7.016 -0.5106 -0.3237 -0.4561
 4817SOL     OW25912   0.813   1.323   1.899 -0.0663  0.0611 -0.1915
 4817SOL    HW125913   0.888   1.277   1.936 -0.0625 -0.7405 -1.2040
 4817SOL    HW225914   0.785   1.266   1.827  0.3500 -1.1889  0.6408
 4818SOL     OW25915   2.852   3.344   4.915  0.0510 -0.2223  0.3387
 4818SOL    HW125916   2.877   3.327   5.006  0.5085 -1.9517 -0.1110
 4818SOL    HW225917   2.848   3.253   4.887  0.2703 -0.2682  0.4548
 4819SOL     OW25918   0.495   3.105   0.530 -0.4411 -0.1350 -0.6791
 4819SOL    HW125919   0.498   3.019   0.487  1.4226  0.6262 -2.0442
 4819SOL    HW225920   0.400   3.114   0.535 -0.2443  0.3649  2.1405
 4820SOL     OW25921   0.312   0.300   4.527  0.4837 -0.0957  0.2631
 4820SOL    HW125922   0.217   0.305   4.518  0.6271  0.5334 -0.8910
 4820SOL    HW225923   0.337   0.306   4.435  0.3891 -1.3745  0.1521
 4821SOL     OW25924   3.795   0.709   5.919  0.2763 -0.1479 -0.5372
 4821SOL    HW125925   3.716   0.728   5.970  1.7901 -2.3142  2.6076
 4821SOL    HW225926   3.775   0.740   5.830 -1.3778 -2.8779 -1.1044
 4822SOL     OW25927   0.356   3.355  13.007  0.2285  0.1625  0.5418
 4822SOL    HW125928   0.369   3.315  13.093 -0.6798 -2.5383 -0.5950
 4822SOL    HW225929   0.319   3.439  13.034 -0.5472 -0.4093  1.2658
 4823SOL     OW25930   3.126   3.890  16.029  0.2211  0.4155 -0.0353
 4823SOL    HW125931   3.215   3.864  16.003 -0.3400 -0.7780 -0.7719
 4823SOL    HW225932   3.145   3.902  16.122 -1.5537  2.4264  0.0599
 4824SOL     OW25933   2.125   4.693   8.067 -0.2341  0.2068  0.0600
 4824SOL    HW125934   2.190   4.675   7.999 -2.6229 -0.2372 -2.1076
 4824SOL    HW225935   2.060   0.004   8.006 -0.4516 -2.2268 -1.0459
 4825SOL     OW25936   4.164   2.855   8.442 -0.1296  0.4438 -0.1072
 4825SOL    HW125937   4.135   2.828   8.529 -1.3132  0.6240 -0.4403
 4825SOL    HW225938   4.257   2.834   8.454 -0.3213 -0.6183 -0.4928
 4826SOL     OW25939   2.471   2.753   7.682 -0.1035 -0.2065 -0.0757
 4826SOL    HW125940   2.478   2.658   7.690  2.0356 -0.0930 -0.3765
 4826SOL    HW225941   2.507   2.782   7.766  2.2350  4.4659 -2.6456
 4827SOL     OW25942   2.613   0.540   4.247 -0.5908  0.1429 -0.3316
 4827SOL    HW125943   2.605   0.483   4.170  0.0890 -1.0503  0.4892
 4827SOL    HW225944   2.629   0.490   4.327  0.1560 -0.2834 -0.7550
 4828SOL     OW25945   0.279   2.486   4.396 -0.4602 -0.3618  0.2810
 4828SOL    HW125946   0.287   2.406   4.449  1.2372 -0.6690 -0.4331
 4828SOL    HW225947   0.353   2.539   4.425  0.6184 -1.1535 -1.0124
 4829SOL     OW25948   1.581   4.487   6.345 -0.0135 -0.7169  0.1580
 4829SOL    HW125949   1.658   4.516   6.297  0.6464  1.6636  2.6343
 4829SOL    HW225950   1.577   4.554   6.413  0.9802  0.4787 -0.9821
 4830SOL     OW25951   3.803   4.444   1.175 -0.3600 -0.6479  0.1696
 4830SOL    HW125952   3.889   4.442   1.133 -0.2584 -0.1966  0.3553
 4830SOL    HW225953   3.767   4.529   1.153  0.4384 -0.6602 -1.1777
 4831SOL     OW25954   3.725   0.488  15.569 -0.0255 -0.1353  0.0701
 4831SOL    HW125955   3.713   0.583  15.572 -0.4234 -0.1445 -1.0266
 4831SOL    HW225956   3.649   0.464  15.516 -1.4929  0.4367  1.9246
 4832SOL     OW25957   0.522   0.235   6.938 -0.3348 -0.0553  0.1531
 4832SOL    HW125958   0.598   0.227   6.881 -0.6428  3.3328 -0.6897
 4832SOL    HW225959   0.495   0.325   6.919 -0.0464  0.0090  0.0537
 4833SOL     OW25960   1.773   0.715  12.848  0.0313  0.6032  0.1507
 4833SOL    HW125961   1.776   0.712  12.944 -1.2650  0.1816  0.1709
 4833SOL    HW225962   1.867   0.732  12.841  0.3829 -1.2273  0.4241
 4834SOL     OW25963   0.830   3.071   6.624 -0.2818 -0.6690 -0.5874
 4834SOL    HW125964   0.842   2.987   6.668 -1.0907 -0.0032  0.9276
 4834SOL    HW225965   0.862   3.138   6.685  1.4742 -0.8046 -1.3613
 4835SOL     OW25966   3.057   2.316   0.619 -0.5398 -0.3038  0.4053
 4835SOL    HW125967   3.130   2.281   0.670 -0.4081 -1.2150 -0.4044
 4835SOL    HW225968   2.992   2.331   0.688 -0.9050 -1.8497  0.4049
 4836SOL     OW25969   4.558   4.536   9.208  0.1798 -0.4393  0.0409
 4836SOL    HW125970   4.650   4.555   9.225  0.4434  1.2259 -3.1088
 4836SOL    HW225971   4.532   4.600   9.141 -0.3827 -1.1936 -0.4573
 4837SOL     OW25972   0.091   0.866  10.456 -0.0344  0.0590 -0.4277
 4837SOL    HW125973   0.120   0.863  10.547 -1.2620 -2.3104 -0.1003
 4837SOL    HW225974   0.136   0.947  10.433  0.2904 -0.2339 -0.8320
 4838SOL     OW25975   1.991   0.077   7.863 -0.6494 -0.2329  0.0889
 4838SOL    HW125976   1.992   0.052   7.771 -1.4108  0.2928 -0.0654
 4838SOL    HW225977   2.016   0.170   7.856 -1.4182 -0.0365 -0.0605
 4839SOL     OW25978   4.063   1.425   1.612 -0.0206  0.7159 -1.1182
 4839SOL    HW125979   4.076   1.497   1.551  0.2448 -0.0241 -1.9314
 4839SOL    HW225980   4.140   1.430   1.667 -1.5498 -1.3572  1.2447
 4840SOL     OW25981   2.562   1.261   3.605  0.6424  0.3023 -0.3115
 4840SOL    HW125982   2.551   1.353   3.628  1.6183  0.4151 -0.3117
 4840SOL    HW225983   2.631   1.236   3.667  0.0541  0.0198  0.2342
 4841SOL     OW25984   0.361   2.301   9.791 -0.1592  0.4202  0.3376
 4841SOL    HW125985   0.380   2.278   9.883  0.9516  1.7709  0.4448
 4841SOL    HW225986   0.277   2.263   9.767  0.0750 -0.9502  1.6474
 4842SOL     OW25987   3.855   2.650   8.692 -0.0273  0.0539  0.6550
 4842SOL    HW125988   3.761   2.663   8.705 -0.3787 -1.8472  0.0598
 4842SOL    HW225989   3.872   2.609   8.777  0.0637  0.6052  0.9021
 4843SOL     OW25990   3.764   3.533  13.307  0.2284 -0.4442 -0.6597
 4843SOL    HW125991   3.718   3.496  13.382 -0.6767  1.4852 -0.2603
 4843SOL    HW225992   3.830   3.585  13.353 -1.2787  0.4615  0.4788
 4844SOL     OW25993   2.481   0.846   8.647  0.1115  0.1250 -0.5634
 4844SOL    HW125994   2.575   0.852   8.666  0.0228 -0.5925  0.1086
 4844SOL    HW225995   2.493   0.798   8.565  0.5215  1.1264 -1.0950
 4845SOL     OW25996   4.512   0.717   7.527 -0.1238  0.1077  0.2667
 4845SOL    HW125997   4.537   0.644   7.471  0.5015  0.4106  0.1538
 4845SOL    HW225998   4.517   0.780   7.455 -1.2688 -0.4447 -0.2931
 4846SOL     OW25999   4.277   4.389   4.390  0.3756  0.1498 -0.3888
 4846SOL    HW126000   4.261   4.446   4.465 -1.1766 -0.3803 -0.3289
 4846SOL    HW226001   4.329   4.316   4.424 -0.7244 -0.1554  0.6073
 4847SOL     OW26002   1.957   3.657   7.541 -0.8970 -0.2873  0.0609
 4847SOL    HW126003   1.939   3.615   7.625 -1.5513 -0.2165 -0.0441
 4847SOL    HW226004   2.052   3.645   7.539 -1.0267 -1.5712  1.9845
 4848SOL     OW26005   4.286   3.680   3.869 -0.0528 -0.1029  0.0640
 4848SOL    HW126006   4.214   3.660   3.929 -1.4526  0.5369 -1.3908
 4848SOL    HW226007   4.258   3.765   3.835 -0.9573 -0.2517  0.4342
 4849SOL     OW26008   4.030   4.209  17.288  0.1987  0.4496 -0.7227
 4849SOL    HW126009   4.025   4.236  17.380 -0.4908  1.0590 -0.9366
 4849SOL    HW226010   4.108   4.154  17.296  0.4680  1.3309  2.8602
 4850SOL     OW26011   0.573   2.459  10.001  0.5039 -0.3459  0.0240
 4850SOL    HW126012   0.525   2.378  10.018  0.9669 -0.3532  1.2763
 4850SOL    HW226013   0.544   2.474   9.911 -2.5728  0.9769  1.2531
 4851SOL     OW26014   2.746   3.104   2.756  0.0857 -0.3006  0.0135
 4851SOL    HW126015   2.785   3.114   2.843 -2.5897 -0.5539  1.2384
 4851SOL    HW226016   2.817   3.072   2.701  1.3895  0.7454  1.0978
 4852SOL     OW26017   3.178   3.147   4.862 -0.2515 -0.3176  0.4180
 4852SOL    HW126018   3.171   3.113   4.952 -0.9536 -1.0032  0.1033
 4852SOL    HW226019   3.229   3.227   4.879 -1.1823  0.4003 -0.1877
 4853SOL     OW26020   3.634   0.230  10.964  0.0060 -0.6647  0.4697
 4853SOL    HW126021   3.690   0.157  10.938 -0.4628 -0.8345 -0.0761
 4853SOL    HW226022   3.603   0.208  11.052 -0.5104 -0.7247  0.2738
 4854SOL     OW26023   0.658   0.893   6.406 -1.0109  0.5866 -0.0586
 4854SOL    HW126024   0.694   0.967   6.357 -0.6646  1.3164  1.2931
 4854SOL    HW226025   0.717   0.826   6.372 -0.4952  2.7892 -3.4673
 4855SOL     OW26026   3.831   4.058   3.806 -0.8394 -0.4781 -0.0935
 4855SOL    HW126027   3.806   4.142   3.768 -0.6510 -0.8001 -0.9319
 4855SOL    HW226028   3.758   4.045   3.867  0.7534  0.2051  1.9690
 4856SOL     OW26029   2.988   0.720   6.803  0.5380 -0.0230  0.5215
 4856SOL    HW126030   2.986   0.797   6.746  2.3268  0.3071  0.9237
 4856SOL    HW226031   2.923   0.745   6.869 -2.7461 -0.9489 -2.3563
 4857SOL     OW26032   1.150   0.337   2.181 -0.3142  0.3761  0.2088
 4857SOL    HW126033   1.168   0.319   2.089 -1.3016  0.2669  0.0367
 4857SOL    HW226034   1.236   0.333   2.224  0.0087  0.9623 -0.3909
 4858SOL     OW26035   2.178   3.535   8.574 -0.9542  0.0472 -0.3027
 4858SOL    HW126036   2.111   3.470   8.590 -0.0455 -0.8710 -0.2500
 4858SOL    HW226037   2.231   3.521   8.653  0.3550 -0.5274 -1.2906
 4859SOL     OW26038   4.466   4.535   3.149 -0.4249 -0.2352 -0.4584
 4859SOL    HW126039   4.462   4.622   3.108 -0.8568 -1.1616 -2.3940
 4859SOL    HW226040   4.553   4.536   3.190 -0.2992  0.3027 -0.7342
 4860SOL     OW26041   3.212   1.688   1.116 -0.3638  0.5981  0.5447
 4860SOL    HW126042   3.119   1.664   1.118 -0.6978  2.1524  3.0651
 4860SOL    HW226043   3.249   1.600   1.112  0.3442  0.8898  0.8140
 4861SOL     OW26044   3.605   3.982  13.248 -0.0166 -0.6218  0.2635
 4861SOL    HW126045   3.600   4.029  13.331 -1.0079  0.6892 -0.5373
 4861SOL    HW226046   3.557   3.904  13.278  1.4385 -2.1180 -1.2990
 4862SOL     OW26047   0.045   0.163   7.009 -0.4527 -0.1183  0.4809
 4862SOL    HW126048   0.117   0.115   6.968  2.2166  0.8460  3.9845
 4862SOL    HW226049   4.723   0.097   7.061 -0.5783 -0.3319  0.0938
 4863SOL     OW26050   0.430   1.288  15.689  0.5708  0.1393 -0.0087
 4863SOL    HW126051   0.488   1.361  15.710  0.6374  0.6205 -1.9082
 4863SOL    HW226052   0.377   1.278  15.768  1.9942 -1.8494  0.7056
 4864SOL     OW26053   4.413   2.322   6.085  0.3341 -0.3329  0.4184
 4864SOL    HW126054   4.387   2.391   6.146 -2.9182 -3.2374  2.3823
 4864SOL    HW226055   4.486   2.284   6.134  0.0955 -1.1042  0.1686
 4865SOL     OW26056   3.642   2.978  11.371  0.5600  0.3591  0.0152
 4865SOL    HW126057   3.722   2.978  11.424  0.1245 -1.7137  0.6574
 4865SOL    HW226058   3.668   3.047  11.310  0.2531 -0.4960 -1.0897
 4866SOL     OW26059   1.867   3.784   0.664  0.0238 -0.4519  0.1600
 4866SOL    HW126060   1.940   3.723   0.674 -0.0984 -0.5538  0.4263
 4866SOL    HW226061   1.861   3.825   0.750  0.9398  0.1354 -0.0545
 4867SOL     OW26062   2.752   0.322   2.385 -0.4806 -0.1131  0.2347
 4867SOL    HW126063   2.677   0.323   2.445 -0.1849 -1.1592  0.6070
 4867SOL    HW226064   2.790   0.235   2.392 -0.5719  0.0335  2.7592
 4868SOL     OW26065   1.547   2.738   4.469 -0.2875 -0.3231  0.2797
 4868SOL    HW126066   1.630   2.785   4.462 -1.1282  0.9742 -0.8350
 4868SOL    HW226067   1.477   2.775   4.415  1.2904  2.7038  0.3220
 4869SOL     OW26068   3.598   2.293  15.753  0.0570  0.3979  0.0986
 4869SOL    HW126069   3.535   2.356  15.787 -1.9913 -1.1085 -0.9199
 4869SOL    HW226070   3.662   2.298  15.824 -0.1302  1.0480  0.2219
 4870SOL     OW26071   1.611   3.642   5.280 -0.0119 -0.2790  0.2981
 4870SOL    HW126072   1.671   3.613   5.349 -1.3034  1.6153  2.2294
 4870SOL    HW226073   1.582   3.729   5.307  2.4947  0.8883 -0.8461
 4871SOL     OW26074   1.719   1.744  12.541  0.4426  0.0930 -0.4934
 4871SOL    HW126075   1.692   1.653  12.541  0.1380  0.1898 -1.3486
 4871SOL    HW226076   1.654   1.781  12.601  0.5119  0.1613 -0.4595
 4872SOL     OW26077   4.026   2.786  10.651  0.3355  0.3994 -0.1070
 4872SOL    HW126078   4.118   2.787  10.624  0.8061  2.6096  1.5690
 4872SOL    HW226079   3.989   2.731  10.581 -0.2110  0.4148  0.1699
 4873SOL     OW26080   3.668   2.880   5.002  0.2043 -0.6556 -0.0797
 4873SOL    HW126081   3.612   2.957   5.015  0.8892 -0.2095  0.2319
 4873SOL    HW226082   3.609   2.805   5.007  0.1059 -0.5061  1.1513
 4874SOL     OW26083   1.455   1.721   3.242 -0.0257 -0.2826 -0.3219
 4874SOL    HW126084   1.529   1.764   3.286  0.8404 -0.6722 -1.3991
 4874SOL    HW226085   1.469   1.764   3.157  1.3227  0.3662  0.2295
 4875SOL     OW26086   3.119   1.329  13.383  0.2050  0.3592 -0.0895
 4875SOL    HW126087   3.033   1.332  13.341 -0.0250 -1.2371  0.2736
 4875SOL    HW226088   3.160   1.405  13.341  1.3757 -0.7941 -1.0725
 4876SOL     OW26089   3.972   4.083   9.757 -0.4858  0.7525  0.1431
 4876SOL    HW126090   4.060   4.101   9.787  0.7540  0.6785 -3.4957
 4876SOL    HW226091   3.920   4.113   9.832 -1.2451  2.3479 -1.0246
 4877SOL     OW26092   3.439   0.072   5.493 -0.5376 -0.3966  0.0601
 4877SOL    HW126093   3.397   0.020   5.425 -0.1332  1.6171 -1.7461
 4877SOL    HW226094   3.527   0.086   5.457 -0.4017  0.9643  0.9284
 4878SOL     OW26095   0.298   2.264   8.844  0.1845  0.7029  0.1460
 4878SOL    HW126096   0.235   2.193   8.858 -0.0886  0.7905 -0.6176
 4878SOL    HW226097   0.360   2.252   8.916  1.3292  0.7436 -0.8367
 4879SOL     OW26098   3.152   2.865   5.591  0.3072 -0.6904  0.3617
 4879SOL    HW126099   3.106   2.791   5.631 -1.3219  0.0156 -0.2412
 4879SOL    HW226100   3.079   2.911   5.551  0.3077 -1.4955 -0.5779
 4880SOL     OW26101   3.073   1.986  12.044 -0.2459  0.3838  0.4824
 4880SOL    HW126102   3.146   2.004  11.985  0.6673 -3.2387  0.5167
 4880SOL    HW226103   3.083   2.059  12.105 -1.3260 -0.1429  1.2878
 4881SOL     OW26104   4.164   0.424   4.937 -0.7786 -0.0189  0.2846
 4881SOL    HW126105   4.157   0.379   5.021  0.3386 -0.3153  0.2199
 4881SOL    HW226106   4.100   0.380   4.882 -0.7248  0.9190 -0.5311
 4882SOL     OW26107   1.027   3.796   6.176 -0.2699  0.1862  0.0092
 4882SOL    HW126108   1.010   3.876   6.127  1.3050  0.6154  0.1629
 4882SOL    HW226109   1.113   3.820   6.212 -0.2771 -1.0562  0.8587
 4883SOL     OW26110   0.989   3.073  17.106 -0.0645 -0.2016 -0.1905
 4883SOL    HW126111   1.022   3.145  17.159 -1.5350  0.4101 -0.1189
 4883SOL    HW226112   1.062   3.079  17.045  0.0519 -1.3783 -0.1688
 4884SOL     OW26113   4.063   0.959  13.786 -0.2846 -0.3405  0.2137
 4884SOL    HW126114   4.012   0.881  13.769  0.3644 -0.5620 -0.7408
 4884SOL    HW226115   4.129   0.926  13.847  0.5183  1.6031  0.4336
 4885SOL     OW26116   3.830   0.369  12.192 -0.4135 -0.2567 -0.0152
 4885SOL    HW126117   3.877   0.448  12.221 -0.4725  0.0793 -0.8429
 4885SOL    HW226118   3.781   0.343  12.270 -1.9157  2.6382  0.0387
 4886SOL     OW26119   1.715   4.083   8.654 -0.0179 -0.4037 -0.3885
 4886SOL    HW126120   1.793   4.118   8.698 -1.4346 -0.0244  1.8084
 4886SOL    HW226121   1.682   4.164   8.614 -2.9389 -1.6078 -0.3374
 4887SOL     OW26122   0.524   1.898   3.473  0.5894  0.5170  0.2566
 4887SOL    HW126123   0.535   1.992   3.491  2.0461  0.1805  1.1239
 4887SOL    HW226124   0.455   1.884   3.538  0.1470 -0.2507 -0.3845
 4888SOL     OW26125   4.623   2.507  16.224  0.1343 -0.3188  0.0700
 4888SOL    HW126126   4.604   2.423  16.183  1.5615 -1.2501  1.2870
 4888SOL    HW226127   4.533   2.538  16.223  0.8935  1.8813  0.3570
 4889SOL     OW26128   1.353   0.582   5.649 -0.6161  0.2169  0.5161
 4889SOL    HW126129   1.439   0.584   5.691 -0.6283 -1.6369  0.6262
 4889SOL    HW226130   1.359   0.492   5.619  0.3680  0.6205 -0.5034
 4890SOL     OW26131   0.349   0.917   6.864 -0.2492 -0.0733  0.1688
 4890SOL    HW126132   0.365   0.997   6.915  3.1667 -0.3788 -0.4497
 4890SOL    HW226133   0.417   0.933   6.799 -0.4037 -1.1964 -0.2638
 4891SOL     OW26134   0.221   4.186   6.014 -0.2060  0.2824  0.2820
 4891SOL    HW126135   0.255   4.162   6.100 -1.0152  1.7185  0.9962
 4891SOL    HW226136   0.190   4.272   6.042 -0.3500 -0.4272  2.2818
 4892SOL     OW26137   4.082   3.710  11.138  0.3730  0.0556  0.1883
 4892SOL    HW126138   4.146   3.655  11.092 -0.6889 -1.3963  0.4467
 4892SOL    HW226139   4.016   3.641  11.135  0.4903 -0.0901  0.9345
 4893SOL     OW26140   2.448   0.290   5.912  0.6555  0.0577  0.0776
 4893SOL    HW126141   2.525   0.289   5.969  0.4326  2.1879  0.4346
 4893SOL    HW226142   2.459   0.205   5.869 -0.8842  0.3500 -0.9116
 4894SOL     OW26143   4.202   4.517   8.500 -0.1133  0.3461 -0.3770
 4894SOL    HW126144   4.253   4.437   8.487 -0.9503 -0.5879  2.0477
 4894SOL    HW226145   4.215   4.551   8.412  1.0454  0.8798  0.0000
 4895SOL     OW26146   4.155   0.779   1.619 -0.1728  0.5536 -0.5932
 4895SOL    HW126147   4.062   0.780   1.597 -1.1469  1.6509  3.5873
 4895SOL    HW226148   4.159   0.719   1.693  0.5078 -0.2333 -1.2688
 4896SOL     OW26149   4.116   2.725   1.949 -0.7240 -0.8385  0.1367
 4896SOL    HW126150   4.208   2.734   1.973 -0.4069 -3.1318 -0.1384
 4896SOL    HW226151   4.080   2.694   2.032  1.0028 -0.0071  1.1912
 4897SOL     OW26152   0.161   4.258   7.222 -0.7592  0.1842 -0.5574
 4897SOL    HW126153   0.207   4.238   7.140 -2.7104  1.6278 -2.0185
 4897SOL    HW226154   0.156   4.354   7.224 -1.5981  0.1596 -1.8570
 4898SOL     OW26155   2.532   1.039   8.181  0.6683 -0.5379  0.6043
 4898SOL    HW126156   2.563   0.953   8.152 -0.9593 -0.9152 -0.0329
 4898SOL    HW226157   2.496   1.080   8.102  1.4180  1.0410  1.0811
 4899SOL     OW26158   1.557   2.688  14.227 -0.2741  0.2757  0.2131
 4899SOL    HW126159   1.549   2.761  14.289 -1.4679  1.5719 -1.4592
 4899SOL    HW226160   1.491   2.631  14.267  1.6091 -2.4647 -0.6543
 4900SOL     OW26161   1.599   2.566   0.593  0.1017 -0.2559 -0.2120
 4900SOL    HW126162   1.524   2.507   0.602  0.3256 -1.1344 -4.1923
 4900SOL    HW226163   1.561   2.653   0.583 -1.0863 -1.3424 -5.2148
 4901SOL     OW26164   0.447   0.589   0.360 -0.2259 -0.4682  0.0525
 4901SOL    HW126165   0.467   0.682   0.345 -2.0014  0.0284  0.6541
 4901SOL    HW226166   0.394   0.594   0.440 -1.5946 -0.7733 -0.8393
 4902SOL     OW26167   1.016   4.423   9.347 -0.4692 -0.5412  0.1276
 4902SOL    HW126168   1.052   4.445   9.434 -0.6903  0.5893 -0.0687
 4902SOL    HW226169   1.025   4.328   9.354 -0.3666 -0.3312  2.9270
 4903SOL     OW26170   1.155   2.698   2.110  0.5117 -0.1827 -1.0630
 4903SOL    HW126171   1.060   2.690   2.102  0.9537 -5.1409 -0.8274
 4903SOL    HW226172   1.174   2.742   2.027 -0.9446  1.0780 -0.7234
 4904SOL     OW26173   1.772   1.253   2.915 -0.0601  0.4917 -0.0914
 4904SOL    HW126174   1.721   1.175   2.892 -1.8365  1.8320 -0.6063
 4904SOL    HW226175   1.788   1.301   2.834  0.4916 -2.8294 -1.9660
 4905SOL     OW26176   3.992   3.761   2.234  0.1780  0.1377 -0.4108
 4905SOL    HW126177   4.038   3.681   2.259 -0.3209  0.0702  0.2968
 4905SOL    HW226178   3.926   3.726   2.173  1.7758  1.3041 -2.8004
 4906SOL     OW26179   1.068   1.895   4.118 -0.2507 -0.2111 -0.0260
 4906SOL    HW126180   1.122   1.963   4.078 -0.6987  0.3724  0.3562
 4906SOL    HW226181   0.982   1.910   4.077 -0.6947  0.4879  1.1629
 4907SOL     OW26182   2.312   2.351   7.984  0.1416 -0.6117 -0.0222
 4907SOL    HW126183   2.237   2.338   8.042 -0.4348  0.3958 -0.5501
 4907SOL    HW226184   2.358   2.415   8.038  0.0721 -1.4636  1.0610
 4908SOL     OW26185   0.455   0.973   4.284  0.1603  0.5606 -0.4066
 4908SOL    HW126186   0.372   0.944   4.322  0.2855 -1.2370 -1.4968
 4908SOL    HW226187   0.511   0.939   4.353  0.6100  4.6576  1.2860
 4909SOL     OW26188   3.522   2.364   5.015  0.2836 -0.5861  0.0907
 4909SOL    HW126189   3.488   2.419   5.085 -0.8000 -0.8438 -0.2207
 4909SOL    HW226190   3.437   2.360   4.970  0.4566  1.7494 -0.4585
 4910SOL     OW26191   2.808   0.386   4.771  0.7881 -0.2535  0.1637
 4910SOL    HW126192   2.798   0.314   4.833  0.8971  0.1273  0.6207
 4910SOL    HW226193   2.900   0.410   4.777  0.7169  0.5566 -1.7052
 4911SOL     OW26194   1.080   3.081   5.697 -0.0472  0.3368  0.4287
 4911SOL    HW126195   1.109   3.104   5.786  3.2147 -2.1738  0.0160
 4911SOL    HW226196   1.013   3.145   5.676  0.9976  1.9495  2.0534
 4912SOL     OW26197   0.648   0.139   8.190 -0.1113  0.1923 -0.5095
 4912SOL    HW126198   0.602   0.199   8.132 -1.7320 -0.0741  0.5034
 4912SOL    HW226199   0.730   0.184   8.209 -1.4795  2.5958 -0.2772
 4913SOL     OW26200   2.322   0.527   2.072 -0.1540 -0.5048 -0.0501
 4913SOL    HW126201   2.230   0.500   2.063  0.6150 -3.1195 -0.0164
 4913SOL    HW226202   2.350   0.455   2.129  1.0828  0.3358  0.4083
 4914SOL     OW26203   1.918   0.376   5.490 -0.0780 -0.6491 -0.3832
 4914SOL    HW126204   1.973   0.307   5.529  0.5147 -0.0250 -0.1025
 4914SOL    HW226205   1.908   0.445   5.556  1.4781  1.1573 -2.0001
 4915SOL     OW26206   3.370   0.778   8.307 -0.1971 -0.0755 -1.0258
 4915SOL    HW126207   3.428   0.838   8.260  0.3433 -0.7311 -1.1839
 4915SOL    HW226208   3.361   0.703   8.249  1.2204 -0.6771 -0.4487
 4916SOL     OW26209   2.809   0.262   7.250  1.1859 -0.4615 -0.5625
 4916SOL    HW126210   2.825   0.345   7.204 -0.9632  0.4426  0.3042
 4916SOL    HW226211   2.740   0.289   7.310  1.6130 -1.4737  0.3804
 4917SOL     OW26212   0.075   0.762   8.118 -0.4080  0.4292  0.3305
 4917SOL    HW126213   0.110   0.738   8.204 -1.6632  0.4958  0.8696
 4917SOL    HW226214   0.126   0.842   8.105 -0.1217 -0.0544 -1.5312
 4918SOL     OW26215   4.717   1.001  13.447  0.1222 -0.3881 -0.2112
 4918SOL    HW126216   0.028   0.912  13.457  1.2997 -0.1165 -1.7698
 4918SOL    HW226217   0.064   1.047  13.401  0.0736  0.5188  0.6179
 4919SOL     OW26218   2.265   3.607   1.468 -0.7456 -0.1292 -0.4115
 4919SOL    HW126219   2.260   3.677   1.402 -1.1061 -1.0104 -1.3229
 4919SOL    HW226220   2.176   3.606   1.504 -0.9387  0.3882 -0.8608
 4920SOL     OW26221   1.739   1.827  13.821 -0.2869 -0.9468 -0.5255
 4920SOL    HW126222   1.778   1.777  13.750  0.0923 -2.3550  0.6880
 4920SOL    HW226223   1.774   1.913  13.797 -2.1038 -0.1016 -0.1837
 4921SOL     OW26224   3.899   4.180   3.403 -0.4873 -0.0033 -0.0548
 4921SOL    HW126225   3.888   4.235   3.326  2.3457 -0.2225 -0.6359
 4921SOL    HW226226   3.811   4.166   3.437  1.6459 -2.2095  4.5838
 4922SOL     OW26227   1.146   3.821   0.223  0.3042  0.0712  0.1470
 4922SOL    HW126228   1.153   3.725   0.220 -0.5046 -0.0387  1.4825
 4922SOL    HW226229   1.052   3.831   0.207  0.4842  0.3724 -0.7236
 4923SOL     OW26230   2.687   3.308   6.622 -0.0661  0.1407  0.1491
 4923SOL    HW126231   2.654   3.390   6.658 -0.1174  0.9606 -1.7561
 4923SOL    HW226232   2.732   3.272   6.698 -0.1122  0.0362  0.1269
 4924SOL     OW26233   3.348   2.464   5.230 -0.0536  0.0679  0.3242
 4924SOL    HW126234   3.263   2.422   5.211  0.5903 -0.1244 -2.1933
 4924SOL    HW226235   3.375   2.417   5.308 -0.0062 -1.9911 -0.9190
 4925SOL     OW26236   2.188   0.618   3.261  0.5756  0.0867  0.1990
 4925SOL    HW126237   2.190   0.636   3.167 -1.3960 -0.7638 -0.0087
 4925SOL    HW226238   2.156   0.528   3.269 -0.3038  0.2114 -1.9349
 4926SOL     OW26239   1.812   4.469   3.813  0.0702  0.2372 -0.9694
 4926SOL    HW126240   1.778   4.404   3.751 -1.0597  0.2445 -0.3626
 4926SOL    HW226241   1.898   4.428   3.816 -0.1208 -0.1216 -0.4155
 4927SOL     OW26242   0.813   1.572   4.538 -0.3292 -0.2864  0.5709
 4927SOL    HW126243   0.838   1.568   4.630 -2.8429 -1.1825  1.2367
 4927SOL    HW226244   0.783   1.661   4.521 -1.8998 -0.7031  1.1590
 4928SOL     OW26245   2.337   1.977  10.866  0.4196 -0.3346 -0.0673
 4928SOL    HW126246   2.335   1.890  10.906  0.3812 -0.0196  0.6176
 4928SOL    HW226247   2.335   2.036  10.942 -1.6070 -0.1442 -0.2501
 4929SOL     OW26248   0.915   3.430   8.126  0.3817  0.3115 -0.1779
 4929SOL    HW126249   0.931   3.514   8.169  1.1544 -0.4996  1.1342
 4929SOL    HW226250   0.959   3.374   8.191 -2.8463 -1.2307  0.6750
 4930SOL     OW26251   4.171   2.966   5.149  0.2448  0.0817  0.2733
 4930SOL    HW126252   4.083   3.002   5.135  1.5025  2.7347 -0.7137
 4930SOL    HW226253   4.197   2.965   5.057 -0.7962  2.2583 -0.0370
 4931SOL     OW26254   1.611   2.838   6.661  0.3602 -0.2478 -0.0731
 4931SOL    HW126255   1.636   2.901   6.594  2.2094  0.2206  1.0431
 4931SOL    HW226256   1.664   2.863   6.737  1.0786 -0.0923 -0.6329
 4932SOL     OW26257   2.062   2.626  13.783  0.4201  0.1033 -0.5624
 4932SOL    HW126258   2.034   2.683  13.854  1.7088 -0.8723  0.7076
 4932SOL    HW226259   2.129   2.684  13.746 -0.1519  1.3200  0.2958
 4933SOL     OW26260   2.901   3.805   3.368 -0.4949  0.4571 -0.1354
 4933SOL    HW126261   2.953   3.733   3.331 -0.1514 -0.2616  1.7596
 4933SOL    HW226262   2.897   3.791   3.462 -2.1321  1.3919 -0.0723
 4934SOL     OW26263   3.538   4.465   7.988  0.3175 -0.5749 -0.1967
 4934SOL    HW126264   3.621   4.432   8.021  0.7591  1.5080  0.7767
 4934SOL    HW226265   3.485   4.387   8.000  1.7442 -1.5660 -0.4109
 4935SOL     OW26266   2.249   4.099   2.421  0.3907  0.3711 -0.1619
 4935SOL    HW126267   2.234   4.092   2.327 -0.2704  1.0117 -0.1024
 4935SOL    HW226268   2.317   4.032   2.426  0.0045  0.0163  0.3921
 4936SOL     OW26269   4.558   4.670   8.950 -0.3991 -0.3056  0.2725
 4936SOL    HW126270   4.608   0.016   8.908 -0.3594  0.9586  2.4626
 4936SOL    HW226271   4.555   4.597   8.888 -0.1440 -0.9596  1.0297
 4937SOL     OW26272   1.944   1.953   8.381 -0.2035 -0.3908  0.2940
 4937SOL    HW126273   1.986   1.883   8.433  0.7532  0.2660  0.4016
 4937SOL    HW226274   1.859   1.965   8.423 -0.0055 -1.6310  1.0723
 4938SOL     OW26275   1.106   4.634  12.161 -0.1429 -0.2488 -0.0924
 4938SOL    HW126276   1.022   4.620  12.206 -0.1244 -1.1637 -0.3447
 4938SOL    HW226277   1.142   4.546  12.154  0.6788 -0.0119  1.2046
 4939SOL     OW26278   1.195   1.392   5.759  0.3376 -0.2681 -0.0244
 4939SOL    HW126279   1.225   1.326   5.698 -0.0470 -0.7896  0.3474
 4939SOL    HW226280   1.109   1.420   5.728 -0.8990 -2.9297  1.0005
 4940SOL     OW26281   0.017   3.067   7.414  0.3448  0.0592 -0.1880
 4940SOL    HW126282   4.687   2.998   7.453  1.7965 -1.6332 -1.2080
 4940SOL    HW226283   4.686   3.082   7.336  2.7657 -0.7041 -2.0445
 4941SOL     OW26284   2.495   4.152   3.487 -0.2903  0.0426  0.0006
 4941SOL    HW126285   2.495   4.139   3.582  0.2197 -1.1280 -0.1709
 4941SOL    HW226286   2.586   4.141   3.461 -0.6710  1.0388 -1.7769
 4942SOL     OW26287   0.796   4.651   6.301 -0.4147 -0.4216 -0.3820
 4942SOL    HW126288   0.890   4.665   6.308 -0.5819  0.4608  0.1749
 4942SOL    HW226289   0.785   4.720   6.236 -0.0109  0.2019  0.2074
 4943SOL     OW26290   4.683   0.357   8.929 -0.3100 -0.2971  0.0271
 4943SOL    HW126291   4.620   0.315   8.870 -0.2863  0.5102 -0.5580
 4943SOL    HW226292   4.676   0.447   8.899 -0.2089 -0.4931 -0.5789
 4944SOL     OW26293   3.356   4.395   8.348 -0.1330 -0.5042  0.1548
 4944SOL    HW126294   3.369   4.372   8.256 -1.4314  1.0149 -0.4080
 4944SOL    HW226295   3.429   4.343   8.382 -0.1137 -0.5981 -0.0279
 4945SOL     OW26296   2.152   3.284   0.699 -0.4910 -0.0954  0.2373
 4945SOL    HW126297   2.178   3.362   0.649 -0.6326  0.9816  1.8268
 4945SOL    HW226298   2.209   3.286   0.777  1.2925 -2.3888 -1.0171
 4946SOL     OW26299   0.114   0.497   3.604  0.1635  0.0213 -1.0380
 4946SOL    HW126300   0.132   0.585   3.636 -2.6604  1.0999 -2.4092
 4946SOL    HW226301   0.080   0.511   3.516 -1.3807  0.8076 -0.3283
 4947SOL     OW26302   3.662   3.928  15.644 -0.3556 -0.1815 -0.0684
 4947SOL    HW126303   3.718   3.960  15.714 -0.2018  1.1506 -0.7893
 4947SOL    HW226304   3.736   3.924  15.583 -0.7008 -0.5627 -0.4621
 4948SOL     OW26305   1.221   4.482  15.972  0.4816 -0.1034 -0.5158
 4948SOL    HW126306   1.211   4.392  16.004  2.1057 -0.2871 -0.5383
 4948SOL    HW226307   1.182   4.469  15.885  1.5553 -1.3493 -0.8271
 4949SOL     OW26308   2.448   3.663   0.416  0.5674  0.3033 -0.5797
 4949SOL    HW126309   2.378   3.718   0.381  1.0009  1.1834 -0.0632
 4949SOL    HW226310   2.510   3.727   0.450 -1.0863  0.5411  1.9702
 4950SOL     OW26311   4.358   1.327   1.407 -0.0139 -0.1676  0.7344
 4950SOL    HW126312   4.327   1.342   1.318 -0.2251 -0.0156  0.8328
 4950SOL    HW226313   4.451   1.349   1.408 -0.2142  0.6918  0.6505
 4951SOL     OW26314   3.555   4.472   9.274  0.2412  0.4688 -0.1466
 4951SOL    HW126315   3.613   4.502   9.204  1.1101 -0.4883  0.1629
 4951SOL    HW226316   3.588   4.385   9.295  2.8436  1.0136 -1.9985
 4952SOL     OW26317   0.452   4.646  13.555 -0.2302  0.4663 -0.2167
 4952SOL    HW126318   0.471   4.570  13.500  0.5191  1.5344 -1.4501
 4952SOL    HW226319   0.439   4.704  13.480  0.1146  0.4860 -0.2606
 4953SOL     OW26320   4.401   3.576   9.040  0.3649  0.4131 -0.0653
 4953SOL    HW126321   4.317   3.605   9.006  1.5089  4.1389  0.2793
 4953SOL    HW226322   4.403   3.620   9.125  1.5910 -1.0033  0.6322
 4954SOL     OW26323   1.332   3.170   7.684  0.1155 -0.2338 -0.2643
 4954SOL    HW126324   1.253   3.206   7.724 -0.9350 -0.4754 -2.1360
 4954SOL    HW226325   1.396   3.222   7.732 -0.2045  0.8475 -1.0171
 4955SOL     OW26326   3.680   0.575   2.924  0.2829  0.0926 -0.5094
 4955SOL    HW126327   3.715   0.607   3.007  1.8254 -1.4242 -0.5801
 4955SOL    HW226328   3.758   0.540   2.882 -0.4049 -2.1438  0.0997
 4956SOL     OW26329   4.346   0.411  16.601  0.0682  0.2957  0.3004
 4956SOL    HW126330   4.256   0.384  16.581 -0.4139  1.9994  0.2104
 4956SOL    HW226331   4.336   0.467  16.678 -1.5759 -2.7525  2.3078
 4957SOL     OW26332   4.501   2.675   3.754 -0.1188 -0.1780 -0.3942
 4957SOL    HW126333   4.596   2.689   3.751 -0.1272 -0.0856 -0.2555
 4957SOL    HW226334   4.475   2.696   3.664 -0.0356  0.8465 -0.1800
 4958SOL     OW26335   3.329   2.110  13.702  0.1770 -0.3230  0.1862
 4958SOL    HW126336   3.367   2.082  13.785 -2.6260 -2.2143  0.8276
 4958SOL    HW226337   3.379   2.186  13.672 -0.2155  0.6176  1.9202
 4959SOL     OW26338   2.699   0.386   8.612  0.4330 -0.0684 -0.1380
 4959SOL    HW126339   2.639   0.457   8.637 -0.6999 -1.5521  1.3067
 4959SOL    HW226340   2.762   0.441   8.566  0.6942 -1.0041 -0.8975
 4960SOL     OW26341   3.641   2.625   3.197  0.0731 -0.3486 -0.2729
 4960SOL    HW126342   3.581   2.565   3.153  1.7020 -2.7505  0.7546
 4960SOL    HW226343   3.699   2.552   3.219  1.5401  1.2304  1.1326
 4961SOL     OW26344   1.276   3.428   3.007 -0.6812 -0.0831 -0.3448
 4961SOL    HW126345   1.274   3.517   2.973  0.7020 -0.0120 -0.2355
 4961SOL    HW226346   1.197   3.383   2.976 -0.4027  0.0824 -1.2850
 4962SOL     OW26347   4.534   3.980   3.258  0.5543 -0.4271 -0.0577
 4962SOL    HW126348   4.546   4.070   3.228  0.5595 -0.0696  1.0048
 4962SOL    HW226349   4.479   3.946   3.187  0.4982 -0.0204 -0.2067
 4963SOL     OW26350   1.720   0.186   3.480  0.6774  0.7565  0.0577
 4963SOL    HW126351   1.648   0.241   3.449  0.8549 -0.1341 -1.9553
 4963SOL    HW226352   1.742   0.215   3.569  1.5709 -1.2392  0.4893
 4964SOL     OW26353   4.582   1.069   6.080 -0.4487  0.1466  0.1693
 4964SOL    HW126354   4.578   1.053   5.986  1.2862  4.0206 -0.5861
 4964SOL    HW226355   4.563   1.163   6.081  1.5982  0.5761 -0.0782
 4965SOL     OW26356   1.446   3.113   6.290 -0.1896  0.1028 -0.3234
 4965SOL    HW126357   1.372   3.066   6.252 -0.6206  0.3722  0.1711
 4965SOL    HW226358   1.436   3.091   6.383  0.8257  0.7719 -0.0567
 4966SOL     OW26359   4.570   3.892   7.593  0.6774 -0.1236 -0.0822
 4966SOL    HW126360   4.537   3.978   7.567  1.4283 -0.9313 -3.7615
 4966SOL    HW226361   4.652   3.909   7.638  1.2696 -2.6011 -0.2723
 4967SOL     OW26362   1.176   3.518  10.537  0.0867 -0.0927  0.2130
 4967SOL    HW126363   1.097   3.573  10.531  0.9718  0.8274 -2.7913
 4967SOL    HW226364   1.171   3.471  10.454  2.6034  0.4663 -0.2281
 4968SOL     OW26365   1.077   3.151   5.961  0.6040 -0.4882 -0.3269
 4968SOL    HW126366   1.110   3.096   6.032 -0.8838  0.9851  1.5172
 4968SOL    HW226367   0.987   3.118   5.968  0.8293 -0.7041  1.5299
 4969SOL     OW26368   3.213   2.507   8.195  0.3569 -0.5230 -0.0211
 4969SOL    HW126369   3.176   2.459   8.121 -1.5524 -0.1582  0.7211
 4969SOL    HW226370   3.223   2.435   8.257  0.4741 -1.3774 -1.0229
 4970SOL     OW26371   1.216   1.785   4.471 -0.2727  0.5724  0.1586
 4970SOL    HW126372   1.202   1.764   4.564  2.4458  1.5838  0.8017
 4970SOL    HW226373   1.128   1.798   4.436 -1.4493 -0.8853  2.5932
 4971SOL     OW26374   2.187   1.847   6.191  0.0650 -0.7900 -0.0616
 4971SOL    HW126375   2.131   1.842   6.268 -1.9956 -1.0836 -1.5794
 4971SOL    HW226376   2.272   1.882   6.218 -0.4731  0.2351  0.2805
 4972SOL     OW26377   2.874   1.307   9.000  0.3040  0.2216 -0.2370
 4972SOL    HW126378   2.874   1.399   8.973  2.1382  0.7666  1.6171
 4972SOL    HW226379   2.945   1.292   9.062  0.7772 -1.0913 -1.1101
 4973SOL     OW26380   3.534   1.894   5.631 -0.4842 -0.1121 -0.2224
 4973SOL    HW126381   3.511   1.948   5.555 -0.3118 -2.3585 -1.8617
 4973SOL    HW226382   3.591   1.834   5.583 -1.6341 -0.6634 -0.8977
 4974SOL     OW26383   2.913   2.512   7.144  1.0668 -0.0919  0.1526
 4974SOL    HW126384   2.983   2.503   7.079  0.4559 -0.0412 -0.5114
 4974SOL    HW226385   2.872   2.426   7.144 -0.9353  0.8489  0.5987
 4975SOL     OW26386   2.749   0.410   4.511 -0.1634  0.4928  0.1959
 4975SOL    HW126387   2.842   0.395   4.492 -1.2256 -2.2573 -2.7362
 4975SOL    HW226388   2.748   0.377   4.601 -0.7708  1.5764  0.5904
 4976SOL     OW26389   3.554   2.630   6.400 -0.4509 -0.6368  0.1513
 4976SOL    HW126390   3.578   2.551   6.448  2.7970  0.6391  0.6508
 4976SOL    HW226391   3.635   2.681   6.392 -0.3841 -1.1283 -2.2461
 4977SOL     OW26392   0.687   2.329   7.609  0.0921  0.9287  0.2804
 4977SOL    HW126393   0.649   2.286   7.533 -2.3275  1.3444  1.2403
 4977SOL    HW226394   0.683   2.259   7.674 -1.0248  1.6628  1.0086
 4978SOL     OW26395   0.668   2.414   6.738  0.1938  0.3833 -0.0573
 4978SOL    HW126396   0.577   2.430   6.764  0.1558  0.6353 -0.3589
 4978SOL    HW226397   0.652   2.348   6.670 -0.4606 -0.5856  1.0217
 4979SOL     OW26398   3.628   1.653   6.245 -0.7739  0.4060  0.1589
 4979SOL    HW126399   3.625   1.749   6.249  1.9882  0.5206 -0.6210
 4979SOL    HW226400   3.711   1.640   6.291  0.7067  1.0401 -2.3305
 4980SOL     OW26401   3.832   1.216   1.964 -0.4777  0.2340  0.2629
 4980SOL    HW126402   3.903   1.177   1.912 -0.9340  0.2472 -0.3683
 4980SOL    HW226403   3.753   1.171   1.933  0.2470  0.0650 -1.3761
 4981SOL     OW26404   4.237   0.951  11.441 -0.0084 -0.3942  0.3862
 4981SOL    HW126405   4.223   1.045  11.451  0.8266 -0.2096 -0.2368
 4981SOL    HW226406   4.287   0.940  11.522 -0.1406  0.1357  0.5392
 4982SOL     OW26407   1.139   4.059   8.410 -0.2437  0.1989  0.0635
 4982SOL    HW126408   1.174   4.103   8.487  0.5137 -0.2341 -0.0351
 4982SOL    HW226409   1.058   4.107   8.394 -0.5869 -0.9503 -1.7170
 4983SOL     OW26410   3.992   1.512   5.679  0.3344  0.1180 -0.1476
 4983SOL    HW126411   3.998   1.417   5.694 -1.1437  0.3930  2.0520
 4983SOL    HW226412   4.065   1.534   5.737 -0.3588  2.7732 -0.2794
 4984SOL     OW26413   2.754   1.742   6.399  0.8170  0.2580  0.1186
 4984SOL    HW126414   2.732   1.771   6.487 -0.0547  0.0678 -0.0312
 4984SOL    HW226415   2.736   1.650   6.420  0.7955 -0.2815 -2.1630
 4985SOL     OW26416   3.748   3.308  15.130  0.3965  0.1859 -0.5862
 4985SOL    HW126417   3.704   3.239  15.080  1.0698  0.2222 -1.2152
 4985SOL    HW226418   3.835   3.272  15.148  0.3620  0.3565 -0.0615
 4986SOL     OW26419   3.072   4.557  15.659  0.1868 -0.4482  0.1047
 4986SOL    HW126420   3.013   4.617  15.705  0.4441 -1.2516  1.4938
 4986SOL    HW226421   3.014   4.482  15.645  1.0301 -1.3423  1.4820
 4987SOL     OW26422   0.438   3.825   7.432 -0.1346 -0.1165  0.2115
 4987SOL    HW126423   0.399   3.899   7.385 -0.6580 -0.9110 -0.6289
 4987SOL    HW226424   0.498   3.788   7.367 -1.1825 -2.4799  0.5850
 4988SOL     OW26425   3.870   0.997   6.619 -0.2704  0.0181  0.0897
 4988SOL    HW126426   3.863   0.949   6.537  0.8990  1.1105 -0.6476
 4988SOL    HW226427   3.800   1.061   6.610  0.2569  0.6741  0.6086
 4989SOL     OW26428   0.587   1.635   7.492  0.1611 -0.0976 -0.0219
 4989SOL    HW126429   0.523   1.591   7.435  1.5765 -0.4445 -1.3494
 4989SOL    HW226430   0.669   1.617   7.446  0.1313  2.4696 -1.0729
 4990SOL     OW26431   2.632   4.578  12.991  0.0977 -0.4268 -0.0774
 4990SOL    HW126432   2.547   4.581  12.949 -0.6795  1.5429  1.6413
 4990SOL    HW226433   2.647   4.484  12.986 -1.8100 -0.6072 -2.3703
 4991SOL     OW26434   3.032   3.674  12.856  0.1898  0.4000 -0.2105
 4991SOL    HW126435   3.068   3.756  12.890 -1.1708  0.7437  0.3953
 4991SOL    HW226436   3.104   3.631  12.809  0.9546  0.9749  0.4251
 4992SOL     OW26437   0.086   3.366   7.353 -0.1259 -0.1764  0.2052
 4992SOL    HW126438   0.124   3.428   7.291 -5.0603  2.6761  0.0544
 4992SOL    HW226439   4.716   3.388   7.344  0.2604  1.3278 -0.1002
 4993SOL     OW26440   1.756   0.121   9.932 -0.1961  0.0901  0.4573
 4993SOL    HW126441   1.829   0.169   9.893  0.1651 -1.4282 -0.7325
 4993SOL    HW226442   1.789   0.032   9.941 -0.5142  0.2071  2.7853
 4994SOL     OW26443   0.484   1.938   7.558 -0.5520  0.3265 -0.3036
 4994SOL    HW126444   0.466   1.971   7.470 -0.4579  1.0114 -0.0649
 4994SOL    HW226445   0.538   1.864   7.531 -1.1207  0.4699 -1.8488
 4995SOL     OW26446   4.634   1.079  13.669 -0.0100 -0.1067  1.0595
 4995SOL    HW126447   4.667   1.029  13.595 -1.8906  0.2560 -0.0447
 4995SOL    HW226448   4.541   1.079  13.647  0.3734  0.1657 -0.5118
 4996SOL     OW26449   4.142   1.362   2.171 -0.0112  0.0303 -0.2681
 4996SOL    HW126450   4.187   1.395   2.094  3.1963 -0.2322  1.4991
 4996SOL    HW226451   4.172   1.271   2.169  0.7729  0.2756  0.5271
 4997SOL     OW26452   1.101   1.398   2.413 -0.0981 -0.3770 -0.1463
 4997SOL    HW126453   1.143   1.438   2.489  1.1527  0.5864 -1.3525
 4997SOL    HW226454   1.142   1.312   2.426  0.4785 -0.2058 -0.7956
 4998SOL     OW26455   2.255   4.558   6.354  0.3917  0.6980  0.1641
 4998SOL    HW126456   2.272   4.466   6.375  2.7450  1.1530  0.2339
 4998SOL    HW226457   2.343   4.580   6.324  0.4413 -1.1428 -0.9973
 4999SOL     OW26458   4.579   0.878  17.412 -0.1066  0.0108  0.0736
 4999SOL    HW126459   4.648   0.937  17.380  0.0213  0.8498  1.9110
 4999SOL    HW226460   4.621   0.801  17.450  0.7080 -0.6571 -2.1722
 5000SOL     OW26461   2.845   4.124  13.705 -0.2373  0.0874  0.1343
 5000SOL    HW126462   2.823   4.155  13.793  0.1269  1.0550 -0.1165
 5000SOL    HW226463   2.914   4.061  13.725 -0.1546  0.4664  1.0786
 5001SOL     OW26464   3.069   2.830   7.121 -1.1304 -0.1060 -0.1089
 5001SOL    HW126465   2.986   2.795   7.089 -1.5563  0.5677  0.2694
 5001SOL    HW226466   3.129   2.804   7.051 -0.4617 -0.6239  0.6528
 5002SOL     OW26467   3.784   1.511  14.124  0.0676  0.0054  0.3836
 5002SOL    HW126468   3.784   1.422  14.157  0.7498 -0.7719 -1.7037
 5002SOL    HW226469   3.871   1.535  14.156  0.0185 -1.3462  1.5268
 5003SOL     OW26470   0.406   4.642   5.883 -0.2285 -0.0123  0.2897
 5003SOL    HW126471   0.449   4.573   5.831  1.5017  1.9724 -0.9167
 5003SOL    HW226472   0.454   4.637   5.965  0.6821 -0.7532 -0.2836
 5004SOL     OW26473   2.921   1.109  10.729 -0.1151 -0.2416  0.3984
 5004SOL    HW126474   2.884   1.195  10.705  0.2874 -0.5840 -1.4827
 5004SOL    HW226475   2.896   1.106  10.821 -0.1803 -0.7907  0.3597
 5005SOL     OW26476   0.416   0.652   3.594  0.1263 -0.5077  0.0626
 5005SOL    HW126477   0.505   0.626   3.618  0.7739  1.2322 -0.4885
 5005SOL    HW226478   0.390   0.712   3.664 -0.4601 -0.2912 -0.3367
 5006SOL     OW26479   3.620   0.303   9.411  0.1633 -0.2997 -0.5516
 5006SOL    HW126480   3.665   0.221   9.432 -0.0826  0.1142  1.6140
 5006SOL    HW226481   3.680   0.370   9.445 -1.3299  1.5617 -1.5819
 5007SOL     OW26482   1.082   3.000   3.944 -0.4925 -0.1315  0.1244
 5007SOL    HW126483   1.086   2.931   3.878  0.0036  1.9171 -2.0186
 5007SOL    HW226484   1.141   3.063   3.902 -0.1840 -0.0440  0.6974
 5008SOL     OW26485   4.469   0.268   7.907  0.6584  0.0392  0.1114
 5008SOL    HW126486   4.544   0.234   7.955  1.3435  0.1763 -0.8527
 5008SOL    HW226487   4.392   0.252   7.962  0.8602  0.6572  0.5723
 5009SOL     OW26488   3.464   1.704   8.099 -0.5783  0.5307  0.3725
 5009SOL    HW126489   3.464   1.628   8.040  2.4919  0.2289  0.7627
 5009SOL    HW226490   3.543   1.755   8.081  0.0232 -0.5563 -0.0390
 5010SOL     OW26491   1.422   2.797  12.637  0.1153  0.0173  0.5104
 5010SOL    HW126492   1.369   2.719  12.625 -0.0205  0.0530  0.8505
 5010SOL    HW226493   1.481   2.802  12.562 -1.3831  1.2402 -0.5719
 5011SOL     OW26494   3.162   3.856   9.169 -0.2764 -0.3824 -0.1457
 5011SOL    HW126495   3.214   3.787   9.128  1.4477  1.9172 -1.7856
 5011SOL    HW226496   3.095   3.868   9.102  0.7352 -0.5304 -1.1836
 5012SOL     OW26497   0.679   2.550   6.416 -0.0166  0.5916 -0.9198
 5012SOL    HW126498   0.644   2.598   6.491 -1.1685 -1.0833 -0.3801
 5012SOL    HW226499   0.601   2.499   6.397 -0.6807  1.5454 -0.7822
 5013SOL     OW26500   2.576   2.226   7.880  0.1177  0.1630  0.1024
 5013SOL    HW126501   2.537   2.139   7.888  1.5496 -0.4190  0.7785
 5013SOL    HW226502   2.503   2.285   7.899 -0.7244 -0.9686  0.3819
 5014SOL     OW26503   3.104   0.718   9.391  0.6789 -0.2384 -0.3988
 5014SOL    HW126504   3.035   0.784   9.384 -0.3859 -1.4070 -0.9000
 5014SOL    HW226505   3.180   0.776   9.396  1.0984 -0.8097 -0.2297
 5015SOL     OW26506   2.113   1.474  16.853  0.2907  0.0313  0.1666
 5015SOL    HW126507   2.058   1.395  16.855  0.6527 -0.2865 -2.1253
 5015SOL    HW226508   2.195   1.441  16.889  0.0744 -1.9357 -1.1139
 5016SOL     OW26509   3.597   2.918  11.881 -0.3796  0.5157 -0.7092
 5016SOL    HW126510   3.639   2.845  11.835 -0.6086 -1.5758  2.4071
 5016SOL    HW226511   3.620   2.993  11.826 -3.3288  1.7390 -0.3003
 5017SOL     OW26512   1.800   1.337   4.405  0.4503  0.0638 -0.1134
 5017SOL    HW126513   1.772   1.371   4.319  2.4011 -0.9178 -1.1430
 5017SOL    HW226514   1.893   1.324   4.384  0.4877  2.1930 -1.3051
 5018SOL     OW26515   0.843   1.191   1.422 -0.3973  0.1888 -0.5172
 5018SOL    HW126516   0.858   1.100   1.450 -0.9634 -0.0202 -0.8999
 5018SOL    HW226517   0.935   1.208   1.401 -0.4565  2.9738  1.4770
 5019SOL     OW26518   4.605   1.945   1.790  0.0894 -0.1019 -0.1144
 5019SOL    HW126519   4.527   1.923   1.842 -0.9094 -1.1904 -2.0708
 5019SOL    HW226520   4.632   2.033   1.816  0.1743 -0.6567  1.6564
 5020SOL     OW26521   3.455   1.707   4.075 -0.2653  0.4112 -0.0011
 5020SOL    HW126522   3.515   1.701   4.001 -3.5545  2.3372 -2.7863
 5020SOL    HW226523   3.389   1.650   4.036  1.5702  0.0331 -2.5915
 5021SOL     OW26524   0.135   2.950  12.968  0.2738 -0.0778 -0.1073
 5021SOL    HW126525   0.172   3.023  12.918 -0.6489  0.1820 -0.4252
 5021SOL    HW226526   0.042   2.948  12.945  0.2856  1.9534 -0.3188
 5022SOL     OW26527   0.972   0.579   9.318 -0.0632  0.1785  0.3345
 5022SOL    HW126528   0.951   0.485   9.322  2.3812 -0.4020 -0.4473
 5022SOL    HW226529   0.994   0.594   9.410 -0.8542 -1.1769  0.7541
 5023SOL     OW26530   0.887   1.560   1.738 -0.0258 -0.5739  0.0770
 5023SOL    HW126531   0.975   1.522   1.742  0.0456 -0.6387 -2.1214
 5023SOL    HW226532   0.836   1.488   1.774  0.3498 -0.2256  1.3297
 5024SOL     OW26533   1.878   1.717   5.761 -0.4877 -0.5147  0.5241
 5024SOL    HW126534   1.879   1.695   5.668 -1.3624  1.6318  0.0092
 5024SOL    HW226535   1.864   1.812   5.756 -1.8237 -0.8495 -2.1837
 5025SOL     OW26536   4.077   1.261   5.732  0.1275  0.1517 -0.3927
 5025SOL    HW126537   4.155   1.294   5.777 -1.4407 -1.3329  3.3784
 5025SOL    HW226538   4.134   1.215   5.670 -0.1466 -1.3832  0.4848
 5026SOL     OW26539   2.433   3.973   0.700 -0.3170 -0.1405  0.2110
 5026SOL    HW126540   2.468   4.050   0.745 -1.4862 -0.1998  1.2400
 5026SOL    HW226541   2.355   4.009   0.658  1.6207  2.5290 -1.1171
 5027SOL     OW26542   4.252   0.049   4.728 -0.1379 -0.2455  0.2301
 5027SOL    HW126543   4.181   0.043   4.664  0.6899 -2.8837 -0.4223
 5027SOL    HW226544   4.312   0.092   4.667 -2.0799  0.0536 -1.4723
 5028SOL     OW26545   2.990   0.448   6.033 -0.0516 -0.1368 -0.0833
 5028SOL    HW126546   3.020   0.359   6.051  2.3896  0.6561 -0.1575
 5028SOL    HW226547   2.976   0.476   6.123  0.0690  0.6604 -0.3085
 5029SOL     OW26548   0.068   2.527   4.212  0.3967 -0.2858  0.4673
 5029SOL    HW126549   0.134   2.504   4.278 -0.2073  0.5237  1.3535
 5029SOL    HW226550   0.093   2.619   4.200 -0.5292 -0.2483 -1.1155
 5030SOL     OW26551   4.246   1.708  16.475  0.6935 -0.5106 -0.0665
 5030SOL    HW126552   4.331   1.723  16.516  1.5425  1.5776 -2.5485
 5030SOL    HW226553   4.217   1.796  16.451 -0.8382 -0.9079  0.3370
 5031SOL     OW26554   3.543   4.325   8.665  0.0075 -0.2364 -0.6420
 5031SOL    HW126555   3.504   4.407   8.636 -1.8279 -0.8648  0.0491
 5031SOL    HW226556   3.559   4.332   8.759  0.9015  0.7426 -0.8634
 5032SOL     OW26557   3.265   2.753   6.922  0.2063 -0.0902  0.5914
 5032SOL    HW126558   3.323   2.709   6.984  2.3415 -1.8426 -2.6155
 5032SOL    HW226559   3.298   2.715   6.840  0.7305 -1.2010  1.3097
 5033SOL     OW26560   3.253   0.274   7.411  0.5009  0.8589  0.0787
 5033SOL    HW126561   3.249   0.324   7.492  1.0056 -0.2292  0.7729
 5033SOL    HW226562   3.315   0.203   7.431 -0.3744  0.0559 -0.0517
 5034SOL     OW26563   0.094   0.649   2.311 -0.3412  0.6427  0.6166
 5034SOL    HW126564   0.135   0.733   2.330  3.1265 -1.3050  1.6826
 5034SOL    HW226565   0.043   0.649   2.392 -2.9923 -0.7356 -1.0498
 5035SOL     OW26566   1.474   0.588   3.259  0.2393 -0.2873  0.3885
 5035SOL    HW126567   1.423   0.627   3.330  0.2734  0.1995  0.1494
 5035SOL    HW226568   1.413   0.582   3.185 -2.1094 -1.9626  2.4957
 5036SOL     OW26569   4.136   4.677   6.848  0.6623  0.1716  0.0682
 5036SOL    HW126570   4.223   4.705   6.875  0.5938 -1.4249  1.9526
 5036SOL    HW226571   4.077   0.022   6.882 -2.8492 -1.4244 -2.7920
 5037SOL     OW26572   0.591   0.140   9.111 -0.5447  0.3531 -0.1922
 5037SOL    HW126573   0.614   0.064   9.165  1.1860 -0.0471 -1.5072
 5037SOL    HW226574   0.538   0.092   9.047 -1.3494 -0.6903  1.2370
 5038SOL     OW26575   1.776   0.776   8.108  0.7332  0.2348  0.2648
 5038SOL    HW126576   1.792   0.842   8.175  2.9475 -0.3742  0.3123
 5038SOL    HW226577   1.805   0.819   8.027 -1.6076 -0.6494 -1.0485
 5039SOL     OW26578   3.311   3.406   4.268  0.0736  0.1652  0.6662
 5039SOL    HW126579   3.233   3.444   4.226 -0.3136 -0.1548  1.1087
 5039SOL    HW226580   3.288   3.314   4.280 -1.4310  0.4330 -0.1306
 5040SOL     OW26581   0.647   0.003  12.383 -0.9601  0.0405  0.4197
 5040SOL    HW126582   0.569   0.035  12.339 -1.3184 -0.4269  0.7069
 5040SOL    HW226583   0.671   0.088  12.419 -0.8879 -0.0462  0.5764
 5041SOL     OW26584   2.385   0.970  17.068  0.1768  0.3767  0.4890
 5041SOL    HW126585   2.368   1.011  17.153  0.5929  2.1079 -0.2794
 5041SOL    HW226586   2.321   1.010  17.010  0.7323 -1.3768 -1.3356
 5042SOL     OW26587   4.187   0.009   0.300 -0.5926  0.0552 -0.1974
 5042SOL    HW126588   4.209   4.673   0.371 -2.1664 -1.0518 -0.6432
 5042SOL    HW226589   4.141   4.676   0.238 -0.5183  0.3757 -0.5538
 5043SOL     OW26590   4.510   1.200   8.369 -0.1880  0.3624  0.4289
 5043SOL    HW126591   4.438   1.147   8.336  0.4821  1.0360 -2.0825
 5043SOL    HW226592   4.528   1.269   8.305 -0.1844 -0.0673 -0.0284
 5044SOL     OW26593   2.851   1.431   5.156 -0.5664 -0.1005 -0.4454
 5044SOL    HW126594   2.841   1.446   5.250  0.1991 -2.6043  0.0327
 5044SOL    HW226595   2.933   1.473   5.132  0.1922 -1.7259 -0.6886
 5045SOL     OW26596   0.228   1.605   5.736 -0.4339 -0.7003 -0.5670
 5045SOL    HW126597   0.317   1.611   5.771 -1.1185  1.0792  0.8433
 5045SOL    HW226598   0.217   1.699   5.723  0.7412 -0.3630  0.9039
 5046SOL     OW26599   2.396   0.497   4.978  0.1597  0.0346 -0.3061
 5046SOL    HW126600   2.481   0.530   4.950  0.4482 -1.2931 -1.0302
 5046SOL    HW226601   2.384   0.430   4.911  0.8072 -2.1918  1.7910
 5047SOL     OW26602   4.141   1.160  13.496  0.3583 -0.1443 -0.0384
 5047SOL    HW126603   4.178   1.168  13.408  1.9599 -2.7364  0.3985
 5047SOL    HW226604   4.217   1.164  13.554 -0.0382  2.6998  0.2895
 5048SOL     OW26605   2.545   2.943   1.575 -0.0229 -0.2107  0.3999
 5048SOL    HW126606   2.535   2.993   1.494  0.3005 -0.4521  0.2162
 5048SOL    HW226607   2.565   2.857   1.538 -1.1552 -0.6982  0.9192
 5049SOL     OW26608   3.052   4.509   3.256  0.1726  0.9279 -0.2291
 5049SOL    HW126609   3.074   4.421   3.286  1.1179  1.6244  1.1584
 5049SOL    HW226610   3.028   4.490   3.166 -2.5560  1.6063  0.3469
 5050SOL     OW26611   2.807   2.653   8.653 -0.2216  0.2835  0.1158
 5050SOL    HW126612   2.900   2.675   8.658  0.3421 -1.8411 -1.0348
 5050SOL    HW226613   2.810   2.560   8.631  0.0084  0.2385  0.3500
 5051SOL     OW26614   3.380   3.251  14.468  0.7385 -0.0035 -0.2146
 5051SOL    HW126615   3.334   3.294  14.396  0.7474  2.9319  1.5204
 5051SOL    HW226616   3.429   3.181  14.425 -0.2179 -0.7281 -0.1519
 5052SOL     OW26617   3.616   2.893   3.163  0.3345  0.3382  0.3098
 5052SOL    HW126618   3.581   2.900   3.075 -0.7364  0.0134  0.7115
 5052SOL    HW226619   3.617   2.798   3.172  0.0203  0.1019 -2.2197
 5053SOL     OW26620   1.983   4.709   4.568 -0.0968  0.5063  0.0840
 5053SOL    HW126621   2.059   0.041   4.551 -0.2152  0.1134 -1.6810
 5053SOL    HW226622   1.988   4.693   4.663 -0.0858  0.4136  0.0674
 5054SOL     OW26623   0.260   1.073   3.508  0.7445 -0.0727 -0.7815
 5054SOL    HW126624   0.213   0.991   3.524 -2.2066  1.1036 -3.2913
 5054SOL    HW226625   0.207   1.141   3.551  0.7259  0.1518 -1.1511
 5055SOL     OW26626   1.486   0.677   4.671 -0.1455 -0.5103  0.0674
 5055SOL    HW126627   1.469   0.728   4.592 -0.1551 -0.4477  0.1102
 5055SOL    HW226628   1.574   0.644   4.657  0.7539  1.4800  1.0384
 5056SOL     OW26629   3.446   0.073   9.229  0.1730 -0.2187 -0.5090
 5056SOL    HW126630   3.490   0.148   9.268 -0.7232 -1.2632  2.4954
 5056SOL    HW226631   3.516   0.019   9.193  1.8362 -0.2473  2.7768
 5057SOL     OW26632   2.089   0.190   8.743 -0.4039  0.2107  0.0248
 5057SOL    HW126633   2.010   0.153   8.704 -0.7279  2.1127 -1.1269
 5057SOL    HW226634   2.079   0.147   8.828 -0.9849  1.3064  0.5124
 5058SOL     OW26635   1.759   4.697   1.367 -0.8881  0.0027 -0.2339
 5058SOL    HW126636   1.763   4.680   1.273  0.3056 -0.8856 -0.0154
 5058SOL    HW226637   1.670   4.664   1.379 -1.5105  1.7145 -0.0894
 5059SOL     OW26638   3.395   4.720   8.895 -0.2935  0.8257 -0.5115
 5059SOL    HW126639   3.338   4.647   8.920  2.1170 -1.1388 -0.7289
 5059SOL    HW226640   3.447   4.683   8.824  1.2440  1.8408  0.0992
 5060SOL     OW26641   3.923   2.110   4.669  0.1298  0.0994 -0.1881
 5060SOL    HW126642   3.927   2.188   4.725  0.2764  0.6581 -0.9823
 5060SOL    HW226643   4.012   2.077   4.655 -0.3756 -1.4286  0.2205
 5061SOL     OW26644   3.690   3.800   9.831  0.3769  0.4164 -0.1257
 5061SOL    HW126645   3.685   3.706   9.817  2.0648  0.3131  0.0096
 5061SOL    HW226646   3.686   3.805   9.927  1.0202  1.0680 -0.1292
 5062SOL     OW26647   0.449   3.769  13.325  0.4205  0.3559 -0.2526
 5062SOL    HW126648   0.476   3.861  13.331 -2.1646  1.0630  0.5798
 5062SOL    HW226649   0.490   3.733  13.246  3.2172  0.7290  1.0151
 5063SOL     OW26650   3.457   2.375   3.400  0.0708 -0.3838 -0.0491
 5063SOL    HW126651   3.388   2.375   3.333 -0.1987  1.0733  0.2316
 5063SOL    HW226652   3.421   2.425   3.473 -1.3087 -0.0264 -0.9812
 5064SOL     OW26653   0.925   1.589  14.622 -0.0590  0.3007  0.1348
 5064SOL    HW126654   0.859   1.659  14.626  0.2106  0.5768 -0.2313
 5064SOL    HW226655   0.953   1.591  14.713  0.4353 -0.5430  0.0054
 5065SOL     OW26656   0.099   4.060   6.294  0.4022 -0.3270 -0.0184
 5065SOL    HW126657   0.122   4.149   6.318  0.2718 -0.2328 -0.2432
 5065SOL    HW226658   0.178   4.014   6.321  0.0922 -0.3421  0.8895
 5066SOL     OW26659   2.586   2.483   6.474 -0.5146 -0.6121 -0.6351
 5066SOL    HW126660   2.537   2.552   6.429  2.4586  2.0224  0.1254
 5066SOL    HW226661   2.622   2.430   6.403 -0.0987 -0.5062 -0.5078
 5067SOL     OW26662   0.511   3.352   4.702  0.9517  0.3169  0.6239
 5067SOL    HW126663   0.505   3.318   4.791  0.3103  0.2455  0.5548
 5067SOL    HW226664   0.478   3.283   4.645 -0.4866  0.0582  1.7550
 5068SOL     OW26665   4.093   0.317   9.582 -0.0524  0.4218  0.1975
 5068SOL    HW126666   4.126   0.258   9.649  0.9886 -1.4745 -2.0220
 5068SOL    HW226667   4.127   0.400   9.615  0.7282  0.8729 -1.7393
 5069SOL     OW26668   3.468   0.438   4.415  0.3603  0.2164 -0.5220
 5069SOL    HW126669   3.532   0.510   4.414 -0.4171  0.8961 -1.1456
 5069SOL    HW226670   3.405   0.466   4.481 -1.1509 -0.6417 -1.6059
 5070SOL     OW26671   2.815   2.036  11.714 -1.0069 -0.6937 -0.1955
 5070SOL    HW126672   2.817   2.131  11.707 -2.0195 -0.5116  1.7786
 5070SOL    HW226673   2.865   1.999  11.642  1.8004 -0.9952  1.8951
 5071SOL     OW26674   3.612   2.402   8.695 -0.1837  0.3567 -0.2036
 5071SOL    HW126675   3.622   2.359   8.780 -1.2850  0.7260  0.1122
 5071SOL    HW226676   3.602   2.492   8.726 -1.4803 -0.5647  2.0445
 5072SOL     OW26677   0.149   3.898   5.671 -0.1684  0.3028  0.1900
 5072SOL    HW126678   0.181   3.916   5.583 -0.2332 -0.7862 -0.0547
 5072SOL    HW226679   0.229   3.863   5.711 -0.6191  1.3882  2.0479
 5073SOL     OW26680   0.990   2.453  14.770 -0.2155  0.4575 -0.2599
 5073SOL    HW126681   0.899   2.466  14.742 -1.0650 -2.3507  1.1761
 5073SOL    HW226682   1.000   2.358  14.757 -0.8876 -0.2036  4.0691
 5074SOL     OW26683   4.375   4.117   1.487  0.0874  0.5341  0.0930
 5074SOL    HW126684   4.401   4.027   1.508 -2.1410 -0.1494 -0.0640
 5074SOL    HW226685   4.460   4.160   1.479  1.2812 -1.6652  1.0299
 5075SOL     OW26686   2.547   2.975   4.460  0.1434  0.9601  0.2927
 5075SOL    HW126687   2.606   2.965   4.385 -0.1588  2.5506 -0.1382
 5075SOL    HW226688   2.589   3.042   4.514 -2.3389  1.4787  1.5749
 5076SOL     OW26689   2.139   4.309   8.051 -0.8405 -0.2694 -0.4946
 5076SOL    HW126690   2.224   4.321   8.008 -0.5058  0.4065  0.3617
 5076SOL    HW226691   2.103   4.238   7.998  0.4640 -2.6962  1.8271
 5077SOL     OW26692   0.545   3.724   2.280  0.2931 -0.2512  0.7415
 5077SOL    HW126693   0.623   3.779   2.279  0.6307 -0.7297  2.2145
 5077SOL    HW226694   0.533   3.704   2.372  1.3153  0.7899  1.1005
 5078SOL     OW26695   4.218   2.797   3.091 -0.0624  0.0607  0.3499
 5078SOL    HW126696   4.161   2.869   3.115 -1.4791 -0.5308 -1.2883
 5078SOL    HW226697   4.163   2.719   3.089  1.0587 -0.7437  0.7708
 5079SOL     OW26698   3.444   4.563   1.666 -0.1786  0.1087  0.7153
 5079SOL    HW126699   3.456   4.470   1.649 -0.8284  0.0376  0.6581
 5079SOL    HW226700   3.535   4.575   1.693  0.1380  0.0505 -0.3076
 5080SOL     OW26701   4.685   4.469   5.093 -0.1942  0.0385  0.2646
 5080SOL    HW126702   4.591   4.467   5.076 -0.4664 -1.4674  1.8606
 5080SOL    HW226703   0.007   4.488   5.011 -1.6708  2.7892  0.0854
 5081SOL     OW26704   0.830   2.871   6.789 -0.2838 -0.0144  0.3207
 5081SOL    HW126705   0.859   2.793   6.742  1.7288  1.2447 -0.5264
 5081SOL    HW226706   0.887   2.862   6.865  2.8863 -1.1692 -2.1952
 5082SOL     OW26707   0.326   0.186   3.970 -0.6861  0.0165 -0.4095
 5082SOL    HW126708   0.386   0.162   3.900 -0.7768 -0.0084 -0.4769
 5082SOL    HW226709   0.336   0.282   3.965 -1.7657  0.2672  2.2468
 5083SOL     OW26710   3.186   0.532   9.206 -0.5864  0.5814 -0.2664
 5083SOL    HW126711   3.247   0.480   9.258 -1.7001  0.2541  0.7109
 5083SOL    HW226712   3.165   0.612   9.255  1.8006  0.6131  0.7061
 5084SOL     OW26713   2.264   4.540   8.543 -0.2741 -0.0754  0.0854
 5084SOL    HW126714   2.220   4.499   8.469 -1.9467 -0.9632  1.5675
 5084SOL    HW226715   2.347   4.494   8.551  0.2956  0.8845 -0.1999
 5085SOL     OW26716   1.788   4.077   5.731  0.0566  0.1671  0.0053
 5085SOL    HW126717   1.849   4.140   5.769  0.6228 -0.3872  0.0246
 5085SOL    HW226718   1.765   4.026   5.809  1.1675 -0.6447 -0.2021
 5086SOL     OW26719   2.550   1.542   8.938  0.5583 -0.0764 -0.0111
 5086SOL    HW126720   2.468   1.546   8.988  0.6060 -0.5927  0.1099
 5086SOL    HW226721   2.553   1.449   8.917  1.2253 -0.4309  1.7159
 5087SOL     OW26722   3.696   1.468   7.582  0.2540 -0.1702  0.0389
 5087SOL    HW126723   3.680   1.475   7.676 -2.5098  2.8646 -0.6446
 5087SOL    HW226724   3.790   1.452   7.577  0.5184  1.3670  0.0451
 5088SOL     OW26725   3.986   2.692   2.716  0.8998  0.6163  0.1850
 5088SOL    HW126726   4.034   2.716   2.637  0.0113  0.2378 -0.4672
 5088SOL    HW226727   3.954   2.605   2.690  1.0962  0.3994  0.6598
 5089SOL     OW26728   3.078   1.429   0.901 -0.4295 -0.3248  0.8427
 5089SOL    HW126729   3.102   1.490   0.831 -2.4473 -0.0418  0.4193
 5089SOL    HW226730   2.991   1.403   0.871 -0.2711 -0.7611  0.7626
 5090SOL     OW26731   3.275   2.380   8.862  0.3520 -0.3394  0.1950
 5090SOL    HW126732   3.306   2.465   8.895  0.6160  0.7977 -3.0001
 5090SOL    HW226733   3.304   2.370   8.771  0.1483 -0.4464  0.1431
 5091SOL     OW26734   0.535   2.633   3.594  0.3857 -0.1871 -0.5496
 5091SOL    HW126735   0.486   2.684   3.530  2.1897  0.4576 -1.4291
 5091SOL    HW226736   0.467   2.595   3.650  1.3106  0.5800  1.1040
 5092SOL     OW26737   4.260   0.726   5.108 -0.2879  0.1178  0.1909
 5092SOL    HW126738   4.207   0.709   5.030 -1.8654  0.4333  1.1967
 5092SOL    HW226739   4.227   0.652   5.160 -0.1377  2.0875  3.0538
 5093SOL     OW26740   0.136   1.460   9.334  0.2975  0.0364  0.0046
 5093SOL    HW126741   0.136   1.553   9.312 -1.8175 -0.2299 -1.0709
 5093SOL    HW226742   0.086   1.454   9.416 -1.4686 -1.9506 -1.2390
 5094SOL     OW26743   3.873   1.814  14.509  0.4424 -0.3054 -0.2901
 5094SOL    HW126744   3.935   1.744  14.529 -0.9259 -2.1947 -2.7239
 5094SOL    HW226745   3.801   1.761  14.476 -0.1353  0.2030  0.1486
 5095SOL     OW26746   1.144   1.565   5.452  0.2723 -0.6085 -0.4387
 5095SOL    HW126747   1.188   1.628   5.508 -0.0237 -0.5673 -0.2555
 5095SOL    HW226748   1.210   1.528   5.392 -0.3069  0.0541 -1.4762
 5096SOL     OW26749   2.226   0.034  15.828 -0.3854  0.2351  0.1089
 5096SOL    HW126750   2.299   4.707  15.866  0.0379 -0.5291 -1.6973
 5096SOL    HW226751   2.197   0.091  15.899  0.2773  1.0451 -0.2682
 5097SOL     OW26752   4.594   3.658   2.088 -0.7368  0.2212 -0.1777
 5097SOL    HW126753   4.619   3.741   2.048 -0.4236  0.1863 -0.0602
 5097SOL    HW226754   4.632   3.662   2.176 -1.3387 -0.0359  0.0935
 5098SOL     OW26755   2.651   1.583   2.264  0.2868 -0.0413  0.5711
 5098SOL    HW126756   2.664   1.588   2.170 -1.4720 -0.7511  0.2764
 5098SOL    HW226757   2.593   1.659   2.272 -1.5738 -1.1669 -1.9310
 5099SOL     OW26758   4.176   0.500   5.311 -0.6462 -0.4248 -0.4142
 5099SOL    HW126759   4.130   0.516   5.393  1.5689 -1.7043  1.0862
 5099SOL    HW226760   4.110   0.446   5.266  0.9327 -1.5513 -1.3912
 5100SOL     OW26761   3.878   3.961   3.239  0.1971 -0.0449 -0.0618
 5100SOL    HW126762   3.901   4.051   3.264  1.7796 -0.2501 -0.7321
 5100SOL    HW226763   3.793   3.974   3.196 -1.8220 -1.8702  3.4342
 5101SOL     OW26764   0.106   1.776   1.172 -0.1493 -0.7419  0.0126
 5101SOL    HW126765   0.061   1.700   1.209 -0.0863 -1.0185 -0.4813
 5101SOL    HW226766   0.191   1.774   1.216 -0.1783 -2.1333  0.0260
 5102SOL     OW26767   0.098   4.549   7.528  0.4848 -0.0804  0.9615
 5102SOL    HW126768   0.031   4.481   7.536 -1.0835  1.2440 -1.0006
 5102SOL    HW226769   0.151   4.519   7.455  0.3184 -1.9017  1.5773
 5103SOL     OW26770   0.585   3.454   1.797  0.2389  0.2290  0.2371
 5103SOL    HW126771   0.573   3.464   1.703  0.5410 -0.2597  0.1445
 5103SOL    HW226772   0.580   3.545   1.826  0.0344  0.3860 -0.2850
 5104SOL     OW26773   1.696   3.501  16.313  0.1768 -0.1525 -0.2630
 5104SOL    HW126774   1.651   3.498  16.229 -0.3064  2.2971 -0.0883
 5104SOL    HW226775   1.670   3.587  16.344 -0.9808 -0.9401  0.9741
 5105SOL     OW26776   4.367   1.610  13.099 -0.4155 -0.4290 -0.0136
 5105SOL    HW126777   4.326   1.569  13.175  0.2587  2.9569  2.1785
 5105SOL    HW226778   4.372   1.530  13.047 -3.2535  0.0488 -1.0579
 5106SOL     OW26779   4.701   1.176   0.503  0.1024 -0.7294 -0.5108
 5106SOL    HW126780   4.713   1.265   0.534 -0.6290 -1.3107  1.3959
 5106SOL    HW226781   4.606   1.179   0.502  0.0894 -0.8216  0.7174
 5107SOL     OW26782   3.028   1.152   4.656 -0.1801 -0.0693 -0.7724
 5107SOL    HW126783   3.088   1.132   4.585 -0.1438 -3.0959  0.0979
 5107SOL    HW226784   3.062   1.235   4.690 -1.7172 -0.1671  1.0178
 5108SOL     OW26785   4.168   0.444  11.783 -0.1248  0.7322 -0.1603
 5108SOL    HW126786   4.229   0.413  11.850 -0.0157 -0.1235 -0.6453
 5108SOL    HW226787   4.218   0.503  11.727 -1.5485  1.7027 -0.3888
 5109SOL     OW26788   0.985   4.073   6.120  0.3209  0.1207 -0.0182
 5109SOL    HW126789   0.957   4.153   6.164  0.5887  0.4448 -0.4357
 5109SOL    HW226790   1.058   4.108   6.068  2.8022 -3.6906  0.9463
 5110SOL     OW26791   3.609   2.576   7.346  0.1193  0.1701  0.0411
 5110SOL    HW126792   3.632   2.648   7.405 -1.2507  0.5049  0.1697
 5110SOL    HW226793   3.596   2.507   7.411 -1.2090 -2.2799 -2.8346
 5111SOL     OW26794   4.449   2.790   5.291 -0.3629 -0.4380  0.1744
 5111SOL    HW126795   4.528   2.834   5.322 -0.3840  1.2606 -2.2347
 5111SOL    HW226796   4.480   2.752   5.209 -2.6815 -0.9516 -0.4704
 5112SOL     OW26797   1.292   0.679   6.657  0.0453 -0.1182 -0.1930
 5112SOL    HW126798   1.364   0.741   6.649  0.2387 -0.2848  0.2183
 5112SOL    HW226799   1.262   0.677   6.566  0.0424 -0.2890 -0.1884
 5113SOL     OW26800   1.778   4.527  10.898  0.3179  0.5123  0.5347
 5113SOL    HW126801   1.803   4.528  10.991 -0.1372  4.3335  0.6214
 5113SOL    HW226802   1.861   4.561  10.864 -1.1781  2.0429 -1.5431
 5114SOL     OW26803   4.279   1.573   7.175  0.2615 -0.1539 -0.1248
 5114SOL    HW126804   4.366   1.568   7.213 -0.0806  0.2155  0.7050
 5114SOL    HW226805   4.299   1.571   7.081 -0.9826 -0.7496 -0.3769
 5115SOL     OW26806   0.238   3.494   4.898  0.2706  0.3177 -0.1057
 5115SOL    HW126807   0.294   3.538   4.963  0.5818 -1.6562  0.9854
 5115SOL    HW226808   0.314   3.475   4.842  0.3061  1.2792 -0.3911
 5116SOL     OW26809   2.044   0.101  14.940  0.2924 -0.2155 -0.6917
 5116SOL    HW126810   2.056   0.154  15.019 -1.4024  2.0576 -1.9538
 5116SOL    HW226811   2.137   0.108  14.917  0.0596 -0.6363 -1.7577
 5117SOL     OW26812   2.928   1.725  15.261  0.3252  0.2254 -0.3723
 5117SOL    HW126813   2.961   1.668  15.191  1.5146  0.2667  0.1504
 5117SOL    HW226814   2.854   1.675  15.296  0.5763 -1.1387 -1.7646
 5118SOL     OW26815   2.163   1.509  11.672  0.1395  0.0915  0.0981
 5118SOL    HW126816   2.170   1.595  11.713  0.5616  0.6121 -1.0686
 5118SOL    HW226817   2.250   1.500  11.631 -0.3268  0.1757 -0.9008
 5119SOL     OW26818   1.544   4.003   3.263  0.0613 -0.5309 -0.0263
 5119SOL    HW126819   1.617   3.982   3.205  0.8386  4.0934 -0.7287
 5119SOL    HW226820   1.475   4.014   3.198  1.0202 -1.3238 -1.1898
 5120SOL     OW26821   3.190   1.142   7.721 -0.0924  0.0487 -0.1000
 5120SOL    HW126822   3.188   1.099   7.636  0.5209 -0.3514  0.0834
 5120SOL    HW226823   3.150   1.072   7.773 -1.8275  0.5320 -0.7950
 5121SOL     OW26824   4.221   1.130  17.413 -0.3856  0.4804  0.1818
 5121SOL    HW126825   4.241   1.055  17.357 -1.6389  0.9386 -0.9054
 5121SOL    HW226826   4.236   1.101  17.503 -1.2626  0.2063  0.2384
 5122SOL     OW26827   0.104   0.066   3.191  0.4608  0.1243  0.4407
 5122SOL    HW126828   0.180   0.008   3.200  0.8527  0.6205  0.3082
 5122SOL    HW226829   0.139   0.153   3.209 -0.2652  0.5590 -0.2252
 5123SOL     OW26830   4.467   0.875   4.540  0.4220 -1.0457  0.1943
 5123SOL    HW126831   4.478   0.925   4.459 -0.6534  0.2580  0.8609
 5123SOL    HW226832   4.383   0.831   4.524 -1.1202  1.6004  1.1337
 5124SOL     OW26833   3.150   3.890   5.876 -0.1379  0.0931  0.3795
 5124SOL    HW126834   3.229   3.893   5.929  1.2756  1.6475 -1.7878
 5124SOL    HW226835   3.194   3.856   5.798 -2.5472 -0.6153 -0.6688
 5125SOL     OW26836   3.486   3.981  10.917 -0.1078 -0.4339  0.1333
 5125SOL    HW126837   3.473   4.069  10.882 -1.0989 -0.6932 -0.1704
 5125SOL    HW226838   3.580   3.971  10.905 -0.1407  0.0076 -0.5391
 5126SOL     OW26839   1.275   3.875   6.260 -0.5611  0.5005  0.3680
 5126SOL    HW126840   1.290   3.843   6.350 -1.2638  0.2507  0.3974
 5126SOL    HW226841   1.292   3.969   6.255 -2.3692  0.7012 -2.0212
 5127SOL     OW26842   1.753   3.011  12.680 -0.7376 -0.0830  0.2429
 5127SOL    HW126843   1.782   2.958  12.606 -0.0336 -1.2419  1.3504
 5127SOL    HW226844   1.661   3.033  12.665 -0.2595  1.9452  0.3422
 5128SOL     OW26845   3.621   2.100  14.453 -0.0363 -0.3009  0.3704
 5128SOL    HW126846   3.678   2.127  14.382 -2.4209  0.6823 -1.1703
 5128SOL    HW226847   3.654   2.157  14.523  1.2181  0.6125 -0.9718
 5129SOL     OW26848   1.965   0.491   4.362 -0.1632  0.2249 -0.1487
 5129SOL    HW126849   1.927   0.576   4.342  1.3035  0.3399 -2.4818
 5129SOL    HW226850   2.057   0.516   4.356 -0.0800 -0.7564 -2.9137
 5130SOL     OW26851   0.391   3.622   7.874  0.0078 -0.5671  0.3868
 5130SOL    HW126852   0.451   3.609   7.947  0.5162  0.4107  0.1506
 5130SOL    HW226853   0.323   3.558   7.893 -1.3119  0.2970 -1.3874
 5131SOL     OW26854   2.097   0.884  17.195  0.0565 -0.1796 -0.2263
 5131SOL    HW126855   2.161   0.812  17.199  1.6684  1.1907 -1.3616
 5131SOL    HW226856   2.144   0.947  17.141 -0.3050 -0.8005 -1.2873
 5132SOL     OW26857   4.697   3.560   4.801  0.3717 -0.4526 -0.5564
 5132SOL    HW126858   0.057   3.533   4.840  0.7905  2.5357  0.6663
 5132SOL    HW226859   4.654   3.478   4.779 -1.4817  0.4711 -0.3561
 5133SOL     OW26860   4.453   2.230   4.400 -0.3449  0.4773  0.3041
 5133SOL    HW126861   4.467   2.304   4.341 -2.7530 -1.4944 -2.6768
 5133SOL    HW226862   4.408   2.272   4.473  1.6532  0.8708  1.3223
 5134SOL     OW26863   4.394   4.472   9.454  0.1818  0.2870  0.0077
 5134SOL    HW126864   4.436   4.498   9.372  2.6519 -2.9857  0.2348
 5134SOL    HW226865   4.318   4.530   9.460 -1.6947 -1.9911 -1.7640
 5135SOL     OW26866   1.990   3.939   7.654 -0.0260 -0.3531  0.2594
 5135SOL    HW126867   2.084   3.943   7.633  0.0398 -0.7206  0.4755
 5135SOL    HW226868   1.968   3.930   7.562  0.6474  2.0027 -0.1283
 5136SOL     OW26869   2.536   0.306   1.921 -0.0810 -0.0785 -0.3761
 5136SOL    HW126870   2.451   0.265   1.937  0.4036 -1.0043 -0.1775
 5136SOL    HW226871   2.576   0.287   2.006 -0.6716  0.3349 -0.0046
 5137SOL     OW26872   0.165   2.493   7.957  0.0129  0.0285 -0.2528
 5137SOL    HW126873   0.159   2.426   8.025 -0.6829  0.8325  0.4598
 5137SOL    HW226874   0.083   2.468   7.916  0.4072  0.7416 -1.4745
 5138SOL     OW26875   2.786   4.079   4.893  0.4519  0.2712  0.3873
 5138SOL    HW126876   2.723   4.050   4.827  1.7397  0.4862 -0.9418
 5138SOL    HW226877   2.793   3.998   4.944  0.3784 -0.2811 -0.4896
 5139SOL     OW26878   4.271   3.244  10.504  0.5914  0.3036  0.3938
 5139SOL    HW126879   4.228   3.327  10.483 -0.5230  0.0689  1.7008
 5139SOL    HW226880   4.300   3.255  10.594 -0.4880  2.5717  0.4623
 5140SOL     OW26881   4.015   3.737   8.051 -0.0803  0.2780 -0.0562
 5140SOL    HW126882   4.031   3.675   8.121 -0.4971 -2.0291 -1.9954
 5140SOL    HW226883   4.094   3.791   8.061 -0.9793  1.0706  2.7729
 5141SOL     OW26884   1.525   3.155  10.983 -0.3224 -0.0206  0.4083
 5141SOL    HW126885   1.515   3.144  11.078  1.8365  0.8933  0.7505
 5141SOL    HW226886   1.612   3.192  10.973 -0.1639 -0.5949 -0.3285
 5142SOL     OW26887   3.508   0.366   5.724  0.5172 -0.4555  0.0560
 5142SOL    HW126888   3.432   0.422   5.738  0.7477 -0.0332 -0.3744
 5142SOL    HW226889   3.578   0.417   5.764  1.6722 -0.2303 -2.2539
 5143SOL     OW26890   1.799   1.325   1.771  0.3664  0.4071 -0.4575
 5143SOL    HW126891   1.852   1.312   1.692  0.9833 -0.0112  0.0283
 5143SOL    HW226892   1.773   1.417   1.773 -0.1673  0.3338 -3.7256
 5144SOL     OW26893   2.272   0.740   2.997 -0.7388  0.1233 -0.6461
 5144SOL    HW126894   2.274   0.717   2.904 -0.1511  0.4380 -0.7057
 5144SOL    HW226895   2.295   0.650   3.023 -0.3293  1.0860  2.2615
 5145SOL     OW26896   3.823   0.881   8.283  0.6095  0.0923  0.1100
 5145SOL    HW126897   3.890   0.871   8.216 -0.7451  0.8602 -1.3866
 5145SOL    HW226898   3.768   0.803   8.276  0.1154  0.3517  1.1705
 5146SOL     OW26899   3.350   2.723   1.876  0.2485  0.2776 -0.0592
 5146SOL    HW126900   3.309   2.764   1.800  3.3998 -1.1897 -2.5695
 5146SOL    HW226901   3.430   2.775   1.872  0.9294 -0.7057  0.6696
 5147SOL     OW26902   3.021   4.490   2.985 -0.0281  0.7013  0.2731
 5147SOL    HW126903   3.077   4.523   2.915  2.1318 -0.9055  1.2754
 5147SOL    HW226904   3.030   4.398   2.963 -0.0378  0.9455 -0.7637
 5148SOL     OW26905   1.064   4.162   9.344  0.2166 -0.2255  0.6804
 5148SOL    HW126906   1.044   4.084   9.397 -0.5366 -0.5793 -0.1232
 5148SOL    HW226907   1.140   4.126   9.299  0.2261  0.3899  0.2073
 5149SOL     OW26908   1.420   0.241   7.975  0.0655  0.0002  0.5167
 5149SOL    HW126909   1.408   0.147   7.967  0.7814  0.1103 -1.6885
 5149SOL    HW226910   1.390   0.281   7.893 -1.3300 -1.9166  0.0903
 5150SOL     OW26911   1.265   0.664   6.382  0.1585 -0.2017 -0.6694
 5150SOL    HW126912   1.184   0.648   6.334 -0.2144  2.6853 -1.0019
 5150SOL    HW226913   1.310   0.731   6.330  0.8663  0.6838  1.0513
 5151SOL     OW26914   3.449   0.515  10.788 -0.2183 -0.0722  0.2285
 5151SOL    HW126915   3.390   0.537  10.716  2.1497  0.2442 -1.5966
 5151SOL    HW226916   3.391   0.491  10.861 -2.0762  1.7478 -0.6469
 5152SOL     OW26917   2.167   3.174   4.371 -0.4772 -0.3955 -0.0056
 5152SOL    HW126918   2.182   3.232   4.296 -0.0746  2.4732  2.2866
 5152SOL    HW226919   2.251   3.176   4.417  0.3207 -0.6541 -1.4743
 5153SOL     OW26920   1.478   2.472   8.167 -0.0254  0.2200 -0.2592
 5153SOL    HW126921   1.472   2.498   8.075  0.4406  0.4465 -0.2243
 5153SOL    HW226922   1.421   2.525   8.223  1.4201 -0.8988  2.2938
 5154SOL     OW26923   0.956   3.981  12.725  0.2775  0.2733 -0.2086
 5154SOL    HW126924   0.917   3.896  12.747 -3.7167  1.8180 -1.2356
 5154SOL    HW226925   0.975   3.974  12.631 -2.7879  0.7571 -0.8890
 5155SOL     OW26926   0.341   3.045   8.960 -0.0360 -0.1018 -0.7284
 5155SOL    HW126927   0.296   3.067   8.879 -0.2826 -0.1656 -0.6091
 5155SOL    HW226928   0.433   3.028   8.938  0.1923 -0.8213  0.7838
 5156SOL     OW26929   3.410   3.685   4.336 -0.2963  0.3826  0.5231
 5156SOL    HW126930   3.468   3.734   4.278 -1.1050 -0.0075 -0.6253
 5156SOL    HW226931   3.446   3.596   4.339  1.4083  1.0522  0.2400
 5157SOL     OW26932   2.298   0.448  10.134  0.4384 -0.3364 -0.7100
 5157SOL    HW126933   2.318   0.529  10.087 -2.6609  0.9169  0.1371
 5157SOL    HW226934   2.306   0.376  10.071 -1.3532 -1.8150  0.7629
 5158SOL     OW26935   1.777   4.594  10.543  0.0366 -0.0102 -0.3912
 5158SOL    HW126936   1.828   4.518  10.512 -0.4737  0.7339 -3.0430
 5158SOL    HW226937   1.832   4.659  10.499  0.4043 -0.6958 -0.9719
 5159SOL     OW26938   2.576   1.223   6.238  0.0457 -0.0512 -0.3535
 5159SOL    HW126939   2.585   1.298   6.180  0.2972  1.8895  2.1930
 5159SOL    HW226940   2.610   1.157   6.178 -1.5162 -1.0963 -0.1039
 5160SOL     OW26941   2.633   0.732  17.155 -0.0885 -0.1057  0.4846
 5160SOL    HW126942   2.708   0.694  17.109 -0.7281  1.2907 -1.7110
 5160SOL    HW226943   2.667   0.736  17.244 -2.3891  0.2436  1.3345
 5161SOL     OW26944   1.219   1.732   9.987 -0.0244  0.2482 -0.5563
 5161SOL    HW126945   1.276   1.662   9.954 -2.2188 -2.3702  1.1713
 5161SOL    HW226946   1.197   1.780   9.907  0.1046 -0.0615 -0.7768
 5162SOL     OW26947   0.668   1.075   2.528 -0.5423  0.2633 -0.0295
 5162SOL    HW126948   0.653   1.149   2.587  1.4508 -0.0262  0.8482
 5162SOL    HW226949   0.737   1.022   2.568 -1.2121  0.7023  1.6975
 5163SOL     OW26950   4.420   2.041   4.768 -0.3661 -0.1518  0.1006
 5163SOL    HW126951   4.345   2.070   4.716 -0.0038 -2.2771 -1.6370
 5163SOL    HW226952   4.471   2.117   4.795 -0.6764  0.6991 -1.7295
 5164SOL     OW26953   3.705   3.142   3.044  0.1751  0.2509  0.0337
 5164SOL    HW126954   3.634   3.092   3.005  0.3083 -0.5805  0.8606
 5164SOL    HW226955   3.783   3.115   2.996  0.5220 -2.8355  2.3593
 5165SOL     OW26956   3.760   0.720   5.619  0.1495  0.0094 -0.3791
 5165SOL    HW126957   3.775   0.763   5.535 -0.1743  0.1469 -0.3651
 5165SOL    HW226958   3.669   0.749   5.630  0.0453 -0.6170  0.4149
 5166SOL     OW26959   4.193   4.052   5.846 -0.0129  0.4644  0.2293
 5166SOL    HW126960   4.282   4.033   5.815 -0.2490 -0.7326  0.2859
 5166SOL    HW226961   4.139   4.014   5.776  1.5500 -1.4211  0.0167
 5167SOL     OW26962   3.514   4.637   7.775  0.2743  0.7758  0.5138
 5167SOL    HW126963   3.422   4.634   7.748  0.7084  0.0537 -0.9180
 5167SOL    HW226964   3.516   4.562   7.835  2.8760  0.1821 -0.3181
 5168SOL     OW26965   2.853   1.877  11.932  0.9644  0.5373  0.2434
 5168SOL    HW126966   2.855   1.924  11.849 -0.5835 -2.4017 -1.4805
 5168SOL    HW226967   2.939   1.908  11.959  0.6719  2.3874 -0.9251
 5169SOL     OW26968   1.891   3.246   7.516 -0.5064 -0.5887 -0.3903
 5169SOL    HW126969   1.934   3.277   7.436  1.2412 -1.3138  0.2763
 5169SOL    HW226970   1.864   3.157   7.491 -0.2318 -0.7327 -0.1707
 5170SOL     OW26971   2.820   0.967   1.545 -0.2892  0.3159  0.2871
 5170SOL    HW126972   2.761   0.983   1.619  0.9401 -0.1948  1.3742
 5170SOL    HW226973   2.773   1.001   1.469  1.5289  0.0211 -0.9905
 5171SOL     OW26974   1.579   1.374   5.050 -0.1593 -0.2615  0.2869
 5171SOL    HW126975   1.494   1.348   5.016  0.7854 -1.1907 -1.3634
 5171SOL    HW226976   1.630   1.359   4.970  0.9822 -0.7656  1.0917
 5172SOL     OW26977   2.897   3.068   6.529 -0.0952 -0.0319  0.4287
 5172SOL    HW126978   2.874   2.975   6.524  0.6801 -0.1125 -1.3927
 5172SOL    HW226979   2.810   3.103   6.549  0.4768  0.3694  2.2056
 5173SOL     OW26980   0.649   3.681   8.857  0.2141 -0.3018 -0.9145
 5173SOL    HW126981   0.732   3.638   8.837  2.0351  2.8491 -0.0981
 5173SOL    HW226982   0.593   3.651   8.786 -2.9655 -0.0160  1.4380
 5174SOL     OW26983   1.381   2.473   6.585  0.0571  0.8690 -0.3500
 5174SOL    HW126984   1.431   2.491   6.665  0.7867  0.9461 -0.8291
 5174SOL    HW226985   1.453   2.437   6.534 -0.8642 -0.6764 -0.5396
 5175SOL     OW26986   3.450   2.391  17.260 -0.0626 -0.1283 -0.9642
 5175SOL    HW126987   3.356   2.390  17.279 -0.0887 -0.4941 -1.1045
 5175SOL    HW226988   3.474   2.440  17.339  0.4464 -1.2473 -0.4087
 5176SOL     OW26989   4.031   0.465   2.432 -0.3737 -0.0646 -0.0422
 5176SOL    HW126990   4.120   0.433   2.444 -1.7873 -3.5880  0.9354
 5176SOL    HW226991   3.991   0.394   2.482  0.4454 -1.3415 -1.1975
 5177SOL     OW26992   0.906   0.307   7.763 -0.0352  0.1756 -0.5290
 5177SOL    HW126993   0.882   0.296   7.855 -0.8417  0.6386 -0.6877
 5177SOL    HW226994   0.960   0.232   7.737 -0.0875  0.3231 -1.0632
 5178SOL     OW26995   3.940   3.630   7.620 -0.2726  0.4122  0.0332
 5178SOL    HW126996   3.903   3.675   7.696 -0.8899  0.7955 -0.4912
 5178SOL    HW226997   3.981   3.551   7.656 -1.6488  0.1424  1.0033
 5179SOL     OW26998   2.376   1.547   3.495 -0.3753  0.4593 -0.0708
 5179SOL    HW126999   2.298   1.604   3.493 -0.3533  0.4986  0.1223
 5179SOL    HW227000   2.361   1.497   3.416 -1.2213  0.3534  0.1547
 5180SOL     OW27001   1.864   0.343   3.747 -0.6964  0.1097  0.5988
 5180SOL    HW127002   1.882   0.409   3.680  1.2150  1.1716  2.1522
 5180SOL    HW227003   1.851   0.406   3.819 -0.1338  1.5070 -0.5109
 5181SOL     OW27004   4.359   0.940   1.520  0.1214 -0.4119  0.1271
 5181SOL    HW127005   4.296   1.008   1.499  1.6585  0.7794 -0.6783
 5181SOL    HW227006   4.296   0.886   1.568  0.8314 -0.2764  1.2152
 5182SOL     OW27007   2.342   2.130   6.942  0.2355 -0.2076  0.3760
 5182SOL    HW127008   2.319   2.205   6.997  0.4790 -0.9415  1.4858
 5182SOL    HW227009   2.437   2.131   6.952  0.2402 -1.6217  0.4962
 5183SOL     OW27010   4.464   2.016   2.300  0.3857  0.1496 -0.3501
 5183SOL    HW127011   4.473   2.106   2.331  0.6581  0.7506 -2.1799
 5183SOL    HW227012   4.539   2.004   2.241  0.7662 -1.4722  0.4807
 5184SOL     OW27013   4.583   0.477   7.768  0.0037  0.4645  0.0606
 5184SOL    HW127014   4.563   0.398   7.818 -2.0750  1.2925  0.5682
 5184SOL    HW227015   4.646   0.444   7.704 -0.5535  2.0925 -1.3487
 5185SOL     OW27016   0.261   2.028  13.378  0.1977  0.3334  0.4290
 5185SOL    HW127017   0.286   2.051  13.468  0.3099  0.0657  0.4683
 5185SOL    HW227018   0.186   1.971  13.396 -0.1052  0.5848 -0.0625
 5186SOL     OW27019   3.207   0.813   4.427 -0.5070  0.1306 -0.8636
 5186SOL    HW127020   3.204   0.731   4.477 -0.0141 -0.1400 -1.2828
 5186SOL    HW227021   3.297   0.843   4.434  0.0602 -1.6861 -0.1822
 5187SOL     OW27022   2.911   3.346  12.630  0.3695  0.3041 -0.9330
 5187SOL    HW127023   2.981   3.283  12.643 -1.6105 -1.7309 -0.1954
 5187SOL    HW227024   2.905   3.402  12.708  1.6480  0.4264 -0.9158
 5188SOL     OW27025   4.111   2.487   7.946 -0.2635 -0.3119  0.1121
 5188SOL    HW127026   4.158   2.515   7.867 -0.5181  0.0321  0.0831
 5188SOL    HW227027   4.041   2.551   7.957  1.0176  1.4520 -2.0300
 5189SOL     OW27028   4.373   0.030   3.524 -0.2607 -0.5497 -0.0711
 5189SOL    HW127029   4.362   4.676   3.580  0.6307  0.5831  1.6667
 5189SOL    HW227030   4.465   0.034   3.498 -0.5374 -0.0639 -0.9663
 5190SOL     OW27031   3.637   3.472   7.913  0.4723  0.1687  0.6428
 5190SOL    HW127032   3.696   3.397   7.912  0.4681  0.1533  1.1534
 5190SOL    HW227033   3.572   3.442   7.849  3.1080 -1.5651 -1.1921
 5191SOL     OW27034   0.341   0.651   4.626 -0.4155 -0.3716  0.0877
 5191SOL    HW127035   0.246   0.638   4.627 -0.4862  0.1481  0.6192
 5191SOL    HW227036   0.343   0.744   4.600  0.9582 -0.1662  0.9373
 5192SOL     OW27037   4.673   2.237   5.895 -0.0799 -0.4457 -0.3703
 5192SOL    HW127038   4.583   2.206   5.880 -0.2160 -0.7694  1.0781
 5192SOL    HW227039   4.672   2.249   5.990 -0.7927 -0.2065 -0.4016
 5193SOL     OW27040   3.646   1.077   3.196  0.3870 -0.2430 -0.5692
 5193SOL    HW127041   3.585   1.039   3.133 -2.2157  1.7572  0.7738
 5193SOL    HW227042   3.684   1.152   3.149 -1.0691  0.2690 -0.9296
 5194SOL     OW27043   0.770   1.087   6.230  0.2995 -0.0852  0.0709
 5194SOL    HW127044   0.807   1.161   6.277 -2.0109 -0.1826  2.0597
 5194SOL    HW227045   0.844   1.044   6.187  0.4667  1.3482 -1.0717
 5195SOL     OW27046   1.379   4.589   5.827  0.2388 -0.0303 -0.2433
 5195SOL    HW127047   1.308   4.652   5.838  2.5176  2.7053 -1.1129
 5195SOL    HW227048   1.440   4.642   5.775  1.9492  0.0522  1.8710
 5196SOL     OW27049   3.254   1.274   6.828  0.2125 -0.5910  0.1342
 5196SOL    HW127050   3.302   1.195   6.854  0.7455  0.4407  2.2545
 5196SOL    HW227051   3.271   1.277   6.734 -0.6437 -3.2102 -0.1208
 5197SOL     OW27052   1.027   0.596   8.669  0.1317 -0.3377 -0.4085
 5197SOL    HW127053   0.968   0.662   8.633  0.7180 -0.7723 -2.1848
 5197SOL    HW227054   1.057   0.652   8.740 -1.4975  0.9765 -0.7623
 5198SOL     OW27055   2.541   0.329  11.952 -0.7486  0.3494  0.0300
 5198SOL    HW127056   2.450   0.339  11.981 -0.5111  1.0892  0.5397
 5198SOL    HW227057   2.575   0.379  12.027  2.2970 -2.6820  0.6544
 5199SOL     OW27058   3.783   3.536   5.583  0.1987 -0.2108  0.7618
 5199SOL    HW127059   3.722   3.477   5.628  0.3719 -0.2280  0.9736
 5199SOL    HW227060   3.809   3.481   5.510  0.9302  2.3870 -0.9288
 5200SOL     OW27061   2.554   3.407   4.386  0.2555 -0.3102  0.1643
 5200SOL    HW127062   2.505   3.486   4.408 -1.2971 -1.9583  2.6835
 5200SOL    HW227063   2.624   3.425   4.448  2.1316  1.6863 -2.5650
 5201SOL     OW27064   0.961   0.976   6.056 -0.6451 -0.6846  0.1538
 5201SOL    HW127065   1.055   0.963   6.064 -0.4623 -0.2564 -1.2861
 5201SOL    HW227066   0.942   0.920   5.981 -4.2251  0.4188  0.2427
 5202SOL     OW27067   0.388   0.067   1.101  0.2746 -0.6284 -0.0590
 5202SOL    HW127068   0.371   0.034   1.013 -2.5709 -0.0053  0.2616
 5202SOL    HW227069   0.327   0.028   1.164  0.0510  0.3322  0.3213
 5203SOL     OW27070   1.820   3.099   1.444  0.5613 -0.0795 -0.0202
 5203SOL    HW127071   1.738   3.098   1.493  2.0781 -1.2743  2.4782
 5203SOL    HW227072   1.859   3.172   1.492  1.9074  1.7262 -3.8784
 5204SOL     OW27073   3.635   3.409   0.363  0.0222 -0.3925 -0.2062
 5204SOL    HW127074   3.665   3.405   0.272  1.4598  0.0640  0.2414
 5204SOL    HW227075   3.669   3.499   0.372  1.0749 -0.7750 -0.4234
 5205SOL     OW27076   4.039   0.268   8.964  0.0424 -0.1582 -0.2857
 5205SOL    HW127077   4.087   0.188   8.984 -0.0501  0.1108  0.9898
 5205SOL    HW227078   4.023   0.246   8.872  0.0726 -1.6742  0.0604
 5206SOL     OW27079   3.077   0.221   5.833  0.1148 -0.2134  0.2270
 5206SOL    HW127080   3.171   0.233   5.818  0.1271 -1.5057 -0.7135
 5206SOL    HW227081   3.080   0.234   5.928  2.8369  0.7894  0.0301
 5207SOL     OW27082   1.925   4.474   8.150 -0.1512 -0.3638  0.0996
 5207SOL    HW127083   1.993   4.541   8.158 -0.3785 -0.2971  1.5256
 5207SOL    HW227084   1.976   4.394   8.136 -0.7313 -1.1512  2.5479
 5208SOL     OW27085   4.525   0.595   0.128  0.2158  0.5186 -0.1440
 5208SOL    HW127086   4.445   0.563   0.169 -0.0164  0.6217 -0.5253
 5208SOL    HW227087   4.537   0.676   0.179 -1.1676  0.7825 -0.2390
 5209SOL     OW27088   3.426   4.306   7.574 -0.0538  0.3653 -0.2627
 5209SOL    HW127089   3.464   4.264   7.652 -0.7425  0.1148 -0.0626
 5209SOL    HW227090   3.502   4.353   7.540 -0.2042 -0.6232 -1.9452
 5210SOL     OW27091   3.881   1.653   4.996  0.4734  0.5682 -0.1423
 5210SOL    HW127092   3.977   1.650   4.990  0.4633 -0.3750  0.1555
 5210SOL    HW227093   3.880   1.598   5.074 -0.5063  0.6891 -0.0738
 5211SOL     OW27094   0.767   4.001  16.002  0.4596  0.3218  0.5126
 5211SOL    HW127095   0.803   4.079  15.961 -0.1603  1.2306  1.6893
 5211SOL    HW227096   0.840   3.973  16.057 -0.5812 -1.7809  0.8389
 5212SOL     OW27097   2.636   1.324   2.605  1.0657  0.4155 -0.1155
 5212SOL    HW127098   2.703   1.259   2.587  0.3210  0.1559 -1.9900
 5212SOL    HW227099   2.633   1.338   2.700 -1.1082  0.7818 -0.2340
 5213SOL     OW27100   0.361   2.685   0.458  0.3530 -0.1092  0.2243
 5213SOL    HW127101   0.418   2.755   0.425 -0.5757  0.2390 -0.6333
 5213SOL    HW227102   0.355   2.718   0.548  3.8477 -1.9758  1.1530
 5214SOL     OW27103   2.069   3.785   2.849  0.0940 -0.0312  0.1382
 5214SOL    HW127104   2.109   3.760   2.932  2.5201 -1.5184 -1.4785
 5214SOL    HW227105   2.099   3.876   2.842  1.0123 -0.3968 -0.6751
 5215SOL     OW27106   2.225   2.859   7.955  0.4234  0.3483 -0.0039
 5215SOL    HW127107   2.171   2.937   7.967 -0.3395  0.2417 -2.7035
 5215SOL    HW227108   2.202   2.834   7.865  0.5183  0.1496  0.0267
 5216SOL     OW27109   1.696   2.299   6.590 -0.4077  0.4931  0.2286
 5216SOL    HW127110   1.771   2.255   6.550 -1.3662 -0.2531 -0.7235
 5216SOL    HW227111   1.625   2.244   6.558 -0.5050  1.0909 -0.5871
 5217SOL     OW27112   4.283   2.948  14.416 -0.5452 -0.2191  0.0427
 5217SOL    HW127113   4.332   2.874  14.380 -0.5751  0.5707 -1.6133
 5217SOL    HW227114   4.352   3.004  14.382 -2.1277  2.2949  0.9494
 5218SOL     OW27115   2.409   3.861  13.307 -0.2142  0.2968 -0.4933
 5218SOL    HW127116   2.492   3.855  13.260 -0.3267  0.2770 -0.6933
 5218SOL    HW227117   2.397   3.768  13.327 -0.7646  0.5566  0.3655
 5219SOL     OW27118   0.751   3.398   3.829  0.0920  0.1322 -0.3810
 5219SOL    HW127119   0.690   3.355   3.770 -2.1557  1.7408  0.7936
 5219SOL    HW227120   0.791   3.316   3.856 -0.2528  0.0175 -0.2230
 5220SOL     OW27121   0.243   4.188   4.230  0.6459  0.2363 -0.1624
 5220SOL    HW127122   0.296   4.248   4.178  0.5709 -0.1805 -0.7151
 5220SOL    HW227123   0.272   4.101   4.205 -0.4689 -0.3462  0.5576
 5221SOL     OW27124   0.565   2.938   5.224  0.2994  0.2140  0.9022
 5221SOL    HW127125   0.532   2.914   5.138 -2.2352 -0.3394  2.0014
 5221SOL    HW227126   0.647   2.974   5.192 -0.2593  1.5530  0.9800
 5222SOL     OW27127   3.263   1.697   3.507  0.0061  0.2108  0.1445
 5222SOL    HW127128   3.192   1.760   3.497  0.4159  0.6937  0.3156
 5222SOL    HW227129   3.280   1.695   3.601 -2.6533 -1.1181  0.6074
 5223SOL     OW27130   3.911   2.672   7.971 -0.4427  0.2570 -0.1737
 5223SOL    HW127131   3.901   2.728   8.049 -0.4710  0.4050 -0.2835
 5223SOL    HW227132   3.925   2.745   7.911 -0.8210 -0.8592 -1.6273
 5224SOL     OW27133   3.951   2.062   7.857 -0.3759  0.2256  0.2035
 5224SOL    HW127134   4.009   2.138   7.858  1.1137 -0.9288  1.8782
 5224SOL    HW227135   3.974   2.000   7.926 -1.3257 -0.3537 -0.0045
 5225SOL     OW27136   2.191   2.180   3.836 -0.2957  0.1549 -0.3828
 5225SOL    HW127137   2.185   2.239   3.760  0.3365 -3.1050 -2.9633
 5225SOL    HW227138   2.146   2.103   3.802 -0.4976 -0.3946  1.1322
 5226SOL     OW27139   0.027   1.886  13.411 -0.1910 -0.4620 -0.1758
 5226SOL    HW127140   0.012   1.809  13.356 -1.1591  0.3367 -1.0287
 5226SOL    HW227141   4.672   1.935  13.387  1.7972  1.6762 -2.1966
 5227SOL     OW27142   2.579   1.761   6.604 -0.2666  0.1619  0.3172
 5227SOL    HW127143   2.599   1.692   6.668  0.3530  1.0721  1.1148
 5227SOL    HW227144   2.617   1.840   6.643 -2.8401  1.3339  0.4285
 5228SOL     OW27145   2.659   2.011   3.047  0.4736 -0.3013 -0.0626
 5228SOL    HW127146   2.597   1.960   3.098 -1.0971  1.3571 -0.3584
 5228SOL    HW227147   2.636   1.979   2.959 -0.2175  0.6401 -0.2142
 5229SOL     OW27148   0.737   1.743   2.607 -0.0470  0.0963  0.2684
 5229SOL    HW127149   0.764   1.834   2.595  2.1229 -0.5447  0.2383
 5229SOL    HW227150   0.744   1.719   2.515  0.6884 -0.9308  0.5866
 5230SOL     OW27151   3.435   2.251  16.242  0.2085  0.4185 -0.5356
 5230SOL    HW127152   3.437   2.210  16.155 -1.1546  3.3633 -1.9414
 5230SOL    HW227153   3.486   2.329  16.222  0.0074  0.5598 -0.4967
 5231SOL     OW27154   1.094   4.595   7.131 -0.4364 -0.2159 -0.2750
 5231SOL    HW127155   1.079   4.559   7.219 -0.3966 -1.2783 -0.7125
 5231SOL    HW227156   1.005   4.627   7.116 -0.8235 -0.9106  0.5086
 5232SOL     OW27157   3.816   3.123   5.318  0.0873 -0.3072  0.3703
 5232SOL    HW127158   3.839   3.180   5.391  0.3895  2.2753 -1.7453
 5232SOL    HW227159   3.823   3.036   5.358 -1.1227 -0.8034 -0.4583
 5233SOL     OW27160   1.493   0.698   1.826  0.5837 -0.1762  0.0970
 5233SOL    HW127161   1.467   0.631   1.763  0.6184 -2.7018  2.7567
 5233SOL    HW227162   1.588   0.698   1.818  0.4866 -0.8531 -1.0743
 5234SOL     OW27163   2.727   3.534   7.672 -0.0054  0.1271  0.6100
 5234SOL    HW127164   2.709   3.500   7.585 -1.0435 -1.4810  1.4650
 5234SOL    HW227165   2.644   3.545   7.718  0.2546  1.0080  0.8868
 5235SOL     OW27166   3.366   0.586   5.785  0.4199  0.0863 -0.5590
 5235SOL    HW127167   3.373   0.658   5.722  0.7998  1.4880  1.0843
 5235SOL    HW227168   3.282   0.604   5.825  0.6037  0.3420 -0.2843
 5236SOL     OW27169   1.614   2.787  12.468  0.0573 -0.8342  0.1069
 5236SOL    HW127170   1.609   2.806  12.374  2.4085 -1.5708 -0.1787
 5236SOL    HW227171   1.705   2.761  12.482 -0.0359 -1.2508 -0.0836
 5237SOL     OW27172   3.786   4.688  10.887  0.0033 -0.1499 -0.1088
 5237SOL    HW127173   3.881   4.687  10.897  0.2253  0.9859 -2.1299
 5237SOL    HW227174   3.764   4.610  10.836 -0.3689 -0.7144  0.9292
 5238SOL     OW27175   3.633   1.426  11.769 -0.6023 -0.2112 -0.6301
 5238SOL    HW127176   3.665   1.348  11.815 -1.0353  0.1215  0.2528
 5238SOL    HW227177   3.670   1.409  11.683  0.5355 -0.8772 -0.0050
 5239SOL     OW27178   1.104   3.371   5.180 -0.0918  0.4986 -0.2057
 5239SOL    HW127179   1.048   3.442   5.213 -0.5008  0.3632 -0.6187
 5239SOL    HW227180   1.061   3.294   5.216 -2.1116  1.4631 -0.5483
 5240SOL     OW27181   3.117   4.715  11.523 -0.0719 -0.0165 -0.0804
 5240SOL    HW127182   3.057   4.643  11.543 -0.8991  0.0337 -2.3026
 5240SOL    HW227183   3.068   0.048  11.462 -0.4451 -1.9884 -1.6023
 5241SOL     OW27184   1.475   0.551  13.939 -0.3764  0.1584 -0.0115
 5241SOL    HW127185   1.539   0.620  13.958  1.1519 -1.3865  0.3881
 5241SOL    HW227186   1.456   0.525  14.029  0.2984 -3.3569 -0.9107
 5242SOL     OW27187   0.418   3.797  15.252  0.2133  0.2134  0.1162
 5242SOL    HW127188   0.472   3.872  15.278 -1.9915  2.1209 -0.7159
 5242SOL    HW227189   0.396   3.815  15.161  1.5538  2.0806  0.1528
 5243SOL     OW27190   3.019   0.347   2.882 -0.0722 -0.6690  0.3157
 5243SOL    HW127191   3.042   0.434   2.850 -1.7882 -0.1047  0.6525
 5243SOL    HW227192   3.071   0.349   2.962 -0.7095  0.6562  0.6912
 5244SOL     OW27193   0.854   4.091   3.642  0.1958  0.2733 -0.0178
 5244SOL    HW127194   0.824   4.000   3.650  0.5788  0.2901  1.5492
 5244SOL    HW227195   0.894   4.104   3.728 -2.1221 -0.1657  1.1041
 5245SOL     OW27196   0.507   3.912   5.194 -0.5503 -0.3007  0.0161
 5245SOL    HW127197   0.573   3.887   5.259  0.9571  2.5409 -0.3611
 5245SOL    HW227198   0.486   4.000   5.226  0.6304  0.3793 -1.0183
 5246SOL     OW27199   1.902   0.794  14.988  0.4852 -0.0677  0.1361
 5246SOL    HW127200   1.893   0.808  15.083 -2.5619 -0.4765 -0.0721
 5246SOL    HW227201   1.809   0.787  14.965  0.9420  0.0696 -1.7348
 5247SOL     OW27202   1.061   0.161  13.254 -0.4392  0.2518 -0.1362
 5247SOL    HW127203   1.138   0.191  13.205 -1.8441 -0.1430 -2.5623
 5247SOL    HW227204   1.000   0.233  13.236 -2.4255 -1.3238  0.2966
 5248SOL     OW27205   2.445   3.994   6.154 -0.1844 -0.3795  0.0015
 5248SOL    HW127206   2.350   3.992   6.145 -0.1198  2.6586 -1.3432
 5248SOL    HW227207   2.457   3.950   6.238 -2.3525 -1.1788 -0.1049
 5249SOL     OW27208   2.246   1.605   1.572  0.3969 -0.3557  0.3321
 5249SOL    HW127209   2.330   1.631   1.608  0.3324  0.2012  0.0776
 5249SOL    HW227210   2.263   1.571   1.484 -1.2759 -0.4398  0.0360
 5250SOL     OW27211   3.369   1.011  11.186  0.2503  0.1616 -0.1960
 5250SOL    HW127212   3.367   0.919  11.211 -2.2897  0.2531 -0.0086
 5250SOL    HW227213   3.373   0.999  11.091 -2.3217  0.3146 -0.3148
 5251SOL     OW27214   1.003   3.350   3.516 -0.2028 -0.0491 -0.1849
 5251SOL    HW127215   1.095   3.367   3.534 -0.0801 -1.4857  0.5968
 5251SOL    HW227216   0.979   3.416   3.452 -0.4472  0.7758  0.7457
 5252SOL     OW27217   1.852   2.021   0.856 -0.7281 -0.9168 -0.4154
 5252SOL    HW127218   1.792   1.979   0.794 -1.5533 -0.4082  0.0357
 5252SOL    HW227219   1.886   2.097   0.808  0.6726 -0.6225  1.0736
 5253SOL     OW27220   1.452   4.525   4.335  0.3810 -0.1240  0.5120
 5253SOL    HW127221   1.469   4.618   4.323 -0.9090 -0.1012 -1.0943
 5253SOL    HW227222   1.542   4.494   4.347  1.4924  2.1861 -1.9431
 5254SOL     OW27223   0.185   0.111   9.471  0.2125 -0.0810 -0.4906
 5254SOL    HW127224   0.096   0.131   9.441 -0.2631  1.3462  1.8767
 5254SOL    HW227225   0.232   0.192   9.448 -1.3022  0.8392 -0.3316
 5255SOL     OW27226   4.354   2.158  10.897  0.1228 -0.1692 -0.7656
 5255SOL    HW127227   4.395   2.122  10.976  1.5790  0.6182 -1.1689
 5255SOL    HW227228   4.431   2.159  10.840  0.1108 -1.5913 -0.8221
 5256SOL     OW27229   1.855   2.153  17.059  0.1464  0.2629 -0.5491
 5256SOL    HW127230   1.879   2.060  17.067  1.8315  0.7000 -0.6061
 5256SOL    HW227231   1.849   2.182  17.150 -1.4203  1.6559 -1.0964
 5257SOL     OW27232   1.798   3.339   0.768  0.1124  0.1947 -0.2241
 5257SOL    HW127233   1.756   3.425   0.764 -0.5391 -0.0690  0.9789
 5257SOL    HW227234   1.832   3.341   0.678  3.2247 -1.1188  0.9420
 5258SOL     OW27235   2.278   1.726  12.424 -0.2737  0.3006 -0.2608
 5258SOL    HW127236   2.210   1.703  12.486 -0.4527  0.8216 -0.2679
 5258SOL    HW227237   2.329   1.645  12.435 -1.1340 -0.6418 -3.1090
 5259SOL     OW27238   4.554   2.280   7.014 -0.4331 -0.1568  0.2510
 5259SOL    HW127239   4.545   2.188   7.039 -1.8050  0.3310  1.5056
 5259SOL    HW227240   4.648   2.295   7.024 -0.1240 -2.1868  0.4528
 5260SOL     OW27241   2.225   4.167   9.154  0.5178  0.2439 -0.1313
 5260SOL    HW127242   2.237   4.260   9.172 -2.2143  0.4240  0.8135
 5260SOL    HW227243   2.313   4.131   9.151  0.3084 -0.2748 -0.0080
 5261SOL     OW27244   2.927   2.289   0.354 -0.6784 -0.1895  0.4013
 5261SOL    HW127245   2.988   2.307   0.425  2.7600 -3.6719 -1.6873
 5261SOL    HW227246   2.893   2.376   0.332  1.2200  0.6741  0.8898
 5262SOL     OW27247   4.620   3.421  11.661  0.9509  0.2459  0.2877
 5262SOL    HW127248   4.679   3.353  11.627 -1.4405 -3.0912  2.8464
 5262SOL    HW227249   4.568   3.373  11.725  2.6895  1.6789  2.7395
 5263SOL     OW27250   3.481   0.069   4.748  0.2704  0.2332  0.0364
 5263SOL    HW127251   3.497   0.084   4.655  1.0251  2.6188  0.5631
 5263SOL    HW227252   3.422   4.717   4.749  2.4262 -1.4759 -2.8430
 5264SOL     OW27253   1.474   0.284   4.851 -0.2805 -0.0980 -0.0805
 5264SOL    HW127254   1.440   0.206   4.895  1.2371 -1.4291 -1.2404
 5264SOL    HW227255   1.497   0.342   4.923 -2.9347 -1.1088  1.5944
 5265SOL     OW27256   3.030   1.292   8.412 -0.2584  0.5842 -0.1379
 5265SOL    HW127257   2.977   1.303   8.333 -0.0293 -2.1954 -0.6799
 5265SOL    HW227258   2.989   1.213   8.447  1.4598  0.8244  2.4770
 5266SOL     OW27259   1.096   1.893   2.829 -0.1854  0.1982 -0.2719
 5266SOL    HW127260   1.147   1.913   2.750  2.8768  1.5316  2.0726
 5266SOL    HW227261   1.136   1.955   2.890 -0.3838 -1.4820  1.5265
 5267SOL     OW27262   3.042   0.590   5.633 -0.9045  0.1118 -0.0263
 5267SOL    HW127263   3.068   0.529   5.703  2.0268  0.4328 -0.8369
 5267SOL    HW227264   2.994   0.539   5.567 -1.5774 -0.0335  0.5655
 5268SOL     OW27265   1.073   1.110   9.287 -0.0742 -0.2199 -0.0525
 5268SOL    HW127266   1.152   1.056   9.278  2.1055  2.7895  0.8309
 5268SOL    HW227267   1.107   1.185   9.335  1.4957  0.0314 -1.5435
 5269SOL     OW27268   4.015   2.153   9.058 -0.3288 -0.0840  0.4638
 5269SOL    HW127269   4.046   2.191   9.140 -2.5810  0.3315  1.1141
 5269SOL    HW227270   4.084   2.182   8.997  0.6204  0.3187  1.7350
 5270SOL     OW27271   0.096   1.512   3.998 -0.1816 -0.9736  0.4801
 5270SOL    HW127272   0.155   1.438   3.983  1.4741  0.6495 -0.9331
 5270SOL    HW227273   0.070   1.525   3.907  1.1965 -2.0417 -0.0603
 5271SOL     OW27274   1.556   4.483  12.050  0.0829 -0.1716  0.1832
 5271SOL    HW127275   1.547   4.392  12.022 -1.0124  0.3058 -1.0214
 5271SOL    HW227276   1.625   4.483  12.116 -0.2188 -2.2288  0.4768
 5272SOL     OW27277   3.123   3.657   7.356 -0.1717  0.0142  0.4800
 5272SOL    HW127278   3.111   3.718   7.284 -0.0411  0.7346  1.0710
 5272SOL    HW227279   3.177   3.595   7.308  1.9473  1.8573  0.5147
 5273SOL     OW27280   3.485   3.362   2.198  0.4460 -0.0207 -0.4156
 5273SOL    HW127281   3.524   3.298   2.138 -0.6071 -1.7034  0.6993
 5273SOL    HW227282   3.560   3.420   2.214 -0.8690  1.0877  1.8079
 5274SOL     OW27283   1.986   4.716   8.927  0.3829 -0.1285 -0.4928
 5274SOL    HW127284   1.998   4.623   8.943  1.4532 -0.1950 -1.6300
 5274SOL    HW227285   1.954   0.024   9.011  1.0757  0.1408 -0.3214
 5275SOL     OW27286   1.224   0.675   5.350 -0.3323 -0.0724 -0.2318
 5275SOL    HW127287   1.160   0.605   5.334  0.1865 -0.3592 -0.9922
 5275SOL    HW227288   1.304   0.635   5.316 -0.5421 -0.0168 -0.7766
 5276SOL     OW27289   2.882   1.822   8.557 -0.2269 -0.2069 -1.1841
 5276SOL    HW127290   2.939   1.745   8.552  0.4528  0.1291  1.3584
 5276SOL    HW227291   2.874   1.842   8.650 -0.3842 -2.7104 -0.6368
 5277SOL     OW27292   0.403   4.172   8.372 -0.1148 -0.5513 -0.2648
 5277SOL    HW127293   0.491   4.139   8.354 -0.6092 -0.9506 -1.9449
 5277SOL    HW227294   0.410   4.265   8.352  1.2795 -0.0457  2.5864
 5278SOL     OW27295   0.731   3.427   2.863 -0.0346  0.3476 -0.6870
 5278SOL    HW127296   0.727   3.421   2.768 -0.0705  2.0492 -0.7815
 5278SOL    HW227297   0.769   3.346   2.897 -0.7083 -0.1557 -1.1305
 5279SOL     OW27298   2.502   2.340   3.332 -0.1561 -0.7863 -0.1347
 5279SOL    HW127299   2.574   2.397   3.358 -1.1496 -0.5050  2.0266
 5279SOL    HW227300   2.447   2.414   3.310  0.8896  0.5021  1.6215
 5280SOL     OW27301   3.394   0.716   3.002 -0.1770  0.2831  0.3664
 5280SOL    HW127302   3.401   0.740   3.095  2.0250 -1.1366  0.5610
 5280SOL    HW227303   3.481   0.677   2.992 -0.3824 -0.1563  0.3349
 5281SOL     OW27304   3.440   0.850  13.392 -0.3086  0.0424 -0.1893
 5281SOL    HW127305   3.391   0.930  13.411  0.0713  0.5344 -1.3122
 5281SOL    HW227306   3.460   0.811  13.478  2.7841  0.7834 -0.5820
 5282SOL     OW27307   1.620   0.021   6.159 -0.1604  0.0168  0.3098
 5282SOL    HW127308   1.533   0.001   6.124  0.1914 -0.3950 -0.3258
 5282SOL    HW227309   1.677   4.668   6.148  0.4268  0.3419  1.0718
 5283SOL     OW27310   1.957   4.628   2.448  0.5904  0.2528  0.1910
 5283SOL    HW127311   1.923   4.541   2.427  1.8654 -0.3242  0.5187
 5283SOL    HW227312   1.994   4.602   2.532  1.5661 -0.4591 -0.4703
 5284SOL     OW27313   4.044   0.335   4.360  0.1078 -0.0549  0.0875
 5284SOL    HW127314   3.950   0.319   4.354  0.2189 -1.3778  1.7678
 5284SOL    HW227315   4.089   0.250   4.370 -1.3289 -0.8128  0.0450
 5285SOL     OW27316   3.819   2.848   6.988  0.4229 -0.4275  0.0133
 5285SOL    HW127317   3.867   2.907   6.930  0.8281  1.0641  1.8694
 5285SOL    HW227318   3.882   2.842   7.060 -0.8515 -1.5222  1.0418
 5286SOL     OW27319   4.495   2.231   8.857 -0.1545  0.2891  0.7864
 5286SOL    HW127320   4.509   2.144   8.819 -0.3690 -0.5316  2.6083
 5286SOL    HW227321   4.527   2.276   8.778  1.3143 -1.1124  0.5881
 5287SOL     OW27322   3.370   1.247   6.385 -0.0288 -0.7291  0.3529
 5287SOL    HW127323   3.426   1.206   6.450  1.7065  0.0906 -0.6240
 5287SOL    HW227324   3.297   1.276   6.440 -2.4611  0.0002 -3.2557
 5288SOL     OW27325   0.669   3.757  17.645 -0.2344 -0.8492  0.2800
 5288SOL    HW127326   0.627   3.678  17.681 -1.7790 -0.4663 -0.6827
 5288SOL    HW227327   0.590   3.802  17.615 -0.2551 -0.8220  0.3751
 5289SOL     OW27328   0.101   3.643  11.699  0.2288 -0.1677 -0.2632
 5289SOL    HW127329   0.140   3.568  11.654 -0.6517 -1.9929  2.0437
 5289SOL    HW227330   0.070   3.587  11.771  1.7632 -2.0839 -1.0890
 5290SOL     OW27331   4.336   3.117   3.967  0.8000 -0.1150 -0.2676
 5290SOL    HW127332   4.331   3.045   3.904  0.5953 -1.2082  0.9676
 5290SOL    HW227333   4.330   3.067   4.049  0.4733 -0.0478 -0.2489
 5291SOL     OW27334   3.037   2.840   7.407 -0.2381 -0.1676  0.5803
 5291SOL    HW127335   3.035   2.801   7.319 -0.7711  0.0070  0.5189
 5291SOL    HW227336   3.122   2.802   7.429 -0.5224 -1.4099 -0.4245
 5292SOL     OW27337   4.330   3.004  16.431 -0.3916 -0.1088  0.3437
 5292SOL    HW127338   4.248   3.022  16.385  0.7936 -1.5014 -2.3230
 5292SOL    HW227339   4.375   2.936  16.381 -1.6608 -0.2368 -0.6202
 5293SOL     OW27340   3.304   4.572   4.789  0.1050  0.5350  0.4328
 5293SOL    HW127341   3.370   4.504   4.772 -1.3300 -0.5625 -0.8278
 5293SOL    HW227342   3.280   4.566   4.881  1.7634 -0.2554  0.8175
 5294SOL     OW27343   4.721   1.738   1.656 -0.2096 -0.2442 -0.3589
 5294SOL    HW127344   0.053   1.734   1.734 -1.0123  1.6365  0.3064
 5294SOL    HW227345   4.678   1.823   1.668  0.8550  0.3107 -0.5205
 5295SOL     OW27346   1.062   3.460   9.472 -0.3031  0.5020  0.1081
 5295SOL    HW127347   1.016   3.507   9.402 -2.1949  2.2729  2.5934
 5295SOL    HW227348   1.115   3.395   9.426  0.1763 -0.0616  1.4689
 5296SOL     OW27349   0.181   2.842   2.061  0.9199  0.6318 -0.1687
 5296SOL    HW127350   0.175   2.749   2.085 -1.0850  0.3672 -1.7231
 5296SOL    HW227351   0.262   2.841   2.010 -0.0338  2.0692 -1.6909
 5297SOL     OW27352   3.173   4.436  11.840  0.7560 -0.9573  0.0853
 5297SOL    HW127353   3.235   4.384  11.891  0.5922 -0.4555  0.7880
 5297SOL    HW227354   3.235   4.490  11.790 -0.5996 -0.6567 -1.2511
 5298SOL     OW27355   4.344   0.125   6.884 -0.3233  0.4706  0.2952
 5298SOL    HW127356   4.406   0.098   6.816  0.3430  2.5122  0.0934
 5298SOL    HW227357   4.385   0.201   6.926  0.3461 -0.8130  2.0000
 5299SOL     OW27358   0.731   2.163   2.692  0.3484  0.5338 -0.4183
 5299SOL    HW127359   0.788   2.189   2.620  0.8570  2.2183  0.5983
 5299SOL    HW227360   0.798   2.147   2.758  1.5179  0.6436 -1.5774
 5300SOL     OW27361   0.934   2.973   9.187  0.0567  0.2715 -0.2653
 5300SOL    HW127362   0.941   3.068   9.173 -1.1494 -0.4069 -5.3490
 5300SOL    HW227363   0.927   2.963   9.282 -1.2197 -0.9322 -0.4957
 5301SOL     OW27364   4.236   0.048   2.971 -0.5780  0.5926  0.0400
 5301SOL    HW127365   4.276   0.084   3.050  1.1723 -1.5805  0.1409
 5301SOL    HW227366   4.310   0.008   2.924  0.8488  2.9565  0.2543
 5302SOL     OW27367   2.217   3.196  17.680 -0.0893  0.1154 -0.0295
 5302SOL    HW127368   2.296   3.142  17.693  1.5956  2.3107 -1.1873
 5302SOL    HW227369   2.151   3.129  17.661 -0.0712  1.0516 -3.3630
 5303SOL     OW27370   1.903   0.993   3.056  0.0904  0.6786 -0.5075
 5303SOL    HW127371   1.991   0.980   3.089  0.2059  1.1188 -0.6487
 5303SOL    HW227372   1.861   1.027   3.135  0.3517 -0.8510  0.3003
 5304SOL     OW27373   3.259   0.984   8.487  0.4896  0.5712  0.7526
 5304SOL    HW127374   3.287   0.913   8.429 -0.1045 -0.2689  1.4974
 5304SOL    HW227375   3.300   1.057   8.440 -0.7828  2.2829  2.2989
 5305SOL     OW27376   0.808   2.393   5.758  0.0659 -0.0103  0.0014
 5305SOL    HW127377   0.756   2.314   5.773 -0.1071 -0.0857 -1.0462
 5305SOL    HW227378   0.852   2.402   5.843  0.2923 -0.3017 -0.0857
 5306SOL     OW27379   4.502   2.613   4.463  0.5979 -0.1067 -0.0226
 5306SOL    HW127380   4.585   2.605   4.511  0.3830 -1.8447  0.0245
 5306SOL    HW227381   4.501   2.536   4.406 -1.0694 -2.0542  2.6594
 5307SOL     OW27382   0.890   4.364   2.256 -0.1540 -0.4037  0.1546
 5307SOL    HW127383   0.912   4.271   2.260  2.3892  0.2645  1.7425
 5307SOL    HW227384   0.815   4.350   2.197 -1.6578  1.1432  1.7019
 5308SOL     OW27385   4.691   0.703  17.611  0.7729  0.8641  0.1256
 5308SOL    HW127386   4.702   0.616  17.572  0.6330  1.4050 -1.0998
 5308SOL    HW227387   4.622   0.687  17.676  1.3419  0.2057  0.5722
 5309SOL     OW27388   2.846   2.694  10.590  0.0893 -0.3940 -0.1937
 5309SOL    HW127389   2.878   2.768  10.539 -0.0944  0.8587  1.5085
 5309SOL    HW227390   2.753   2.716  10.586 -0.1325 -1.2587  0.1229
 5310SOL     OW27391   3.100   2.331  17.050 -0.0521 -0.1323  0.5063
 5310SOL    HW127392   3.131   2.259  17.104 -0.8168 -0.7012  0.1837
 5310SOL    HW227393   3.078   2.278  16.973 -0.9807  0.5704  0.2813
 5311SOL     OW27394   1.587   0.002   8.432  0.2998 -0.3848 -0.1270
 5311SOL    HW127395   1.583   4.721   8.528  1.4552 -2.2121 -0.1602
 5311SOL    HW227396   1.658   4.667   8.405 -0.1029  0.1592 -2.3484
 5312SOL     OW27397   0.555   3.613   8.350 -0.0039  0.1004 -0.2646
 5312SOL    HW127398   0.498   3.689   8.359  0.6932  0.6889 -0.8783
 5312SOL    HW227399   0.638   3.644   8.387  1.1041 -0.6941 -2.1119
 5313SOL     OW27400   3.787   1.568   1.541 -0.8485 -0.6414  0.2048
 5313SOL    HW127401   3.881   1.572   1.525 -1.1965  1.8598 -1.3008
 5313SOL    HW227402   3.755   1.593   1.454 -0.0399  1.4230  0.5012
 5314SOL     OW27403   4.133   1.751   7.636  0.7547  0.1446 -0.3376
 5314SOL    HW127404   4.152   1.836   7.676  0.6278  0.2432 -0.4900
 5314SOL    HW227405   4.221   1.712   7.639  0.4970 -0.3487  1.0040
 5315SOL     OW27406   1.157   1.081   9.004 -0.7315  0.0776 -0.1035
 5315SOL    HW127407   1.185   1.042   9.087  1.2601  1.6139 -0.0660
 5315SOL    HW227408   1.112   1.159   9.035 -1.7003  0.4072 -2.3068
 5316SOL     OW27409   1.754   3.782  10.185 -0.3305  0.0740  0.5479
 5316SOL    HW127410   1.755   3.748  10.275  3.5389 -0.8762  0.1492
 5316SOL    HW227411   1.695   3.713  10.154  0.1995  0.2356 -0.8024
 5317SOL     OW27412   4.392   0.052   9.620 -0.5704 -0.1368 -0.6011
 5317SOL    HW127413   4.334   0.041   9.695 -0.3403 -0.7239 -0.5067
 5317SOL    HW227414   4.337   0.026   9.546 -0.8855  0.7619 -0.6795
 5318SOL     OW27415   2.788   1.512  15.380 -0.6131  0.9651  0.2306
 5318SOL    HW127416   2.707   1.464  15.395 -1.4418  1.1611 -3.6465
 5318SOL    HW227417   2.852   1.443  15.396  0.6867  2.7567  2.8314
 5319SOL     OW27418   0.033   4.266   6.649  0.6581 -0.4054 -0.0890
 5319SOL    HW127419   0.101   4.328   6.624  0.1390  0.3771  0.4335
 5319SOL    HW227420   4.708   4.279   6.567  0.5610 -0.0294  0.0257
 5320SOL     OW27421   1.374   2.607   7.889  0.7305  0.1778  0.5076
 5320SOL    HW127422   1.454   2.629   7.841  0.7008 -0.7863  0.0257
 5320SOL    HW227423   1.361   2.514   7.873  2.0194  0.7165 -3.6571
 5321SOL     OW27424   1.619   4.418  10.694  0.1378  0.5279  0.7011
 5321SOL    HW127425   1.662   4.461  10.767 -0.6634  0.6904  1.0673
 5321SOL    HW227426   1.666   4.461  10.622 -0.3195  1.8305  1.1889
 5322SOL     OW27427   4.658   1.674   7.548  0.4994 -0.4418 -0.5318
 5322SOL    HW127428   4.683   1.594   7.596  1.2389  0.4241  0.5353
 5322SOL    HW227429   0.012   1.724   7.575 -1.8636  2.0410  1.5704
 5323SOL     OW27430   1.302   4.358  17.428  0.2306  0.2429  0.2762
 5323SOL    HW127431   1.380   4.332  17.476  0.1574 -1.0278 -0.3026
 5323SOL    HW227432   1.288   4.442  17.471  1.1171  1.2609 -1.4493
 5324SOL     OW27433   3.796   3.435   8.270  0.2442 -0.2659  0.1396
 5324SOL    HW127434   3.720   3.472   8.224  0.9592  2.0413  0.7884
 5324SOL    HW227435   3.755   3.430   8.356  1.6357  0.8668  0.8721
 5325SOL     OW27436   1.877   1.641  10.051  0.2357 -0.4247  0.7610
 5325SOL    HW127437   1.821   1.626   9.975  2.8421  2.1000 -1.7033
 5325SOL    HW227438   1.929   1.561  10.042 -0.1800 -0.7119  0.9640
 5326SOL     OW27439   1.059   3.366   2.783 -0.1538 -0.3019  0.5561
 5326SOL    HW127440   1.038   3.459   2.779 -0.7416 -0.4568 -0.1863
 5326SOL    HW227441   1.002   3.335   2.853 -0.6465  0.1431  0.3505
 5327SOL     OW27442   3.299   0.755   0.683  0.4887  0.4363 -0.1676
 5327SOL    HW127443   3.300   0.838   0.730  2.2027 -1.1620  2.5988
 5327SOL    HW227444   3.239   0.697   0.731  0.6129  1.6671  1.4565
 5328SOL     OW27445   4.182   2.015   4.591 -0.2275 -0.0235  0.6423
 5328SOL    HW127446   4.201   1.929   4.629 -0.5127  0.4449  1.8322
 5328SOL    HW227447   4.229   2.013   4.507  1.1634 -0.6341  1.4387
 5329SOL     OW27448   0.248   3.565   7.219 -0.1980 -0.1846 -0.3328
 5329SOL    HW127449   0.250   3.623   7.295  1.7051 -0.4475 -0.1929
 5329SOL    HW227450   0.296   3.491   7.256 -0.7769 -0.4769 -0.1651
 5330SOL     OW27451   3.310   0.475  12.001 -0.1724 -0.4946 -0.4537
 5330SOL    HW127452   3.330   0.407  11.937  1.8330 -0.0510 -0.2931
 5330SOL    HW227453   3.392   0.479  12.050  0.1492  0.6707 -1.0801
 5331SOL     OW27454   0.390   4.439   4.138 -0.2019  0.5271  0.1972
 5331SOL    HW127455   0.406   4.510   4.200  2.6599 -0.1483  0.2415
 5331SOL    HW227456   0.343   4.489   4.071 -0.2514  0.9493  0.5465
 5332SOL     OW27457   2.382   3.685  13.087  0.3242 -0.0095  0.3886
 5332SOL    HW127458   2.303   3.738  13.090  0.5018  0.3203 -0.8687
 5332SOL    HW227459   2.379   3.645  13.175 -0.0705 -0.7089  0.0602
 5333SOL     OW27460   3.694   0.120   7.507 -0.1383  0.0420  0.1908
 5333SOL    HW127461   3.606   0.141   7.539 -0.4640 -2.0733  0.6883
 5333SOL    HW227462   3.737   0.059   7.567 -0.0968 -0.1517 -0.0326
 5334SOL     OW27463   1.542   2.703  16.375  0.1194  0.3864 -0.1612
 5334SOL    HW127464   1.614   2.643  16.394  0.9529  1.5313  0.2663
 5334SOL    HW227465   1.490   2.659  16.308 -0.2927  2.1004 -0.9493
 5335SOL     OW27466   3.033   0.117   1.243  0.3131  0.4987  0.1114
 5335SOL    HW127467   3.058   0.030   1.274 -1.2126  0.3030  0.8084
 5335SOL    HW227468   2.952   0.085   1.203  0.7946 -0.5851  0.0322
 5336SOL     OW27469   0.794   3.112   5.116 -0.1751 -0.3330  0.3728
 5336SOL    HW127470   0.769   3.176   5.183 -2.8721 -0.6985 -0.3019
 5336SOL    HW227471   0.793   3.172   5.041 -2.7163 -1.0114 -0.1434
 5337SOL     OW27472   2.779   1.371   1.903  0.7448  0.3610  0.1301
 5337SOL    HW127473   2.736   1.308   1.960 -3.1935  1.4730 -1.6284
 5337SOL    HW227474   2.861   1.325   1.882  0.6127 -0.4323  1.3316
 5338SOL     OW27475   1.412   2.075   2.777 -0.5215  0.2405  0.2300
 5338SOL    HW127476   1.417   2.036   2.690 -0.5434 -2.6555  1.4930
 5338SOL    HW227477   1.455   2.158   2.760 -0.5590 -0.3802 -2.9452
 5339SOL     OW27478   0.608   1.836  14.262  0.0009 -0.5970 -0.1644
 5339SOL    HW127479   0.602   1.920  14.307 -1.4461  0.9512 -3.2647
 5339SOL    HW227480   0.531   1.837  14.206 -0.4779 -2.1705  0.4697
 5340SOL     OW27481   3.887   3.802  17.666  0.1575 -0.0783  0.0506
 5340SOL    HW127482   3.922   3.742  17.600  2.9368 -1.8844  3.1826
 5340SOL    HW227483   3.797   3.771  17.673  0.0145  0.6427  1.5062
 5341SOL     OW27484   2.161   2.719   5.365 -0.9688  0.6269 -0.3595
 5341SOL    HW127485   2.137   2.812   5.363 -0.1038  0.8836  0.9660
 5341SOL    HW227486   2.141   2.706   5.458 -0.1641 -1.2007 -0.4433
 5342SOL     OW27487   4.593   1.090  15.884 -0.3704 -0.4781 -0.2103
 5342SOL    HW127488   4.522   1.040  15.844 -0.0505 -0.7412 -0.4480
 5342SOL    HW227489   4.666   1.029  15.892 -0.6106 -0.5676  1.3426
 5343SOL     OW27490   1.329   2.302   7.131  0.2898 -0.3235  0.1549
 5343SOL    HW127491   1.272   2.258   7.195  0.0873 -1.6194 -0.9206
 5343SOL    HW227492   1.383   2.357   7.188 -1.0948 -0.3899  1.5683
 5344SOL     OW27493   4.163   1.916   5.613 -0.5940  0.6012 -0.4303
 5344SOL    HW127494   4.220   1.988   5.586  0.0543  1.1396  2.4680
 5344SOL    HW227495   4.178   1.936   5.705  0.1744 -1.7792 -0.0183
 5345SOL     OW27496   1.258   0.690   4.820 -0.4296 -0.5338  0.0660
 5345SOL    HW127497   1.201   0.724   4.751 -1.0779  0.9878  1.3616
 5345SOL    HW227498   1.338   0.678   4.768 -0.3088  1.6759 -0.2542
 5346SOL     OW27499   0.982   2.820   7.006  0.2505 -0.5703 -0.1194
 5346SOL    HW127500   0.979   2.733   7.046  0.7451  0.2762  1.7418
 5346SOL    HW227501   0.961   2.878   7.078 -2.0540 -0.1409 -1.1415
 5347SOL     OW27502   4.377   0.347   3.920  0.5090 -0.6318 -0.1659
 5347SOL    HW127503   4.324   0.274   3.951  1.4504 -1.3492 -0.2593
 5347SOL    HW227504   4.448   0.295   3.883  1.8901 -0.0109  1.6260
 5348SOL     OW27505   1.914   1.559   6.575  0.4710 -0.2312 -0.1485
 5348SOL    HW127506   1.922   1.475   6.621 -2.2978  0.0933  0.9507
 5348SOL    HW227507   2.008   1.569   6.561  0.2185  0.7967 -1.1254
 5349SOL     OW27508   4.020   2.336  12.778 -0.3957 -0.7097  0.1883
 5349SOL    HW127509   3.997   2.250  12.812 -0.0702 -1.1194 -0.6294
 5349SOL    HW227510   4.014   2.312  12.686 -0.3662 -2.2823  0.5949
 5350SOL     OW27511   0.850   3.087   6.082  0.0732 -0.1966 -0.4764
 5350SOL    HW127512   0.886   3.149   6.145 -0.5547 -1.7278  1.3948
 5350SOL    HW227513   0.848   3.009   6.137 -2.4905  0.4001  0.3049
 5351SOL     OW27514   3.516   4.153   7.068 -0.0412  0.2725  0.1805
 5351SOL    HW127515   3.541   4.186   6.981 -1.7683 -0.5709 -0.6373
 5351SOL    HW227516   3.502   4.235   7.116 -1.7898 -0.6648  1.2374
 5352SOL     OW27517   0.599   3.692   8.092  0.0734 -0.7147 -0.3133
 5352SOL    HW127518   0.660   3.761   8.119  0.2111 -0.9856  0.0743
 5352SOL    HW227519   0.568   3.664   8.179  0.3911  0.0212  0.0308
 5353SOL     OW27520   3.988   0.647   2.246 -0.4864  0.2326 -0.3125
 5353SOL    HW127521   4.017   0.588   2.315  0.9570  3.2071  1.6408
 5353SOL    HW227522   3.917   0.594   2.209  0.2823 -0.1676 -1.2213
 5354SOL     OW27523   2.309   0.024   3.119 -0.2441 -0.5001  0.1040
 5354SOL    HW127524   2.264   0.084   3.059 -0.1861 -0.6053 -0.0416
 5354SOL    HW227525   2.398   0.053   3.101 -1.0219  0.4926 -2.1475
 5355SOL     OW27526   1.338   0.064   6.941  0.2210 -0.9179  0.0234
 5355SOL    HW127527   1.278   0.094   7.009 -0.8255 -2.0965 -0.3733
 5355SOL    HW227528   1.294   4.710   6.905  0.9557  0.0915 -3.0382
 5356SOL     OW27529   1.438   4.415   7.977  0.5374 -0.1571  1.0095
 5356SOL    HW127530   1.446   4.320   7.979 -1.1191 -0.3401 -1.0758
 5356SOL    HW227531   1.443   4.434   8.071 -0.7771 -0.1597  1.0849
 5357SOL     OW27532   1.853   1.601   8.312  0.0846 -0.4019 -0.2347
 5357SOL    HW127533   1.949   1.604   8.322 -0.0860  1.3419  0.8687
 5357SOL    HW227534   1.835   1.650   8.232  0.8263 -0.1747 -0.2663
 5358SOL     OW27535   3.841   1.852   4.659 -0.0376 -0.5496 -0.0631
 5358SOL    HW127536   3.889   1.829   4.579 -1.5069 -0.2673 -1.0256
 5358SOL    HW227537   3.865   1.944   4.674 -3.3753  0.1100  1.1880
 5359SOL     OW27538   2.859   2.134   3.964  0.0603  0.0324  0.0256
 5359SOL    HW127539   2.848   2.224   3.933  2.1035  0.6123  0.9141
 5359SOL    HW227540   2.808   2.092   3.896  2.1984 -1.6007 -0.5527
 5360SOL     OW27541   0.797   1.093  11.744 -0.3782 -0.1246 -0.3662
 5360SOL    HW127542   0.860   1.076  11.814  1.7044  0.9057 -2.0030
 5360SOL    HW227543   0.721   1.103  11.802 -1.3314  1.0131 -1.8045
 5361SOL     OW27544   1.973   2.819  12.533 -0.1925 -0.0954  0.3750
 5361SOL    HW127545   1.929   2.872  12.467 -0.0735  0.9096  1.1046
 5361SOL    HW227546   1.939   2.730  12.519  0.5805 -0.3051 -0.1343
 5362SOL     OW27547   4.513   2.487   3.984  0.2569 -0.1683  0.1847
 5362SOL    HW127548   4.469   2.494   3.899  1.5616  2.3540 -0.2654
 5362SOL    HW227549   4.544   2.576   3.998 -1.0278  0.3215 -0.1319
 5363SOL     OW27550   1.907   3.995   1.535 -0.5136  0.3286  0.3644
 5363SOL    HW127551   1.849   3.927   1.501 -0.5523 -0.5086  2.0834
 5363SOL    HW227552   1.851   4.072   1.544  0.0068  0.7057  0.4307
 5364SOL     OW27553   3.267   1.810   3.140  0.0558 -0.7660  0.5035
 5364SOL    HW127554   3.194   1.754   3.113 -1.3318 -0.0741  2.7869
 5364SOL    HW227555   3.322   1.813   3.062  2.8830 -1.7993  2.4586
 5365SOL     OW27556   1.701   1.801   3.362 -0.2457  0.4369 -0.6562
 5365SOL    HW127557   1.729   1.718   3.402 -1.1867 -0.1067 -1.1155
 5365SOL    HW227558   1.780   1.853   3.374 -1.2040  1.4557  1.3459
 5366SOL     OW27559   0.746   1.334   5.305  0.0710  0.0779 -0.5420
 5366SOL    HW127560   0.774   1.387   5.379 -0.2614  0.3507 -0.6122
 5366SOL    HW227561   0.704   1.264   5.354  0.2523  0.1481 -0.2836
 5367SOL     OW27562   4.481   1.985  13.301 -0.1655  0.0383 -0.0041
 5367SOL    HW127563   4.488   1.944  13.215 -3.8106  0.8563 -0.6771
 5367SOL    HW227564   4.499   2.078  13.286  1.6247 -0.1664  0.9167
 5368SOL     OW27565   3.456   1.081  14.483 -0.5187 -0.3807  0.1862
 5368SOL    HW127566   3.517   1.025  14.435  1.9033  1.1920  1.4462
 5368SOL    HW227567   3.375   1.053  14.441  0.0157 -1.4464 -0.1374
 5369SOL     OW27568   0.487   2.841   5.001 -0.0487 -0.0418 -0.3745
 5369SOL    HW127569   0.420   2.775   4.986  0.7861 -0.5372 -1.8871
 5369SOL    HW227570   0.462   2.909   4.938 -0.4294 -1.0317 -1.2860
 5370SOL     OW27571   4.409   2.063  12.906  0.1748 -0.1620 -0.2513
 5370SOL    HW127572   4.448   2.001  12.967  4.1180  2.6198  0.0458
 5370SOL    HW227573   4.401   2.017  12.823  3.0116  2.3705 -1.9438
 5371SOL     OW27574   1.806   0.757   2.480  0.1879 -1.2158  0.2228
 5371SOL    HW127575   1.835   0.749   2.389  3.5030 -0.3573  1.2149
 5371SOL    HW227576   1.728   0.813   2.472 -0.3853 -2.0101  0.1782
 5372SOL     OW27577   1.940   1.924   3.394  0.4445 -0.7920 -0.3645
 5372SOL    HW127578   1.980   1.853   3.444  2.8212  0.4179 -0.5314
 5372SOL    HW227579   2.001   1.926   3.319 -2.7107  2.1616 -2.8663
 5373SOL     OW27580   2.954   1.248   2.438 -0.2520  0.2915 -0.3376
 5373SOL    HW127581   2.916   1.333   2.457 -1.5011 -0.0496 -1.2568
 5373SOL    HW227582   2.992   1.269   2.353 -0.1528  2.8076  0.3438
 5374SOL     OW27583   0.578   3.820  11.850 -0.5794 -0.0680 -0.1224
 5374SOL    HW127584   0.593   3.912  11.873  0.4473  0.0547 -1.3154
 5374SOL    HW227585   0.613   3.820  11.761 -1.3323 -0.7543 -0.4234
 5375SOL     OW27586   4.337   3.644   9.294  0.5564 -0.3315 -0.3131
 5375SOL    HW127587   4.310   3.725   9.336 -1.7200 -1.8152  1.0603
 5375SOL    HW227588   4.387   3.596   9.360 -1.6813  0.5319  1.9904
 5376SOL     OW27589   1.507   1.412  12.168 -0.3383 -0.4074 -0.1071
 5376SOL    HW127590   1.500   1.335  12.112  0.9218  1.1617 -2.3974
 5376SOL    HW227591   1.415   1.435  12.154 -0.3071  0.0377  0.4307
 5377SOL     OW27592   4.537   3.079   7.232 -0.4972 -0.0297 -0.2734
 5377SOL    HW127593   4.508   3.128   7.155 -0.5143  1.7696  0.8952
 5377SOL    HW227594   4.462   3.082   7.292  0.4714 -1.7772  1.0501
 5378SOL     OW27595   3.458   4.487  13.751 -0.1353  0.7222  0.8332
 5378SOL    HW127596   3.481   4.550  13.683 -0.9305 -1.0885 -1.1116
 5378SOL    HW227597   3.508   4.523  13.825  1.7282  1.5027 -0.7958
 5379SOL     OW27598   2.662   4.480   6.622  0.2355 -0.0109  0.0967
 5379SOL    HW127599   2.652   4.500   6.715 -0.9010  1.6090 -0.3754
 5379SOL    HW227600   2.738   4.529   6.590 -1.3352  2.8360  0.7281
 5380SOL     OW27601   0.409   2.828   4.444 -0.1774  0.1764  0.1750
 5380SOL    HW127602   0.404   2.896   4.510  0.4494  0.0503  0.3493
 5380SOL    HW227603   0.448   2.874   4.370  0.0841  0.6461  0.6086
 5381SOL     OW27604   2.198   0.046  16.185  0.4662  0.3035 -0.5207
 5381SOL    HW127605   2.185   0.054  16.280  1.3415  2.7840 -0.6012
 5381SOL    HW227606   2.250   4.689  16.196  1.4027  0.4640 -3.8934
 5382SOL     OW27607   2.134   3.993  15.793  0.5332  0.3725 -0.1051
 5382SOL    HW127608   2.052   3.954  15.764  0.0454 -0.0610  1.8611
 5382SOL    HW227609   2.153   4.060  15.728  1.5948 -0.0273 -0.2150
 5383SOL     OW27610   2.336   0.312   2.220 -0.4013 -0.6297 -0.0653
 5383SOL    HW127611   2.245   0.290   2.239 -0.5784  0.3592  0.2728
 5383SOL    HW227612   2.375   0.227   2.238 -1.9205 -1.5583 -1.2151
 5384SOL     OW27613   2.374   1.473   8.228 -0.3995  0.3092 -0.4217
 5384SOL    HW127614   2.319   1.415   8.281  0.5420  1.4672  1.8274
 5384SOL    HW227615   2.347   1.437   8.144  1.7660  0.3720 -1.1312
 5385SOL     OW27616   1.746   3.999   4.351  0.2624  0.1197  0.2301
 5385SOL    HW127617   1.687   4.039   4.415  1.0482 -0.1599  1.1413
 5385SOL    HW227618   1.689   3.928   4.323  1.0725 -0.8488  1.0171
 5386SOL     OW27619   0.915   0.411   4.397 -0.5107  0.1052  0.4353
 5386SOL    HW127620   0.957   0.336   4.439  1.5027  1.6639  1.2163
 5386SOL    HW227621   0.931   0.480   4.463  0.1967  0.5945 -0.2444
 5387SOL     OW27622   2.640   4.408   4.176 -0.3921 -0.3250  0.1323
 5387SOL    HW127623   2.565   4.441   4.126  0.0089  2.0397  1.0839
 5387SOL    HW227624   2.681   4.356   4.107 -2.2559 -0.0266 -1.2173
 5388SOL     OW27625   1.371   1.170   4.982 -0.1558 -0.1606  0.4889
 5388SOL    HW127626   1.324   1.088   4.996  0.5693 -0.5890  0.3714
 5388SOL    HW227627   1.373   1.181   4.886 -0.1508 -2.7870  0.1880
 5389SOL     OW27628   2.787   0.306   0.900 -0.4871  0.3319  0.0491
 5389SOL    HW127629   2.725   0.283   0.969 -0.1830 -0.2149  0.1447
 5389SOL    HW227630   2.807   0.219   0.865 -2.5596 -0.1913  0.1667
 5390SOL     OW27631   3.293   1.496  16.441  0.1375 -0.2636  0.1259
 5390SOL    HW127632   3.260   1.440  16.371 -1.4089  2.7553 -1.5774
 5390SOL    HW227633   3.366   1.440  16.464 -0.1080  0.1016  1.7989
 5391SOL     OW27634   1.079   3.785   3.713 -0.0457 -0.4932  0.0587
 5391SOL    HW127635   1.128   3.793   3.794 -0.9596 -1.9308  0.7412
 5391SOL    HW227636   1.015   3.715   3.727 -0.8996  0.0975 -0.8441
 5392SOL     OW27637   2.774   3.331  13.377 -0.2777  0.3301 -0.0081
 5392SOL    HW127638   2.724   3.253  13.353 -1.9708  1.4615 -0.2042
 5392SOL    HW227639   2.828   3.349  13.300  0.7974 -2.1606  0.1763
 5393SOL     OW27640   1.923   3.722   3.753 -0.0414  0.5407  0.1326
 5393SOL    HW127641   1.965   3.682   3.829  1.0941  0.7885 -0.3637
 5393SOL    HW227642   1.841   3.674   3.746  1.1108 -1.3854 -0.3597
 5394SOL     OW27643   1.332   2.776  10.843  0.3978  0.2110 -0.4624
 5394SOL    HW127644   1.243   2.755  10.814  0.9145  0.3980 -2.2126
 5394SOL    HW227645   1.326   2.816  10.929  0.5747  0.4140 -0.5444
 5395SOL     OW27646   2.334   1.291  14.028 -0.8381 -0.4295 -0.1237
 5395SOL    HW127647   2.333   1.332  14.114  2.3605 -0.0766 -0.2585
 5395SOL    HW227648   2.330   1.200  14.058  0.2031 -0.8277 -1.1943
 5396SOL     OW27649   1.033   4.249   0.244 -0.3249 -0.2859  0.3594
 5396SOL    HW127650   1.111   4.261   0.189  1.6837 -1.3229  2.9908
 5396SOL    HW227651   1.066   4.208   0.324  1.1627 -0.3541 -0.2974
 5397SOL     OW27652   4.143   0.288  15.355  0.1585  0.3694 -0.1996
 5397SOL    HW127653   4.095   0.269  15.275  1.8045 -1.7323 -0.6767
 5397SOL    HW227654   4.074   0.326  15.410  0.4374  2.8312 -1.5477
 5398SOL     OW27655   0.940   0.677   7.573 -0.0835 -0.5739  0.2602
 5398SOL    HW127656   0.988   0.759   7.564  3.0675 -2.2159  1.9620
 5398SOL    HW227657   0.930   0.660   7.667 -0.1847  0.8168  0.4925
 5399SOL     OW27658   1.770   0.382  14.150  0.4738  0.3291  0.2880
 5399SOL    HW127659   1.783   0.363  14.056 -0.4882  0.1880  0.1883
 5399SOL    HW227660   1.833   0.316  14.180 -0.0952 -0.5445 -0.4308
 5400SOL     OW27661   0.361   4.661   9.569  0.7425 -0.4156 -0.2059
 5400SOL    HW127662   0.325   4.577   9.597 -0.7415 -0.0922 -1.1362
 5400SOL    HW227663   0.290   0.002   9.562  1.1569 -0.0718 -1.2478
 5401SOL     OW27664   1.818   4.033  11.711 -0.8354  0.1628 -0.7083
 5401SOL    HW127665   1.728   4.016  11.738 -1.0761  2.2873 -0.1539
 5401SOL    HW227666   1.859   4.055  11.794  0.3536  0.5869 -1.4101
 5402SOL     OW27667   4.201   4.208   1.279 -0.2893 -0.5268  0.6149
 5402SOL    HW127668   4.252   4.173   1.352 -0.6729  1.2616  1.7303
 5402SOL    HW227669   4.219   4.302   1.283  3.0742 -1.2466  1.9804
 5403SOL     OW27670   1.741   4.467   2.919  0.4229 -0.3793 -0.6615
 5403SOL    HW127671   1.797   4.410   2.867 -0.9291 -0.8363 -1.6026
 5403SOL    HW227672   1.793   4.477   2.999  2.2894  1.5867 -2.1324
 5404SOL     OW27673   2.411   4.590  14.912  0.2732  0.0501  0.0646
 5404SOL    HW127674   2.354   4.513  14.916  1.8484 -1.1096  0.2119
 5404SOL    HW227675   2.471   4.564  14.981 -0.5934 -1.7265  0.1433
 5405SOL     OW27676   0.209   0.554  16.126 -0.1987 -0.4349 -0.2741
 5405SOL    HW127677   0.234   0.538  16.035 -0.6789 -1.1066 -0.2911
 5405SOL    HW227678   0.133   0.609  16.107 -0.5242 -0.6884  0.2812
 5406SOL     OW27679   2.696   2.699   3.585 -0.4248  0.0676 -0.1040
 5406SOL    HW127680   2.641   2.771   3.556  1.1566  0.7850 -1.3290
 5406SOL    HW227681   2.781   2.742   3.597 -0.7795  1.0583 -1.1618
 5407SOL     OW27682   2.949   2.287   6.197 -0.5520  0.3544  0.1430
 5407SOL    HW127683   2.869   2.237   6.214 -0.6350 -0.1784 -1.8804
 5407SOL    HW227684   2.988   2.223   6.138  3.3125  2.7378  0.1764
 5408SOL     OW27685   1.807   1.657   0.876 -0.5651  0.1261  0.3477
 5408SOL    HW127686   1.823   1.563   0.870 -1.9010 -0.1126  0.5622
 5408SOL    HW227687   1.712   1.656   0.888 -0.5635  0.3595  0.3775
 5409SOL     OW27688   1.989   4.582  14.131  0.0255 -0.5928 -0.0827
 5409SOL    HW127689   1.958   4.623  14.211 -0.9235  1.8324 -1.6864
 5409SOL    HW227690   2.019   4.496  14.161  2.0396 -0.1830 -0.9112
 5410SOL     OW27691   1.641   3.510  10.128 -0.1368 -0.1982  0.1466
 5410SOL    HW127692   1.619   3.435  10.073  1.7446  0.8730 -2.0496
 5410SOL    HW227693   1.647   3.471  10.215 -0.8869 -2.7043 -0.9453
 5411SOL     OW27694   0.364   4.257   5.785  0.1557 -0.3341  0.1052
 5411SOL    HW127695   0.373   4.167   5.756 -0.7840  0.2952 -2.1407
 5411SOL    HW227696   0.305   4.245   5.860  0.6150  1.7084  0.7933
 5412SOL     OW27697   0.692   0.647  12.817  0.0855 -0.3214  0.0960
 5412SOL    HW127698   0.625   0.675  12.755 -0.0306  1.2178  0.9248
 5412SOL    HW227699   0.653   0.667  12.902 -0.8723 -2.3978  0.1460
 5413SOL     OW27700   4.373   1.703   3.991 -0.2401 -0.4836 -0.1314
 5413SOL    HW127701   4.362   1.608   3.995  0.5381 -0.6064 -0.7867
 5413SOL    HW227702   4.303   1.739   4.045  0.8875 -0.5265  1.3546
 5414SOL     OW27703   3.067   3.950   4.981  0.0759  0.0987 -0.0726
 5414SOL    HW127704   2.980   3.915   5.001 -0.5875  0.0332 -3.0611
 5414SOL    HW227705   3.095   3.942   5.072 -1.4600 -0.9460  0.3026
 5415SOL     OW27706   2.054   4.403  10.446 -0.1885 -0.1912  0.7445
 5415SOL    HW127707   2.072   4.348  10.370  1.8068  0.7410  0.5282
 5415SOL    HW227708   1.967   4.377  10.475 -0.1359  2.0068  2.9007
 5416SOL     OW27709   0.943   1.513   5.753 -1.2230  0.6294  0.9510
 5416SOL    HW127710   0.889   1.459   5.810  0.0728 -3.2434 -1.5116
 5416SOL    HW227711   0.964   1.578   5.820 -1.7204  2.0481 -0.2530
 5417SOL     OW27712   0.625   1.993  16.115 -0.3383  0.5780  0.4604
 5417SOL    HW127713   0.661   1.917  16.161 -1.0952  0.2755  0.5456
 5417SOL    HW227714   0.587   1.953  16.037 -0.4139 -0.1966  0.8979
 5418SOL     OW27715   0.346   3.233   3.830  0.1896 -0.4474  0.4404
 5418SOL    HW127716   0.282   3.270   3.891  0.6781  0.8597  0.1598
 5418SOL    HW227717   0.402   3.192   3.895 -0.3804 -0.1611  1.1198
 5419SOL     OW27718   0.308   0.386   7.824 -0.5737  0.7407 -0.0567
 5419SOL    HW127719   0.315   0.307   7.771  0.5486  0.6939  0.1698
 5419SOL    HW227720   0.223   0.416   7.792 -0.6620  0.5499  0.0043
 5420SOL     OW27721   4.303   2.842   6.909 -0.5292 -0.2198  0.2502
 5420SOL    HW127722   4.380   2.831   6.966  0.4413 -0.4930 -1.1069
 5420SOL    HW227723   4.266   2.925   6.938 -0.9044 -0.5151  0.6073
 5421SOL     OW27724   4.161   0.162   5.617 -0.4470 -0.0663  0.4463
 5421SOL    HW127725   4.127   0.143   5.705  1.1236  0.6517  1.2112
 5421SOL    HW227726   4.162   0.257   5.613 -0.7702 -0.1206 -0.8823
 5422SOL     OW27727   2.956   2.093   7.913  0.1901  0.7041  0.6861
 5422SOL    HW127728   3.050   2.072   7.911  0.4355  2.1321 -3.0889
 5422SOL    HW227729   2.914   2.013   7.882  2.3133 -0.9465  2.0479
 5423SOL     OW27730   0.938   3.031   7.619 -0.2837 -0.2051 -0.2951
 5423SOL    HW127731   0.931   3.110   7.567  1.1801 -0.2774 -0.6082
 5423SOL    HW227732   0.960   3.078   7.700  0.0310 -0.2315 -0.3644
 5424SOL     OW27733   4.533   1.716   1.452  0.4393  0.1342 -0.1598
 5424SOL    HW127734   4.590   1.699   1.377 -2.6690 -3.3206 -1.7571
 5424SOL    HW227735   4.598   1.698   1.520 -0.2773 -0.1672  0.4468
 5425SOL     OW27736   0.141   3.928   9.369 -0.0909 -0.1321  0.1837
 5425SOL    HW127737   0.113   3.844   9.334 -1.0669  0.4032 -0.3131
 5425SOL    HW227738   0.064   3.983   9.354 -0.0779  0.0381  0.7460
 5426SOL     OW27739   3.011   1.995   1.146  0.0233  0.1799  0.1009
 5426SOL    HW127740   3.009   1.900   1.151 -3.4430  0.2659  0.9127
 5426SOL    HW227741   3.064   1.998   1.067  0.8048 -1.7052  0.5632
 5427SOL     OW27742   3.321   3.472  16.200  0.8458 -0.3103 -0.0648
 5427SOL    HW127743   3.324   3.439  16.110 -0.6233 -0.1159 -0.1811
 5427SOL    HW227744   3.360   3.392  16.236  0.6872 -0.1507  0.4596
 5428SOL     OW27745   1.620   2.891   3.047 -0.2830  0.2029  0.3968
 5428SOL    HW127746   1.585   2.946   2.977  2.2832  1.0381 -0.2183
 5428SOL    HW227747   1.566   2.927   3.118 -0.1309 -2.0578  1.6652
 5429SOL     OW27748   1.398   2.204   9.330  0.4957 -0.4418  0.0785
 5429SOL    HW127749   1.384   2.289   9.372 -0.2143  0.1543 -1.3740
 5429SOL    HW227750   1.408   2.138   9.400 -1.1744  0.1928  0.9115
 5430SOL     OW27751   4.260   1.749   4.703  0.5127  0.4467  0.6979
 5430SOL    HW127752   4.307   1.696   4.768 -0.9911  0.0236  1.4355
 5430SOL    HW227753   4.181   1.695   4.696  1.3239 -0.2694 -3.1363
 5431SOL     OW27754   4.620   4.606   1.298  0.5466  0.0227 -0.3348
 5431SOL    HW127755   4.625   4.647   1.385  0.0473 -2.0898  0.6815
 5431SOL    HW227756   4.697   4.550   1.302 -0.2109 -0.8753  1.7550
 5432SOL     OW27757   4.627   1.847   3.679 -0.1097 -0.0931 -0.4337
 5432SOL    HW127758   4.640   1.757   3.710  3.4240 -0.0668 -1.8460
 5432SOL    HW227759   4.582   1.883   3.756  0.2066 -2.9557  1.0983
 5433SOL     OW27760   0.791   1.273   9.855  0.5376 -0.2129  0.5399
 5433SOL    HW127761   0.765   1.199   9.800 -1.8786  0.1576  1.1919
 5433SOL    HW227762   0.868   1.305   9.808 -0.2833 -2.6222 -2.5123
 5434SOL     OW27763   1.291   4.195  12.801  0.2526 -0.5085  0.0690
 5434SOL    HW127764   1.360   4.164  12.742 -0.8579  2.1963 -2.6364
 5434SOL    HW227765   1.254   4.281  12.780 -0.5299 -0.6154  0.9823
 5435SOL     OW27766   1.712   0.572   2.691 -0.0282  0.5033  0.0495
 5435SOL    HW127767   1.792   0.586   2.742 -1.4964 -1.3808  2.9169
 5435SOL    HW227768   1.715   0.644   2.628 -0.4515 -0.4789 -1.0926
 5436SOL     OW27769   2.923   2.911   3.793 -0.1664  0.2825 -0.4209
 5436SOL    HW127770   2.991   2.950   3.739  0.4447  0.2413  0.3299
 5436SOL    HW227771   2.935   2.816   3.791 -1.5324  0.0680  1.2177
 5437SOL     OW27772   4.287   1.667   5.616  0.0281  0.2994 -0.3861
 5437SOL    HW127773   4.262   1.635   5.702 -0.7491  0.0161 -0.7208
 5437SOL    HW227774   4.230   1.744   5.614 -0.4812 -0.0864 -0.7073
 5438SOL     OW27775   2.536   4.648   6.040 -0.4049  0.0094 -0.1908
 5438SOL    HW127776   2.442   4.628   6.039 -0.1134 -1.3070 -0.5980
 5438SOL    HW227777   2.543   4.673   6.132  1.6670  0.7351 -0.5546
 5439SOL     OW27778   0.397   0.714  15.005 -0.0849 -0.4705  0.8301
 5439SOL    HW127779   0.330   0.702  15.073  1.0157 -0.6893  1.8611
 5439SOL    HW227780   0.405   0.808  14.992  0.7075 -0.4826  1.2908
 5440SOL     OW27781   0.387   0.820   1.104 -0.0602  0.7390  0.3195
 5440SOL    HW127782   0.373   0.725   1.105  2.1053  0.4206  0.5700
 5440SOL    HW227783   0.437   0.825   1.023 -1.6351  1.8490 -0.5741
 5441SOL     OW27784   3.081   4.308   6.254  0.1868  0.5319 -0.4805
 5441SOL    HW127785   3.111   4.323   6.164 -0.5737  0.0311 -0.8204
 5441SOL    HW227786   3.038   4.222   6.250  1.4568 -0.0820 -0.9428
 5442SOL     OW27787   0.434   4.691   8.908  0.3580 -0.2145  0.4416
 5442SOL    HW127788   0.516   4.643   8.895 -0.3725 -1.1866 -0.5286
 5442SOL    HW227789   0.396   4.672   8.822 -1.8052  0.1535  1.3428
 5443SOL     OW27790   2.903   2.828   4.847  0.1776  0.8114  0.1836
 5443SOL    HW127791   2.810   2.806   4.840  0.4894  0.6526 -3.4744
 5443SOL    HW227792   2.912   2.839   4.942  0.4068  0.0570  0.2436
 5444SOL     OW27793   4.439   0.366  17.646  0.0195 -0.3624 -0.3183
 5444SOL    HW127794   4.483   0.447  17.621  2.1813 -1.5945 -0.5067
 5444SOL    HW227795   4.386   0.405   0.021  0.0439 -1.4257  0.2851
 5445SOL     OW27796   0.577   0.520   5.516  0.0972 -0.1778  0.1660
 5445SOL    HW127797   0.542   0.446   5.466 -1.2601 -0.8945  2.2008
 5445SOL    HW227798   0.505   0.583   5.529 -0.5425 -1.0599  0.8584
 5446SOL     OW27799   2.095   4.323   3.485 -0.6445 -0.4923  0.3385
 5446SOL    HW127800   2.150   4.307   3.408 -1.2055 -0.9907  0.0409
 5446SOL    HW227801   2.011   4.319   3.440 -0.9239 -1.5419  0.9437
 5447SOL     OW27802   2.708   2.935   0.426 -0.4542  0.6917 -0.4083
 5447SOL    HW127803   2.794   2.921   0.466 -0.3592 -0.5958 -1.0559
 5447SOL    HW227804   2.713   3.009   0.365 -0.4912 -1.0606 -2.5206
 5448SOL     OW27805   3.015   4.279   8.642 -0.1254 -0.2842  0.0441
 5448SOL    HW127806   2.989   4.187   8.633 -0.4589 -0.1427 -0.4628
 5448SOL    HW227807   3.110   4.269   8.646 -0.1407 -0.5241 -0.1320
 5449SOL     OW27808   4.445   3.511   8.769  0.3080  0.1904  0.0983
 5449SOL    HW127809   4.455   3.502   8.863  0.8476  1.0567  0.1283
 5449SOL    HW227810   4.465   3.605   8.761  2.0409 -0.1593  0.2290
 5450SOL     OW27811   1.759   0.318   8.697  0.2065  0.1731 -0.4510
 5450SOL    HW127812   1.780   0.251   8.633 -1.0085 -1.6364  1.0249
 5450SOL    HW227813   1.725   0.387   8.640 -2.0823  0.2120  0.9127
 5451SOL     OW27814   4.385   0.245  12.999 -0.2645  0.3990 -0.1379
 5451SOL    HW127815   4.419   0.244  13.088  0.6845 -2.9747 -0.5531
 5451SOL    HW227816   4.447   0.191  12.951 -2.1018 -2.1805  0.3512
 5452SOL     OW27817   3.109   1.903  13.378 -0.4534  0.5012 -0.0854
 5452SOL    HW127818   3.175   1.969  13.358 -0.1404 -0.8840 -3.6873
 5452SOL    HW227819   3.092   1.858  13.294 -0.4740 -2.7337  1.6406
 5453SOL     OW27820   3.989   2.315   7.488 -0.2870 -0.3899  0.5340
 5453SOL    HW127821   3.936   2.260   7.429  2.0212 -1.2941 -0.7095
 5453SOL    HW227822   4.053   2.251   7.519 -0.9562 -2.1912 -1.7811
 5454SOL     OW27823   2.666   2.865  11.102 -0.2378 -0.5202  0.1956
 5454SOL    HW127824   2.627   2.925  11.166  3.0398 -0.0665  1.7709
 5454SOL    HW227825   2.630   2.892  11.017  1.1027  1.4118  0.2334
 5455SOL     OW27826   3.196   2.750  16.122 -0.5488 -0.4141 -0.5837
 5455SOL    HW127827   3.250   2.741  16.044  0.8942  0.2401  0.3474
 5455SOL    HW227828   3.150   2.666  16.123 -2.9400  0.8760 -1.5819
 5456SOL     OW27829   4.723   1.617   5.188  0.2580  0.2293 -1.0987
 5456SOL    HW127830   0.003   1.550   5.121 -3.0268  0.1614 -1.2120
 5456SOL    HW227831   4.630   1.638   5.195  0.6090  1.1071  1.0013
 5457SOL     OW27832   4.509   4.030  11.837  0.1619 -0.8084  0.2412
 5457SOL    HW127833   4.587   3.998  11.791 -0.0469  0.4474 -0.9608
 5457SOL    HW227834   4.550   4.101  11.887 -1.1282 -1.1370  1.7661
 5458SOL     OW27835   1.846   4.431   0.552  0.4622  0.1092 -0.3109
 5458SOL    HW127836   1.855   4.517   0.593 -0.1900  0.7243 -1.4615
 5458SOL    HW227837   1.923   4.388   0.590 -0.2813 -1.9002 -1.0988
 5459SOL     OW27838   3.087   3.428  14.470  0.1139 -0.0272  0.4463
 5459SOL    HW127839   3.138   3.396  14.396  1.4499  2.6956  0.1882
 5459SOL    HW227840   3.037   3.503  14.438 -1.7021 -1.5971 -0.4280
 5460SOL     OW27841   0.197   3.433   7.935 -0.4036 -0.3436 -0.1659
 5460SOL    HW127842   0.228   3.350   7.971 -0.2452  0.6548  1.9702
 5460SOL    HW227843   0.104   3.418   7.949 -0.5672  1.5242  0.6543
 5461SOL     OW27844   1.592   1.567   8.767 -0.6961  0.3639 -0.2555
 5461SOL    HW127845   1.661   1.610   8.716 -1.0883 -0.0316 -1.1318
 5461SOL    HW227846   1.547   1.506   8.708 -1.6866 -0.0839  0.9834
 5462SOL     OW27847   1.490   4.329   5.864 -0.2408  0.3114  0.5902
 5462SOL    HW127848   1.485   4.277   5.784 -0.3583 -0.1792  0.9155
 5462SOL    HW227849   1.451   4.406   5.823 -1.8371 -0.6673  0.2946
 5463SOL     OW27850   3.674   3.068   8.044 -0.5371 -0.1815  0.6357
 5463SOL    HW127851   3.599   3.125   8.030  0.0222  0.5775  0.6981
 5463SOL    HW227852   3.644   2.982   8.015 -0.6003 -0.0329  0.2568
 5464SOL     OW27853   3.408   3.168  17.316  0.4481  0.0419  0.1508
 5464SOL    HW127854   3.332   3.223  17.332 -1.0502 -1.9905  0.0720
 5464SOL    HW227855   3.461   3.232  17.268  0.3789 -0.0907 -0.0989
 5465SOL     OW27856   0.578   2.991  12.944 -0.3842  0.3993  0.0821
 5465SOL    HW127857   0.633   3.040  13.006  0.7289 -0.4423 -0.2401
 5465SOL    HW227858   0.645   2.940  12.899 -1.2529 -1.2946  0.7003
 5466SOL     OW27859   0.906   3.066  13.898 -0.1215 -0.4940 -0.1884
 5466SOL    HW127860   0.955   2.985  13.910 -0.3708 -0.6117  0.0206
 5466SOL    HW227861   0.856   3.066  13.980  0.8160 -2.4273  0.3885
 5467SOL     OW27862   4.675   2.253  12.113  0.7343  0.2199 -0.2705
 5467SOL    HW127863   4.679   2.339  12.156 -1.3047 -0.0172  0.3769
 5467SOL    HW227864   4.599   2.275  12.058 -0.0818 -1.0453  0.3442
 5468SOL     OW27865   2.251   4.551   0.531  0.0130 -0.9304  0.3951
 5468SOL    HW127866   2.280   4.608   0.460  2.0296 -1.8565  0.4791
 5468SOL    HW227867   2.218   4.473   0.488 -0.9655  0.1284 -0.7723
 5469SOL     OW27868   1.689   2.071   3.266 -0.3902  0.1868 -0.3421
 5469SOL    HW127869   1.708   2.037   3.179  1.1562 -0.9137  0.4243
 5469SOL    HW227870   1.773   2.069   3.313 -0.9051 -1.9890  0.4832
 5470SOL     OW27871   4.239   4.074   8.175  0.1215  0.4928 -0.2388
 5470SOL    HW127872   4.316   4.081   8.231 -1.6665  2.4454  1.9971
 5470SOL    HW227873   4.228   3.980   8.187  1.2848  0.2092 -1.4438
 5471SOL     OW27874   2.151   4.660  10.611  0.3370  0.3874 -0.1695
 5471SOL    HW127875   2.077   4.629  10.558  1.6704 -1.4045 -0.9635
 5471SOL    HW227876   2.106   4.682  10.693 -1.8024 -1.4365 -0.8527
 5472SOL     OW27877   1.524   4.251   7.274 -0.1219  0.4789  0.2098
 5472SOL    HW127878   1.470   4.290   7.343 -0.4791 -1.9795  1.3566
 5472SOL    HW227879   1.459   4.248   7.204 -0.0717  0.1904  0.1731
 5473SOL     OW27880   1.518   2.846   8.158 -0.4804  0.1657 -0.4476
 5473SOL    HW127881   1.530   2.800   8.241 -1.2847 -0.5891 -0.7496
 5473SOL    HW227882   1.426   2.871   8.163 -0.6476 -1.1053  2.7385
 5474SOL     OW27883   2.793   0.449   7.886 -0.1408 -0.1070  0.1725
 5474SOL    HW127884   2.752   0.369   7.920 -2.1641  1.1172  0.5910
 5474SOL    HW227885   2.814   0.491   7.970  0.3880  1.0123 -0.5249
 5475SOL     OW27886   1.083   1.629   3.973  0.1133 -0.1248 -0.3362
 5475SOL    HW127887   1.172   1.612   4.003  1.6577  2.1101 -3.6366
 5475SOL    HW227888   1.093   1.628   3.877  2.1964 -1.7252 -0.1021
 5476SOL     OW27889   3.934   1.985  14.712 -0.0714 -0.1646 -0.2413
 5476SOL    HW127890   3.897   1.944  14.791  2.4796 -0.0749  0.9979
 5476SOL    HW227891   3.923   1.911  14.652 -2.0200 -0.1646  0.1120
 5477SOL     OW27892   1.517   0.425  15.506  0.4057  0.0951 -0.5255
 5477SOL    HW127893   1.586   0.462  15.561  0.5986  0.8410 -1.2900
 5477SOL    HW227894   1.521   0.492  15.439 -1.6944  1.4630  0.6869
 5478SOL     OW27895   0.274   1.941   3.966  0.2965  0.3750  0.1998
 5478SOL    HW127896   0.204   1.877   3.954  0.4374  0.1585  0.5256
 5478SOL    HW227897   0.221   2.008   4.011 -1.0167  0.0066 -0.8062
 5479SOL     OW27898   1.522   3.775   2.211  0.3494 -0.0397 -0.2711
 5479SOL    HW127899   1.606   3.750   2.248 -0.0005  0.2684  0.7186
 5479SOL    HW227900   1.512   3.704   2.147 -1.6966 -0.3365  0.3644
 5480SOL     OW27901   3.383   3.015  12.087  0.8058 -0.4576 -0.2505
 5480SOL    HW127902   3.461   3.071  12.093  0.9317 -0.8970  2.3817
 5480SOL    HW227903   3.408   2.969  12.007  2.6150 -1.6614  0.9828
 5481SOL     OW27904   4.616   3.010  10.641  0.0886  0.2814 -0.1507
 5481SOL    HW127905   4.622   3.098  10.605 -3.1671  0.6028  0.0787
 5481SOL    HW227906   4.636   2.958  10.563 -0.3460  0.3662 -0.3179
 5482SOL     OW27907   2.457   4.087   4.070  0.0963  0.5467  0.5219
 5482SOL    HW127908   2.377   4.036   4.055  1.5101 -1.7320  0.8138
 5482SOL    HW227909   2.433   4.171   4.030  0.3859  1.1514  1.6266
 5483SOL     OW27910   0.753   0.622   6.591 -0.2696  0.6038 -1.0611
 5483SOL    HW127911   0.791   0.689   6.534  3.3253  0.2885  0.9369
 5483SOL    HW227912   0.832   0.576   6.622 -0.3287  2.3582  1.6728
 5484SOL     OW27913   2.755   4.452  13.857  0.4271  0.5499  0.1425
 5484SOL    HW127914   2.698   4.446  13.934  0.2634  1.1071  0.0656
 5484SOL    HW227915   2.695   4.443  13.784  1.7764 -1.2306 -0.7355
 5485SOL     OW27916   3.573   4.175   8.433 -0.3769 -0.1425 -0.3536
 5485SOL    HW127917   3.560   4.210   8.521 -1.0468 -0.6779 -0.2333
 5485SOL    HW227918   3.531   4.089   8.441  1.1983 -0.7453  1.2873
 5486SOL     OW27919   2.537   1.063   4.317 -0.2501 -0.5982 -0.1522
 5486SOL    HW127920   2.596   1.137   4.334 -0.0375 -0.6747 -0.5582
 5486SOL    HW227921   2.592   1.006   4.264 -0.1938 -1.9428  1.3764
 5487SOL     OW27922   1.883   0.127   8.531 -0.0824 -0.2217  0.0753
 5487SOL    HW127923   1.969   0.087   8.515 -0.2042 -0.4774  0.0648
 5487SOL    HW227924   1.851   0.129   8.441 -0.1937 -0.3487  0.1120
 5488SOL     OW27925   2.467   3.391   3.971 -0.1054  0.6255  0.4050
 5488SOL    HW127926   2.372   3.378   3.978 -0.0592  0.5785  0.9939
 5488SOL    HW227927   2.490   3.380   3.879 -0.0039  1.5058  0.3239
 5489SOL     OW27928   3.894   3.535  17.193 -0.2560 -0.1154  0.3435
 5489SOL    HW127929   3.832   3.606  17.180  1.4068  1.6555  2.1457
 5489SOL    HW227930   3.936   3.532  17.107 -0.8088  1.9534  0.0029
 5490SOL     OW27931   3.142   0.497   7.287  0.6729  0.0827  0.5120
 5490SOL    HW127932   3.195   0.427   7.325 -2.3782 -2.7684 -0.4586
 5490SOL    HW227933   3.180   0.493   7.199  1.3424 -1.0702  0.8628
 5491SOL     OW27934   3.689   4.203   4.342  0.7651  0.0342  0.0236
 5491SOL    HW127935   3.765   4.193   4.284 -0.0875 -2.0011 -0.7549
 5491SOL    HW227936   3.619   4.178   4.281  0.6784 -0.9458  0.5268
 5492SOL     OW27937   2.479   2.488   7.632  0.2474 -0.5906  0.5474
 5492SOL    HW127938   2.572   2.477   7.609 -0.0017 -0.6403 -0.4263
 5492SOL    HW227939   2.444   2.410   7.589  0.7559 -1.4484  1.6953
 5493SOL     OW27940   2.816   1.537   5.414 -0.8113 -0.2324  0.1622
 5493SOL    HW127941   2.853   1.624   5.402  1.1590 -0.7039  2.8186
 5493SOL    HW227942   2.790   1.541   5.506 -1.0206  0.8184  0.0543
 5494SOL     OW27943   1.434   3.212   1.047  0.2819 -0.2737 -0.0522
 5494SOL    HW127944   1.399   3.296   1.019 -0.7433 -1.0270 -1.0272
 5494SOL    HW227945   1.529   3.226   1.047 -0.1182  2.4090 -1.4034
 5495SOL     OW27946   3.071   2.443   1.553  0.1681 -0.2289  0.2391
 5495SOL    HW127947   3.072   2.458   1.459 -0.8942 -0.5549  0.1739
 5495SOL    HW227948   3.149   2.388   1.556  0.8903  0.7802 -0.0049
 5496SOL     OW27949   2.448   2.350  15.193  0.2718  0.2667  0.1411
 5496SOL    HW127950   2.477   2.293  15.121  0.4306 -1.3305  1.4660
 5496SOL    HW227951   2.524   2.344  15.250 -0.9857 -1.4012  1.6353
 5497SOL     OW27952   4.150   0.934   9.927 -0.1610  1.1307  0.3810
 5497SOL    HW127953   4.129   1.024   9.951 -0.0207  1.2097  0.2013
 5497SOL    HW227954   4.102   0.886   9.995 -0.1075  1.6205  0.7677
 5498SOL     OW27955   1.977   0.251   7.479  0.3349 -0.2516  0.5169
 5498SOL    HW127956   2.028   0.276   7.402 -1.2942 -0.5396 -0.6516
 5498SOL    HW227957   1.992   0.321   7.542 -0.2569  1.3893 -1.1949
 5499SOL     OW27958   3.065   0.950   2.651 -0.1800  0.0016  0.1337
 5499SOL    HW127959   3.071   0.880   2.586 -1.9535  1.3011 -1.4528
 5499SOL    HW227960   3.001   1.016   2.623 -0.0945 -0.2772 -0.7100
 5500SOL     OW27961   3.157   4.624  11.052  0.4380  0.5867 -0.0539
 5500SOL    HW127962   3.108   4.650  10.974 -1.1601  0.3612  0.8653
 5500SOL    HW227963   3.212   4.702  11.063  1.1246  0.4315 -2.3275
 5501SOL     OW27964   0.356   2.502   6.736 -0.2052  0.2850 -0.0848
 5501SOL    HW127965   0.371   2.412   6.708 -0.0414  0.6045 -1.0246
 5501SOL    HW227966   0.291   2.503   6.806  0.5684  0.5421  0.6321
 5502SOL     OW27967   4.267   3.623   5.073 -0.8811 -0.3348 -0.4176
 5502SOL    HW127968   4.342   3.646   5.019  1.1762 -2.5840  1.4664
 5502SOL    HW227969   4.202   3.586   5.012 -2.2569 -0.1221  0.8993
 5503SOL     OW27970   4.330   3.078  14.748  0.4145  0.5330  0.2122
 5503SOL    HW127971   4.354   3.162  14.708 -0.0619  0.9868  0.8741
 5503SOL    HW227972   4.416   3.039  14.739  0.3799  0.2746  0.9681
 5504SOL     OW27973   4.588   1.022   1.586  0.2232  0.5287  0.3268
 5504SOL    HW127974   4.619   1.055   1.502  1.0022  0.6145  0.6487
 5504SOL    HW227975   4.496   1.008   1.563  0.5617 -0.1416 -0.5916
 5505SOL     OW27976   3.180   2.689   1.081  0.6707 -0.1734  0.0568
 5505SOL    HW127977   3.126   2.610   1.093  0.2972  0.1447  0.4530
 5505SOL    HW227978   3.203   2.713   1.171 -2.1728  0.4047  0.6439
 5506SOL     OW27979   4.073   4.136  15.870  0.0784  0.1294 -0.2740
 5506SOL    HW127980   3.982   4.115  15.850  0.4642 -0.4916 -1.3985
 5506SOL    HW227981   4.078   4.231  15.862  1.8858  0.0120 -0.6808
 5507SOL     OW27982   1.162   0.394  13.546 -0.4018  0.2996 -0.3870
 5507SOL    HW127983   1.197   0.444  13.472  1.0224 -0.0835  0.0272
 5507SOL    HW227984   1.193   0.309  13.516  1.1623  0.0202  1.9911
 5508SOL     OW27985   0.164   2.432   2.867 -0.3613  0.4155  0.0931
 5508SOL    HW127986   0.241   2.389   2.829 -0.0874  0.5729  0.4818
 5508SOL    HW227987   0.138   2.368   2.933  1.3234 -1.1129 -0.7173
 5509SOL     OW27988   3.275   0.404  10.973 -0.0614  0.0278 -0.1363
 5509SOL    HW127989   3.188   0.421  11.010  0.0157  2.8901 -1.3221
 5509SOL    HW227990   3.271   0.308  10.973 -2.0566  0.1163  0.9845
 5510SOL     OW27991   4.117   0.276   5.160 -0.7327  0.2509 -0.0040
 5510SOL    HW127992   4.122   0.191   5.117 -3.0674 -0.7004  1.5534
 5510SOL    HW227993   4.030   0.261   5.198  0.4098  0.1033  2.5622
 5511SOL     OW27994   4.414   2.261   2.419 -0.1309  0.1555  0.3407
 5511SOL    HW127995   4.374   2.305   2.494  0.2990  2.3002 -0.7073
 5511SOL    HW227996   4.341   2.281   2.360 -0.5530  1.2292  1.2380
 5512SOL     OW27997   0.243   2.066   6.582  0.2468  0.5353 -0.2959
 5512SOL    HW127998   0.265   2.079   6.675  3.4860 -1.3170 -0.7792
 5512SOL    HW227999   0.234   1.970   6.581  1.6444  0.3788  1.4923
 5513SOL     OW28000   4.022   1.050   0.917  0.2376  0.1312 -0.2537
 5513SOL    HW128001   3.990   1.020   0.832 -1.6984  0.5959  0.3076
 5513SOL    HW228002   4.090   0.990   0.945  1.1523  1.8187  1.1552
 5514SOL     OW28003   2.400   3.642   3.384 -0.0276 -0.3306 -0.1878
 5514SOL    HW128004   2.415   3.573   3.320 -0.1875  0.1448 -0.7322
 5514SOL    HW228005   2.446   3.721   3.354 -0.2223  0.4456  1.5510
 5515SOL     OW28006   3.331   1.403  10.977 -0.3691 -0.1003 -0.1649
 5515SOL    HW128007   3.237   1.387  10.986  0.1762 -3.6023 -0.6301
 5515SOL    HW228008   3.377   1.343  11.035 -0.8572 -0.0113  0.3174
 5516SOL     OW28009   1.213   1.366   4.353  0.2275  0.7854  0.0316
 5516SOL    HW128010   1.121   1.361   4.328  0.9101  1.1629 -2.5487
 5516SOL    HW228011   1.206   1.403   4.441 -1.7776  1.5506 -0.4526
 5517SOL     OW28012   0.794   3.632  16.852 -0.1260 -0.1678  0.3779
 5517SOL    HW128013   0.754   3.691  16.788 -0.1225  0.6578  1.1355
 5517SOL    HW228014   0.825   3.704  16.907 -0.6968  0.6272 -0.3398
 5518SOL     OW28015   0.750   1.357  16.947  0.5690  0.4234  0.2205
 5518SOL    HW128016   0.707   1.329  16.866  3.0600 -1.2771 -0.4856
 5518SOL    HW228017   0.710   1.308  17.019  0.5898 -1.1090 -0.8142
 5519SOL     OW28018   3.607   4.614  11.078  0.6678 -0.0573 -0.1182
 5519SOL    HW128019   3.606   4.683  11.145  1.1760 -1.2543  1.1199
 5519SOL    HW228020   3.648   4.668  11.011  0.0565 -2.2311 -2.2168
 5520SOL     OW28021   2.706   3.138   4.616  0.0511  0.1054  0.0110
 5520SOL    HW128022   2.789   3.103   4.646 -1.3796 -3.1581  0.1773
 5520SOL    HW228023   2.696   3.216   4.671 -0.7629 -0.6533  0.9435
 5521SOL     OW28024   3.483   3.963   4.298 -1.0410 -0.1035 -0.3981
 5521SOL    HW128025   3.408   3.989   4.350 -2.4674 -1.0869 -1.9459
 5521SOL    HW228026   3.470   4.028   4.229  0.4398 -0.3141 -0.8731
 5522SOL     OW28027   1.859   1.383   0.885 -0.1963  0.2872  0.3072
 5522SOL    HW128028   1.902   1.335   0.814  0.5794 -0.2950  1.1795
 5522SOL    HW228029   1.788   1.326   0.917  0.7179 -0.6431  0.6667
 5523SOL     OW28030   3.241   0.509   7.023 -0.3016 -0.8460 -0.7560
 5523SOL    HW128031   3.255   0.593   6.979  3.5595 -1.1367 -0.0650
 5523SOL    HW228032   3.333   0.483   7.020  0.1232  0.8992 -2.5367
 5524SOL     OW28033   1.313   0.307   8.992 -0.2576 -0.3471 -0.1981
 5524SOL    HW128034   1.247   0.360   8.946  2.0406  0.2552 -2.8117
 5524SOL    HW228035   1.372   0.306   8.917 -0.1196  0.3203 -0.1011
 5525SOL     OW28036   0.823   4.232   2.982  0.1863 -0.6241 -0.4465
 5525SOL    HW128037   0.782   4.165   3.036 -1.3287  0.0520 -0.7478
 5525SOL    HW228038   0.900   4.184   2.953  1.7891  1.7175 -0.0673
 5526SOL     OW28039   0.295   4.405   4.684  0.4662 -0.2755 -0.5554
 5526SOL    HW128040   0.261   4.315   4.691 -2.4126  0.8079 -0.5170
 5526SOL    HW228041   0.260   4.430   4.599  0.4556  1.2389 -0.1002
 5527SOL     OW28042   0.002   0.721  16.072 -0.1013  0.4045  0.4938
 5527SOL    HW128043   0.027   0.812  16.054 -2.9876  1.0464 -0.3128
 5527SOL    HW228044   4.672   0.704  15.995  0.0612  1.7936  0.0710
 5528SOL     OW28045   3.569   3.919   3.436  0.4007 -0.3508 -0.2404
 5528SOL    HW128046   3.518   3.921   3.517  0.9707 -3.6834  0.1641
 5528SOL    HW228047   3.594   3.827   3.436  1.1071 -0.1633  0.2759
 5529SOL     OW28048   4.205   1.199  17.094  0.2779 -0.1846  0.6115
 5529SOL    HW128049   4.211   1.250  17.174 -1.4447 -2.7453  2.4043
 5529SOL    HW228050   4.286   1.149  17.081  0.6239  1.0269 -1.8545
 5530SOL     OW28051   4.598   0.332   3.677  0.6019  0.2535  1.1631
 5530SOL    HW128052   4.613   0.253   3.730  1.6582 -1.1509 -1.2265
 5530SOL    HW228053   4.688   0.362   3.669  0.3269  0.8556  0.3264
 5531SOL     OW28054   4.364   1.829  12.715 -0.2723 -0.3154 -0.0241
 5531SOL    HW128055   4.385   1.740  12.743  0.7205 -1.1301 -3.3858
 5531SOL    HW228056   4.271   1.814  12.733 -0.7071  0.3703 -1.7335
 5532SOL     OW28057   1.806   4.062  10.234  0.1102  0.8317 -0.4037
 5532SOL    HW128058   1.794   3.969  10.219 -0.4393  0.7924  0.2906
 5532SOL    HW228059   1.834   4.055  10.325 -1.6572 -0.4468  0.0428
 5533SOL     OW28060   1.017   0.882   0.956 -0.4676  0.2931  0.3425
 5533SOL    HW128061   1.105   0.851   0.982 -2.5737 -3.5065  3.0268
 5533SOL    HW228062   0.971   0.798   0.959  1.0690 -0.5308  1.1738
 5534SOL     OW28063   3.743   4.298   6.315 -0.0382  0.1758 -0.4563
 5534SOL    HW128064   3.657   4.332   6.340  0.1109  1.1627 -1.2609
 5534SOL    HW228065   3.763   4.260   6.400  0.8467 -1.5085 -1.4133
 5535SOL     OW28066   1.856   2.492   8.716  0.0494  0.4269 -0.3396
 5535SOL    HW128067   1.901   2.411   8.742 -0.6781 -0.5324 -2.0924
 5535SOL    HW228068   1.797   2.504   8.791 -0.0724 -0.0212 -0.3596
 5536SOL     OW28069   4.304   3.500   5.323  0.6584 -0.2267 -0.7316
 5536SOL    HW128070   4.279   3.531   5.236  1.0168 -1.0369 -1.1196
 5536SOL    HW228071   4.399   3.510   5.319  0.7378 -0.5053  0.4151
 5537SOL     OW28072   4.264   2.094   2.013 -0.0639  0.3238 -0.3646
 5537SOL    HW128073   4.317   2.033   1.961 -0.6993  0.2853 -0.9660
 5537SOL    HW228074   4.183   2.100   1.962 -0.7709  0.6902  0.7957
 5538SOL     OW28075   3.442   0.921   4.600  0.2598  0.3805 -0.3420
 5538SOL    HW128076   3.401   1.001   4.567 -1.6645 -0.5406 -0.1717
 5538SOL    HW228077   3.392   0.905   4.680 -0.2284  2.1059 -0.3047
 5539SOL     OW28078   4.565   0.478   9.544 -0.7056  0.1199 -0.1864
 5539SOL    HW128079   4.550   0.401   9.599  0.7809  0.3650  0.5598
 5539SOL    HW228080   4.617   0.435   9.476  1.1188  2.5803 -0.3400
 5540SOL     OW28081   1.563   1.209   4.731  0.1581 -0.1782 -0.6623
 5540SOL    HW128082   1.636   1.210   4.670 -0.9298  1.6347 -1.9516
 5540SOL    HW228083   1.521   1.291   4.702 -0.4566 -0.7274 -1.3123
 5541SOL     OW28084   3.003   3.880   7.480  0.1570 -0.0303  0.2002
 5541SOL    HW128085   3.012   3.830   7.399 -3.4119  2.4450 -1.7283
 5541SOL    HW228086   3.061   3.829   7.537 -1.1770  0.1805  1.7281
 5542SOL     OW28087   3.573   2.552  15.938 -0.4868 -0.4888  0.5362
 5542SOL    HW128088   3.562   2.646  15.952  1.0882  0.2768 -3.2004
 5542SOL    HW228089   3.654   2.556  15.887 -2.4274  0.7519 -2.5106
 5543SOL     OW28090   4.633   4.405   8.546 -0.4161  0.6208 -0.3713
 5543SOL    HW128091   4.719   4.438   8.521 -0.1584  0.5533  0.4192
 5543SOL    HW228092   4.585   4.418   8.464  0.4362  2.0397 -0.6432
 5544SOL     OW28093   2.165   0.440   6.798  0.0575  0.0086  0.9762
 5544SOL    HW128094   2.194   0.353   6.825  0.8010  0.3490  1.2821
 5544SOL    HW228095   2.091   0.421   6.740  0.0996  0.2141  0.8532
 5545SOL     OW28096   3.649   2.327   1.556  0.0343  0.0306 -0.2627
 5545SOL    HW128097   3.658   2.349   1.648  1.1098 -1.7883  0.0724
 5545SOL    HW228098   3.692   2.242   1.561 -0.6662 -0.1385  2.9215
 5546SOL     OW28099   1.400   2.556  10.690  0.0685 -0.0646  0.3444
 5546SOL    HW128100   1.376   2.629  10.747  1.9290  2.9044 -2.5944
 5546SOL    HW228101   1.413   2.487  10.755 -0.8784 -0.3090  0.2752
 5547SOL     OW28102   3.087   0.840   5.511 -0.3602 -0.3574  0.0832
 5547SOL    HW128103   3.095   0.767   5.573 -2.5033 -0.2788  0.4332
 5547SOL    HW228104   3.009   0.883   5.545  0.5277  1.6219 -0.3753
 5548SOL     OW28105   3.574   0.216  15.753  0.3573 -0.2069 -0.8587
 5548SOL    HW128106   3.618   0.288  15.706  0.3651 -0.5542 -1.3862
 5548SOL    HW228107   3.522   0.185  15.680  0.9300  1.5503 -2.0336
 5549SOL     OW28108   2.052   2.880   6.893 -0.2185 -0.3345 -0.7988
 5549SOL    HW128109   2.066   2.870   6.987  0.4011 -0.3735 -0.9002
 5549SOL    HW228110   2.137   2.849   6.862 -0.2662  0.7465 -2.0301
 5550SOL     OW28111   1.265   2.707   8.551  0.0929  0.3569  0.2054
 5550SOL    HW128112   1.272   2.618   8.517  1.3611 -0.7549  3.4074
 5550SOL    HW228113   1.206   2.742   8.484 -0.7782  0.7453  1.1867
 5551SOL     OW28114   0.646   2.616   3.868 -0.1717 -0.3325 -1.0107
 5551SOL    HW128115   0.632   2.640   3.777  0.9862 -1.0175 -1.3706
 5551SOL    HW228116   0.610   2.527   3.878 -0.3209 -0.2450 -0.7625
 5552SOL     OW28117   1.596   1.030   5.121 -0.1555 -0.4708  0.1535
 5552SOL    HW128118   1.637   0.968   5.060 -0.7072 -0.8440  0.1688
 5552SOL    HW228119   1.552   1.092   5.063 -1.8018 -1.2123  0.6117
 5553SOL     OW28120   1.023   3.947   0.793 -0.0192  0.3370 -0.0626
 5553SOL    HW128121   0.990   3.858   0.803  1.7126 -0.0451  2.1990
 5553SOL    HW228122   1.084   3.956   0.866 -1.5586  0.6392  1.2006
 5554SOL     OW28123   3.834   4.008   2.428  0.4578 -0.1218  0.6110
 5554SOL    HW128124   3.872   4.091   2.456 -1.8659  0.0416  3.2304
 5554SOL    HW228125   3.870   3.994   2.341 -1.3232 -0.5740 -0.0455
 5555SOL     OW28126   0.388   0.567   3.343 -0.4699 -0.1202 -0.3902
 5555SOL    HW128127   0.442   0.633   3.301  0.7907 -0.1275  1.2262
 5555SOL    HW228128   0.388   0.602   3.432 -0.8678  0.6069 -0.6760
 5556SOL     OW28129   2.479   1.488   6.260  0.2803  0.1796  0.4280
 5556SOL    HW128130   2.405   1.512   6.204 -1.0809 -3.0798  0.8220
 5556SOL    HW228131   2.485   1.567   6.312  0.3965  0.4984 -0.0712
 5557SOL     OW28132   3.201   2.414  17.380 -0.1530  0.4538  0.2388
 5557SOL    HW128133   3.144   2.351  17.336  1.0257 -0.9997  0.8140
 5557SOL    HW228134   3.171   2.501  17.351 -2.4463 -0.1760  0.7216
 5558SOL     OW28135   4.352   3.069   7.420 -0.0419 -0.2049 -0.2706
 5558SOL    HW128136   4.381   3.062   7.511  2.2352  0.0289 -0.9746
 5558SOL    HW228137   4.268   3.113   7.434  0.2266  0.8516 -1.9724
 5559SOL     OW28138   0.354   4.031   8.071  0.1368  0.1750  0.0174
 5559SOL    HW128139   0.373   4.124   8.079  0.8347  0.2407 -2.3876
 5559SOL    HW228140   0.263   4.032   8.102 -0.4246  0.4063 -1.6369
 5560SOL     OW28141   2.431   0.760   4.266  0.0555 -0.1891  0.1644
 5560SOL    HW128142   2.508   0.703   4.262  0.0871 -0.2327  1.2395
 5560SOL    HW228143   2.465   0.835   4.315  0.0411  0.8388 -1.4028
 5561SOL     OW28144   0.325   2.216   8.382 -0.7027 -0.0638  0.4356
 5561SOL    HW128145   0.376   2.142   8.348  0.1518  0.6640  0.1345
 5561SOL    HW228146   0.403   2.267   8.404  0.2323 -1.8312  1.1945
 5562SOL     OW28147   1.277   3.596   0.691 -0.0330  0.0735 -0.2670
 5562SOL    HW128148   1.191   3.576   0.652 -0.5738 -1.3282  1.6075
 5562SOL    HW228149   1.338   3.596   0.617 -0.2225 -1.5537 -0.4342
 5563SOL     OW28150   3.223   2.065  11.795  0.0606  0.1302 -0.5455
 5563SOL    HW128151   3.204   2.078  11.702  3.2330 -1.0080 -1.3730
 5563SOL    HW228152   3.251   1.975  11.812  0.5612  0.4089  0.1387
 5564SOL     OW28153   2.762   3.523   3.270  0.0930  0.5407 -0.0515
 5564SOL    HW128154   2.844   3.570   3.251  0.4592 -0.5919 -1.2680
 5564SOL    HW228155   2.707   3.571   3.209 -0.6477  0.4162  0.5253
 5565SOL     OW28156   2.540   0.253   6.527  0.2285  0.2919  0.0921
 5565SOL    HW128157   2.577   0.243   6.439  2.5679 -1.5240  1.2801
 5565SOL    HW228158   2.625   0.272   6.566  1.8653 -5.5195 -0.6476
 5566SOL     OW28159   0.455   4.528  11.909 -0.1408  0.4126 -0.2515
 5566SOL    HW128160   0.456   4.454  11.969 -0.6570  1.8100  1.5127
 5566SOL    HW228161   0.405   4.585  11.968 -1.1457 -1.1534  0.3976
 5567SOL     OW28162   4.396   2.034   3.590 -0.2540  0.3490  0.3732
 5567SOL    HW128163   4.384   1.969   3.659 -1.3541  1.7838  1.5131
 5567SOL    HW228164   4.350   2.109   3.626  1.0883  0.8307  1.0910
 5568SOL     OW28165   2.279   4.234   8.860 -0.1620 -0.3955 -0.0759
 5568SOL    HW128166   2.253   4.255   8.950  2.1356  0.6401  0.3414
 5568SOL    HW228167   2.336   4.160   8.875 -1.5345 -1.2699  0.8610
 5569SOL     OW28168   3.894   0.319   6.918  0.3292  0.0981  0.1624
 5569SOL    HW128169   3.871   0.239   6.965  0.9016 -1.3400 -2.0262
 5569SOL    HW228170   3.916   0.384   6.985 -1.2342  0.5073  0.2681
 5570SOL     OW28171   3.427   4.308   1.419  0.9347 -0.0514  0.3946
 5570SOL    HW128172   3.453   4.249   1.348  1.0148 -3.4055  3.1959
 5570SOL    HW228173   3.492   4.289   1.487  3.0736  1.3088 -1.2526
 5571SOL     OW28174   1.402   3.732   6.755 -0.5695 -0.0201 -0.1674
 5571SOL    HW128175   1.358   3.742   6.671  0.3638  0.2435 -0.6286
 5571SOL    HW228176   1.497   3.744   6.744 -0.6046 -1.7309 -2.4240
 5572SOL     OW28177   3.233   2.212   7.415 -0.0683  0.2436  0.1151
 5572SOL    HW128178   3.174   2.187   7.486  0.1446 -0.5466  0.0151
 5572SOL    HW228179   3.322   2.219   7.450  1.1071  0.1666 -2.9081
 5573SOL     OW28180   2.244   3.995  13.453 -0.2316 -0.4200 -0.5628
 5573SOL    HW128181   2.300   3.950  13.390  0.6119 -0.9450  0.5547
 5573SOL    HW228182   2.253   4.090  13.442  1.2997 -0.6706 -1.4881
 5574SOL     OW28183   2.931   2.419   9.623  0.8129  0.1954 -0.2213
 5574SOL    HW128184   2.842   2.404   9.592  1.5609  2.3467 -3.4193
 5574SOL    HW228185   2.914   2.465   9.705  0.0561 -0.0897 -0.2231
 5575SOL     OW28186   4.559   4.419   1.844  0.3927  0.3833  0.1745
 5575SOL    HW128187   4.643   4.441   1.884  1.6877  0.6965 -2.6863
 5575SOL    HW228188   4.596   4.416   1.755  0.4668 -0.5407  0.2422
 5576SOL     OW28189   4.612   3.157   3.904 -0.1756 -0.1984  0.2904
 5576SOL    HW128190   4.645   3.236   3.948 -0.3345  0.3034 -0.4939
 5576SOL    HW228191   4.521   3.152   3.933 -0.9457  1.1117 -1.8684
 5577SOL     OW28192   2.257   1.185  12.590  0.1213 -0.8811  0.5981
 5577SOL    HW128193   2.301   1.123  12.649  2.7243  0.9420  0.6088
 5577SOL    HW228194   2.199   1.223  12.656 -1.1959 -0.1715 -0.9789
 5578SOL     OW28195   1.190   3.923   8.165  0.2717 -0.2604 -0.7572
 5578SOL    HW128196   1.225   3.839   8.195 -0.0465 -0.4611 -0.9439
 5578SOL    HW228197   1.199   3.975   8.245  1.5907 -0.7253 -0.6176
 5579SOL     OW28198   1.902   0.155   2.523 -0.2610 -0.0495  0.2751
 5579SOL    HW128199   1.919   0.067   2.490  0.2966  0.2012 -0.1066
 5579SOL    HW228200   1.855   0.132   2.603 -0.1647  0.2911  0.4301
 5580SOL     OW28201   3.435   0.652   2.204  0.2928  0.6823  0.0383
 5580SOL    HW128202   3.484   0.708   2.144 -1.2555  0.5304 -1.3657
 5580SOL    HW228203   3.493   0.641   2.280 -0.0775  1.5708  0.4453
 5581SOL     OW28204   4.186   2.278  14.978  0.0477 -0.4391  0.1071
 5581SOL    HW128205   4.188   2.337  15.053 -1.6494 -0.5771  0.2630
 5581SOL    HW228206   4.103   2.308  14.939  0.1710 -1.0816 -0.6683
 5582SOL     OW28207   0.603   2.510  13.821 -0.2049 -0.1823  0.3904
 5582SOL    HW128208   0.622   2.603  13.813 -1.7918  0.0810 -0.4007
 5582SOL    HW228209   0.690   2.469  13.821 -0.1782 -0.1269  1.5653
 5583SOL     OW28210   2.937   1.805   7.868 -0.1521  0.5792 -0.1039
 5583SOL    HW128211   3.000   1.780   7.936 -1.5272 -2.4907  0.0539
 5583SOL    HW228212   2.855   1.759   7.887 -2.6650  5.9440  1.8632
 5584SOL     OW28213   0.745   2.164   3.058  0.6072  0.2298  0.7312
 5584SOL    HW128214   0.720   2.072   3.049 -1.6317  0.6522  2.7660
 5584SOL    HW228215   0.694   2.200   3.130  0.9254  0.6690  0.7396
 5585SOL     OW28216   3.267   4.330   2.808  0.7826 -0.5339 -0.1523
 5585SOL    HW128217   3.264   4.235   2.819  0.4762 -0.3657  1.1872
 5585SOL    HW228218   3.253   4.341   2.714 -1.2053 -0.7536  0.1156
 5586SOL     OW28219   2.922   4.576   6.601 -0.0542  0.4336  0.2501
 5586SOL    HW128220   2.982   4.501   6.601  1.1270  1.3703 -1.4411
 5586SOL    HW228221   2.934   4.621   6.685  0.6700 -0.1570  0.4614
 5587SOL     OW28222   2.955   4.682   8.011  0.2831 -0.2505 -0.3395
 5587SOL    HW128223   2.922   0.000   8.090 -2.1803 -0.8781 -1.0544
 5587SOL    HW228224   2.909   4.599   8.020  0.8367 -0.6318 -0.9937
 5588SOL     OW28225   1.188   1.392  10.390  0.3210  0.3491  0.1878
 5588SOL    HW128226   1.176   1.484  10.414 -0.7347  0.4495 -0.6871
 5588SOL    HW228227   1.146   1.395  10.303  0.8986  0.8439 -0.0698
 5589SOL     OW28228   1.726   3.001  11.309 -0.1665  0.0900  0.4999
 5589SOL    HW128229   1.793   2.943  11.274 -0.3588  0.7260 -0.9204
 5589SOL    HW228230   1.667   2.931  11.336  1.1074 -0.8783  0.7736
 5590SOL     OW28231   1.176   1.670  10.253 -0.0060  0.7628 -0.0275
 5590SOL    HW128232   1.266   1.662  10.285 -0.4868  0.8550  1.3106
 5590SOL    HW228233   1.182   1.706  10.164  0.6913  0.0675 -0.2723
 5591SOL     OW28234   0.394   2.596  10.581 -0.1164  0.1653 -0.0001
 5591SOL    HW128235   0.387   2.673  10.637  3.1451  0.4719 -0.0137
 5591SOL    HW228236   0.441   2.532  10.635  1.1977  0.4712 -0.7756
 5592SOL     OW28237   2.950   3.978  14.576  0.4945  0.1305 -0.0660
 5592SOL    HW128238   2.969   4.054  14.631  1.4916 -1.4827  1.8211
 5592SOL    HW228239   3.021   3.982  14.511  0.3912 -0.1454 -0.1949
 5593SOL     OW28240   0.863   1.123   5.138  0.1181  0.6627  0.1126
 5593SOL    HW128241   0.883   1.087   5.224  1.8729 -0.1801 -0.6356
 5593SOL    HW228242   0.852   1.216   5.157 -2.5555  0.3536  0.0758
 5594SOL     OW28243   0.107   0.275   6.162  0.0981  0.0913  0.2975
 5594SOL    HW128244   0.061   0.250   6.082 -2.3697 -1.7575  2.2816
 5594SOL    HW228245   0.073   0.364   6.173  0.1637 -0.0356  1.5246
 5595SOL     OW28246   1.037   3.389   6.340  0.3817 -0.1275  0.6230
 5595SOL    HW128247   1.062   3.406   6.249 -0.1462  1.8973  0.8546
 5595SOL    HW228248   1.006   3.475   6.368 -1.3014  0.3175 -2.5965
 5596SOL     OW28249   2.246   3.301   7.040  0.4487 -0.0943  0.4975
 5596SOL    HW128250   2.215   3.389   7.061 -2.7568 -0.5163 -2.5629
 5596SOL    HW228251   2.192   3.281   6.964  0.0253  0.7409  0.5760
 5597SOL     OW28252   2.803   3.129   5.948 -0.2572  0.4588 -0.3667
 5597SOL    HW128253   2.833   3.116   6.038 -0.1994 -1.8145 -0.6985
 5597SOL    HW228254   2.711   3.155   5.953  0.4349  2.8731 -0.1063
 5598SOL     OW28255   4.176   1.154   1.521 -0.0788  0.1082 -0.3460
 5598SOL    HW128256   4.165   1.206   1.600  0.6548 -1.0270  0.5113
 5598SOL    HW228257   4.239   1.206   1.471 -1.6497  1.9245 -0.4034
 5599SOL     OW28258   1.322   4.550  10.686  0.3541 -0.3220 -0.1215
 5599SOL    HW128259   1.407   4.511  10.710  1.3679  1.5551 -0.6871
 5599SOL    HW228260   1.264   4.529  10.759  0.2965 -0.5871 -0.2433
 5600SOL     OW28261   1.280   1.237   9.481 -0.2990 -0.1357 -0.6132
 5600SOL    HW128262   1.308   1.328   9.481 -1.4832  0.2196 -0.2763
 5600SOL    HW228263   1.351   1.199   9.429  0.8373  1.9157 -0.5536
 5601SOL     OW28264   3.696   2.141   4.504 -0.6406  0.1441 -0.2310
 5601SOL    HW128265   3.723   2.214   4.449 -1.4127 -0.7970 -1.8619
 5601SOL    HW228266   3.775   2.136   4.558  1.1529 -0.8590 -2.9418
 5602SOL     OW28267   3.878   0.553   1.914 -0.3191 -0.2369 -0.0725
 5602SOL    HW128268   3.845   0.633   1.874 -0.2767 -0.3138 -0.2605
 5602SOL    HW228269   3.972   0.558   1.899 -0.4120  3.9931  0.8884
 5603SOL     OW28270   3.974   0.472  15.473 -0.0792  0.5231 -0.1931
 5603SOL    HW128271   4.012   0.491  15.559  3.5855 -1.1471 -1.4143
 5603SOL    HW228272   3.883   0.468  15.501 -0.2864 -0.1499 -0.9704
 5604SOL     OW28273   0.248   3.171   8.004  0.3105 -0.2661  0.1253
 5604SOL    HW128274   0.214   3.086   8.032  0.1022  0.7699  3.0361
 5604SOL    HW228275   0.341   3.159   8.024  0.2429  1.3231  1.4063
 5605SOL     OW28276   3.337   1.927  15.799  0.0653 -0.1789  0.0089
 5605SOL    HW128277   3.289   1.948  15.719 -0.7596 -0.3356  0.4703
 5605SOL    HW228278   3.429   1.923  15.771  0.7482 -1.0977  2.3889
 5606SOL     OW28279   3.887   3.024   6.257  0.3676  0.5360  0.2618
 5606SOL    HW128280   3.947   3.082   6.210  1.8969 -0.8533  0.5173
 5606SOL    HW228281   3.932   3.014   6.341 -2.3358 -1.2739  1.5026
 5607SOL     OW28282   4.664   1.805   0.957 -0.4357 -0.2423 -0.0735
 5607SOL    HW128283   0.010   1.794   1.021  0.3294  1.7495 -0.5799
 5607SOL    HW228284   4.644   1.898   0.953 -0.0680 -0.1157  1.1724
 5608SOL     OW28285   1.961   3.121  11.735  0.1838 -0.0751 -0.3306
 5608SOL    HW128286   1.968   3.188  11.667  0.2423  0.2673  0.0112
 5608SOL    HW228287   1.897   3.059  11.701  1.7996 -0.6072 -2.4416
 5609SOL     OW28288   2.456   2.793  14.282  0.3811  0.2233  0.6532
 5609SOL    HW128289   2.539   2.804  14.328  1.0439 -2.8152  0.1709
 5609SOL    HW228290   2.463   2.874  14.230 -4.1220  0.0197 -0.2357
 5610SOL     OW28291   2.281   2.396   6.252 -0.4759 -0.1848 -0.0492
 5610SOL    HW128292   2.276   2.455   6.328  0.1479  0.9279 -0.8757
 5610SOL    HW228293   2.237   2.453   6.189 -0.3382  0.6640  0.6230
 5611SOL     OW28294   3.091   1.861   1.977 -0.5592  0.3636 -0.2774
 5611SOL    HW128295   3.162   1.864   1.913 -0.1963  0.2316  0.1216
 5611SOL    HW228296   3.129   1.914   2.047 -1.8348 -1.9985  2.1909
 5612SOL     OW28297   1.312   4.013   1.648 -0.0707  0.4357  0.3234
 5612SOL    HW128298   1.232   4.049   1.686  0.6733  0.8383  1.5188
 5612SOL    HW228299   1.365   4.011   1.728  1.9794  0.3440 -1.0397
 5613SOL     OW28300   3.800   3.845  10.122 -0.0619 -0.1060  0.0637
 5613SOL    HW128301   3.713   3.814  10.149 -0.0604  1.1655  1.4957
 5613SOL    HW228302   3.844   3.798  10.192  0.3916 -0.6954 -0.6256
 5614SOL     OW28303   2.978   2.219   7.175 -0.2142 -0.2158 -0.1488
 5614SOL    HW128304   2.937   2.153   7.118  1.2265 -0.9205 -0.3610
 5614SOL    HW228305   3.043   2.170   7.225  1.4463  1.6706 -0.4762
 5615SOL     OW28306   3.147   1.320   2.951  0.3283  0.2187  0.2401
 5615SOL    HW128307   3.237   1.327   2.983  0.8069 -1.8083 -0.6249
 5615SOL    HW228308   3.131   1.227   2.971 -0.8658  0.0509 -1.5143
 5616SOL     OW28309   3.409   0.475  16.901  0.8593  0.3398  0.3350
 5616SOL    HW128310   3.372   0.395  16.938 -0.5278  0.4074 -0.8765
 5616SOL    HW228311   3.344   0.539  16.931  2.4370  0.5304  3.3512
 5617SOL     OW28312   1.759   0.267   7.118 -0.2671 -0.0212  0.1259
 5617SOL    HW128313   1.721   0.182   7.097  1.4159 -0.1353 -2.5241
 5617SOL    HW228314   1.770   0.304   7.030 -0.2003  0.6210  0.4039
 5618SOL     OW28315   4.331   2.724   7.469 -0.1925  0.1446  0.1335
 5618SOL    HW128316   4.308   2.679   7.388 -1.3393 -0.6125  0.8872
 5618SOL    HW228317   4.360   2.641   7.507 -0.0362 -0.2302 -0.8028
 5619SOL     OW28318   0.420   3.165   3.384 -0.3002  0.2260  0.7718
 5619SOL    HW128319   0.362   3.218   3.329  2.0710  0.6456 -1.3457
 5619SOL    HW228320   0.384   3.187   3.470 -0.0854 -2.6304  1.5792
 5620SOL     OW28321   0.233   3.558   4.394 -0.2131  0.0928  0.1709
 5620SOL    HW128322   0.204   3.604   4.473 -1.9386  0.2517 -0.5464
 5620SOL    HW228323   0.159   3.560   4.333  1.4813 -1.8862 -1.9437
 5621SOL     OW28324   1.330   0.810  13.213 -0.2496 -0.3983 -0.2599
 5621SOL    HW128325   1.288   0.893  13.188  0.2970  0.3992  1.4664
 5621SOL    HW228326   1.359   0.835  13.301 -1.8332  0.0317  0.1537
 5622SOL     OW28327   1.028   2.481   0.905 -0.7236 -0.3353 -0.2149
 5622SOL    HW128328   1.030   2.516   0.816 -2.1512 -1.1012 -0.5464
 5622SOL    HW228329   0.992   2.393   0.896  3.6671 -2.0692 -1.0046
 5623SOL     OW28330   3.232   2.369   1.907 -0.0864 -0.0747  0.5439
 5623SOL    HW128331   3.149   2.335   1.874 -0.8919  2.9884 -0.5312
 5623SOL    HW228332   3.262   2.426   1.836  0.5243 -1.6651 -0.4640
 5624SOL     OW28333   1.047   3.490  17.151  0.0098 -0.0814 -0.4227
 5624SOL    HW128334   1.027   3.580  17.176 -0.0789  0.5746 -2.8389
 5624SOL    HW228335   1.121   3.462  17.204  0.0348  0.3936 -0.2124
 5625SOL     OW28336   1.475   2.633   5.075  0.4656  0.2604  0.6510
 5625SOL    HW128337   1.483   2.587   4.991  1.6374 -0.4414  1.1510
 5625SOL    HW228338   1.537   2.581   5.126  0.2439 -2.2689 -1.6471
 5626SOL     OW28339   0.341   2.831   0.690 -0.8128 -0.4149 -0.3040
 5626SOL    HW128340   0.307   2.900   0.747  2.4633  0.7875  0.1884
 5626SOL    HW228341   0.256   2.788   0.676  0.6388 -2.5075 -2.6804
 5627SOL     OW28342   4.062   1.307   7.305  0.0610  0.7370  0.1496
 5627SOL    HW128343   4.046   1.385   7.252 -0.0280  0.5794 -0.0541
 5627SOL    HW228344   4.128   1.339   7.366  0.4650 -1.7578  1.0078
 5628SOL     OW28345   0.169   4.297   5.150  0.1686  0.0233  0.1715
 5628SOL    HW128346   0.090   4.346   5.129 -0.5016 -0.9441  0.4073
 5628SOL    HW228347   0.231   4.370   5.144 -0.1218  0.4381  2.1381
 5629SOL     OW28348   0.059   2.737  10.072  0.1004 -0.3959  0.7209
 5629SOL    HW128349   4.721   2.669  10.040  0.2778  0.3907 -1.3028
 5629SOL    HW228350   4.719   2.800  10.106 -1.3041 -0.8577 -0.9644
 5630SOL     OW28351   1.620   0.441  10.245 -0.3568  0.4567  0.1910
 5630SOL    HW128352   1.671   0.361  10.234 -0.9156  0.1031  0.1744
 5630SOL    HW228353   1.592   0.425  10.335 -0.3169  1.7650  0.4427
 5631SOL     OW28354   0.254   4.565   3.961  0.2745 -0.1636 -0.6617
 5631SOL    HW128355   0.177   4.567   3.903  0.4028 -0.0832 -0.8292
 5631SOL    HW228356   0.313   4.626   3.916 -0.9165  0.2529 -1.6614
 5632SOL     OW28357   3.191   4.352   4.413  0.6208 -0.0586  0.4592
 5632SOL    HW128358   3.177   4.426   4.473 -0.3882  1.2879 -1.4239
 5632SOL    HW228359   3.247   4.403   4.354 -0.0595  0.4715  0.2679
 5633SOL     OW28360   2.524   4.348   4.757  0.3554 -0.1253  0.0668
 5633SOL    HW128361   2.559   4.427   4.716 -0.4031  0.0795 -0.1936
 5633SOL    HW228362   2.451   4.318   4.701 -0.1052  0.3985  0.3861
 5634SOL     OW28363   1.442   4.236  14.810 -0.0672  0.1123 -0.6202
 5634SOL    HW128364   1.523   4.196  14.841  0.6718  2.5150  0.5619
 5634SOL    HW228365   1.459   4.230  14.716  2.2062 -0.1669 -0.1871
 5635SOL     OW28366   4.622   1.592   2.830  0.1835 -0.1562 -0.2524
 5635SOL    HW128367   4.585   1.504   2.823  1.3219 -0.5030 -2.0507
 5635SOL    HW228368   4.551   1.652   2.811 -2.1849 -2.3885  1.5173
 5636SOL     OW28369   0.768   0.243   4.149 -0.1207  0.4878 -0.3484
 5636SOL    HW128370   0.768   0.199   4.234  0.2676  2.9881  0.9394
 5636SOL    HW228371   0.760   0.332   4.184 -0.9592 -0.5942  2.2118
 5637SOL     OW28372   3.088   2.060   9.275  0.2936  0.4597  0.0727
 5637SOL    HW128373   3.118   2.122   9.209  0.0735 -1.5495 -1.9353
 5637SOL    HW228374   3.173   2.024   9.298  1.2191  2.0413 -0.9198
 5638SOL     OW28375   1.631   2.267  14.889  0.4453  0.0894 -0.6269
 5638SOL    HW128376   1.570   2.325  14.843 -0.7895  0.8224  1.9212
 5638SOL    HW228377   1.628   2.196  14.824  1.1128  0.0528 -0.6115
 5639SOL     OW28378   1.713   1.983   4.716  0.1885 -0.0505 -0.3691
 5639SOL    HW128379   1.735   1.908   4.660  0.0944 -0.4708  0.1550
 5639SOL    HW228380   1.782   2.045   4.694  1.2916 -1.6066 -1.3521
 5640SOL     OW28381   3.785   1.704   4.051  0.6190  0.2325 -0.1890
 5640SOL    HW128382   3.872   1.677   4.080 -0.2488 -3.4610 -1.0093
 5640SOL    HW228383   3.797   1.795   4.025  1.1913 -0.4918 -2.3915
 5641SOL     OW28384   4.010   2.081  13.200  0.1501  0.0910 -0.0192
 5641SOL    HW128385   3.957   2.151  13.238  0.4399  0.3590 -0.1042
 5641SOL    HW228386   4.011   2.015  13.270  2.8351 -1.9472 -1.9493
 5642SOL     OW28387   1.516   0.206   3.125  0.0246 -0.1901 -0.1825
 5642SOL    HW128388   1.421   0.211   3.109  0.4378  0.9078 -2.3850
 5642SOL    HW228389   1.509   0.233   3.216 -0.3432 -0.6121 -0.0871
 5643SOL     OW28390   2.712   4.713   1.406 -0.0247 -0.3962  0.1777
 5643SOL    HW128391   2.748   0.043   1.335 -0.9156  0.5890  0.4656
 5643SOL    HW228392   2.632   4.679   1.366 -0.9012  0.6289  1.0575
 5644SOL     OW28393   3.339   3.414   0.204  0.1808 -0.3473 -0.3470
 5644SOL    HW128394   3.402   3.405   0.275 -0.5117 -0.8192  0.2092
 5644SOL    HW228395   3.366   3.337   0.155 -0.8291 -1.4626  0.8468
 5645SOL     OW28396   3.032   1.673   0.804 -0.1526  0.1920 -0.3010
 5645SOL    HW128397   3.003   1.764   0.807 -3.1815 -0.7969  0.7447
 5645SOL    HW228398   2.959   1.635   0.756  0.6636 -1.8468  0.0717
 5646SOL     OW28399   1.344   4.343   4.871 -0.4984  0.3784  0.1305
 5646SOL    HW128400   1.412   4.385   4.820 -0.1226  0.6126  0.8176
 5646SOL    HW228401   1.281   4.305   4.810 -1.4616  0.6183  0.9613
 5647SOL     OW28402   2.887   0.749   4.071 -0.3323  0.3626  0.0661
 5647SOL    HW128403   2.920   0.669   4.112  0.0107  0.2002 -0.5304
 5647SOL    HW228404   2.965   0.780   4.026  0.6324 -1.2739  0.6013
 5648SOL     OW28405   2.499   3.433  15.277 -0.7732 -0.1272 -0.0619
 5648SOL    HW128406   2.478   3.493  15.205  3.4272  3.0707  1.3501
 5648SOL    HW228407   2.449   3.357  15.246  0.1999 -1.0868  0.7291
 5649SOL     OW28408   0.730   4.407   6.332 -0.1873 -0.5099 -0.2608
 5649SOL    HW128409   0.724   4.415   6.427 -0.5653  0.4470 -0.3690
 5649SOL    HW228410   0.745   4.500   6.320 -2.1209 -0.3228 -1.2122
 5650SOL     OW28411   1.230   4.094  11.122 -0.2326 -0.4788 -0.1064
 5650SOL    HW128412   1.163   4.114  11.056  0.4579  2.6497  0.1680
 5650SOL    HW228413   1.185   4.120  11.202 -0.8987 -2.9036  0.3132
 5651SOL     OW28414   3.056   2.720  12.891  0.1872  0.6043  0.1534
 5651SOL    HW128415   2.986   2.706  12.827  0.5028  1.3694 -0.3478
 5651SOL    HW228416   3.006   2.776  12.951 -2.9309 -0.1484 -1.7339
 5652SOL     OW28417   2.737   3.461   6.127  0.2866 -0.2237 -0.1240
 5652SOL    HW128418   2.707   3.420   6.208 -3.2747  3.1869  0.2312
 5652SOL    HW228419   2.793   3.386   6.105  1.0923  0.2351  0.3687
 5653SOL     OW28420   3.994   0.915   9.353 -0.0879  0.1675  0.7543
 5653SOL    HW128421   4.050   0.989   9.374  1.0032 -0.9183  1.6590
 5653SOL    HW228422   4.057   0.878   9.291 -1.5040  0.8771 -1.1096
 5654SOL     OW28423   3.521   2.872  16.465 -0.3191  0.2523  0.1180
 5654SOL    HW128424   3.498   2.926  16.541 -0.2712 -1.1483  1.1258
 5654SOL    HW228425   3.440   2.890  16.417 -0.1640  0.6998  0.0294
 5655SOL     OW28426   0.347   4.123   1.627 -0.1497  0.1955 -0.3261
 5655SOL    HW128427   0.394   4.090   1.551 -0.3798  2.1118 -1.3082
 5655SOL    HW228428   0.371   4.064   1.698  2.1343  0.2040 -1.1070
 5656SOL     OW28429   2.515   2.138  12.562 -0.4424  0.2030 -0.1978
 5656SOL    HW128430   2.464   2.206  12.606 -0.5124 -0.1094  0.2079
 5656SOL    HW228431   2.545   2.181  12.482 -1.3837 -2.2695 -1.8435
 5657SOL     OW28432   2.802   2.655   0.974 -0.0406  0.3274  0.3903
 5657SOL    HW128433   2.812   2.629   1.065  1.0162 -1.1391 -0.1507
 5657SOL    HW228434   2.708   2.646   0.958 -0.5448  4.4023  0.8868
 5658SOL     OW28435   3.309   0.715  14.907 -0.4556  0.0310 -0.1650
 5658SOL    HW128436   3.251   0.639  14.898 -0.3683 -0.3441  2.4808
 5658SOL    HW228437   3.375   0.684  14.845  0.9323  0.9212  0.8673
 5659SOL     OW28438   1.439   0.542   4.217 -0.0444 -0.1940  0.9141
 5659SOL    HW128439   1.378   0.492   4.163 -0.4633  0.2497  0.9783
 5659SOL    HW228440   1.415   0.515   4.305 -0.8665  0.8788  1.0163
 5660SOL     OW28441   0.670   1.566   1.101 -0.7951  0.5486 -0.3235
 5660SOL    HW128442   0.731   1.493   1.093 -0.2920  0.7703  1.4893
 5660SOL    HW228443   0.657   1.592   1.010 -0.7700  1.5303 -0.0550
 5661SOL     OW28444   0.979   1.328   7.865  0.0226 -0.0423  0.1554
 5661SOL    HW128445   1.046   1.263   7.883 -1.0966 -1.0666  0.6198
 5661SOL    HW228446   0.939   1.336   7.952  1.9491 -0.9958  1.1242
 5662SOL     OW28447   3.197   0.708   8.026  0.1656 -1.1435 -0.0249
 5662SOL    HW128448   3.184   0.624   7.982  0.0313 -2.2431  2.0902
 5662SOL    HW228449   3.279   0.683   8.069 -0.3569  0.3194  1.8510
 5663SOL     OW28450   1.644   0.824   0.571  0.1611  0.4956 -0.1063
 5663SOL    HW128451   1.673   0.847   0.483 -0.5571  2.3851  0.1461
 5663SOL    HW228452   1.628   0.913   0.603  2.3781 -0.0189  2.3941
 5664SOL     OW28453   0.902   1.663   2.185 -0.0604  0.2651 -0.2959
 5664SOL    HW128454   0.889   1.702   2.099 -0.6009 -1.5944 -1.0446
 5664SOL    HW228455   0.992   1.630   2.181 -0.4901 -0.9529  0.0053
 5665SOL     OW28456   0.885   4.699   2.949 -0.1303  0.2984  0.1280
 5665SOL    HW128457   0.926   0.037   3.010 -0.9553 -1.4122  2.3730
 5665SOL    HW228458   0.863   0.027   2.871 -1.7666 -3.5147 -1.8893
 5666SOL     OW28459   3.459   2.962  17.677  0.2338 -0.1147 -0.0681
 5666SOL    HW128460   3.527   2.943  17.612 -0.1667  0.1789 -0.5764
 5666SOL    HW228461   3.460   2.875   0.022  0.7201 -1.6233 -3.3261
 5667SOL     OW28462   0.375   3.916   1.814  0.6001  0.0660 -0.3958
 5667SOL    HW128463   0.329   3.975   1.875  1.4068 -0.9661  1.2039
 5667SOL    HW228464   0.311   3.857   1.774  0.2503  0.1947 -0.0324
 5668SOL     OW28465   4.311   2.665   1.103  0.3087 -0.0854 -0.0803
 5668SOL    HW128466   4.232   2.628   1.143 -0.0442  1.3951  0.5688
 5668SOL    HW228467   4.316   2.753   1.140 -0.1963 -0.5363  1.0541
 5669SOL     OW28468   2.373   0.540  14.769 -0.0179 -0.2808 -0.1565
 5669SOL    HW128469   2.332   0.594  14.701  0.4808 -0.3019 -0.4737
 5669SOL    HW228470   2.395   0.603  14.837  2.7964 -1.5749  0.1224
 5670SOL     OW28471   2.150   1.072   8.156  0.0404  0.4539  0.0910
 5670SOL    HW128472   2.205   0.996   8.175 -1.5589 -0.7449 -0.0712
 5670SOL    HW228473   2.108   1.094   8.240  1.6664  1.2470  0.7093
 5671SOL     OW28474   0.667   2.079  12.968  0.0567 -1.3733  0.4652
 5671SOL    HW128475   0.594   2.086  12.906 -0.0911  1.0582  0.9192
 5671SOL    HW228476   0.676   1.985  12.981  0.3456 -1.3799  0.2208
 5672SOL     OW28477   3.148   4.468   4.033 -0.0811 -0.2326  0.2752
 5672SOL    HW128478   3.179   4.535   4.094 -1.5326  0.2633  0.4846
 5672SOL    HW228479   3.100   4.408   4.091  0.1102  0.6622  1.3681
 5673SOL     OW28480   0.210   3.386  13.667 -0.4480  0.0539 -0.4529
 5673SOL    HW128481   0.216   3.467  13.617  0.1503 -1.0675 -2.1843
 5673SOL    HW228482   0.296   3.348  13.652 -0.5731 -0.3578 -0.1373
 5674SOL     OW28483   3.491   0.467  16.627  0.2439  0.1838  0.4155
 5674SOL    HW128484   3.513   0.559  16.639  0.5729  0.4634 -2.3938
 5674SOL    HW228485   3.496   0.439  16.719 -1.0661  1.6092  0.9209
 5675SOL     OW28486   2.636   0.729   5.189  0.5369 -0.0246 -0.1035
 5675SOL    HW128487   2.616   0.790   5.259 -0.4664  0.9207 -1.2200
 5675SOL    HW228488   2.561   0.747   5.133  0.5353 -0.5768 -0.2845
 5676SOL     OW28489   2.468   0.006   4.334  0.1627 -0.1873 -0.6191
 5676SOL    HW128490   2.426   4.650   4.302  0.1208  0.5656 -2.4035
 5676SOL    HW228491   2.558   4.703   4.352  0.5236 -0.1119 -2.3249
 5677SOL     OW28492   0.783   2.161  10.306 -0.1716  0.1723 -0.9102
 5677SOL    HW128493   0.761   2.112  10.385  1.4108  1.7089  0.4941
 5677SOL    HW228494   0.738   2.243  10.326 -0.3969 -0.4807  1.2417
 5678SOL     OW28495   0.882   0.926  12.948  0.8798 -0.2546  0.2443
 5678SOL    HW128496   0.958   0.938  12.891 -1.4016 -0.3645 -2.8468
 5678SOL    HW228497   0.847   1.012  12.970 -1.3020 -0.8382 -0.8815
 5679SOL     OW28498   4.634   3.305  14.171  0.1006  0.2683  0.2720
 5679SOL    HW128499   4.645   3.233  14.109 -0.3879 -0.5006  1.0831
 5679SOL    HW228500   0.002   3.327  14.191 -0.3771  0.1695  2.5665
 5680SOL     OW28501   2.313   0.537   2.503  0.1558  0.5569 -0.2493
 5680SOL    HW128502   2.327   0.593   2.427 -0.4031  0.2410 -0.5855
 5680SOL    HW228503   2.291   0.598   2.573  4.2148  1.2315  0.4267
 5681SOL     OW28504   0.382   4.203   3.285 -0.5226  0.5590 -0.1916
 5681SOL    HW128505   0.369   4.120   3.240 -2.2847  1.1655 -0.7835
 5681SOL    HW228506   0.453   4.244   3.235 -0.2795  2.3264  1.5914
 5682SOL     OW28507   2.778   1.084   6.427  0.0597  0.0466 -0.2638
 5682SOL    HW128508   2.746   1.145   6.362  1.9856  0.1312 -1.1295
 5682SOL    HW228509   2.706   1.078   6.490  0.4480  1.1637  0.2827
 5683SOL     OW28510   1.979   0.016   7.606  0.0302 -0.3828 -0.2404
 5683SOL    HW128511   1.906   4.684   7.578 -1.3419  1.1208  0.3836
 5683SOL    HW228512   1.971   0.087   7.543 -0.8796 -1.6649 -1.5734
 5684SOL     OW28513   3.252   4.321   8.795 -0.1558 -0.4432  0.2021
 5684SOL    HW128514   3.312   4.248   8.787 -1.2638 -1.2921 -0.4516
 5684SOL    HW228515   3.280   4.377   8.722  1.2669 -2.2730 -0.6361
 5685SOL     OW28516   3.855   4.139   5.219 -0.1716 -0.0270 -0.1769
 5685SOL    HW128517   3.773   4.152   5.171  0.5354  2.4941 -0.7148
 5685SOL    HW228518   3.901   4.089   5.151 -0.9034  0.8676 -1.3481
 5686SOL     OW28519   3.946   4.496   2.655 -0.2235 -0.3328 -0.3190
 5686SOL    HW128520   4.042   4.502   2.652 -0.2771  1.2430  1.1257
 5686SOL    HW228521   3.915   4.530   2.738 -0.4440 -1.0166 -0.1317
 5687SOL     OW28522   3.890   3.617  14.279  0.2172 -0.2949  0.3278
 5687SOL    HW128523   3.977   3.649  14.302  0.7577 -2.2462  1.0566
 5687SOL    HW228524   3.835   3.653  14.348  0.6588  3.1590 -1.1320
 5688SOL     OW28525   1.320   3.431  10.169 -0.1798  0.2644 -0.2964
 5688SOL    HW128526   1.338   3.516  10.130  0.7827 -1.2849 -3.2460
 5688SOL    HW228527   1.252   3.389  10.116 -0.2877  1.3007 -0.9827
 5689SOL     OW28528   1.362   0.142  12.553 -0.0402 -0.1185  0.1165
 5689SOL    HW128529   1.357   0.141  12.458 -1.0129  1.6771  0.1462
 5689SOL    HW228530   1.274   0.169  12.576 -2.1546 -2.9371 -4.7224
 5690SOL     OW28531   1.979   4.433   6.436 -0.3128 -0.0724 -0.2418
 5690SOL    HW128532   2.032   4.512   6.421 -1.6438  1.2004  1.6643
 5690SOL    HW228533   1.915   4.453   6.368 -0.5255  1.3906  0.3803
 5691SOL     OW28534   0.731   2.123  14.869 -0.3355  0.1391  0.1203
 5691SOL    HW128535   0.671   2.197  14.860 -0.5205 -0.2342 -1.7334
 5691SOL    HW228536   0.717   2.094  14.959  0.4389 -0.0868  0.1710
 5692SOL     OW28537   1.439   0.763  15.648 -0.1226 -0.0131 -0.2139
 5692SOL    HW128538   1.528   0.747  15.680 -0.2875 -1.4166 -0.4598
 5692SOL    HW228539   1.393   0.719  15.719  0.2824 -1.7608 -1.0377
 5693SOL     OW28540   2.268   1.398   2.844  0.1218 -0.5651  0.2643
 5693SOL    HW128541   2.262   1.330   2.911  2.0956 -0.6955  0.2906
 5693SOL    HW228542   2.308   1.352   2.770  1.6004  0.8584  0.1846
 5694SOL     OW28543   1.940   2.738   8.104  0.2232 -0.0531  0.0380
 5694SOL    HW128544   1.926   2.753   8.197  1.8368 -2.3323  0.6686
 5694SOL    HW228545   1.875   2.796   8.065  0.4200  1.9054  2.6142
 5695SOL     OW28546   4.235   1.633   3.003 -0.3189 -0.1653  0.2800
 5695SOL    HW128547   4.231   1.723   3.034  1.5496  0.1168 -0.3599
 5695SOL    HW228548   4.167   1.641   2.936  0.9694 -0.4900 -1.0746
 5696SOL     OW28549   2.474   3.070   1.359 -0.0479  0.0261 -0.6196
 5696SOL    HW128550   2.457   3.164   1.353  2.5447  0.3574 -2.9096
 5696SOL    HW228551   2.483   3.049   1.266  2.0650  0.3847 -0.4892
 5697SOL     OW28552   2.352   2.969   5.219 -0.2561 -0.0161 -0.4466
 5697SOL    HW128553   2.295   3.039   5.250  2.8948  2.7224 -0.8087
 5697SOL    HW228554   2.339   2.979   5.125  0.0657  1.1797 -0.3607
 5698SOL     OW28555   2.269   2.825  13.748  0.1249 -0.4152  0.0223
 5698SOL    HW128556   2.359   2.853  13.765 -0.4592  0.6458  1.3438
 5698SOL    HW228557   2.227   2.880  13.814 -1.3444 -2.1614  0.5440
 5699SOL     OW28558   2.997   2.526   0.839  0.5354  0.0746 -0.6334
 5699SOL    HW128559   2.931   2.542   0.906  0.9956 -1.3334  0.1696
 5699SOL    HW228560   2.983   2.598   0.778 -2.9107  1.6088  1.9637
 5700SOL     OW28561   1.323   3.555  14.563  0.3060 -0.0647  0.2836
 5700SOL    HW128562   1.268   3.566  14.486  1.6656 -2.6903 -1.0703
 5700SOL    HW228563   1.398   3.614  14.556  0.0520  0.2846  0.4920
 5701SOL     OW28564   2.307   3.311   0.923 -0.1216 -0.0162  0.5859
 5701SOL    HW128565   2.306   3.397   0.881  2.0631  0.8174  2.2709
 5701SOL    HW228566   2.280   3.322   1.014 -0.5400  2.5802  0.1615
 5702SOL     OW28567   2.688   4.070   6.116  0.0830  0.7919 -0.8008
 5702SOL    HW128568   2.598   4.038   6.118 -0.2691  1.7803 -0.3909
 5702SOL    HW228569   2.714   4.044   6.205 -0.7313 -0.0801 -0.8192
 5703SOL     OW28570   2.405   1.724  10.599 -0.1840 -0.4929 -0.3047
 5703SOL    HW128571   2.431   1.632  10.592  1.6795 -0.0846  1.4703
 5703SOL    HW228572   2.315   1.721  10.564 -0.2906  0.6335 -0.1139
 5704SOL     OW28573   0.661   0.086   1.481 -0.3767 -0.4751 -0.1893
 5704SOL    HW128574   0.723   0.062   1.412 -0.2469  1.7020 -0.8299
 5704SOL    HW228575   0.703   0.046   1.557  0.3701  0.9272  0.1393
 5705SOL     OW28576   1.354   3.190  16.767  0.3123  0.3436  0.9456
 5705SOL    HW128577   1.277   3.231  16.729  0.9380  1.5669  0.9679
 5705SOL    HW228578   1.386   3.274  16.801 -0.9903  0.7742  1.1164
 5706SOL     OW28579   4.679   4.540   6.822 -0.3409  0.7619  0.0556
 5706SOL    HW128580   4.719   4.455   6.837  1.5202  1.6573  0.1181
 5706SOL    HW228581   4.588   4.511   6.813  0.4129 -0.6784 -2.8464
 5707SOL     OW28582   4.591   0.094   3.830 -0.2285 -0.0635  0.5580
 5707SOL    HW128583   4.635   0.114   3.913 -1.1260 -0.4870  1.1342
 5707SOL    HW228584   4.664   0.069   3.774  2.0455  3.4967  1.8734
 5708SOL     OW28585   1.536   1.365   8.571  0.5469 -0.8088  0.3603
 5708SOL    HW128586   1.601   1.342   8.637  0.2956 -1.9529  0.2196
 5708SOL    HW228587   1.564   1.315   8.494  1.5168 -0.2037  0.3337
 5709SOL     OW28588   0.573   4.721   2.988 -0.2376  0.7054 -0.3328
 5709SOL    HW128589   0.656   4.674   2.991 -1.5364 -1.4827  0.8859
 5709SOL    HW228590   0.582   0.058   2.914 -0.9153  0.3475 -0.7107
 5710SOL     OW28591   0.382   4.159  17.299 -0.0508 -0.2063 -0.3030
 5710SOL    HW128592   0.467   4.117  17.288 -0.6691 -1.8148  0.8953
 5710SOL    HW228593   0.328   4.080  17.310 -0.9969  0.5009  0.1036
 5711SOL     OW28594   4.080   3.762   7.313  0.7146  0.6290  0.1120
 5711SOL    HW128595   3.995   3.734   7.347 -0.1426  1.5377 -1.3039
 5711SOL    HW228596   4.107   3.686   7.261  0.4933  0.8441 -0.3154
 5712SOL     OW28597   2.129   1.337   4.037  0.1167 -0.3031 -0.1924
 5712SOL    HW128598   2.161   1.297   3.957 -1.7208  0.7397 -1.4534
 5712SOL    HW228599   2.057   1.280   4.063  0.7744 -1.4456 -0.8977
 5713SOL     OW28600   1.306   0.270   1.629  0.3100 -0.1710 -0.2377
 5713SOL    HW128601   1.331   0.187   1.587 -1.4213 -0.2971 -0.9992
 5713SOL    HW228602   1.321   0.254   1.722 -0.6596 -3.9433 -0.7358
 5714SOL     OW28603   2.456   1.687   4.429  0.0764 -0.0857  0.4250
 5714SOL    HW128604   2.517   1.741   4.480 -1.3750  1.5609  0.4133
 5714SOL    HW228605   2.455   1.613   4.489  0.8698 -1.7731 -1.6724
 5715SOL     OW28606   4.699   2.262   7.862 -0.0905  0.1129  0.0567
 5715SOL    HW128607   4.619   2.253   7.914 -0.1590  0.6409  0.0365
 5715SOL    HW228608   0.021   2.179   7.880  0.4704  0.3924 -0.0834
 5716SOL     OW28609   1.052   0.890   2.264  0.1917 -0.0855  0.1482
 5716SOL    HW128610   1.074   0.861   2.352  2.4291 -0.5780 -0.5585
 5716SOL    HW228611   0.973   0.941   2.279 -0.2079 -0.0597 -1.9714
 5717SOL     OW28612   3.446   0.427   4.141  0.1548 -0.2188  0.6053
 5717SOL    HW128613   3.423   0.335   4.130  0.9949 -0.4884  1.0796
 5717SOL    HW228614   3.428   0.430   4.235  0.4448 -1.4774  0.7050
 5718SOL     OW28615   0.513   4.204   6.364 -0.2199  0.1291 -0.2314
 5718SOL    HW128616   0.567   4.278   6.336 -2.2274  1.5264 -0.3988
 5718SOL    HW228617   0.568   4.132   6.333 -4.0710 -3.0209  0.1991
 5719SOL     OW28618   0.838   1.549   9.979  0.3265 -0.2725 -1.0493
 5719SOL    HW128619   0.774   1.570   9.911  2.8151 -0.9211 -3.6044
 5719SOL    HW228620   0.865   1.639   9.997  0.3441 -0.2981 -0.9512
 5720SOL     OW28621   4.108   2.514   1.618  0.6091  0.5073 -0.3055
 5720SOL    HW128622   4.030   2.557   1.581 -0.1460  1.6795  2.6586
 5720SOL    HW228623   4.124   2.570   1.693 -0.7381 -0.1845  0.5069
 5721SOL     OW28624   0.888   2.667   5.905 -0.1687 -0.0634 -0.4560
 5721SOL    HW128625   0.796   2.694   5.907  0.1575  0.8615  2.9742
 5721SOL    HW228626   0.905   2.732   5.837  1.4074 -1.4242 -1.3592
 5722SOL     OW28627   1.255   2.084   4.604 -0.1148 -0.1942 -0.1638
 5722SOL    HW128628   1.309   2.109   4.679  1.6253 -2.6084 -0.6107
 5722SOL    HW228629   1.212   2.003   4.629 -1.1345 -0.0718 -1.5414
 5723SOL     OW28630   0.649   2.698  17.009  0.4594  0.0761 -0.6159
 5723SOL    HW128631   0.739   2.718  17.034  0.9102 -0.9957 -1.3604
 5723SOL    HW228632   0.641   2.764  16.940  0.4458  0.1988 -0.4974
 5724SOL     OW28633   0.978   4.580   7.753 -0.1411 -0.1570 -0.3267
 5724SOL    HW128634   1.024   4.499   7.772 -0.3689 -0.2306 -0.0833
 5724SOL    HW228635   0.889   4.564   7.785  0.7214 -0.6073  1.8005
 5725SOL     OW28636   2.960   3.208  11.440 -0.0001 -0.1903 -0.4524
 5725SOL    HW128637   2.866   3.205  11.452  0.3885  1.0968  2.6969
 5725SOL    HW228638   2.975   3.115  11.422  1.4794  0.4117 -2.3304
 5726SOL     OW28639   1.605   2.098   4.958  0.2309  0.0563 -0.3379
 5726SOL    HW128640   1.654   2.181   4.952  2.4823 -1.2230  0.2257
 5726SOL    HW228641   1.628   2.053   4.877  0.0258  0.1167 -0.4274
 5727SOL     OW28642   1.496   3.279   0.235  0.1745 -0.2342 -0.4959
 5727SOL    HW128643   1.425   3.236   0.187  1.6335 -1.4237 -1.6056
 5727SOL    HW228644   1.550   3.288   0.156  0.9238 -1.5858 -0.1495
 5728SOL     OW28645   1.748   4.244   8.322 -0.3194 -0.2065  0.4203
 5728SOL    HW128646   1.685   4.273   8.387 -1.6021 -0.2544 -0.8043
 5728SOL    HW228647   1.832   4.245   8.368 -0.4793  1.1981  0.6830
 5729SOL     OW28648   4.688   0.054   7.359 -0.0172  0.7575  0.0733
 5729SOL    HW128649   4.667   4.716   7.288  1.2294  1.1238 -0.6199
 5729SOL    HW228650   4.662   4.722   7.433  0.5745 -0.1864 -0.4263
 5730SOL     OW28651   2.283   0.733   2.711 -0.3027 -0.3089 -0.0478
 5730SOL    HW128652   2.326   0.814   2.684 -2.8442  1.5683  1.5197
 5730SOL    HW228653   2.190   0.742   2.693 -0.4384 -0.6369  0.4842
 5731SOL     OW28654   3.821   0.105   2.109 -0.4230 -0.3791 -0.4156
 5731SOL    HW128655   3.871   0.146   2.039 -1.8868  0.6174 -0.8687
 5731SOL    HW228656   3.730   0.111   2.080 -1.2917  1.4831  2.6532
 5732SOL     OW28657   3.539   3.597   0.875 -0.7385 -0.1935 -0.4874
 5732SOL    HW128658   3.512   3.516   0.833  1.4310 -1.3502  0.3486
 5732SOL    HW228659   3.626   3.588   0.836 -1.0936  0.6873 -1.5016
 5733SOL     OW28660   3.126   1.884   7.643 -0.2987  0.1064  0.0575
 5733SOL    HW128661   3.156   1.965   7.684 -0.7896 -0.6336  1.8635
 5733SOL    HW228662   3.052   1.866   7.701 -0.1247  0.9541  0.5389
 5734SOL     OW28663   4.297   2.374   4.569  0.1463 -0.0864  0.4073
 5734SOL    HW128664   4.336   2.454   4.605  1.0303 -0.3169 -0.0258
 5734SOL    HW228665   4.248   2.347   4.646  1.2391  0.0051  1.1348
 5735SOL     OW28666   2.498   3.302   6.874  0.2750  0.2666  0.3597
 5735SOL    HW128667   2.405   3.292   6.896  0.3761 -0.4622  0.4604
 5735SOL    HW228668   2.498   3.319   6.779  0.8287 -0.8905  0.1541
 5736SOL     OW28669   1.594   4.688   7.281 -0.0713 -0.3279 -0.1285
 5736SOL    HW128670   1.522   4.629   7.262  0.7358 -1.4283  0.2046
 5736SOL    HW228671   1.571   0.033   7.219  0.5987  0.5088  0.5275
 5737SOL     OW28672   2.081   1.148   6.638 -0.1238 -0.1641  0.1136
 5737SOL    HW128673   2.033   1.230   6.652 -0.4739  0.2089 -3.1666
 5737SOL    HW228674   2.040   1.113   6.558  1.5621  0.5154 -1.0373
 5738SOL     OW28675   4.354   2.986   5.889  0.4502  0.3857  0.3407
 5738SOL    HW128676   4.344   2.961   5.797  0.8183 -1.5714  0.8425
 5738SOL    HW228677   4.398   2.905   5.915  1.8389  0.6083 -1.3019
 5739SOL     OW28678   2.546   2.119   8.546  0.2445 -0.1375 -0.1727
 5739SOL    HW128679   2.563   2.059   8.473  2.2723 -0.1291  0.2759
 5739SOL    HW228680   2.518   2.190   8.489 -0.8326  1.2722  2.1160
 5740SOL     OW28681   0.379   3.033   4.821 -0.1755 -0.5360  0.6432
 5740SOL    HW128682   0.292   3.070   4.804 -0.3631 -1.0039  0.5734
 5740SOL    HW228683   0.425   3.042   4.738  0.0975 -0.7825  0.7685
 5741SOL     OW28684   0.052   0.034   8.477  0.6876 -0.2147  0.1694
 5741SOL    HW128685   0.042   4.686   8.414  0.0881  0.0447 -0.0308
 5741SOL    HW228686   0.138   0.068   8.455  0.8420  0.5666  1.9677
 5742SOL     OW28687   0.259   1.244   0.437 -0.3782 -0.3001  0.1881
 5742SOL    HW128688   0.267   1.192   0.357 -1.9928  0.2297 -0.3057
 5742SOL    HW228689   0.167   1.226   0.454  0.1910 -2.0601  1.3264
 5743SOL     OW28690   0.977   0.501   6.734 -0.7039 -0.5524 -0.4367
 5743SOL    HW128691   0.949   0.460   6.815 -1.3115  1.5123  0.3784
 5743SOL    HW228692   0.997   0.587   6.770 -1.6130 -0.3162 -0.4963
 5744SOL     OW28693   1.083   0.222   8.531 -0.4490  0.2303  0.0978
 5744SOL    HW128694   1.156   0.164   8.511 -0.2098  0.7029 -0.4010
 5744SOL    HW228695   1.132   0.304   8.536 -0.5054  0.0547  3.4119
 5745SOL     OW28696   0.101   1.094   7.966  0.4400  0.1627  0.9517
 5745SOL    HW128697   0.106   1.159   7.896  0.9529  0.8151  1.5923
 5745SOL    HW228698   0.063   1.147   8.037 -1.1166 -0.5106  0.6108
 5746SOL     OW28699   3.907   0.657   9.201  0.7155 -0.2441  0.2922
 5746SOL    HW128700   3.846   0.707   9.255 -0.5715  0.0390 -1.4026
 5746SOL    HW228701   3.993   0.686   9.230  0.6335 -1.5539  1.8523
 5747SOL     OW28702   2.871   2.148   6.472 -0.4642  0.2299  0.0431
 5747SOL    HW128703   2.916   2.221   6.428  1.9523 -0.7141  0.9527
 5747SOL    HW228704   2.925   2.075   6.440 -0.5978 -0.0495  0.4695
 5748SOL     OW28705   0.369   1.030   8.758 -0.1842  0.3146  0.2721
 5748SOL    HW128706   0.352   1.105   8.701  2.7927  2.1230  1.7711
 5748SOL    HW228707   0.329   1.056   8.840 -2.1016  0.0495 -0.5851
 5749SOL     OW28708   0.711   3.593   5.656 -0.4141 -0.2566  0.5021
 5749SOL    HW128709   0.637   3.534   5.641 -0.3993 -0.1418 -0.0055
 5749SOL    HW228710   0.709   3.642   5.574  1.7692 -0.0957  0.5475
 5750SOL     OW28711   2.152   2.757   7.166  0.2512  0.3409 -0.1579
 5750SOL    HW128712   2.208   2.685   7.196  1.3487  1.2515 -0.0574
 5750SOL    HW228713   2.199   2.834   7.198 -1.3680  0.4318  2.0629
 5751SOL     OW28714   3.392   4.060  14.003  0.0843 -0.5326  0.1655
 5751SOL    HW128715   3.477   4.102  13.987 -0.2840 -0.3659 -1.3816
 5751SOL    HW228716   3.378   4.042  13.910  2.3967 -0.2446 -0.2504
 5752SOL     OW28717   1.163   3.099   9.495 -0.3298  0.0806  0.1428
 5752SOL    HW128718   1.082   3.052   9.478  0.7817 -2.1209  0.9765
 5752SOL    HW228719   1.158   3.169   9.429 -0.3039  0.8546  0.9682
 5753SOL     OW28720   0.200   3.953   3.438  0.2412  0.1560  0.2446
 5753SOL    HW128721   0.243   3.875   3.473 -0.4942 -0.1396  0.4901
 5753SOL    HW228722   0.227   3.957   3.347 -0.2102 -3.5971 -0.0488
 5754SOL     OW28723   4.448   3.793  11.001 -0.3242 -0.2910 -0.3713
 5754SOL    HW128724   4.434   3.887  11.009  1.5355 -0.1345  0.9999
 5754SOL    HW228725   4.437   3.765  11.092  1.4650 -1.3179 -0.4535
 5755SOL     OW28726   0.802   4.175   0.111  0.0563  0.3100  0.2342
 5755SOL    HW128727   0.875   4.208   0.163  0.6177 -1.3517  0.5137
 5755SOL    HW228728   0.734   4.183   0.178 -0.7433 -0.0363 -0.5318
 5756SOL     OW28729   1.618   1.871  12.798  0.4333 -0.3765  0.2337
 5756SOL    HW128730   1.682   1.941  12.811 -0.2614  0.3108 -0.0583
 5756SOL    HW228731   1.539   1.908  12.758  0.9755  0.3735 -0.1264
 5757SOL     OW28732   4.177   0.769   9.203 -0.0620 -0.4804 -0.7353
 5757SOL    HW128733   4.156   0.699   9.142 -1.4448  1.3987 -2.4320
 5757SOL    HW228734   4.260   0.739   9.239  0.5037 -0.3497 -1.9636
 5758SOL     OW28735   3.807   0.959   3.632  0.1578 -0.0541  0.2138
 5758SOL    HW128736   3.877   0.903   3.662  0.9184  1.0924  0.5830
 5758SOL    HW228737   3.843   1.025   3.572  2.7777  1.0577  2.9953
 5759SOL     OW28738   2.580   3.245   4.174  0.0904  0.1906 -0.2166
 5759SOL    HW128739   2.536   3.295   4.106  2.1131  1.7842 -0.3148
 5759SOL    HW228740   2.564   3.299   4.252 -0.4903 -0.0765 -0.1495
 5760SOL     OW28741   0.799   0.312   9.928 -0.0953 -0.8273  0.2998
 5760SOL    HW128742   0.792   0.374   9.855 -0.1850  1.3842  2.1854
 5760SOL    HW228743   0.708   0.282   9.934 -0.4920  0.3720  0.3400
 5761SOL     OW28744   1.782   2.521  10.594 -0.0128  0.1614 -0.5509
 5761SOL    HW128745   1.750   2.431  10.598  0.6816 -0.0573  0.0772
 5761SOL    HW228746   1.853   2.518  10.659 -1.1055  0.0539  0.6398
 5762SOL     OW28747   1.991   3.328   1.880  0.6662 -0.2175  0.1851
 5762SOL    HW128748   2.027   3.239   1.871  0.6498 -0.1652 -0.3900
 5762SOL    HW228749   2.031   3.348   1.965  0.8602 -0.8524  0.2514
 5763SOL     OW28750   2.234   3.961   4.037 -0.2024 -0.4870  0.0752
 5763SOL    HW128751   2.215   3.873   4.070 -0.0369 -0.2913  0.6873
 5763SOL    HW228752   2.151   4.003   4.057 -0.2131 -0.2129 -0.5614
 5764SOL     OW28753   1.953   0.982   6.453  0.0749  0.9803 -0.4503
 5764SOL    HW128754   2.005   0.976   6.372  0.2341  0.1816 -0.2840
 5764SOL    HW228755   1.926   0.891   6.459  2.7973  0.1487 -0.5565
 5765SOL     OW28756   1.719   3.936  10.641  0.4225  0.7526  0.1548
 5765SOL    HW128757   1.788   3.979  10.590  0.8034  0.7696  0.6782
 5765SOL    HW228758   1.663   4.009  10.667 -0.6653  0.4199 -1.2414
 5766SOL     OW28759   4.074   3.772   7.001 -0.0552 -0.3794  0.4551
 5766SOL    HW128760   4.166   3.765   7.027  1.1259  0.0858 -3.6791
 5766SOL    HW228761   4.051   3.679   7.001  1.3129 -0.7169  1.6810
 5767SOL     OW28762   0.116   3.261   4.251  0.3052  0.0593  0.4134
 5767SOL    HW128763   0.126   3.167   4.264  2.1369  0.7513  4.1846
 5767SOL    HW228764   0.070   3.281   4.333 -1.6918  0.2115 -0.7347
 5768SOL     OW28765   1.735   0.653   0.205  0.5505  0.4128  0.8417
 5768SOL    HW128766   1.706   0.591   0.138  1.5048  1.8849 -0.9157
 5768SOL    HW228767   1.791   0.700   0.143 -0.1968  1.0085  0.6192
 5769SOL     OW28768   0.279   1.439   5.000  0.4986  0.7370 -0.3903
 5769SOL    HW128769   0.279   1.533   5.017 -0.1036  0.5945  0.4190
 5769SOL    HW228770   0.276   1.414   5.092 -1.2073  0.7016 -0.4502
 5770SOL     OW28771   1.129   0.912   3.349  0.0937 -0.3640 -0.0539
 5770SOL    HW128772   1.106   0.958   3.430  1.2869 -0.6436  0.4492
 5770SOL    HW228773   1.046   0.902   3.303  0.4402 -1.5182 -0.4224
 5771SOL     OW28774   2.661   0.368   6.936  0.3817 -0.5689  0.0310
 5771SOL    HW128775   2.715   0.294   6.910  1.2398  0.4113 -1.0014
 5771SOL    HW228776   2.682   0.420   6.858 -0.7990  1.5480  1.0983
 5772SOL     OW28777   0.622   0.364   5.816  0.2363  0.3427  0.0756
 5772SOL    HW128778   0.559   0.303   5.853 -1.1892  0.7597 -1.6214
 5772SOL    HW228779   0.565   0.441   5.818 -0.0339  0.1742 -1.3425
 5773SOL     OW28780   0.754   1.481  14.898  0.0725  1.2222  0.3782
 5773SOL    HW128781   0.711   1.534  14.831 -0.5629 -0.3359 -0.4599
 5773SOL    HW228782   0.846   1.506  14.890  0.9535 -2.6556 -1.9888
 5774SOL     OW28783   3.911   3.778   6.720 -0.2713  0.0305  0.6849
 5774SOL    HW128784   3.920   3.774   6.815 -4.0687 -0.1799  1.0664
 5774SOL    HW228785   3.820   3.806   6.706 -0.2637  0.6640  1.9290
 5775SOL     OW28786   3.584   3.347   4.374  0.7601 -0.0791  0.0022
 5775SOL    HW128787   3.545   3.338   4.461  0.3494 -2.6305 -0.4706
 5775SOL    HW228788   3.512   3.381   4.321  0.0956 -0.6331  0.5541
 5776SOL     OW28789   4.433   0.205   4.603  0.1969 -0.1074  0.3022
 5776SOL    HW128790   4.478   0.209   4.518 -1.3936 -2.1834 -0.6580
 5776SOL    HW228791   4.360   0.265   4.594  0.6576  0.2459 -1.0446
 5777SOL     OW28792   3.667   3.675  16.549  0.9354 -0.0735  0.2057
 5777SOL    HW128793   3.699   3.611  16.612  0.4175 -1.9106 -1.4169
 5777SOL    HW228794   3.646   3.749  16.606 -0.9040  0.6954 -1.4653
 5778SOL     OW28795   4.264   0.357   2.508 -0.4423 -0.2942  0.1656
 5778SOL    HW128796   4.335   0.395   2.456  0.0762 -0.4403  0.7615
 5778SOL    HW228797   4.275   0.266   2.483  0.6148 -0.3012  0.6417
 5779SOL     OW28798   1.059   0.342   5.745  0.1280 -0.4298 -0.0608
 5779SOL    HW128799   1.148   0.330   5.777  0.3023 -0.8018 -0.6808
 5779SOL    HW228800   1.072   0.366   5.654 -0.3347 -2.7311 -0.7400
 5780SOL     OW28801   4.592   3.385   8.345 -0.3192  1.3443 -0.5610
 5780SOL    HW128802   4.655   3.444   8.384 -0.1313  1.4122 -0.9625
 5780SOL    HW228803   4.556   3.445   8.280  0.6009  1.4608 -0.9605
 5781SOL     OW28804   3.007   0.976   4.378  0.0372 -0.1543 -0.1424
 5781SOL    HW128805   3.082   0.921   4.403  0.9226  0.5671 -1.2299
 5781SOL    HW228806   2.984   1.015   4.462 -3.1283 -0.1362 -0.9936
 5782SOL     OW28807   2.422   0.381   5.222  0.5067 -0.2679  0.0494
 5782SOL    HW128808   2.329   0.364   5.238  0.5395 -0.5509 -0.0590
 5782SOL    HW228809   2.405   0.438   5.147 -3.6548 -3.7648 -1.6832
 5783SOL     OW28810   1.959   3.368   5.205  0.4410  0.1199 -0.1974
 5783SOL    HW128811   2.021   3.390   5.274 -0.0289  0.5164  0.0935
 5783SOL    HW228812   1.887   3.324   5.250  0.3574  1.2465  0.7577
 5784SOL     OW28813   3.763   4.266   7.885 -0.5347  0.4018  0.1748
 5784SOL    HW128814   3.840   4.320   7.904 -0.6713  1.1547 -1.4363
 5784SOL    HW228815   3.735   4.243   7.974 -1.4963  0.2681 -0.1604
 5785SOL     OW28816   3.130   0.960   7.933  0.6732 -0.4128 -0.2746
 5785SOL    HW128817   3.178   0.881   7.958 -0.6656 -1.3954 -0.8077
 5785SOL    HW228818   3.053   0.950   7.988  0.0505 -0.6104 -1.1867
 5786SOL     OW28819   1.437   4.197   7.698  0.0443 -0.3012  0.3284
 5786SOL    HW128820   1.512   4.239   7.740 -0.1435  1.4558 -1.1528
 5786SOL    HW228821   1.485   4.133   7.645 -0.2898 -0.1670 -0.1282
 5787SOL     OW28822   3.395   3.030   5.653  0.0539 -0.4291 -0.1456
 5787SOL    HW128823   3.460   3.023   5.584 -1.0466 -2.5322 -0.9511
 5787SOL    HW228824   3.333   2.968   5.615  2.4427 -2.6929 -0.3082
 5788SOL     OW28825   3.565   1.654  16.462  0.6716  0.3486  0.3158
 5788SOL    HW128826   3.516   1.606  16.396  2.9684  1.1635 -1.9843
 5788SOL    HW228827   3.647   1.614  16.432  0.2958  0.9734 -1.5682
 5789SOL     OW28828   1.817   0.512   3.942  0.6567 -0.0821  0.4551
 5789SOL    HW128829   1.780   0.564   4.013 -1.9529 -0.6968 -0.4392
 5789SOL    HW228830   1.880   0.577   3.912 -0.8602  0.6279 -1.2283
 5790SOL     OW28831   2.520   2.424   4.904 -0.1399  0.4941 -0.2146
 5790SOL    HW128832   2.595   2.373   4.935  0.4060  0.0113 -2.3669
 5790SOL    HW228833   2.471   2.428   4.986  1.6685 -2.1019  0.9902
 5791SOL     OW28834   1.271   1.563   7.303  0.4370  0.1082 -0.2300
 5791SOL    HW128835   1.217   1.527   7.233 -0.4663  2.1636 -0.6064
 5791SOL    HW228836   1.331   1.491   7.319 -1.5721 -1.7402 -1.0773
 5792SOL     OW28837   1.587   3.171   0.761  0.3718  0.3372  0.4787
 5792SOL    HW128838   1.656   3.236   0.751  1.8279 -1.4907 -1.2183
 5792SOL    HW228839   1.565   3.182   0.854  1.3860  1.2261  0.6145
 5793SOL     OW28840   2.157   1.434   5.462  0.2297 -0.3693 -0.2916
 5793SOL    HW128841   2.082   1.477   5.503 -0.6833 -3.1956  1.0045
 5793SOL    HW228842   2.226   1.462   5.522 -1.5217 -2.4741  2.7006
 5794SOL     OW28843   4.214   2.154  15.326 -0.1771  0.2808  0.1378
 5794SOL    HW128844   4.238   2.173  15.417 -2.8552 -2.6063  1.4442
 5794SOL    HW228845   4.214   2.240  15.283  1.2099  0.2335  0.0334
 5795SOL     OW28846   1.374   4.307  11.782  0.6568  0.3516  0.9173
 5795SOL    HW128847   1.426   4.247  11.835  0.8842 -0.0389  0.2527
 5795SOL    HW228848   1.346   4.377  11.841 -0.0486  1.7062 -1.0277
 5796SOL     OW28849   0.510   2.286  16.858  0.5477 -0.5171 -0.2131
 5796SOL    HW128850   0.529   2.343  16.933 -0.1288 -0.0324 -0.4156
 5796SOL    HW228851   0.560   2.207  16.880  0.4659 -0.5623 -0.1927
 5797SOL     OW28852   1.709   2.079  15.216 -0.5978 -0.2581 -0.1095
 5797SOL    HW128853   1.770   2.086  15.143  0.8540  1.1985  1.2424
 5797SOL    HW228854   1.733   1.995  15.253  0.7294 -0.0954 -0.6110
 5798SOL     OW28855   3.660   1.088  14.732 -0.0306 -0.1069  0.6612
 5798SOL    HW128856   3.721   1.141  14.784  0.5153  0.7391 -0.8245
 5798SOL    HW228857   3.697   1.000  14.741  0.9506  0.4471  2.1408
 5799SOL     OW28858   2.787   0.155   6.345 -0.4635 -0.0955  0.0887
 5799SOL    HW128859   2.875   0.160   6.309 -0.3942  0.8893  0.4074
 5799SOL    HW228860   2.807   0.149   6.439 -1.8665  0.7583  0.4400
 5800SOL     OW28861   0.827   0.975  15.203  0.8926 -0.2443  0.1961
 5800SOL    HW128862   0.868   0.965  15.289 -0.0040  1.6046  0.8311
 5800SOL    HW228863   0.781   0.892  15.200  1.4060 -0.4729 -1.1204
 5801SOL     OW28864   2.423   4.671  14.595 -0.0837 -0.2407  0.2882
 5801SOL    HW128865   2.340   4.640  14.633 -0.2644  0.7240  0.6721
 5801SOL    HW228866   2.460   4.590  14.560  2.1964  1.1650 -0.5799
 5802SOL     OW28867   3.264   3.534   5.856 -0.4773 -1.4674  0.4141
 5802SOL    HW128868   3.295   3.619   5.887 -0.1290 -1.6652  0.6063
 5802SOL    HW228869   3.286   3.487   5.936 -1.0157  0.8223  1.9119
 5803SOL     OW28870   3.517   3.986   1.682  0.2629  0.1786  0.0009
 5803SOL    HW128871   3.549   3.900   1.708 -0.5787  0.1310  0.9209
 5803SOL    HW228872   3.492   3.975   1.591  1.5143 -0.1430 -0.3000
 5804SOL     OW28873   4.246   4.606   3.327  0.1911 -0.1946  0.2723
 5804SOL    HW128874   4.298   4.664   3.383 -0.9501  0.0368  1.0989
 5804SOL    HW228875   4.314   4.579   3.265  3.0657  1.7290  2.5317
 5805SOL     OW28876   0.087   1.965  12.721  0.0912  0.5886 -0.0136
 5805SOL    HW128877   0.010   1.962  12.664  0.1124 -0.2169 -0.0112
 5805SOL    HW228878   0.155   1.967  12.654  0.2678 -1.7059  0.0755
 5806SOL     OW28879   3.718   2.424  13.118  0.3199  0.0102  0.2171
 5806SOL    HW128880   3.721   2.381  13.033  2.3835  1.8170 -0.6293
 5806SOL    HW228881   3.759   2.365  13.181  2.3922  0.0238 -1.1379
 5807SOL     OW28882   2.142   2.755   2.187 -0.2724 -0.0078 -0.5950
 5807SOL    HW128883   2.062   2.729   2.234  0.1700  1.2447  0.8306
 5807SOL    HW228884   2.153   2.680   2.128 -2.5366 -1.5209  0.8897
 5808SOL     OW28885   3.921   1.120   5.054  0.2625  0.8946  0.5641
 5808SOL    HW128886   3.864   1.193   5.076 -1.6149 -0.6257  0.7297
 5808SOL    HW228887   3.998   1.170   5.029  1.5931 -1.0783  0.6889
 5809SOL     OW28888   0.039   2.516   4.553 -0.4772 -0.6592 -0.4608
 5809SOL    HW128889   0.024   2.443   4.614  1.7255 -1.0752 -0.4452
 5809SOL    HW228890   0.109   2.469   4.507 -0.3500  0.4058 -1.3482
 5810SOL     OW28891   0.411   1.519   8.920  0.0108  0.6634  0.4041
 5810SOL    HW128892   0.366   1.565   8.991 -0.1173 -1.1873  1.5258
 5810SOL    HW228893   0.337   1.486   8.867  0.7550 -1.1128  0.4804
 5811SOL     OW28894   0.372   1.021   9.577  0.4011 -0.3170  0.0959
 5811SOL    HW128895   0.315   0.944   9.582 -0.2282  0.2892  2.2735
 5811SOL    HW228896   0.440   0.985   9.520 -0.3138  0.2206 -1.1061
 5812SOL     OW28897   4.370   1.838   1.903  0.6758  0.5238  0.2296
 5812SOL    HW128898   4.414   1.793   1.976 -1.1265 -1.7217 -0.0494
 5812SOL    HW228899   4.283   1.804   1.926  1.7273 -0.8590  2.1858
 5813SOL     OW28900   3.532   2.505  13.284  0.2992 -0.3965  0.3010
 5813SOL    HW128901   3.510   2.412  13.294 -1.9035 -0.1245 -1.7834
 5813SOL    HW228902   3.592   2.497  13.210 -1.0592 -3.6169 -0.4629
 5814SOL     OW28903   3.134   1.401   4.736  0.1005 -0.8066 -0.2081
 5814SOL    HW128904   3.174   1.419   4.651 -1.2245  3.3793  0.0675
 5814SOL    HW228905   3.179   1.463   4.793  2.2754 -2.3796 -0.2071
 5815SOL     OW28906   3.246   2.590  17.012  0.4515  0.1312 -0.1315
 5815SOL    HW128907   3.243   2.618  17.104  1.2334 -0.2994  0.0245
 5815SOL    HW228908   3.211   2.501  17.016 -1.6298  1.0392  2.5410
 5816SOL     OW28909   1.594   3.188   9.833  0.0495 -0.2202 -0.2238
 5816SOL    HW128910   1.550   3.180   9.749  0.9496  0.5888 -0.7782
 5816SOL    HW228911   1.660   3.254   9.810 -0.2082 -0.1644 -0.7774
 5817SOL     OW28912   1.641   2.225   5.934  0.2320 -1.0606 -0.1502
 5817SOL    HW128913   1.649   2.173   6.014 -0.9686 -0.8166  0.1234
 5817SOL    HW228914   1.625   2.157   5.869 -0.8537 -1.1799  0.2430
 5818SOL     OW28915   0.757   2.934   4.202  0.3652  0.8037 -0.0438
 5818SOL    HW128916   0.746   2.890   4.286  0.8506 -2.1627 -1.5409
 5818SOL    HW228917   0.811   2.870   4.155  0.5219 -0.2325  1.5578
 5819SOL     OW28918   4.427   4.076   8.636  0.3500  0.0370 -0.4013
 5819SOL    HW128919   4.520   4.097   8.651  0.4116  0.4463 -1.3269
 5819SOL    HW228920   4.420   4.018   8.560 -1.6385 -0.0241 -0.1598
 5820SOL     OW28921   2.624   2.141   6.954  0.3404 -0.0544  0.3564
 5820SOL    HW128922   2.711   2.102   6.959  0.4580 -0.2121 -2.6255
 5820SOL    HW228923   2.649   2.228   6.921 -0.0155  0.4332  1.3574
 5821SOL     OW28924   3.822   1.690   8.380 -0.5632 -0.0448 -0.2028
 5821SOL    HW128925   3.811   1.598   8.354 -0.7417  0.1961 -0.9835
 5821SOL    HW228926   3.792   1.680   8.471 -0.2421 -0.9627 -0.1970
 5822SOL     OW28927   2.409   3.515   7.226  0.1000  0.2745 -0.3537
 5822SOL    HW128928   2.390   3.423   7.245  2.3675 -0.5435 -2.0601
 5822SOL    HW228929   2.341   3.567   7.270  0.7320  1.7609 -1.1477
 5823SOL     OW28930   2.981   2.425   3.059 -0.3038 -0.0703 -0.1291
 5823SOL    HW128931   2.942   2.338   3.063 -2.5120  1.0200  1.9880
 5823SOL    HW228932   3.007   2.428   2.967  1.1664  1.0790  0.3219
 5824SOL     OW28933   0.216   1.763   3.337 -0.5490  0.1438 -0.1420
 5824SOL    HW128934   0.295   1.714   3.316 -1.0768 -1.8061  2.4298
 5824SOL    HW228935   0.153   1.746   3.267 -1.3126  0.6570  0.4243
 5825SOL     OW28936   0.447   1.427   3.636  0.0859 -0.0892  0.4464
 5825SOL    HW128937   0.392   1.487   3.687  0.4510 -0.3759  1.1765
 5825SOL    HW228938   0.424   1.343   3.675  0.4767 -0.7117 -0.6662
 5826SOL     OW28939   0.259   3.179   5.528  0.7058  0.3290 -0.0124
 5826SOL    HW128940   0.265   3.158   5.621  1.0520 -0.7196 -0.2687
 5826SOL    HW228941   0.223   3.267   5.517 -0.5860  0.1460  2.7184
 5827SOL     OW28942   3.628   1.147   3.479  0.8196  0.4698 -0.0105
 5827SOL    HW128943   3.676   1.137   3.397  0.2058 -0.2121 -0.2840
 5827SOL    HW228944   3.537   1.164   3.454  0.7732 -1.4629 -1.0928
 5828SOL     OW28945   4.527   0.897   8.032  0.2543 -0.4201  0.0065
 5828SOL    HW128946   4.539   0.827   7.968  2.8381 -0.0063  0.0587
 5828SOL    HW228947   4.618   0.923   8.047  0.0841  0.5737 -0.6783
 5829SOL     OW28948   0.863   3.157   8.875  0.0981 -0.6819  0.2035
 5829SOL    HW128949   0.952   3.154   8.840  0.1132  2.3193 -0.0058
 5829SOL    HW228950   0.814   3.130   8.797  2.1459  1.2074 -1.7415
 5830SOL     OW28951   2.267   4.175  15.336 -0.5279 -0.0302  0.2879
 5830SOL    HW128952   2.195   4.120  15.305 -0.9436  1.2853 -1.0620
 5830SOL    HW228953   2.252   4.174  15.431 -0.4026 -1.8943  0.2909
 5831SOL     OW28954   4.603   2.855   4.053 -0.5048 -0.4760 -0.0653
 5831SOL    HW128955   4.522   2.825   4.012 -0.0430  0.2407 -1.5007
 5831SOL    HW228956   4.631   2.925   3.995 -2.3129  0.4609  0.1776
 5832SOL     OW28957   1.281   1.652   5.744  0.1398 -0.2788  0.0241
 5832SOL    HW128958   1.248   1.564   5.762 -2.6032  0.7828  0.2240
 5832SOL    HW228959   1.293   1.678   5.835 -2.1685 -0.7479  0.4715
 5833SOL     OW28960   0.849   2.777   2.295  0.0745  0.1356 -0.0786
 5833SOL    HW128961   0.865   2.773   2.201  1.5716  1.2730  0.1273
 5833SOL    HW228962   0.812   2.689   2.306 -0.1868  0.3408  0.6872
 5834SOL     OW28963   4.404   0.037   8.424 -0.4454  0.0781  0.1097
 5834SOL    HW128964   4.470   0.102   8.450 -0.0497  0.0736 -0.9000
 5834SOL    HW228965   4.454   4.680   8.415  0.0626  0.2610  1.2832
 5835SOL     OW28966   1.601   0.932  12.805 -0.0375  0.1597  0.2780
 5835SOL    HW128967   1.676   0.873  12.809 -0.2808 -0.2060 -0.6826
 5835SOL    HW228968   1.523   0.879  12.821  0.8949 -1.4885 -0.6877
 5836SOL     OW28969   3.808   0.576   4.386  0.1588  0.9355  0.1854
 5836SOL    HW128970   3.899   0.594   4.409  0.9859 -2.9260 -0.0372
 5836SOL    HW228971   3.823   0.597   4.294  0.4361  1.8470  0.4473
 5837SOL     OW28972   0.938   1.051   5.503  0.5189 -0.5991  0.1047
 5837SOL    HW128973   0.994   1.126   5.484 -0.3219 -0.4438 -1.7260
 5837SOL    HW228974   0.960   0.988   5.434  1.4529 -0.1440 -0.0061
 5838SOL     OW28975   0.519   2.197   4.806  0.2300  0.5139 -0.3569
 5838SOL    HW128976   0.540   2.230   4.718  0.2851  0.6069 -0.3094
 5838SOL    HW228977   0.553   2.269   4.860  2.3856  1.2456 -2.6318
 5839SOL     OW28978   0.164   1.109   1.929  0.0754  0.3968 -0.5675
 5839SOL    HW128979   0.256   1.098   1.955  0.5277  2.2422 -1.4022
 5839SOL    HW228980   0.160   1.052   1.852 -0.7260 -0.3687  0.0415
 5840SOL     OW28981   1.476   3.776  17.224 -0.2503  0.0701  0.3705
 5840SOL    HW128982   1.563   3.784  17.187 -0.3701  1.0077  0.2909
 5840SOL    HW228983   1.426   3.728  17.158  0.7044 -1.6248  0.8946
 5841SOL     OW28984   0.730   1.285   7.387  0.4550  0.2310  0.1802
 5841SOL    HW128985   0.801   1.326   7.436  1.0175 -0.0818 -0.3729
 5841SOL    HW228986   0.649   1.294   7.437  1.1068  0.1017  1.2462
 5842SOL     OW28987   2.824   1.596   8.980  0.0631  0.9418  0.1457
 5842SOL    HW128988   2.827   1.664   8.913 -0.9245  0.2535 -0.5950
 5842SOL    HW228989   2.730   1.591   8.992  0.1620 -0.1059  0.4716
 5843SOL     OW28990   1.309   2.799   4.707 -0.0332 -0.2129  0.8094
 5843SOL    HW128991   1.223   2.796   4.748 -0.3908  1.5788  0.2146
 5843SOL    HW228992   1.358   2.868   4.752  0.9931  0.5188 -1.4296
 5844SOL     OW28993   0.080   0.856   7.298  0.4083 -0.0930  0.3343
 5844SOL    HW128994   0.092   0.764   7.321 -2.5316 -0.4866  0.2951
 5844SOL    HW228995   0.107   0.858   7.206 -0.3785  0.4400  0.1153
 5845SOL     OW28996   1.567   3.296   3.705 -0.2404 -0.5035  0.0712
 5845SOL    HW128997   1.500   3.287   3.638 -1.3521  0.4818  1.0396
 5845SOL    HW228998   1.597   3.206   3.715 -0.2520 -0.3373  1.6753
 5846SOL     OW28999   4.326   3.356   2.773 -0.9230 -0.5292  0.4012
 5846SOL    HW129000   4.401   3.309   2.809 -0.8544 -0.6147  0.1532
 5846SOL    HW229001   4.273   3.278   2.755 -1.3084 -0.5048  1.4274
 5847SOL     OW29002   4.008   1.596  14.272 -0.5648  0.2104 -0.4901
 5847SOL    HW129003   4.064   1.658  14.225 -1.1597  1.4573  0.4466
 5847SOL    HW229004   4.028   1.616  14.363 -2.7515  0.7928 -0.1565
 5848SOL     OW29005   4.309   0.038  10.076 -0.4166  0.1684  0.6226
 5848SOL    HW129006   4.387   4.706  10.066  0.4589  1.4981  0.0948
 5848SOL    HW229007   4.325   0.099  10.148  1.0248  1.0327 -0.4172
 5849SOL     OW29008   1.917   2.850   7.686  0.1532  0.1794  0.1916
 5849SOL    HW129009   2.006   2.814   7.688 -0.3340 -1.0690 -0.4641
 5849SOL    HW229010   1.865   2.770   7.698  0.4602  0.0551  0.7178
 5850SOL     OW29011   3.297   0.535   0.452 -0.6436 -0.1489 -0.2027
 5850SOL    HW129012   3.241   0.600   0.494  0.2817 -1.1692  2.5621
 5850SOL    HW229013   3.342   0.493   0.524 -0.3019 -0.3411 -0.5290
 5851SOL     OW29014   1.230   1.167   3.013  0.3799 -0.6434 -0.7523
 5851SOL    HW129015   1.149   1.117   3.020 -1.9252  3.0189 -1.2085
 5851SOL    HW229016   1.235   1.163   2.917 -0.1175  2.0276 -0.8933
 5852SOL     OW29017   1.068   1.453   9.839 -0.0201  0.4466  0.1464
 5852SOL    HW129018   1.041   1.449   9.748 -0.6551  0.1279  0.3464
 5852SOL    HW229019   0.986   1.466   9.886  0.2659  2.9266 -0.0533
 5853SOL     OW29020   3.996   3.128   3.719  0.1254  0.2511 -0.0438
 5853SOL    HW129021   3.958   3.172   3.795  0.0859  2.0236 -1.1041
 5853SOL    HW229022   3.995   3.196   3.652  1.6855  1.5226  1.2259
 5854SOL     OW29023   3.690   1.429  15.917 -0.0012  0.1537 -0.0410
 5854SOL    HW129024   3.602   1.466  15.929 -0.3842 -0.8324  0.2271
 5854SOL    HW229025   3.735   1.471  15.990 -0.2079 -0.0882  0.2289
 5855SOL     OW29026   2.300   4.289   6.104  1.0134  0.6170  0.1083
 5855SOL    HW129027   2.248   4.221   6.148  1.0783 -0.5349 -1.5780
 5855SOL    HW229028   2.380   4.289   6.156  1.3949  0.6907 -0.4837
 5856SOL     OW29029   1.380   0.932   6.300 -0.4118 -0.2714  0.4031
 5856SOL    HW129030   1.418   0.982   6.228  3.3007 -2.3523  0.9151
 5856SOL    HW229031   1.421   0.972   6.376 -1.1478  0.0882  0.6082
 5857SOL     OW29032   0.355   2.341   5.036  0.1405 -0.7419 -0.3653
 5857SOL    HW129033   0.272   2.301   5.009 -1.5774  2.0518  0.8791
 5857SOL    HW229034   0.415   2.278   4.996  1.6459  1.1670 -1.1100
 5858SOL     OW29035   1.148   2.017   5.125 -0.3620 -0.4670  0.0281
 5858SOL    HW129036   1.157   2.053   5.213  1.8930 -1.3068  0.1558
 5858SOL    HW229037   1.065   2.048   5.088 -0.2096 -0.0642  0.0180
 5859SOL     OW29038   0.280   3.334   0.507 -0.0388  0.0028  0.5963
 5859SOL    HW129039   0.212   3.390   0.471 -0.4257 -1.7684 -1.3793
 5859SOL    HW229040   0.255   3.245   0.483  3.0163 -1.0683  1.4044
 5860SOL     OW29041   4.135   1.088   6.505  0.3841 -0.1488  0.5271
 5860SOL    HW129042   4.070   1.017   6.506  0.2003 -0.0103 -1.8958
 5860SOL    HW229043   4.072   1.153   6.474 -0.3817 -1.1727 -0.0560
 5861SOL     OW29044   0.965   2.967   8.140 -0.0271  0.1154  0.4199
 5861SOL    HW129045   0.955   2.875   8.166  0.9165  1.0894  4.2617
 5861SOL    HW229046   1.028   2.953   8.069 -0.6674 -2.3456  0.3130
 5862SOL     OW29047   3.387   3.454   5.607  0.1830 -0.2940  0.3623
 5862SOL    HW129048   3.372   3.492   5.694 -1.3273  3.2786 -1.5084
 5862SOL    HW229049   3.319   3.386   5.608  0.3253 -0.4157  3.4935
 5863SOL     OW29050   1.460   2.550  16.079 -0.1517  0.0672  0.3575
 5863SOL    HW129051   1.376   2.595  16.067  0.4325  1.0046 -0.2450
 5863SOL    HW229052   1.475   2.515  15.991  0.1139  1.5868 -0.2100
 5864SOL     OW29053   1.243   3.245  16.467  0.2849  0.7323 -0.5884
 5864SOL    HW129054   1.180   3.187  16.508  2.3707 -0.0686  1.4403
 5864SOL    HW229055   1.195   3.326  16.448 -1.0576  0.0489 -0.0778
 5865SOL     OW29056   1.470   0.387  12.686 -0.4830  0.1843  0.1570
 5865SOL    HW129057   1.549   0.427  12.722  0.4426 -0.6787 -0.9215
 5865SOL    HW229058   1.470   0.419  12.595 -1.1073  2.3962  0.9239
 5866SOL     OW29059   1.585   3.714   0.917 -0.1784  0.0274 -0.0995
 5866SOL    HW129060   1.660   3.773   0.921  0.5373 -0.7992 -1.1193
 5866SOL    HW229061   1.624   3.634   0.953  1.0503  1.8304  2.5344
 5867SOL     OW29062   4.174   3.833  14.213 -0.3639 -0.4145 -0.2857
 5867SOL    HW129063   4.137   3.905  14.162 -0.8144 -0.4622 -0.0278
 5867SOL    HW229064   4.268   3.845  14.204 -0.2738 -0.3666  0.7463
 5868SOL     OW29065   0.344   3.914   7.812  0.6595 -0.3968  0.1088
 5868SOL    HW129066   0.365   3.825   7.841  0.3056 -0.1779  1.0385
 5868SOL    HW229067   0.340   3.950   7.901  3.8976 -1.3686  0.6689
 5869SOL     OW29068   0.483   2.298   6.564 -0.2384 -0.6523  0.1332
 5869SOL    HW129069   0.444   2.307   6.477 -0.0466 -0.4574  0.0670
 5869SOL    HW229070   0.503   2.205   6.557 -1.2696 -0.7767 -1.1559
 5870SOL     OW29071   4.261   2.653   5.472  0.1882  0.2581  0.0041
 5870SOL    HW129072   4.293   2.577   5.520 -0.0121  0.2071  0.0554
 5870SOL    HW229073   4.336   2.677   5.417 -0.9743 -0.8207 -2.0615
 5871SOL     OW29074   0.476   0.191   0.559 -0.0554 -0.3174  0.1788
 5871SOL    HW129075   0.517   0.276   0.544  0.1121 -0.5415 -0.6245
 5871SOL    HW229076   0.389   0.215   0.590  0.0091  1.9336 -1.3716
 5872SOL     OW29077   3.100   3.243   6.872  0.1296  0.6635 -0.0976
 5872SOL    HW129078   3.150   3.310   6.826  0.1210  0.2605 -0.7017
 5872SOL    HW229079   3.123   3.163   6.824 -0.7949 -0.5850  1.5272
 5873SOL     OW29080   2.390   4.162  13.813 -0.4823 -0.3339 -0.0461
 5873SOL    HW129081   2.305   4.182  13.851 -0.3184  2.3879 -1.0882
 5873SOL    HW229082   2.405   4.247  13.771 -0.7525 -0.6659 -0.8247
 5874SOL     OW29083   3.475   0.728   4.157 -0.0564  0.2623  0.5497
 5874SOL    HW129084   3.500   0.760   4.244  0.1758  1.2785  0.1111
 5874SOL    HW229085   3.459   0.634   4.170  0.8426  0.0103 -0.2404
 5875SOL     OW29086   2.041   3.152   6.446 -0.5021  0.0566 -0.1735
 5875SOL    HW129087   1.994   3.095   6.385 -1.5352 -0.4496  1.0787
 5875SOL    HW229088   1.980   3.222   6.469  1.1164  0.1350  3.9541
 5876SOL     OW29089   2.372   3.924   6.476 -0.0675  0.8433 -0.0734
 5876SOL    HW129090   2.433   3.965   6.536  0.4122  1.6299 -1.0934
 5876SOL    HW229091   2.384   3.831   6.496 -3.7151 -0.2432 -2.8264
 5877SOL     OW29092   1.404   4.206   0.455 -0.1769  0.3888  0.3148
 5877SOL    HW129093   1.333   4.156   0.416  0.0465 -0.6870  1.3041
 5877SOL    HW229094   1.405   4.179   0.547  0.1146 -0.0014  0.1964
 5878SOL     OW29095   1.596   0.491   0.024 -0.1845 -0.7006  0.2716
 5878SOL    HW129096   1.559   0.422   0.080  0.3674 -1.2486 -0.0479
 5878SOL    HW229097   1.566   0.457  17.635 -2.2188 -1.3406  1.2537
 5879SOL     OW29098   4.087   2.907  14.625  0.1039 -0.0682 -0.0741
 5879SOL    HW129099   4.146   2.949  14.688 -0.4012  0.2899  0.1572
 5879SOL    HW229100   4.137   2.939  14.550  0.0157  1.3357  0.4529
 5880SOL     OW29101   3.355   0.802  15.624 -0.2690  0.3833 -0.4229
 5880SOL    HW129102   3.268   0.783  15.658 -0.1681 -0.2539 -0.5301
 5880SOL    HW229103   3.360   0.898  15.620  1.4684  0.3751  1.5617
 5881SOL     OW29104   4.036   0.881   2.405  0.2676 -0.6142  0.0069
 5881SOL    HW129105   4.046   0.806   2.346  1.5250  1.2632 -2.2064
 5881SOL    HW229106   3.948   0.910   2.385  0.0329 -0.5749  1.1116
 5882SOL     OW29107   0.414   4.026   4.848 -0.1521 -0.0349  0.1504
 5882SOL    HW129108   0.412   4.113   4.888 -1.0779 -0.0513  0.1337
 5882SOL    HW229109   0.501   4.001   4.879  1.6352  2.9920 -2.4711
 5883SOL     OW29110   3.647   3.887  12.992 -0.0507 -0.0838  0.3817
 5883SOL    HW129111   3.608   3.915  13.075  3.0825  0.0826  1.8021
 5883SOL    HW229112   3.580   3.830  12.954  0.5756 -0.8581  0.4419
 5884SOL     OW29113   0.606   3.695   5.917  0.4145 -0.7052  0.0534
 5884SOL    HW129114   0.580   3.620   5.969  0.2202 -0.0928  0.8336
 5884SOL    HW229115   0.687   3.667   5.874  0.0844 -1.3907 -0.1094
 5885SOL     OW29116   4.051   0.255   0.946 -0.2257  0.5917  0.1334
 5885SOL    HW129117   4.113   0.201   0.996  0.0787 -0.4735 -1.3902
 5885SOL    HW229118   4.089   0.239   0.859  1.2442  0.2343  0.8324
 5886SOL     OW29119   2.124   4.607  17.079 -0.4501  0.3801 -0.5073
 5886SOL    HW129120   2.140   4.568  16.993  1.0811 -1.6403  0.6702
 5886SOL    HW229121   2.193   4.674  17.078  0.4493 -0.5530 -1.5696
 5887SOL     OW29122   3.732   1.282   2.914 -0.0053  0.1244 -0.2025
 5887SOL    HW129123   3.654   1.256   2.864 -0.9582  2.7708 -0.0491
 5887SOL    HW229124   3.807   1.275   2.855 -0.0472 -1.0341 -0.1299
 5888SOL     OW29125   0.943   2.058   4.770 -0.1170  0.2920 -0.3069
 5888SOL    HW129126   0.961   1.967   4.796  1.6431  0.8709  0.4713
 5888SOL    HW229127   0.858   2.048   4.726  1.2195  3.9776 -3.7105
 5889SOL     OW29128   1.363   1.470   3.695  0.0416 -0.7656 -0.2265
 5889SOL    HW129129   1.272   1.481   3.668  0.7700  2.1842 -1.4534
 5889SOL    HW229130   1.355   1.437   3.785 -0.8257 -3.2842 -1.2248
 5890SOL     OW29131   1.852   4.350   6.745 -0.3780 -0.4383 -0.5667
 5890SOL    HW129132   1.769   4.392   6.723 -1.3263 -1.6764  0.5921
 5890SOL    HW229133   1.858   4.350   6.841 -0.3979  0.8740 -0.5652
 5891SOL     OW29134   1.100   4.147  17.033  0.1481 -0.3045  0.5530
 5891SOL    HW129135   1.196   4.148  17.036  0.1972 -0.3977 -1.4993
 5891SOL    HW229136   1.091   4.162  17.127 -1.9266 -1.2367  0.4850
 5892SOL     OW29137   3.363   4.305  12.008 -0.6239 -0.6510  0.7964
 5892SOL    HW129138   3.380   4.356  12.087  1.8737 -0.6455  0.2279
 5892SOL    HW229139   3.448   4.289  11.969 -0.7602  1.0855 -0.2113
 5893SOL     OW29140   1.337   1.605   4.292 -0.1868  0.1073 -0.1045
 5893SOL    HW129141   1.297   1.524   4.322 -1.3377  0.8516  0.3704
 5893SOL    HW229142   1.284   1.659   4.350 -1.9683 -2.4440  0.6115
 5894SOL     OW29143   2.880   1.479   4.720 -0.3087 -0.4361  0.1595
 5894SOL    HW129144   2.880   1.444   4.631 -0.7195 -2.1536  0.8382
 5894SOL    HW229145   2.970   1.451   4.740  0.4984 -0.2802 -3.2528
 5895SOL     OW29146   1.000   4.598   4.949  0.1435  0.3194 -0.0698
 5895SOL    HW129147   1.012   4.522   4.891 -2.7436  0.3357 -0.7351
 5895SOL    HW229148   0.908   4.584   4.973 -0.3350  1.3041 -1.3307
 5896SOL     OW29149   2.318   4.417   9.127  0.4510  0.2006 -0.4691
 5896SOL    HW129150   2.382   4.487   9.116  0.3133  0.2954 -0.6681
 5896SOL    HW229151   2.236   4.461   9.106 -0.9589 -2.5856 -0.8249
 5897SOL     OW29152   1.652   2.613   7.012  0.0641 -0.0378 -0.5854
 5897SOL    HW129153   1.709   2.580   6.943  1.8299  0.2346  0.7368
 5897SOL    HW229154   1.695   2.567   7.084  0.6711  1.8308  0.2625
 5898SOL     OW29155   4.124   0.444   4.104 -0.4799  0.2371  0.4718
 5898SOL    HW129156   4.136   0.362   4.056 -0.6256  0.5841 -0.1584
 5898SOL    HW229157   4.105   0.421   4.194  0.2227  1.9851  1.0694
 5899SOL     OW29158   1.183   0.891   7.318 -0.4015 -0.6724  0.0537
 5899SOL    HW129159   1.110   0.835   7.291 -0.1322 -1.2081  0.4467
 5899SOL    HW229160   1.227   0.920   7.238 -1.7602  0.0920 -0.4368
 5900SOL     OW29161   2.723   0.882   9.200  0.0436 -0.7133 -0.0323
 5900SOL    HW129162   2.817   0.895   9.184 -0.3894 -1.9067 -3.5105
 5900SOL    HW229163   2.730   0.898   9.294 -2.1488  2.0137 -0.3584
 5901SOL     OW29164   2.850   0.022   4.643 -0.6313 -0.2813  0.3830
 5901SOL    HW129165   2.915   0.061   4.585 -0.4140 -0.8525  0.2472
 5901SOL    HW229166   2.773   0.059   4.600 -0.6528 -1.5414 -0.6755
 5902SOL     OW29167   0.287   0.770   7.652  0.2224  0.0187 -0.0435
 5902SOL    HW129168   0.289   0.694   7.710 -0.1171 -1.2279 -1.6661
 5902SOL    HW229169   0.280   0.729   7.566 -0.9825 -1.7313  0.8835
 5903SOL     OW29170   3.833   3.801   3.707  0.5998  0.5464  0.1994
 5903SOL    HW129171   3.843   3.894   3.728  0.0808  0.6895 -0.1939
 5903SOL    HW229172   3.861   3.802   3.615  0.9870 -2.4501  0.2703
 5904SOL     OW29173   1.818   4.394  14.433  0.1054  0.6152 -0.6094
 5904SOL    HW129174   1.858   4.328  14.377  0.1199 -0.3019  0.4725
 5904SOL    HW229175   1.896   4.449  14.426  0.4667  0.4926  2.2776
 5905SOL     OW29176   3.135   3.494   4.020 -0.2269  0.0279 -0.0293
 5905SOL    HW129177   3.078   3.571   4.017 -1.5381 -0.9100  0.5076
 5905SOL    HW229178   3.104   3.441   3.947 -0.2616  0.2807 -0.2014
 5906SOL     OW29179   3.687   2.556   5.705  0.1498 -0.5526  0.2675
 5906SOL    HW129180   3.694   2.637   5.756  1.7070 -0.6769  0.2452
 5906SOL    HW229181   3.758   2.503   5.741  1.7574  0.6697 -1.1289
 5907SOL     OW29182   0.213   3.691   3.849 -0.3554 -0.0785  0.5190
 5907SOL    HW129183   0.288   3.654   3.894 -0.6563 -0.3128  0.8234
 5907SOL    HW229184   0.191   3.771   3.898  0.6365 -0.7913  2.1056
 5908SOL     OW29185   1.265   1.635   2.926  0.0921  0.5478  0.1473
 5908SOL    HW129186   1.330   1.704   2.914  2.3020 -1.2739  1.5629
 5908SOL    HW229187   1.185   1.669   2.888  0.4842  0.5641 -0.6653
 5909SOL     OW29188   1.424   3.464   8.380  0.3045 -0.0234  0.4261
 5909SOL    HW129189   1.429   3.558   8.395  0.5964 -0.0743  0.6313
 5909SOL    HW229190   1.435   3.429   8.468  0.3580  1.6516  1.0755
 5910SOL     OW29191   0.540   0.276   2.381 -0.3379 -0.4330  0.0337
 5910SOL    HW129192   0.471   0.211   2.398  2.0558 -2.3414  2.5071
 5910SOL    HW229193   0.524   0.307   2.292  0.0070  1.2534  0.5647
 5911SOL     OW29194   0.339   4.530   5.454  0.4193  0.2742  0.3484
 5911SOL    HW129195   0.417   4.578   5.479  0.2240  1.0968 -0.6099
 5911SOL    HW229196   0.269   4.579   5.497 -0.1314 -0.9601  0.8648
 5912SOL     OW29197   1.986   2.893   1.416  0.3595 -0.0562  0.0766
 5912SOL    HW129198   1.931   2.969   1.436  1.3602  0.8902 -0.7603
 5912SOL    HW229199   2.059   2.919   1.473 -1.9078  2.8990  1.6465
 5913SOL     OW29200   1.837   3.053   6.863  0.5263  0.2566  0.2790
 5913SOL    HW129201   1.919   3.004   6.867  0.6156  0.1994 -2.3844
 5913SOL    HW229202   1.815   3.053   6.956 -0.5362 -0.5879  0.0232
 5914SOL     OW29203   1.027   4.233  10.956  0.5708  0.1924 -0.2361
 5914SOL    HW129204   0.958   4.247  10.891  0.7738  1.2474 -0.2230
 5914SOL    HW229205   1.085   4.309  10.946 -0.5687  1.3004  1.5532
 5915SOL     OW29206   0.221   3.906   6.727  0.2152  0.1818  0.2033
 5915SOL    HW129207   0.170   3.976   6.685  0.7452  0.3245 -0.2090
 5915SOL    HW229208   0.145   3.859   6.759  0.8297 -1.1024 -0.2358
 5916SOL     OW29209   4.027   1.279  17.281  0.0501 -0.3785 -0.4106
 5916SOL    HW129210   4.032   1.249  17.191  0.9355  0.2967 -0.5849
 5916SOL    HW229211   4.087   1.229  17.336  0.6958 -0.7559 -1.4576
 5917SOL     OW29212   0.398   0.296   4.762 -0.0072 -0.3068  0.3864
 5917SOL    HW129213   0.364   0.306   4.673 -0.7488  1.9836  0.9261
 5917SOL    HW229214   0.485   0.324   4.733 -0.0955  0.0658  0.4817
 5918SOL     OW29215   2.027   1.839   0.689  0.1254 -0.6411 -0.6869
 5918SOL    HW129216   2.115   1.874   0.678  0.2439 -0.9477 -0.7117
 5918SOL    HW229217   2.020   1.832   0.784 -2.1388  0.9219 -0.7193
 5919SOL     OW29218   1.871   3.487   6.767 -0.4039 -0.3091  0.3494
 5919SOL    HW129219   1.892   3.580   6.765 -1.3821 -0.1156 -1.2390
 5919SOL    HW229220   1.808   3.479   6.839 -1.0002  0.5398 -0.0745
 5920SOL     OW29221   2.711   3.374  10.703  0.5953 -0.1028  0.0177
 5920SOL    HW129222   2.662   3.451  10.734 -0.9607 -0.2985 -1.9767
 5920SOL    HW229223   2.779   3.427  10.662  1.2161  1.0090  2.4432
 5921SOL     OW29224   1.429   1.642  11.900  0.3073 -0.2633  0.0305
 5921SOL    HW129225   1.358   1.629  11.962 -1.6284  3.4382 -1.4133
 5921SOL    HW229226   1.431   1.554  11.862 -0.7822  0.0124 -0.6625
 5922SOL     OW29227   1.340   4.193   7.076 -0.0143 -0.3175 -0.2052
 5922SOL    HW129228   1.262   4.163   7.122 -1.9016  2.2543 -1.7846
 5922SOL    HW229229   1.309   4.188   6.986 -2.1411 -0.8438  0.5635
 5923SOL     OW29230   2.644   1.094   1.698  0.2943  0.0028 -0.8730
 5923SOL    HW129231   2.635   1.143   1.616  0.3116 -1.3867 -1.6920
 5923SOL    HW229232   2.725   1.125   1.738 -0.7499 -0.3697  1.4924
 5924SOL     OW29233   1.688   1.888   7.603 -0.0872 -0.1378  0.2051
 5924SOL    HW129234   1.628   1.856   7.537 -1.5871  0.4140  1.3079
 5924SOL    HW229235   1.738   1.955   7.555 -0.0558 -0.7780 -0.6476
 5925SOL     OW29236   0.771   2.833   8.463  0.7322  0.5885 -0.4883
 5925SOL    HW129237   0.693   2.788   8.497 -1.0413  2.0073 -2.7249
 5925SOL    HW229238   0.748   2.833   8.370 -1.5977 -0.3683  0.0686
 5926SOL     OW29239   3.441   2.709   3.549 -0.6661 -0.4143  0.3086
 5926SOL    HW129240   3.413   2.747   3.466  1.1809  0.7360  0.2008
 5926SOL    HW229241   3.516   2.763   3.574  0.6595 -1.9067 -0.4964
 5927SOL     OW29242   3.743   2.457   7.935  0.0255  0.0787  0.6437
 5927SOL    HW129243   3.662   2.506   7.919  0.5675 -0.3564 -3.3814
 5927SOL    HW229244   3.805   2.530   7.941 -0.5837  0.6513 -0.0212
 5928SOL     OW29245   1.404   2.556   2.149 -0.1938  0.4000 -1.4087
 5928SOL    HW129246   1.478   2.583   2.096 -0.4242  1.9809 -0.9044
 5928SOL    HW229247   1.360   2.635   2.178  0.3577  0.7275 -1.4678
 5929SOL     OW29248   1.590   3.747  16.367 -0.5098 -0.4365 -0.0765
 5929SOL    HW129249   1.607   3.822  16.424  0.1700  0.4250 -1.4208
 5929SOL    HW229250   1.642   3.773  16.292  1.2181  4.0508  2.6914
 5930SOL     OW29251   0.936   0.407   7.467  0.1988  0.4825  0.2830
 5930SOL    HW129252   0.963   0.491   7.503 -3.5920  1.3516  1.0765
 5930SOL    HW229253   0.905   0.367   7.548  1.1493  0.4194  0.6151
 5931SOL     OW29254   4.129   2.312   8.218 -0.4502 -0.0881  0.0417
 5931SOL    HW129255   4.221   2.314   8.246 -0.1732 -0.2105 -0.8593
 5931SOL    HW229256   4.093   2.255   8.285 -1.8212 -1.9941 -2.3430
 5932SOL     OW29257   2.259   1.748   6.771 -0.1765 -0.0988  0.6089
 5932SOL    HW129258   2.277   1.786   6.857  0.5534  0.1517  0.3415
 5932SOL    HW229259   2.268   1.827   6.718  0.9339 -0.1135  0.7634
 5933SOL     OW29260   4.009   1.442   8.651 -0.4421 -0.7437 -0.0253
 5933SOL    HW129261   4.015   1.463   8.744  2.5046 -0.8969 -0.1909
 5933SOL    HW229262   3.938   1.502   8.629  0.0327 -0.9506 -2.1410
 5934SOL     OW29263   1.650   0.137   2.349  0.4156  0.1958 -0.2597
 5934SOL    HW129264   1.687   0.221   2.375 -0.0569  0.6557 -1.0954
 5934SOL    HW229265   1.653   0.149   2.254  0.4645  1.5552 -0.0814
 5935SOL     OW29266   2.562   3.965  13.735 -0.0566  0.3333  0.1907
 5935SOL    HW129267   2.486   4.016  13.763 -0.0136 -0.2525  1.4053
 5935SOL    HW229268   2.582   4.000  13.649  1.3019  0.6701  0.6354
 5936SOL     OW29269   1.018   3.450   0.638  0.2499  0.8776 -0.5956
 5936SOL    HW129270   0.992   3.441   0.547  2.0447  0.4159 -1.0666
 5936SOL    HW229271   1.018   3.365   0.682 -1.9404  0.1852 -1.9417
 5937SOL     OW29272   0.510   0.661   7.867 -0.5490  0.0715  0.1407
 5937SOL    HW129273   0.443   0.598   7.842  0.1041 -0.1438 -1.0777
 5937SOL    HW229274   0.516   0.671   7.962  1.7526  1.1817 -0.1210
 5938SOL     OW29275   0.004   4.526   3.822  0.4110  0.1044  0.1563
 5938SOL    HW129276   4.632   4.527   3.833  0.0591  0.6494 -2.8356
 5938SOL    HW229277   0.026   4.583   3.748  1.1523  1.8160  1.6887
 5939SOL     OW29278   0.204   3.787   6.202  0.4936 -0.0949 -0.0237
 5939SOL    HW129279   0.163   3.836   6.131 -0.9249 -0.6574  0.4070
 5939SOL    HW229280   0.247   3.709   6.167  1.7580  0.4471  0.3040
 5940SOL     OW29281   1.603   2.692   7.759 -0.0827 -0.2911  0.1699
 5940SOL    HW129282   1.543   2.746   7.707  1.0708  0.3093 -0.5650
 5940SOL    HW229283   1.633   2.760   7.820 -1.4050  0.1249  0.3522
 5941SOL     OW29284   1.379   1.823  15.939 -0.7037  0.3946  0.2246
 5941SOL    HW129285   1.385   1.917  15.927  3.1856 -0.1245 -1.9702
 5941SOL    HW229286   1.290   1.822  15.974 -0.9129  0.1042 -0.3144
 5942SOL     OW29287   0.689   2.877   5.969  0.2479  0.6703  0.1652
 5942SOL    HW129288   0.735   2.897   6.051 -0.2879 -0.2580  0.6975
 5942SOL    HW229289   0.747   2.925   5.910  0.5956 -0.3809 -0.3632
 5943SOL     OW29290   0.504   3.191   8.071 -0.2468  0.1447 -0.0624
 5943SOL    HW129291   0.491   3.254   8.142  3.5773  1.4451 -0.4903
 5943SOL    HW229292   0.598   3.169   8.067 -0.3956 -1.0812  2.9429
 5944SOL     OW29293   4.188   0.858  14.471 -0.2220 -0.7970 -0.0245
 5944SOL    HW129294   4.203   0.794  14.402 -2.7058  0.6402 -1.9190
 5944SOL    HW229295   4.279   0.874  14.497 -0.6513 -1.5662  1.9467
 5945SOL     OW29296   3.873   0.434   5.676  0.2064  0.2283  0.2832
 5945SOL    HW129297   3.819   0.513   5.668 -0.8059 -0.5574 -0.4827
 5945SOL    HW229298   3.862   0.409   5.768  0.3975 -1.4705 -0.1686
 5946SOL     OW29299   2.646   3.309   7.119  0.4111 -0.3635 -1.1259
 5946SOL    HW129300   2.699   3.371   7.069  2.9241  0.5470  2.6255
 5946SOL    HW229301   2.582   3.272   7.058 -0.8681 -1.0810  0.6555
 5947SOL     OW29302   0.981   4.628   5.640 -0.6049  0.0540  0.1799
 5947SOL    HW129303   0.964   4.533   5.643 -0.2693 -0.0951 -2.4233
 5947SOL    HW229304   0.900   4.663   5.603 -0.3723  0.3900 -0.0123
 5948SOL     OW29305   2.730   0.278  13.065  0.0402  0.4667 -0.4696
 5948SOL    HW129306   2.719   0.274  12.970 -0.1526 -0.5668 -0.4002
 5948SOL    HW229307   2.759   0.369  13.075  2.4514 -0.3753  0.1414
 5949SOL     OW29308   0.676   0.397   2.731 -1.0603 -0.4969  0.5032
 5949SOL    HW129309   0.747   0.450   2.767  0.7260 -3.0260  0.6770
 5949SOL    HW229310   0.640   0.457   2.666  1.7668  1.1336  0.4542
 5950SOL     OW29311   1.368   4.350  15.069 -0.1539  0.5400  0.0888
 5950SOL    HW129312   1.357   4.435  15.111  0.2055  1.7125 -2.2180
 5950SOL    HW229313   1.458   4.331  15.097  0.3481 -0.0381 -1.9064
 5951SOL     OW29314   3.056   1.625   6.325  0.2848 -0.0187 -0.3673
 5951SOL    HW129315   3.127   1.574   6.286  0.3399  1.2790 -1.9910
 5951SOL    HW229316   3.084   1.627   6.416  0.5409 -0.5085 -0.4371
 5952SOL     OW29317   0.502   1.765   9.359  0.4542 -0.1090  0.0229
 5952SOL    HW129318   0.512   1.779   9.265  0.8406  2.5547  0.4608
 5952SOL    HW229319   0.585   1.801   9.392  1.2874 -3.2168  1.3158
 5953SOL     OW29320   1.283   0.107   8.798 -0.0522 -0.2272  0.0045
 5953SOL    HW129321   1.248   0.195   8.783  1.1999  0.5602  1.7313
 5953SOL    HW229322   1.231   0.071   8.871  0.0777  0.1791  0.2984
 5954SOL     OW29323   1.627   4.431   7.011 -0.1870 -0.3936 -0.4458
 5954SOL    HW129324   1.569   4.425   7.087  0.8801 -0.2814  0.3838
 5954SOL    HW229325   1.568   4.432   6.936  0.7981 -1.8817 -1.2242
 5955SOL     OW29326   1.665   2.078   1.754 -0.2012 -0.5519  0.8867
 5955SOL    HW129327   1.617   2.161   1.749  1.0909  0.1759  0.3144
 5955SOL    HW229328   1.739   2.089   1.695 -1.4843 -3.5692 -1.2525
 5956SOL     OW29329   3.596   1.567   3.535 -0.7297 -0.7030  0.1746
 5956SOL    HW129330   3.510   1.598   3.561 -0.4902 -1.2146  1.5669
 5956SOL    HW229331   3.571   1.530   3.450 -0.6778 -0.5113  0.0756
 5957SOL     OW29332   0.909   0.248   2.705  0.4472 -0.2811  0.1993
 5957SOL    HW129333   0.847   0.306   2.750 -0.2888 -0.6517 -0.3305
 5957SOL    HW229334   0.880   0.245   2.614 -1.6840 -0.5860  0.8745
 5958SOL     OW29335   4.579   4.687  16.708 -0.2480 -0.4841 -0.0062
 5958SOL    HW129336   4.548   0.037  16.761 -0.9051 -0.2833 -0.6703
 5958SOL    HW229337   4.665   4.676  16.748  0.0050  1.1263 -0.1029
 5959SOL     OW29338   4.288   1.066   4.425 -0.2938 -0.3548  0.0854
 5959SOL    HW129339   4.278   1.064   4.521  0.6675 -0.5715  0.1879
 5959SOL    HW229340   4.367   1.116   4.402 -0.9633  0.5955 -0.1379
 5960SOL     OW29341   2.136   1.953   5.943 -0.2379 -0.3017 -0.4322
 5960SOL    HW129342   2.145   1.886   5.876 -1.9345  1.4029 -2.3863
 5960SOL    HW229343   2.130   1.902   6.024 -0.8793  1.6233  0.7414
 5961SOL     OW29344   1.913   3.144   3.173 -0.2841  0.6762  0.1474
 5961SOL    HW129345   1.897   3.210   3.106  0.4823 -0.1148 -0.8131
 5961SOL    HW229346   1.929   3.078   3.106  1.0037  1.0823  0.0421
 5962SOL     OW29347   3.549   3.962   4.551  0.5735  0.4560 -0.1097
 5962SOL    HW129348   3.523   3.956   4.459  0.5208 -1.0926  0.0064
 5962SOL    HW229349   3.589   3.875   4.554  1.2086  0.7405 -0.3807
 5963SOL     OW29350   0.799   3.583   5.313  0.9548  0.3279 -0.6875
 5963SOL    HW129351   0.819   3.551   5.225  1.6403  0.8574 -0.7181
 5963SOL    HW229352   0.814   3.498   5.356 -1.9071 -0.8557 -2.0129
 5964SOL     OW29353   0.660   3.135   9.316 -0.3298 -0.2411  0.4794
 5964SOL    HW129354   0.666   3.165   9.407 -1.3152  2.9595 -0.5005
 5964SOL    HW229355   0.621   3.048   9.321 -0.1335 -0.5438 -3.1922
 5965SOL     OW29356   4.256   0.364   9.341 -0.2615  0.2901 -0.6243
 5965SOL    HW129357   4.201   0.363   9.419  0.6482 -0.7542  0.0030
 5965SOL    HW229358   4.306   0.443   9.360  0.0844 -0.0219 -0.2362
 5966SOL     OW29359   1.526   3.824   1.522  0.3278 -0.0670 -0.2949
 5966SOL    HW129360   1.493   3.741   1.557 -3.1027  2.5533  2.6110
 5966SOL    HW229361   1.454   3.881   1.548  0.9776  1.0765 -1.0357
 5967SOL     OW29362   4.329   1.343   5.918  0.5140 -0.4187 -0.0359
 5967SOL    HW129363   4.364   1.280   5.855 -3.7136 -0.3759 -2.4716
 5967SOL    HW229364   4.310   1.290   5.996  0.3182  0.3202  0.4174
 5968SOL     OW29365   0.379   3.799   9.456  0.1250 -0.2143  0.1885
 5968SOL    HW129366   0.297   3.818   9.410  0.9322 -0.5058 -1.3387
 5968SOL    HW229367   0.366   3.842   9.541 -0.2914  0.7551 -0.3672
 5969SOL     OW29368   0.768   1.064   2.902  0.3931 -0.0673  0.3372
 5969SOL    HW129369   0.737   0.994   2.844  2.0078  0.8696 -1.6807
 5969SOL    HW229370   0.752   1.147   2.856 -1.0930 -0.9710 -0.8030
 5970SOL     OW29371   3.171   1.148   3.805 -0.3877  0.2514 -0.4873
 5970SOL    HW129372   3.210   1.084   3.746 -1.5174 -0.4671 -0.4709
 5970SOL    HW229373   3.151   1.215   3.740  1.0136  4.2049  3.1641
 5971SOL     OW29374   0.236   0.939   4.864 -0.1268  0.2490  0.6333
 5971SOL    HW129375   0.246   1.033   4.849 -1.8698 -0.0528 -2.5022
 5971SOL    HW229376   0.271   0.911   4.780 -1.0897 -1.9866  0.9707
 5972SOL     OW29377   0.058   1.476   0.238 -0.0360 -0.8408  0.1219
 5972SOL    HW129378   0.122   1.538   0.205 -0.2607 -1.7505 -2.0147
 5972SOL    HW229379   0.092   1.451   0.324 -2.3636  1.1230  1.6373
 5973SOL     OW29380   1.999   1.526   2.009  0.1638  0.4493  0.6463
 5973SOL    HW129381   1.934   1.567   1.952 -0.6667  1.0351  2.0209
 5973SOL    HW229382   2.040   1.463   1.949 -0.3193  1.7665 -1.0894
 5974SOL     OW29383   2.658   1.603   1.992  0.6312 -0.3672 -0.0536
 5974SOL    HW129384   2.571   1.566   1.980 -1.0191  3.5042  0.1425
 5974SOL    HW229385   2.715   1.537   1.951 -1.4084 -2.6865  0.8451
 5975SOL     OW29386   1.346   0.146   8.492  0.4121 -0.2240  0.6169
 5975SOL    HW129387   1.415   0.104   8.441 -0.1983  1.8430 -1.9090
 5975SOL    HW229388   1.354   0.096   8.573 -1.0865 -0.4980  0.5881
 5976SOL     OW29389   0.474   2.491   2.497  0.4397  0.3058 -0.1991
 5976SOL    HW129390   0.546   2.493   2.561 -1.1830  1.4596  1.5774
 5976SOL    HW229391   0.436   2.578   2.511  1.3888  0.7576 -0.3931
 5977SOL     OW29392   3.292   3.592   9.085  0.0700 -0.4611  0.2371
 5977SOL    HW129393   3.321   3.567   8.997  0.0603  0.0778  0.0816
 5977SOL    HW229394   3.283   3.511   9.135  1.1617  1.9629  4.3424
 5978SOL     OW29395   2.504   3.601  16.111  0.2168  0.5672  0.0823
 5978SOL    HW129396   2.511   3.686  16.069 -0.0758  0.8715  0.6513
 5978SOL    HW229397   2.536   3.541  16.043 -0.4547 -1.3749  1.4732
 5979SOL     OW29398   0.697   3.916   4.658 -0.0200 -0.0524 -0.4245
 5979SOL    HW129399   0.717   3.931   4.750 -0.5970  0.4179 -0.3743
 5979SOL    HW229400   0.742   3.988   4.614 -0.0586 -0.2191 -0.7340
 5980SOL     OW29401   1.245   4.621   2.971 -0.1833  0.0754  0.0478
 5980SOL    HW129402   1.228   4.716   2.968 -0.5190  0.0156  0.0670
 5980SOL    HW229403   1.340   4.620   2.974 -0.2711  0.1580  2.5087
 5981SOL     OW29404   3.041   3.637   8.321 -0.2554  0.2211 -0.0999
 5981SOL    HW129405   3.029   3.587   8.402  0.1293 -0.2554 -0.3363
 5981SOL    HW229406   2.952   3.641   8.285 -0.7802 -0.2162  1.1701
 5982SOL     OW29407   1.271   2.332  16.547  0.5624  0.2203  0.0337
 5982SOL    HW129408   1.220   2.262  16.586  0.5700  1.1019  1.6162
 5982SOL    HW229409   1.322   2.365  16.621  0.9535 -0.9664  0.2769
 5983SOL     OW29410   0.469   3.902   3.941 -0.1906 -0.3045  0.8279
 5983SOL    HW129411   0.401   3.923   4.005 -0.1102 -0.9856  1.1427
 5983SOL    HW229412   0.415   3.914   3.863  0.6520  1.0016  0.4687
 5984SOL     OW29413   2.763   3.787   7.946 -0.2026 -0.3225  0.1333
 5984SOL    HW129414   2.674   3.753   7.934 -0.2693  0.5946 -2.0991
 5984SOL    HW229415   2.785   3.836   7.867 -0.4107  0.0217  0.2887
 5985SOL     OW29416   1.000   4.359   6.947  0.2399 -0.2039  0.5715
 5985SOL    HW129417   0.967   4.441   6.983 -0.1508 -0.8256  1.6306
 5985SOL    HW229418   0.934   4.289   6.950 -0.4718  0.3552 -1.6306
 5986SOL     OW29419   3.796   1.614   9.824 -0.1048  0.1880 -0.4085
 5986SOL    HW129420   3.794   1.709   9.816  0.9684  0.3833  1.7469
 5986SOL    HW229421   3.881   1.601   9.867 -1.2461  0.1376  1.8047
 5987SOL     OW29422   1.619   4.109  13.685  0.7105 -0.4768  0.1506
 5987SOL    HW129423   1.684   4.072  13.625  0.4551 -1.3134  0.3805
 5987SOL    HW229424   1.546   4.053  13.659  1.8203 -2.4902  1.3402
 5988SOL     OW29425   2.531   4.353   5.038  0.6462  0.0943 -0.2839
 5988SOL    HW129426   2.523   4.359   4.942  2.3592  1.4478 -0.3376
 5988SOL    HW229427   2.606   4.407   5.063 -0.7702  0.9169  2.0878
 5989SOL     OW29428   4.324   4.283   8.455 -0.4325 -0.1163  0.3449
 5989SOL    HW129429   4.325   4.223   8.380  1.2070 -1.3059  1.3418
 5989SOL    HW229430   4.367   4.218   8.510 -1.0685 -0.2767  0.6466
 5990SOL     OW29431   3.992   4.231  12.769 -0.1308  0.4144  0.7763
 5990SOL    HW129432   4.058   4.162  12.769 -1.2571 -0.6464 -2.9394
 5990SOL    HW229433   3.924   4.187  12.819  2.7889 -3.7406  1.0324
 5991SOL     OW29434   1.844   1.606  11.190  0.5544 -0.9134  0.2571
 5991SOL    HW129435   1.894   1.545  11.245  0.1632  0.3370  1.9882
 5991SOL    HW229436   1.904   1.678  11.175  0.3694 -1.0928 -1.3607
 5992SOL     OW29437   2.999   2.133   5.926 -0.1881  0.0277  0.2818
 5992SOL    HW129438   2.944   2.205   5.893 -0.0275  0.3545  0.7204
 5992SOL    HW229439   3.076   2.145   5.871 -0.5683  1.0562 -0.0356
 5993SOL     OW29440   0.022   1.297   9.788 -0.5796 -0.0322 -0.0929
 5993SOL    HW129441   4.705   1.242   9.721 -2.8269  0.5206  0.8256
 5993SOL    HW229442   0.026   1.234   9.860  1.3901 -2.3512 -2.2205
 5994SOL     OW29443   2.134   3.345  15.291  0.3352  0.3153 -0.0763
 5994SOL    HW129444   2.204   3.293  15.252 -0.2756 -2.0635  1.9875
 5994SOL    HW229445   2.091   3.395  15.221 -0.2350 -0.3585 -0.2049
 5995SOL     OW29446   0.736   0.333  16.135  0.4357 -0.2848 -0.5580
 5995SOL    HW129447   0.656   0.282  16.136  0.6405 -0.5947  1.2057
 5995SOL    HW229448   0.747   0.345  16.041 -0.7898  2.0037 -0.4231
 5996SOL     OW29449   2.328   1.436   7.473  0.3445 -0.0231  0.0929
 5996SOL    HW129450   2.348   1.454   7.564 -0.1281  2.0690 -0.2199
 5996SOL    HW229451   2.261   1.368   7.477  1.4805 -1.2099 -0.7580
 5997SOL     OW29452   0.740   4.366   7.363  0.2711  0.2981  0.1743
 5997SOL    HW129453   0.774   4.454   7.377  0.0138  0.1853  1.5554
 5997SOL    HW229454   0.804   4.306   7.402  1.0205 -0.1849 -1.7787
 5998SOL     OW29455   0.005   1.436   7.935 -0.1579  0.2727 -0.2784
 5998SOL    HW129456   0.094   1.473   7.941  0.2159 -0.4057 -1.6647
 5998SOL    HW229457   4.698   1.469   7.851 -0.4090  0.0659 -0.2687
 5999SOL     OW29458   4.310   0.090   5.282 -0.0879 -0.2152  0.5581
 5999SOL    HW129459   4.217   0.100   5.301  0.3620  0.9306  2.1403
 5999SOL    HW229460   4.306   0.055   5.193 -0.7307  2.0241 -0.2737
 6000SOL     OW29461   1.223   4.245   6.832 -0.2515 -0.9655  0.1186
 6000SOL    HW129462   1.149   4.275   6.884  0.4963  0.6028  0.2814
 6000SOL    HW229463   1.190   4.186   6.764 -0.6926 -1.1034  0.4566
 6001SOL     OW29464   4.080   2.745  11.588 -0.4626  0.3661 -0.2848
 6001SOL    HW129465   4.100   2.816  11.528 -3.0431  0.9901 -0.4262
 6001SOL    HW229466   4.004   2.708  11.543 -1.6735  3.4671 -0.7756
 6002SOL     OW29467   0.204   1.164   2.901 -0.2468  0.1342 -0.2091
 6002SOL    HW129468   0.252   1.095   2.946  0.2620  0.5845 -0.0530
 6002SOL    HW229469   0.281   1.218   2.883 -0.0578  0.4133  1.4606
 6003SOL     OW29470   3.108   1.345  14.841 -0.3485 -0.3018  0.1796
 6003SOL    HW129471   3.143   1.364  14.927  1.6075  0.3040 -0.7606
 6003SOL    HW229472   3.018   1.323  14.867 -0.4820  1.3488  1.0800
 6004SOL     OW29473   0.263   0.886   4.037  0.2659 -0.1744  0.2699
 6004SOL    HW129474   0.189   0.943   4.019 -0.2440 -1.2687 -1.0922
 6004SOL    HW229475   0.230   0.820   4.097  0.2465 -0.4143 -0.0051
 6005SOL     OW29476   1.350   2.301   0.355  0.4097  0.0059  0.0312
 6005SOL    HW129477   1.315   2.384   0.323 -0.6997 -0.6497 -0.4379
 6005SOL    HW229478   1.329   2.237   0.287  0.5262 -1.6737  1.5907
 6006SOL     OW29479   2.634   1.900   8.428  0.0871 -0.1727 -0.1349
 6006SOL    HW129480   2.713   1.848   8.441 -0.4213 -0.7947  0.5019
 6006SOL    HW229481   2.564   1.841   8.458 -0.5302  0.9641  0.6728
 6007SOL     OW29482   1.535   1.103  11.461 -0.4731 -1.0675  0.6390
 6007SOL    HW129483   1.590   1.027  11.480  1.2202  0.5889  2.4317
 6007SOL    HW229484   1.588   1.155  11.401 -0.1385 -3.0275 -0.7815
 6008SOL     OW29485   3.075   3.817   5.540 -0.3803 -0.6604 -0.1373
 6008SOL    HW129486   3.170   3.804   5.542 -0.3592 -0.4615  0.0926
 6008SOL    HW229487   3.057   3.751   5.607 -1.4115 -2.1451 -1.8709
 6009SOL     OW29488   3.151   1.336   9.015 -0.0657 -0.2116  0.1674
 6009SOL    HW129489   3.129   1.401   8.948  1.5802  0.0661 -0.0906
 6009SOL    HW229490   3.175   1.258   8.964 -0.3782  0.8824 -1.6335
 6010SOL     OW29491   0.180   2.969   3.493  0.3555  0.2091  0.3685
 6010SOL    HW129492   0.165   3.019   3.412  0.3695  0.9909  0.8413
 6010SOL    HW229493   0.125   3.019   3.554 -2.4756  0.9755 -2.8127
 6011SOL     OW29494   1.730   0.179   6.352 -0.0445 -0.0952  0.1768
 6011SOL    HW129495   1.684   0.144   6.275 -0.9300 -2.8030  1.9363
 6011SOL    HW229496   1.750   0.265   6.315  1.7603 -1.2294 -1.4816
 6012SOL     OW29497   2.321   1.001   2.708  0.2432  0.2549 -0.2426
 6012SOL    HW129498   2.368   1.075   2.669  0.9401 -0.0261  0.0594
 6012SOL    HW229499   2.234   1.039   2.716  0.3768  0.0446  2.1263
 6013SOL     OW29500   4.406   3.306   3.672  0.3433  0.6429  0.1437
 6013SOL    HW129501   4.359   3.227   3.697  0.9098  0.0653 -0.5905
 6013SOL    HW229502   4.498   3.290   3.695  0.9409  2.6463 -0.8040
 6014SOL     OW29503   3.045   1.773   4.943  0.5277  0.6068 -0.0661
 6014SOL    HW129504   2.979   1.756   4.877  1.8119 -1.8328 -0.6977
 6014SOL    HW229505   3.024   1.865   4.962 -0.1792  0.3349  0.4596
 6015SOL     OW29506   2.673   0.095   8.984  0.7113  0.1142  0.2468
 6015SOL    HW129507   2.642   0.171   9.033  2.6662  0.7037  0.5593
 6015SOL    HW229508   2.726   0.137   8.917  0.1143  2.7002  1.3967
 6016SOL     OW29509   2.356   0.792  16.073 -0.6367 -0.1074  0.4842
 6016SOL    HW129510   2.300   0.726  16.115  2.3003 -1.5299  2.1787
 6016SOL    HW229511   2.340   0.781  15.980  1.1947  1.8568 -0.0517
 6017SOL     OW29512   3.841   3.881   8.871 -0.0656 -0.0535  0.3073
 6017SOL    HW129513   3.907   3.880   8.940  0.7931  0.2185 -0.5048
 6017SOL    HW229514   3.791   3.802   8.891 -0.6947 -0.4801 -2.9627
 6018SOL     OW29515   2.434   3.893   5.379 -0.0172 -0.4557 -0.5785
 6018SOL    HW129516   2.436   3.961   5.312  1.1576  0.2504  0.1810
 6018SOL    HW229517   2.469   3.940   5.455 -2.5093  0.0956  0.2377
 6019SOL     OW29518   4.438   3.265   8.144 -0.2291  0.2472 -0.6542
 6019SOL    HW129519   4.500   3.308   8.202 -1.6171  1.5228 -0.1174
 6019SOL    HW229520   4.358   3.317   8.140 -0.1295  0.4992  0.7596
 6020SOL     OW29521   0.371   3.569  15.395  0.0330 -0.3398  0.0880
 6020SOL    HW129522   0.361   3.517  15.315  0.6440 -0.1913 -0.0855
 6020SOL    HW229523   0.391   3.653  15.355  3.4448 -1.1686  0.0810
 6021SOL     OW29524   2.172   0.913   5.992 -0.4792 -0.1384 -0.0483
 6021SOL    HW129525   2.251   0.879   5.951  0.8884  2.2285  0.6207
 6021SOL    HW229526   2.184   1.004   5.963  0.6287 -0.1122  0.5121
 6022SOL     OW29527   0.277   1.667   6.364 -0.2071 -0.4907  0.4945
 6022SOL    HW129528   0.229   1.723   6.425 -2.6727  1.5107 -3.3226
 6022SOL    HW229529   0.310   1.728   6.298 -1.8674 -1.9659 -1.6751
 6023SOL     OW29530   1.305   3.054   7.400  0.3252  0.5549  0.3697
 6023SOL    HW129531   1.322   3.092   7.487  0.0245  1.6965 -0.0798
 6023SOL    HW229532   1.238   3.118   7.376  0.0961  1.1658  2.6098
 6024SOL     OW29533   1.424   0.370   2.017  0.3923 -0.0512  0.0110
 6024SOL    HW129534   1.478   0.420   2.078  0.2050 -1.0253  0.9848
 6024SOL    HW229535   1.490   0.350   1.951  2.3575 -0.2696  2.0274
 6025SOL     OW29536   0.334   0.795  12.789 -0.4135 -0.3784 -0.3096
 6025SOL    HW129537   0.246   0.775  12.759 -1.1925  1.6178  0.6071
 6025SOL    HW229538   0.382   0.736  12.731  1.6007  1.2084 -0.2964
 6026SOL     OW29539   3.355   1.069   1.076 -0.3707  0.4919  0.2905
 6026SOL    HW129540   3.400   1.153   1.088  0.1544  0.2021  0.3195
 6026SOL    HW229541   3.349   1.045   1.169  0.2917  0.7567  0.4001
 6027SOL     OW29542   4.493   4.299   9.083 -0.3425  0.3487 -0.5521
 6027SOL    HW129543   4.452   4.340   9.007 -1.3237 -0.8077 -0.6271
 6027SOL    HW229544   4.503   4.384   9.127  0.9863 -1.0538  1.8738
 6028SOL     OW29545   1.524   3.314  16.542  0.1185 -0.0939 -0.3420
 6028SOL    HW129546   1.431   3.293  16.541 -0.2483  1.5370  0.0283
 6028SOL    HW229547   1.548   3.241  16.599 -1.0174  0.5946  1.0450
 6029SOL     OW29548   4.528   3.702   4.947  0.1772 -0.8667  0.2617
 6029SOL    HW129549   4.550   3.795   4.947 -0.6061 -0.6810 -0.5010
 6029SOL    HW229550   4.587   3.680   4.875 -1.2331 -0.0125 -1.1540
 6030SOL     OW29551   0.396   0.193   5.942 -0.5582  0.3990 -0.0708
 6030SOL    HW129552   0.423   0.109   5.906  1.2697  0.8446  0.2279
 6030SOL    HW229553   0.304   0.175   5.960 -0.3191 -1.7741 -1.0049
 6031SOL     OW29554   3.037   0.504   4.969  0.3765 -0.7906 -0.1872
 6031SOL    HW129555   3.068   0.591   4.942 -0.2386 -0.2598  0.7868
 6031SOL    HW229556   3.002   0.525   5.056  0.0499  0.2088 -0.5624
 6032SOL     OW29557   2.247   1.663  13.710 -0.6694  0.4796  0.0328
 6032SOL    HW129558   2.247   1.722  13.635  0.8293  1.6804  0.9903
 6032SOL    HW229559   2.316   1.701  13.765  0.1692  0.6549 -1.1456
 6033SOL     OW29560   1.063   3.018   2.891  0.2848 -0.1659  0.2563
 6033SOL    HW129561   1.096   2.938   2.931 -2.2611 -0.0284  2.6062
 6033SOL    HW229562   1.099   2.999   2.804  0.9222  0.2733  0.4258
 6034SOL     OW29563   1.258   4.196   8.119  0.0893  0.4797  0.4435
 6034SOL    HW129564   1.239   4.131   8.186  1.1543 -1.1248 -0.7929
 6034SOL    HW229565   1.347   4.171   8.095 -0.1199  0.8019 -0.6627
 6035SOL     OW29566   3.790   0.804   0.461 -0.3693 -0.3354  0.1891
 6035SOL    HW129567   3.822   0.886   0.424  1.2604 -1.7624 -1.5565
 6035SOL    HW229568   3.812   0.739   0.395 -1.5138  0.1158 -0.6324
 6036SOL     OW29569   2.461   4.396   6.916  0.2905 -0.8690 -0.4561
 6036SOL    HW129570   2.399   4.429   6.981 -1.2499 -3.9383 -0.3560
 6036SOL    HW229571   2.525   4.467   6.922 -2.3479  1.5700 -0.9270
 6037SOL     OW29572   1.157   4.454  14.921 -0.2220  0.2236  0.1640
 6037SOL    HW129573   1.147   4.546  14.895 -2.1786 -0.3444 -1.1700
 6037SOL    HW229574   1.130   4.466  15.012 -1.0467 -0.4587  0.0087
 6038SOL     OW29575   0.525   0.804   9.419 -0.3184 -1.1197  0.6213
 6038SOL    HW129576   0.596   0.740   9.414  1.3822  0.9874 -1.7716
 6038SOL    HW229577   0.449   0.753   9.445 -0.1903 -1.9015 -0.5515
 6039SOL     OW29578   4.535   0.040   5.658  0.4793 -0.0209 -0.0385
 6039SOL    HW129579   4.613   4.710   5.647  1.1139  0.3385  2.8894
 6039SOL    HW229580   4.465   4.700   5.675 -0.3944  0.3457 -2.2648
 6040SOL     OW29581   4.398   1.606   4.291  0.1049  0.0286  0.0575
 6040SOL    HW129582   4.479   1.571   4.254  0.5069  1.5779 -0.5404
 6040SOL    HW229583   4.370   1.521   4.324  1.4895 -1.3505 -2.3729
 6041SOL     OW29584   0.381   2.755   2.542 -0.2383  0.3275 -0.1847
 6041SOL    HW129585   0.394   2.819   2.612  1.6636  0.8755 -1.0678
 6041SOL    HW229586   0.298   2.779   2.500  1.0676  1.3058 -2.1876
 6042SOL     OW29587   3.192   2.141   4.829 -0.2208  0.2512  0.2460
 6042SOL    HW129588   3.243   2.084   4.771 -1.2757  0.7655 -1.1984
 6042SOL    HW229589   3.145   2.178   4.754  0.9870  0.7361 -0.2797
 6043SOL     OW29590   4.471   3.123  14.325  0.8143 -0.4937  0.1882
 6043SOL    HW129591   4.562   3.099  14.340  0.6801 -2.4039 -1.9954
 6043SOL    HW229592   4.479   3.218  14.322 -1.5668 -0.4241 -2.8558
 6044SOL     OW29593   2.727   0.853   8.736  0.0463  0.0997  0.4294
 6044SOL    HW129594   2.744   0.931   8.789  1.5146  0.4801 -0.6020
 6044SOL    HW229595   2.794   0.792   8.766  0.3938  0.9921  1.4405
 6045SOL     OW29596   3.442   3.503  13.512  0.7950  0.2058 -0.3204
 6045SOL    HW129597   3.530   3.500  13.549  0.9806  0.4852 -0.7353
 6045SOL    HW229598   3.422   3.411  13.499  1.2501  0.1323 -0.5006
 6046SOL     OW29599   4.564   1.639   8.497  0.0297  0.2478 -0.4841
 6046SOL    HW129600   4.640   1.611   8.549  0.0809  1.6076  0.1736
 6046SOL    HW229601   4.523   1.701   8.557  0.2578  0.3005 -0.3841
 6047SOL     OW29602   3.448   0.039   7.108 -0.2855 -0.2678 -0.3250
 6047SOL    HW129603   3.506   0.102   7.066 -2.2555  1.3979 -0.5451
 6047SOL    HW229604   3.415   4.700   7.044 -2.8704 -0.0542  0.8002
 6048SOL     OW29605   0.020   0.441   9.173  0.3195 -0.4485  0.2623
 6048SOL    HW129606   4.697   0.415   9.094 -0.0983 -1.5524  0.8674
 6048SOL    HW229607   0.078   0.511   9.145  1.8982 -1.5844  0.7113
 6049SOL     OW29608   3.955   3.336  15.970 -0.3851  0.7510  0.1405
 6049SOL    HW129609   4.039   3.362  16.010  0.9522 -0.1880 -2.0674
 6049SOL    HW229610   3.895   3.407  15.992 -1.0899  0.6258 -1.3785
 6050SOL     OW29611   3.339   2.871   2.231 -0.5118 -0.4892  0.5412
 6050SOL    HW129612   3.341   2.898   2.139 -0.4603 -1.6190  0.2136
 6050SOL    HW229613   3.294   2.788   2.221 -2.3334  0.3149  2.1737
 6051SOL     OW29614   3.612   3.464   7.256 -0.0692  0.1879 -0.5311
 6051SOL    HW129615   3.663   3.538   7.291 -1.2041  0.5470  0.3501
 6051SOL    HW229616   3.683   3.400   7.252 -0.7721 -0.6882  1.3013
 6052SOL     OW29617   2.611   3.031   6.462 -0.0633  1.1222 -0.1851
 6052SOL    HW129618   2.560   3.103   6.427  0.1449  0.9307 -0.8707
 6052SOL    HW229619   2.587   3.036   6.555  0.6530 -0.1469  0.0739
 6053SOL     OW29620   2.519   3.425   0.082  0.3899  0.0093  0.4801
 6053SOL    HW129621   2.592   3.461   0.133  2.3239 -0.6703 -1.8014
 6053SOL    HW229622   2.536   3.465  17.691 -0.5693  3.5031  1.9161
 6054SOL     OW29623   3.450   2.578  14.749 -0.1279 -0.5035 -0.1045
 6054SOL    HW129624   3.441   2.530  14.831 -0.3768  1.4508  0.9999
 6054SOL    HW229625   3.541   2.561  14.726  0.5359  1.3025  1.2731
 6055SOL     OW29626   0.086   1.816  10.683 -0.1160  0.2416 -0.3606
 6055SOL    HW129627   0.125   1.790  10.767  1.1291 -0.0285 -1.0125
 6055SOL    HW229628   0.025   1.743  10.678  1.0873 -0.6126 -2.5492
 6056SOL     OW29629   3.620   2.091   3.876  1.1588 -0.2700 -0.2024
 6056SOL    HW129630   3.574   2.097   3.959  0.0300 -1.3751 -0.7270
 6056SOL    HW229631   3.645   2.182   3.860  0.3409 -0.1213 -0.6130
 6057SOL     OW29632   0.401   0.984   7.545  0.3407 -0.2710 -0.2650
 6057SOL    HW129633   0.361   0.900   7.571  0.9265 -0.3746  0.3014
 6057SOL    HW229634   0.446   1.010   7.625  1.0848 -1.6273 -0.2410
 6058SOL     OW29635   3.392   2.375   6.027  0.0618 -0.0482  0.5030
 6058SOL    HW129636   3.485   2.397   6.025  0.8329 -3.1975  1.5127
 6058SOL    HW229637   3.413   2.284   6.052 -0.7062 -0.0881  1.0229
 6059SOL     OW29638   4.050   3.244   6.185 -0.7500  0.2540 -0.2365
 6059SOL    HW129639   4.112   3.209   6.121 -1.0080 -2.5420  1.0270
 6059SOL    HW229640   4.028   3.332   6.156 -1.3587 -0.2804 -1.3790
 6060SOL     OW29641   4.218   4.138   2.471 -0.3100  0.2579 -0.4294
 6060SOL    HW129642   4.131   4.176   2.477 -0.5118 -0.3389  0.3634
 6060SOL    HW229643   4.249   4.175   2.388  1.4959 -0.8244 -0.2547
 6061SOL     OW29644   1.345   1.753   4.019 -0.8670  0.0012  0.3368
 6061SOL    HW129645   1.366   1.830   3.966  1.0069 -1.5240 -1.1094
 6061SOL    HW229646   1.290   1.786   4.090 -0.0289  0.5720  0.7188
 6062SOL     OW29647   4.133   3.569   4.417 -0.0129  0.0742  0.3454
 6062SOL    HW129648   4.181   3.585   4.498 -0.1634 -2.1739  0.8649
 6062SOL    HW229649   4.211   3.558   4.362  0.4165  2.0086  0.5623
 6063SOL     OW29650   3.657   2.045  14.090 -0.4530 -0.5947  0.3115
 6063SOL    HW129651   3.721   2.101  14.046 -1.4045 -0.0253 -0.3209
 6063SOL    HW229652   3.707   1.968  14.119  1.3708  0.5677  0.2201
 6064SOL     OW29653   0.447   4.298   8.045 -0.2836  0.0822  0.0950
 6064SOL    HW129654   0.533   4.338   8.057 -0.7809  0.5855  1.8914
 6064SOL    HW229655   0.398   4.369   8.004 -1.1686 -0.0331  0.9502
 6065SOL     OW29656   1.099   4.021  12.961 -0.4323  0.6329  0.4156
 6065SOL    HW129657   1.168   4.084  12.943  0.3066 -0.1080  0.6722
 6065SOL    HW229658   1.040   4.029  12.886 -0.0444  0.6996  0.1204
 6066SOL     OW29659   1.787   3.548   0.992 -0.0081  0.0961 -0.5486
 6066SOL    HW129660   1.783   3.454   1.008 -2.0085  0.3730  0.6279
 6066SOL    HW229661   1.872   3.558   0.950  1.3034  0.9137  2.3506
 6067SOL     OW29662   1.071   3.962   3.505 -0.3199  0.3334  0.7593
 6067SOL    HW129663   1.087   3.903   3.579  0.1792 -2.2188 -1.4040
 6067SOL    HW229664   0.994   4.015   3.527 -2.0599 -1.6114 -0.6368
 6068SOL     OW29665   2.154   3.459   5.385  0.2908 -0.1861 -0.2507
 6068SOL    HW129666   2.129   3.551   5.378 -1.1294 -0.4679  1.1708
 6068SOL    HW229667   2.225   3.463   5.449 -0.4234 -1.3931  0.6171
 6069SOL     OW29668   1.652   4.134   4.621  0.1030 -0.1003  0.0461
 6069SOL    HW129669   1.575   4.174   4.581 -0.9705  0.0144  2.2185
 6069SOL    HW229670   1.611   4.064   4.672 -1.8536  0.4607 -0.7585
 6070SOL     OW29671   3.030   2.295   4.660  0.9817  0.3823  0.5659
 6070SOL    HW129672   3.023   2.346   4.740 -0.5564 -0.8377  1.1906
 6070SOL    HW229673   3.027   2.372   4.603 -2.2093 -1.3843 -1.6468
 6071SOL     OW29674   2.364   0.117   8.201 -0.2855  0.7074 -0.5855
 6071SOL    HW129675   2.443   0.153   8.161 -0.1364  0.8998 -0.1289
 6071SOL    HW229676   2.371   0.022   8.198  0.5033  0.7079  1.1775
 6072SOL     OW29677   0.857   3.733   0.675  0.1849  0.1645  0.1736
 6072SOL    HW129678   0.783   3.688   0.716  1.9449 -0.8544  2.2497
 6072SOL    HW229679   0.910   3.659   0.644  1.1398  0.9402 -0.0374
 6073SOL     OW29680   1.209   4.157   2.037 -0.5524  0.3230 -0.0759
 6073SOL    HW129681   1.208   4.175   1.942 -1.0055 -0.9252 -0.3000
 6073SOL    HW229682   1.286   4.099   2.039 -1.1690 -0.4546  0.7098
 6074SOL     OW29683   0.745   1.405  12.389 -0.0426  0.2942 -1.0395
 6074SOL    HW129684   0.701   1.428  12.308 -2.5286  0.9808  0.4968
 6074SOL    HW229685   0.786   1.487  12.417 -0.1924  0.5940 -1.7000
 6075SOL     OW29686   3.768   3.176   6.601 -0.1541 -0.1444  0.2972
 6075SOL    HW129687   3.729   3.222   6.676 -1.5664  0.3736 -0.7408
 6075SOL    HW229688   3.764   3.237   6.527  1.4802  1.0683  1.2318
 6076SOL     OW29689   1.703   0.343   2.951 -0.0378 -0.1349  0.6869
 6076SOL    HW129690   1.631   0.320   3.009 -1.5790 -1.7541 -1.8509
 6076SOL    HW229691   1.651   0.369   2.875  0.0625  1.6550  1.2430
 6077SOL     OW29692   0.996   4.634   6.752  0.2008  0.1694 -0.0152
 6077SOL    HW129693   1.066   4.624   6.816  0.0668 -2.9973 -0.3475
 6077SOL    HW229694   0.920   4.629   6.810  1.6668 -1.9888  1.7102
 6078SOL     OW29695   2.021   4.578  12.361 -0.0507 -0.5409  0.4334
 6078SOL    HW129696   2.093   4.533  12.406  1.1393 -1.1439 -2.0821
 6078SOL    HW229697   1.986   4.640  12.425 -2.3047 -2.9038  1.4635
 6079SOL     OW29698   0.036   3.042   2.202  0.0023 -0.4410  0.3257
 6079SOL    HW129699   0.076   3.117   2.159 -1.6602 -0.0918 -0.6432
 6079SOL    HW229700   0.072   2.974   2.145  1.5340 -1.7015  2.8189
 6080SOL     OW29701   3.106   3.922  12.970  0.5840 -0.2994  0.0766
 6080SOL    HW129702   3.074   3.961  13.052  0.3423 -0.8775  0.2592
 6080SOL    HW229703   3.145   3.988  12.913 -0.4206 -1.3499 -1.7916
 6081SOL     OW29704   1.700   4.145   1.019 -0.4190  0.0328  0.5325
 6081SOL    HW129705   1.635   4.173   0.954 -0.5703 -0.0142  0.6612
 6081SOL    HW229706   1.740   4.228   1.046  1.3668 -0.5602 -0.3433
 6082SOL     OW29707   0.220   1.015  11.648  0.2164 -0.1209 -0.2782
 6082SOL    HW129708   0.137   1.002  11.602 -0.5424 -1.3478  1.4228
 6082SOL    HW229709   0.277   0.950  11.606 -0.4721 -1.2300  0.4805
 6083SOL     OW29710   3.116   3.997   1.759  0.2624 -0.0154  0.1836
 6083SOL    HW129711   3.119   3.986   1.663  2.8866 -1.3720  0.4230
 6083SOL    HW229712   3.029   4.028   1.781  0.5930  0.0865  1.3331
 6084SOL     OW29713   0.800   2.556   9.843 -0.3737  0.1207 -0.2781
 6084SOL    HW129714   0.855   2.594   9.911  1.7818  0.1045 -2.0246
 6084SOL    HW229715   0.726   2.526   9.896 -1.6244  1.4854 -1.2335
 6085SOL     OW29716   2.969   3.270   7.515 -0.2868  0.7764  0.1942
 6085SOL    HW129717   3.062   3.257   7.499 -0.2156 -0.2599  1.4538
 6085SOL    HW229718   2.950   3.196   7.573  0.4248 -0.7958 -1.5530
 6086SOL     OW29719   4.420   0.469   5.199 -0.0079  0.1109 -0.3020
 6086SOL    HW129720   4.429   0.398   5.136  0.4888  2.4194 -2.8014
 6086SOL    HW229721   4.325   0.479   5.206  0.0521  0.2314  0.4019
 6087SOL     OW29722   4.182   4.175   6.673 -0.5561 -0.0101 -0.5398
 6087SOL    HW129723   4.148   4.210   6.755  2.0523 -1.6013  1.2185
 6087SOL    HW229724   4.266   4.219   6.679 -1.8763  2.6084 -1.3529
 6088SOL     OW29725   1.306   0.306   5.816  0.2841  0.0708  0.5718
 6088SOL    HW129726   1.302   0.297   5.911  0.7020  1.5941  0.7269
 6088SOL    HW229727   1.400   0.300   5.800  0.2794 -0.1167  0.6119
 6089SOL     OW29728   3.382   3.856   3.656 -0.3771  0.0371 -0.0777
 6089SOL    HW129729   3.421   3.775   3.688  0.0525  0.1456 -0.3331
 6089SOL    HW229730   3.384   3.902   3.741  3.1543 -1.7741  0.8097
 6090SOL     OW29731   2.028   3.300   6.112  0.3720 -0.0245 -0.0081
 6090SOL    HW129732   2.082   3.226   6.140  1.0330  0.2794 -0.4748
 6090SOL    HW229733   2.039   3.362   6.184  0.1304  1.4110 -1.1954
 6091SOL     OW29734   3.570   3.645  10.904  0.7819 -0.3107 -0.3723
 6091SOL    HW129735   3.629   3.653  10.979  0.9061 -0.7203 -0.4271
 6091SOL    HW229736   3.642   3.648  10.841  2.4176 -1.0499  1.4702
 6092SOL     OW29737   0.081   1.585   3.522 -0.4431  0.1389 -0.1531
 6092SOL    HW129738   0.093   1.652   3.456 -0.6386 -0.4841 -0.8206
 6092SOL    HW229739   0.098   1.501   3.478  0.9543 -0.2130  1.0506
 6093SOL     OW29740   0.903   0.709   9.582  0.0616  0.0153  0.2072
 6093SOL    HW129741   0.936   0.797   9.564 -1.3056  0.3853 -0.4873
 6093SOL    HW229742   0.820   0.740   9.618 -0.1743 -1.7117  1.1193
 6094SOL     OW29743   2.719   0.455   7.607 -0.3375  0.3056 -0.4155
 6094SOL    HW129744   2.745   0.501   7.686 -3.2894  0.7992  0.2735
 6094SOL    HW229745   2.732   0.524   7.542  2.5571 -0.2132 -0.3755
 6095SOL     OW29746   3.450   0.179   7.609  0.1397  0.3500 -0.2492
 6095SOL    HW129747   3.430   0.154   7.699 -2.0893  1.0193 -0.5654
 6095SOL    HW229748   3.418   0.268   7.619  1.4878  0.3743  3.6075
 6096SOL     OW29749   3.277   0.150   4.148 -0.5608 -0.0398  0.2875
 6096SOL    HW129750   3.233   0.076   4.188  0.7224  0.5318  2.7487
 6096SOL    HW229751   3.210   0.213   4.123  1.6123  0.8327 -3.3488
 6097SOL     OW29752   4.251   1.850   4.956 -0.2077 -0.4003  0.1001
 6097SOL    HW129753   4.256   1.884   4.867 -2.4510  1.8484  0.8266
 6097SOL    HW229754   4.281   1.931   4.998 -0.2581  0.2416 -1.1071
 6098SOL     OW29755   0.298   0.403   7.438 -0.4998 -0.2677  0.8142
 6098SOL    HW129756   0.277   0.396   7.345 -0.0381  0.0232  0.6839
 6098SOL    HW229757   0.366   0.336   7.449 -0.4305 -0.5641 -1.4419
 6099SOL     OW29758   3.344   1.573   8.336  0.3055  0.3556 -0.2867
 6099SOL    HW129759   3.318   1.483   8.316 -1.7384  1.1365 -1.1593
 6099SOL    HW229760   3.370   1.615   8.254 -2.0219  1.0997 -0.6467
 6100SOL     OW29761   3.482   1.307   7.487 -0.3696  0.1978  0.5856
 6100SOL    HW129762   3.573   1.335   7.499 -0.2988 -0.3609  1.3483
 6100SOL    HW229763   3.442   1.394   7.489  0.1641  0.4455  0.6702
 6101SOL     OW29764   2.611   0.681  16.123 -0.1951 -0.0154  0.0611
 6101SOL    HW129765   2.567   0.627  16.189  0.3966 -1.9744 -1.1665
 6101SOL    HW229766   2.541   0.738  16.089  1.1710  1.4404 -0.3072
 6102SOL     OW29767   2.339   4.245   7.180  0.1709  0.4739 -0.6090
 6102SOL    HW129768   2.397   4.169   7.179  1.9741  1.8531  0.3589
 6102SOL    HW229769   2.289   4.238   7.098 -2.1375  1.8299  0.6527
 6103SOL     OW29770   1.232   3.646   2.849  0.0281  0.1489  0.3228
 6103SOL    HW129771   1.245   3.740   2.854  1.9089 -0.0545 -0.5658
 6103SOL    HW229772   1.155   3.638   2.793 -0.5425 -0.5159  1.2116
 6104SOL     OW29773   4.319   2.400  11.064 -0.0893  0.6469  0.4657
 6104SOL    HW129774   4.404   2.384  11.104  0.1659 -0.3468 -0.4833
 6104SOL    HW229775   4.318   2.330  10.999  0.1738  0.7493  0.3512
 6105SOL     OW29776   3.033   3.556   5.414  0.4541 -0.3518  0.1305
 6105SOL    HW129777   3.043   3.550   5.509  2.6044  0.2301 -0.0673
 6105SOL    HW229778   2.940   3.577   5.401  0.7757 -0.2319 -1.8671
 6106SOL     OW29779   3.643   0.058   6.509 -0.4214 -0.1850  0.0398
 6106SOL    HW129780   3.699   0.054   6.431 -0.0911 -1.8089  0.3599
 6106SOL    HW229781   3.701   0.015   6.572  0.5228  0.3848 -0.4470
 6107SOL     OW29782   0.950   3.683  10.514 -0.0265  0.3338  0.2415
 6107SOL    HW129783   0.876   3.624  10.530  1.0063 -0.6740  1.2269
 6107SOL    HW229784   0.911   3.738  10.446 -1.2644 -0.1243  0.5748
 6108SOL     OW29785   3.170   0.049   8.589  0.2596 -0.0986  0.1895
 6108SOL    HW129786   3.103   4.706   8.607  1.1521 -0.6801  1.3340
 6108SOL    HW229787   3.171   0.104   8.668  1.7680  0.9298 -0.5552
 6109SOL     OW29788   3.845   1.729   1.025  0.1116 -0.0027  0.2272
 6109SOL    HW129789   3.906   1.655   1.017  1.2307  0.7367  1.9137
 6109SOL    HW229790   3.814   1.726   0.935  2.2039  2.3626 -0.5635
 6110SOL     OW29791   3.636   1.587   2.651  0.2256  0.0593  0.2545
 6110SOL    HW129792   3.623   1.647   2.578 -0.3992 -1.2332 -0.7021
 6110SOL    HW229793   3.573   1.517   2.633 -0.5336  0.6082  0.8199
 6111SOL     OW29794   3.253   4.054   4.376 -0.4100  0.0200 -0.1446
 6111SOL    HW129795   3.244   4.147   4.395 -1.1771 -0.2774  0.9551
 6111SOL    HW229796   3.203   4.018   4.449  0.8840  1.0445  1.2486
 6112SOL     OW29797   2.102   2.704   9.304 -0.5017  0.1693 -0.6260
 6112SOL    HW129798   2.024   2.696   9.248 -0.9033 -0.3988  0.0162
 6112SOL    HW229799   2.135   2.792   9.288 -0.7421  0.2963 -0.4329
 6113SOL     OW29800   1.255   0.893   5.021  0.0468 -0.6618  0.7232
 6113SOL    HW129801   1.171   0.860   5.055 -0.6719  1.0757  0.6549
 6113SOL    HW229802   1.255   0.844   4.939 -0.7430  0.3104  0.1290
 6114SOL     OW29803   0.844   3.579   1.442  0.5755  0.8776 -0.0251
 6114SOL    HW129804   0.815   3.544   1.358  0.4890 -3.3465  1.8111
 6114SOL    HW229805   0.775   3.550   1.501  0.6279  1.1847  0.1865
 6115SOL     OW29806   0.408   3.989   6.989  0.2050  0.5436  1.5389
 6115SOL    HW129807   0.429   3.966   6.899 -0.4231  0.3357  1.4510
 6115SOL    HW229808   0.365   3.913   7.027 -0.3641 -0.2342 -0.7161
 6116SOL     OW29809   2.066   1.342   8.621 -0.3010 -0.5578 -0.1944
 6116SOL    HW129810   2.070   1.279   8.693 -0.3302 -2.6757 -2.0319
 6116SOL    HW229811   2.134   1.404   8.648  0.8491 -2.9402  2.3274
 6117SOL     OW29812   1.646   1.832   8.601 -0.2695 -0.0066 -0.0206
 6117SOL    HW129813   1.557   1.806   8.626 -0.1331 -0.4371  0.0159
 6117SOL    HW229814   1.638   1.849   8.507  2.3978 -0.0700 -0.2531
 6118SOL     OW29815   0.828   3.761  12.823 -0.1693 -0.2132 -0.1074
 6118SOL    HW129816   0.826   3.668  12.845  0.4917 -0.3048 -0.4225
 6118SOL    HW229817   0.745   3.769  12.776 -1.1747  0.5402  1.7966
 6119SOL     OW29818   2.933   0.505   7.077  0.4433  0.1837 -0.5542
 6119SOL    HW129819   2.957   0.427   7.028 -2.0975  0.0558 -1.6021
 6119SOL    HW229820   2.999   0.512   7.146  2.3481 -0.1902 -2.3287
 6120SOL     OW29821   0.902   3.691   6.411 -0.5904 -0.0692 -0.1982
 6120SOL    HW129822   0.821   3.713   6.363 -0.5734 -3.3269 -1.7678
 6120SOL    HW229823   0.972   3.735   6.363  0.3385 -1.9250 -0.5452
 6121SOL     OW29824   3.036   3.394   1.845 -0.1653 -0.1975 -0.4484
 6121SOL    HW129825   3.103   3.412   1.911 -0.5751  0.1773 -0.1327
 6121SOL    HW229826   2.953   3.419   1.885  0.1664 -0.2755  0.2943
 6122SOL     OW29827   3.163   2.568   9.161 -0.1093  0.2049 -0.4281
 6122SOL    HW129828   3.234   2.505   9.173 -2.1262 -1.5462  2.3895
 6122SOL    HW229829   3.106   2.533   9.229  0.6926  0.1615  0.2161
 6123SOL     OW29830   0.388   2.253   5.505 -0.3615 -0.1051  0.7018
 6123SOL    HW129831   0.427   2.165   5.498 -1.9857 -0.6554 -1.4640
 6123SOL    HW229832   0.463   2.304   5.534 -1.2113  1.7106 -0.2971
 6124SOL     OW29833   4.439   0.355  12.547 -0.0814 -0.3227 -0.0003
 6124SOL    HW129834   4.368   0.326  12.604  0.0655 -1.1269 -0.2270
 6124SOL    HW229835   4.457   0.279  12.491 -0.0931 -1.4827  1.5557
 6125SOL     OW29836   1.044   3.171   0.238 -0.1312 -0.3089 -0.2298
 6125SOL    HW129837   0.995   3.089   0.230  3.3384 -2.2840 -1.4761
 6125SOL    HW229838   0.991   3.223   0.299  0.7586  0.5770 -0.2217
 6126SOL     OW29839   3.119   0.787   7.360  0.1208  0.3311 -0.1058
 6126SOL    HW129840   3.102   0.692   7.356 -0.0533  0.4248 -1.7075
 6126SOL    HW229841   3.194   0.797   7.302  0.4495  0.6416  0.3756
 6127SOL     OW29842   2.823   0.395  12.428 -0.2631  0.6650  0.3481
 6127SOL    HW129843   2.837   0.314  12.380  1.7887  1.3376 -0.2294
 6127SOL    HW229844   2.857   0.368  12.513 -0.4290  1.6899  0.7439
 6128SOL     OW29845   1.134   1.251   6.402  0.3908 -0.0743 -0.4958
 6128SOL    HW129846   1.132   1.332   6.352  1.3183  0.3499  0.1740
 6128SOL    HW229847   1.227   1.229   6.397  1.0446  1.8883  2.8263
 6129SOL     OW29848   1.115   2.613  16.499 -0.5775  0.2241  0.8207
 6129SOL    HW129849   1.203   2.650  16.503 -0.6724  0.5195  0.1246
 6129SOL    HW229850   1.135   2.563  16.419 -2.0196  0.5926  0.2242
 6130SOL     OW29851   2.294   2.599  11.382 -0.4208  0.0242 -0.2031
 6130SOL    HW129852   2.284   2.515  11.428 -0.5607  0.0108 -0.2563
 6130SOL    HW229853   2.337   2.648  11.452  1.6089 -0.6987 -0.9492
 6131SOL     OW29854   0.404   0.827   5.288 -0.0588  0.1596 -0.1904
 6131SOL    HW129855   0.386   0.738   5.258  1.5618  0.4883 -2.1786
 6131SOL    HW229856   0.442   0.819   5.376 -1.3414  0.1254  0.3595
 6132SOL     OW29857   1.142   4.299   5.060 -0.3664 -0.0812 -0.2604
 6132SOL    HW129858   1.206   4.320   4.992  0.3935 -0.0542  0.4811
 6132SOL    HW229859   1.158   4.377   5.113  1.6381 -1.2962  0.8940
 6133SOL     OW29860   3.322   0.451   5.222  0.2753 -0.0231  0.2527
 6133SOL    HW129861   3.315   0.543   5.195 -0.6343  0.4635  2.1090
 6133SOL    HW229862   3.270   0.403   5.158 -1.4888  1.3333  0.6752
 6134SOL     OW29863   0.295   0.424   8.293 -0.0802 -0.1846 -0.0392
 6134SOL    HW129864   0.248   0.375   8.226  1.3099 -0.1849 -1.0140
 6134SOL    HW229865   0.295   0.355   8.360 -1.8357 -0.7889 -0.6583
 6135SOL     OW29866   1.122   2.994  16.491  0.4275  0.3033  0.2550
 6135SOL    HW129867   1.193   2.933  16.470  0.1064  0.4427 -1.2612
 6135SOL    HW229868   1.077   2.997  16.407  1.7156 -0.3728 -0.4592
 6136SOL     OW29869   1.505   2.469   7.230 -0.3377  0.1196 -0.0326
 6136SOL    HW129870   1.498   2.547   7.174 -0.4316  0.8592  1.0123
 6136SOL    HW229871   1.596   2.483   7.256  0.4428 -0.7916 -2.2750
 6137SOL     OW29872   3.544   1.265  13.090 -0.2818 -0.3552 -0.2387
 6137SOL    HW129873   3.573   1.342  13.138 -0.4081  0.0147 -0.7613
 6137SOL    HW229874   3.451   1.285  13.080 -0.5776 -1.3348  0.5288
 6138SOL     OW29875   3.035   1.673   3.893 -0.2868 -0.4432 -0.1824
 6138SOL    HW129876   2.956   1.648   3.940 -1.1169  0.8160 -0.8883
 6138SOL    HW229877   3.073   1.750   3.936  0.8294 -0.2845 -1.4506
 6139SOL     OW29878   2.655   3.118   7.600  0.4367 -0.3001  0.2492
 6139SOL    HW129879   2.743   3.083   7.616  0.8230  0.3921 -0.4021
 6139SOL    HW229880   2.648   3.114   7.505  1.7308  1.1963  0.1014
 6140SOL     OW29881   4.171   0.554   9.676 -0.2655  0.0750  0.4470
 6140SOL    HW129882   4.158   0.631   9.620  0.6300 -0.4405 -0.4639
 6140SOL    HW229883   4.261   0.572   9.702  0.6486 -2.1141 -1.1895
 6141SOL     OW29884   2.020   3.213   2.532 -0.7520 -0.1268 -0.0641
 6141SOL    HW129885   2.086   3.273   2.498  0.3449 -0.8011  0.8710
 6141SOL    HW229886   2.022   3.221   2.627 -1.9224  1.1304 -0.1508
 6142SOL     OW29887   4.031   4.029   4.086 -0.0552 -0.0586  0.0540
 6142SOL    HW129888   4.082   4.087   4.142 -0.7774 -0.0386  0.6901
 6142SOL    HW229889   4.089   3.954   4.094 -1.0543 -0.9187 -0.7622
 6143SOL     OW29890   2.522   1.695   3.016 -0.2678 -0.6741 -0.1041
 6143SOL    HW129891   2.593   1.637   2.987  0.0485 -0.2681 -0.1511
 6143SOL    HW229892   2.479   1.709   2.932 -0.9067  1.2870  0.5573
 6144SOL     OW29893   0.082   4.444   9.335 -0.1444  0.3881 -0.3842
 6144SOL    HW129894   0.118   4.526   9.302  2.0636 -0.4044  0.0602
 6144SOL    HW229895   0.114   4.384   9.268  2.0619 -0.5281  1.4854
 6145SOL     OW29896   3.231   0.601   3.256  0.0258 -0.1101  0.1428
 6145SOL    HW129897   3.320   0.584   3.226  0.6463  2.2991  0.5726
 6145SOL    HW229898   3.252   0.617   3.349 -0.5924  0.7330  0.1405
 6146SOL     OW29899   3.533   0.419  12.140  0.0547  0.2670 -0.0076
 6146SOL    HW129900   3.622   0.452  12.129  0.4173 -0.4043  0.9317
 6146SOL    HW229901   3.540   0.330  12.175 -2.3646  0.1622  0.1873
 6147SOL     OW29902   0.088   0.379   7.641  0.2535 -0.2875 -0.2360
 6147SOL    HW129903   0.149   0.398   7.569 -1.8874  1.3305 -1.6403
 6147SOL    HW229904   0.073   0.285   7.633 -1.6586  0.1604 -1.9031
 6148SOL     OW29905   0.833   1.353   1.082  0.1011  0.0332  0.0565
 6148SOL    HW129906   0.922   1.317   1.075  0.3545  0.6999 -0.1450
 6148SOL    HW229907   0.782   1.292   1.029 -0.0612 -2.0698  2.6453
 6149SOL     OW29908   4.068   2.306   4.397 -0.2109  0.9685 -0.7039
 6149SOL    HW129909   3.995   2.335   4.452  0.9308 -0.2721  1.4500
 6149SOL    HW229910   4.149   2.347   4.426 -0.1822  0.1164  0.3975
 6150SOL     OW29911   1.220   0.560   8.477  0.3098 -0.9228  0.3357
 6150SOL    HW129912   1.154   0.562   8.546  0.4877 -0.7571  0.5013
 6150SOL    HW229913   1.219   0.651   8.447  0.9559 -1.3620 -1.0006
 6151SOL     OW29914   0.223   1.881   5.664  0.4345  0.2150  0.3235
 6151SOL    HW129915   0.226   1.863   5.570 -0.7639  1.2406  0.0937
 6151SOL    HW229916   0.138   1.922   5.679 -0.5522 -1.5310 -0.3900
 6152SOL     OW29917   3.011   0.662  13.098  0.0841 -0.2560  0.5112
 6152SOL    HW129918   3.082   0.611  13.137  2.3465  0.4104 -2.7062
 6152SOL    HW229919   3.019   0.745  13.145 -0.5368  0.4802 -0.7003
 6153SOL     OW29920   4.274   3.904   1.874  0.4124  0.1924 -0.3745
 6153SOL    HW129921   4.179   3.919   1.872  0.2935 -0.4821  0.1803
 6153SOL    HW229922   4.273   3.841   1.946  2.6555  0.0346 -0.4917
 6154SOL     OW29923   0.516   3.432   3.013 -0.0039  0.5388  0.0567
 6154SOL    HW129924   0.550   3.382   3.087 -1.1969 -1.2573 -0.6250
 6154SOL    HW229925   0.594   3.440   2.957 -0.7777 -0.3523 -1.1583
 6155SOL     OW29926   2.342   4.264   6.705  0.1852  0.0450  0.5456
 6155SOL    HW129927   2.393   4.289   6.782  0.1604 -1.1547  0.9473
 6155SOL    HW229928   2.285   4.340   6.692  1.9664  1.6241  1.9660
 6156SOL     OW29929   1.733   0.439  12.835 -0.1565  0.3002  0.7547
 6156SOL    HW129930   1.736   0.534  12.826  0.0014  0.1840 -0.3753
 6156SOL    HW229931   1.813   0.413  12.791 -0.6552 -0.9034  0.5455
 6157SOL     OW29932   1.574   1.030   6.451  0.2655  0.1146  0.1163
 6157SOL    HW129933   1.625   0.957   6.415  1.3631  1.0055 -0.1486
 6157SOL    HW229934   1.601   1.046   6.542  0.8735 -3.0402  0.5016
 6158SOL     OW29935   0.245   3.164  12.845  0.2740  0.3643  0.3402
 6158SOL    HW129936   0.183   3.220  12.798  0.8010  1.2647  0.7207
 6158SOL    HW229937   0.283   3.222  12.910 -1.4079  0.5753  1.1591
 6159SOL     OW29938   4.615   1.448   1.723  0.3378 -0.1112 -0.5637
 6159SOL    HW129939   4.641   1.540   1.715  0.7287 -0.0586  1.3167
 6159SOL    HW229940   4.675   1.412   1.789 -0.6637  1.0868  1.0040
 6160SOL     OW29941   1.486   3.180   8.312 -0.0539 -0.0114  0.5720
 6160SOL    HW129942   1.408   3.143   8.356 -0.4765  0.3381  0.1116
 6160SOL    HW229943   1.467   3.271   8.333  1.0430 -0.1096  1.9707
 6161SOL     OW29944   2.156   4.514   7.735  0.5753 -0.4278 -0.9083
 6161SOL    HW129945   2.201   4.432   7.753 -0.5162 -0.6277  0.8081
 6161SOL    HW229946   2.095   4.494   7.664 -2.2924 -4.3729  2.7527
 6162SOL     OW29947   2.267   4.230   8.475 -0.8574  0.7793  0.0760
 6162SOL    HW129948   2.329   4.260   8.542  0.1224 -0.6887 -0.1561
 6162SOL    HW229949   2.300   4.141   8.460  0.3755  1.1132  0.7888
 6163SOL     OW29950   3.069   0.246   6.971 -0.6589  0.3303 -0.1252
 6163SOL    HW129951   3.113   0.213   7.049 -0.6762  1.2540  0.2784
 6163SOL    HW229952   3.137   0.299   6.931 -0.2020 -0.1558  0.0149
 6164SOL     OW29953   1.917   2.574   4.933  0.1065  0.1562  0.2206
 6164SOL    HW129954   1.909   2.664   4.901 -0.2539  0.0313 -0.0440
 6164SOL    HW229955   1.995   2.578   4.988  0.9971  0.5563 -1.0607
 6165SOL     OW29956   4.628   3.698   3.720 -0.1695  0.6455  0.1646
 6165SOL    HW129957   4.654   3.607   3.733  0.6959  0.7610 -0.7470
 6165SOL    HW229958   4.659   3.714   3.631 -0.2744 -0.6841 -0.1045
 6166SOL     OW29959   1.403   1.241  14.734 -0.2950  0.1527  0.3790
 6166SOL    HW129960   1.335   1.193  14.686  0.7398 -0.3391 -0.5985
 6166SOL    HW229961   1.375   1.331  14.718 -2.5461 -0.4977  0.7503
 6167SOL     OW29962   3.271   1.296  10.558  0.1349 -0.0884  0.2419
 6167SOL    HW129963   3.207   1.262  10.496 -0.2020  0.6120  0.2055
 6167SOL    HW229964   3.252   1.239  10.632 -0.4044  1.0610  0.9838
 6168SOL     OW29965   3.287   2.904   2.779 -0.0751  0.1417  0.4200
 6168SOL    HW129966   3.223   2.853   2.729  0.1172  2.8903 -2.6066
 6168SOL    HW229967   3.342   2.943   2.711  1.8662  1.5984  2.8263
 6169SOL     OW29968   2.184   4.188   5.891  0.1078  0.0547  0.6316
 6169SOL    HW129969   2.150   4.104   5.921  0.5431 -1.1957 -2.3773
 6169SOL    HW229970   2.228   4.227   5.966 -1.7893 -1.5429  2.5714
 6170SOL     OW29971   0.492   3.877   2.954 -0.1182 -0.2983 -0.4936
 6170SOL    HW129972   0.466   3.822   3.028  1.6717 -0.3389  0.0874
 6170SOL    HW229973   0.407   3.882   2.910 -0.4007 -1.9845 -0.1306
 6171SOL     OW29974   3.517   4.190  16.988 -1.1066  0.2167 -0.0928
 6171SOL    HW129975   3.447   4.223  16.931  0.1256  0.8721 -1.2368
 6171SOL    HW229976   3.475   4.216  17.070  1.2202 -0.0431  1.1886
 6172SOL     OW29977   0.598   3.734   9.328  0.6565  0.3394  0.1949
 6172SOL    HW129978   0.574   3.758   9.239  0.0059 -0.6413  0.1041
 6172SOL    HW229979   0.511   3.733   9.367  1.5819  1.3447  2.3326
 6173SOL     OW29980   0.924   3.422  17.437 -0.0822 -0.8015  0.7936
 6173SOL    HW129981   0.924   3.435  17.342 -2.0464  3.2830  1.3517
 6173SOL    HW229982   0.934   3.512  17.469 -1.2181 -0.8481  1.3039
 6174SOL     OW29983   3.117   2.774   2.607 -0.8512  0.2729 -0.0864
 6174SOL    HW129984   3.063   2.713   2.657  0.1823  1.3794  2.3700
 6174SOL    HW229985   3.106   2.742   2.517 -0.1753  1.1607 -0.4815
 6175SOL     OW29986   3.918   1.081   1.422  0.4092  0.4439 -0.3930
 6175SOL    HW129987   3.996   1.126   1.454 -0.0742  1.2875 -0.4126
 6175SOL    HW229988   3.873   1.150   1.373  0.5418  1.2466  0.6207
 6176SOL     OW29989   1.763   0.642  11.823 -0.5329  0.2740  0.0969
 6176SOL    HW129990   1.826   0.597  11.879 -1.2677  0.5885  1.1659
 6176SOL    HW229991   1.820   0.661  11.748  1.6991  1.7240  2.1679
 6177SOL     OW29992   3.094   2.685  14.908  0.1004 -0.1026  0.0579
 6177SOL    HW129993   3.074   2.593  14.927  0.9784 -0.3667 -0.3093
 6177SOL    HW229994   3.014   2.735  14.894 -0.7176 -1.2046  0.8088
 6178SOL     OW29995   0.504   2.378   6.009  0.4104 -0.3893  0.0339
 6178SOL    HW129996   0.510   2.469   5.979  3.0017 -0.6126 -0.1005
 6178SOL    HW229997   0.419   2.372   6.052 -0.5731 -0.3059 -1.8851
 6179SOL     OW29998   0.993   3.745   4.564 -0.7526  0.4945  0.2447
 6179SOL    HW129999   0.999   3.650   4.574  1.5207  0.5427 -0.5698
 6179SOL    HW230000   1.032   3.785   4.641 -0.3829 -0.4937  0.5731
 6180SOL     OW30001   2.527   3.943   0.110 -0.1842 -0.3496  0.5391
 6180SOL    HW130002   2.488   3.924   0.024  1.6161 -3.0519  0.3090
 6180SOL    HW230003   2.611   3.897   0.107 -0.7554 -1.4315  0.7773
 6181SOL     OW30004   1.193   2.733  15.684  0.1457 -0.0483 -0.4156
 6181SOL    HW130005   1.134   2.795  15.642  0.2789  0.0661 -0.4331
 6181SOL    HW230006   1.224   2.685  15.607  1.8950 -1.7824  1.3808
 6182SOL     OW30007   1.388   2.354   0.628 -0.0130 -0.0839 -0.0861
 6182SOL    HW130008   1.390   2.329   0.536  0.8244 -0.0544 -0.0730
 6182SOL    HW230009   1.296   2.352   0.653 -0.1806 -1.8464 -0.8652
 6183SOL     OW30010   0.177   3.765   2.627  0.2847  0.4585 -0.5845
 6183SOL    HW130011   0.099   3.805   2.589  1.3806 -0.8361 -4.1457
 6183SOL    HW230012   0.150   3.673   2.629  0.5825  0.3487 -1.9551
 6184SOL     OW30013   0.379   0.799   3.812 -0.7923  0.3109  0.0126
 6184SOL    HW130014   0.451   0.862   3.808 -0.7010  0.1933 -0.1538
 6184SOL    HW230015   0.344   0.823   3.898 -1.7817  0.0585 -0.3205
 6185SOL     OW30016   3.660   0.170   8.966 -0.1697 -0.9134 -0.1567
 6185SOL    HW130017   3.638   0.146   8.876  1.8171 -2.0344 -0.3526
 6185SOL    HW230018   3.686   0.260   8.946 -0.6684 -1.0896 -1.6293
 6186SOL     OW30019   3.922   1.939   5.947  0.4821 -0.0925 -0.3564
 6186SOL    HW130020   3.910   2.027   5.982  2.1662 -1.3856  3.4784
 6186SOL    HW230021   3.840   1.928   5.899 -0.4821 -0.6015  1.4124
 6187SOL     OW30022   2.372   4.708   4.996  0.0951 -0.0019 -0.5802
 6187SOL    HW130023   2.300   0.002   4.936  0.7510 -0.9184 -1.6506
 6187SOL    HW230024   2.419   0.067   4.979 -1.5212  1.3790  1.6901
 6188SOL     OW30025   4.388   0.451   3.578  0.0340 -0.0555 -0.4765
 6188SOL    HW130026   4.460   0.403   3.619  0.2072 -0.7460 -1.5833
 6188SOL    HW230027   4.352   0.501   3.651  1.9915  0.6716 -0.0077
 6189SOL     OW30028   2.108   4.540   2.714 -0.1520  0.2822  0.2519
 6189SOL    HW130029   2.076   4.595   2.785  0.0817 -0.2359  0.7508
 6189SOL    HW230030   2.196   4.575   2.697 -0.6316  1.0494 -0.6869
 6190SOL     OW30031   2.010   0.364   7.834  0.4790 -0.1485 -0.8804
 6190SOL    HW130032   1.963   0.438   7.874 -0.0894 -0.9941  0.0161
 6190SOL    HW230033   2.054   0.401   7.757 -1.1650 -1.1922 -2.3088
 6191SOL     OW30034   3.490   4.558  10.777  0.2559  0.4621 -0.5147
 6191SOL    HW130035   3.490   4.467  10.746 -2.3330 -0.1927  1.4212
 6191SOL    HW230036   3.411   4.568  10.830 -1.5870  0.5132 -3.2760
 6192SOL     OW30037   3.803   0.168   4.252 -0.6935  0.4449 -0.3805
 6192SOL    HW130038   3.797   0.087   4.303  2.4409  0.5894  0.2059
 6192SOL    HW230039   3.744   0.234   4.290 -0.1243  0.6632  0.1279
 6193SOL     OW30040   0.754   4.519  17.499  0.1837 -0.4648 -0.6596
 6193SOL    HW130041   0.818   4.525  17.428  0.5022  1.6631 -0.1831
 6193SOL    HW230042   0.757   4.426  17.523  2.1526 -0.5142 -1.1079
 6194SOL     OW30043   3.563   3.881   7.147 -0.1952  0.0175 -0.3640
 6194SOL    HW130044   3.652   3.885   7.113  0.0103  0.3413  0.2078
 6194SOL    HW230045   3.540   3.974   7.141 -0.6181 -0.0608  0.1026
 6195SOL     OW30046   3.061   1.988   3.013  0.4382  0.3025 -0.5651
 6195SOL    HW130047   3.058   1.928   2.938  1.1725  2.1342 -2.0697
 6195SOL    HW230048   3.149   1.968   3.045  0.6720  1.2712 -0.5950
 6196SOL     OW30049   4.524   0.272   9.724  0.1556 -0.2451 -0.0754
 6196SOL    HW130050   4.555   0.254   9.813 -0.5565 -1.8028 -0.1547
 6196SOL    HW230051   4.483   0.189   9.701  1.8946 -1.2276  0.3341
 6197SOL     OW30052   4.445   1.174   8.028  0.1162  0.2107  0.2965
 6197SOL    HW130053   4.397   1.171   8.110  0.0712  2.5328  0.3443
 6197SOL    HW230054   4.472   1.083   8.019  0.0996  0.1242  1.1220
 6198SOL     OW30055   4.400   3.730   4.299  0.3740  0.0396  0.3877
 6198SOL    HW130056   4.474   3.709   4.357 -0.4707  1.1177  1.8612
 6198SOL    HW230057   4.410   3.658   4.237  1.0466  1.0594 -0.6918
 6199SOL     OW30058   3.855   3.173   2.336 -0.1955 -0.2193  0.5095
 6199SOL    HW130059   3.768   3.208   2.357 -1.0385 -1.9659 -0.0380
 6199SOL    HW230060   3.858   3.196   2.243  1.4070  1.0978  0.8965
 6200SOL     OW30061   3.855   4.281   4.131 -0.5569  0.3687 -0.1472
 6200SOL    HW130062   3.871   4.193   4.096 -2.2073 -0.7360  1.8461
 6200SOL    HW230063   3.808   4.323   4.059  1.5503  2.4020 -0.3218
 6201SOL     OW30064   3.607   4.163   6.803  0.3010  0.3571 -0.6611
 6201SOL    HW130065   3.694   4.161   6.841  0.4315  0.4569 -0.9516
 6201SOL    HW230066   3.589   4.075   6.771 -0.2867 -1.1025  3.6908
 6202SOL     OW30067   1.352   3.493   4.390  0.0565 -0.1560  0.1550
 6202SOL    HW130068   1.417   3.428   4.417  1.4265  1.2040  0.1071
 6202SOL    HW230069   1.272   3.442   4.405 -0.5037  0.6562 -0.0340
 6203SOL     OW30070   2.852   1.521  10.138  0.4954  0.1595 -0.2091
 6203SOL    HW130071   2.909   1.597  10.120  1.9130 -1.4734 -2.6700
 6203SOL    HW230072   2.819   1.557  10.220 -0.7542 -1.2586 -0.1051
 6204SOL     OW30073   0.850   3.978   5.186 -0.3327  0.1491 -0.2995
 6204SOL    HW130074   0.867   3.936   5.270  1.7569  1.0344 -0.3074
 6204SOL    HW230075   0.879   4.069   5.188 -1.8611  0.5863  2.0418
 6205SOL     OW30076   2.971   4.186   0.672  0.4677 -0.2877  0.1391
 6205SOL    HW130077   3.008   4.198   0.760  0.6859  0.2400 -0.0191
 6205SOL    HW230078   3.050   4.172   0.620 -0.0751 -0.0270 -0.7539
 6206SOL     OW30079   4.217   1.805   4.207  0.7783 -0.2107  0.1699
 6206SOL    HW130080   4.285   1.765   4.262 -0.4139  0.2048  1.9421
 6206SOL    HW230081   4.224   1.900   4.221  0.2162  0.2447 -2.5860
 6207SOL     OW30082   2.998   2.375  11.442  0.7090  0.3478 -0.0275
 6207SOL    HW130083   2.921   2.393  11.496  0.2052  0.7237 -0.8772
 6207SOL    HW230084   2.947   2.344  11.368  2.6272 -2.0022 -0.3559
 6208SOL     OW30085   4.666   0.775   8.691  0.3722  0.3899 -0.0228
 6208SOL    HW130086   4.681   0.869   8.686 -0.5355  0.5229 -0.2233
 6208SOL    HW230087   4.668   0.762   8.596 -0.8465  0.5768 -0.0690
 6209SOL     OW30088   4.210   2.560   3.287 -0.3966  0.5135 -0.3875
 6209SOL    HW130089   4.246   2.471   3.288 -0.4435  0.4822 -1.3029
 6209SOL    HW230090   4.117   2.551   3.305 -0.8542  1.1256 -2.3744
 6210SOL     OW30091   3.055   3.461   4.596 -0.3963 -0.1675  0.1724
 6210SOL    HW130092   3.052   3.387   4.535 -1.5370 -0.2954  0.3904
 6210SOL    HW230093   3.077   3.529   4.532  1.7222 -0.0929  0.9813
 6211SOL     OW30094   2.686   2.872   2.445  0.4221  0.2223 -0.3231
 6211SOL    HW130095   2.746   2.929   2.396  2.3799  0.3438  2.2120
 6211SOL    HW230096   2.607   2.924   2.436 -1.0904 -2.0906 -0.3069
 6212SOL     OW30097   4.489   0.479   4.154 -0.5823  0.1503 -0.3547
 6212SOL    HW130098   4.406   0.526   4.157 -0.4268  0.3518  0.5995
 6212SOL    HW230099   4.480   0.433   4.070 -2.5355 -1.7847  0.9282
 6213SOL     OW30100   3.581   0.831  10.993 -0.6384 -0.1761 -0.4791
 6213SOL    HW130101   3.670   0.866  10.990 -0.6313 -0.1058  0.6170
 6213SOL    HW230102   3.545   0.900  10.937  0.2583  0.2517 -0.5335
 6214SOL     OW30103   2.888   2.429  14.491 -0.2289 -0.3012  0.4337
 6214SOL    HW130104   2.872   2.338  14.516  3.3203 -1.2431 -0.7427
 6214SOL    HW230105   2.820   2.443  14.424  2.1784  0.3110 -1.8640
 6215SOL     OW30106   2.725   0.236   2.118 -0.2670  0.4733 -0.1303
 6215SOL    HW130107   2.820   0.243   2.113 -0.3730  2.6579  0.7390
 6215SOL    HW230108   2.709   0.254   2.211 -0.1847  2.3481 -0.4736
 6216SOL     OW30109   1.922   3.295   1.607  0.2550 -0.0207 -0.2854
 6216SOL    HW130110   1.857   3.364   1.602 -1.8477 -1.9564  0.2034
 6216SOL    HW230111   1.966   3.303   1.691 -0.2186 -2.2764  0.1852
 6217SOL     OW30112   4.564   4.475  15.076 -0.2724 -0.0087  0.2738
 6217SOL    HW130113   4.536   4.522  15.155 -0.2647  1.4568 -0.5959
 6217SOL    HW230114   4.594   4.554  15.030 -0.8863 -0.8087 -1.4860
 6218SOL     OW30115   2.467   2.894   8.126  0.3158 -0.5703  0.2271
 6218SOL    HW130116   2.515   2.859   8.050 -0.4787  0.0878 -0.5802
 6218SOL    HW230117   2.376   2.882   8.099 -0.3228  1.5743  1.4536
 6219SOL     OW30118   3.692   2.755   2.785  0.1612 -0.4017  0.2594
 6219SOL    HW130119   3.654   2.675   2.748 -0.3664  1.1088 -2.5278
 6219SOL    HW230120   3.768   2.772   2.729 -0.7807  3.3028  0.0811
 6220SOL     OW30121   2.095   1.279   7.923 -0.1474 -0.1995  0.3604
 6220SOL    HW130122   2.166   1.262   7.861  0.0432 -1.9812  1.0844
 6220SOL    HW230123   2.112   1.218   7.994 -3.1917  0.7278  1.9002
 6221SOL     OW30124   2.909   0.546   8.131  0.9902 -0.2475  0.4672
 6221SOL    HW130125   2.971   0.486   8.173 -1.8290 -3.7128 -0.3912
 6221SOL    HW230126   2.976   0.597   8.086 -0.2281 -0.9138 -2.1441
 6222SOL     OW30127   0.002   0.647   5.432 -0.4221 -0.6452  0.3436
 6222SOL    HW130128   0.033   0.647   5.523  0.3855  0.5861  0.0606
 6222SOL    HW230129   0.066   0.706   5.393 -1.4966  0.0170 -0.3918
 6223SOL     OW30130   0.767   3.053   3.139 -0.2780 -0.1080 -0.2443
 6223SOL    HW130131   0.759   2.957   3.145  1.1522 -0.0583  2.7115
 6223SOL    HW230132   0.807   3.062   3.225 -1.5548 -0.0260  0.3495
 6224SOL     OW30133   3.863   4.550  10.457  0.0528  0.1749 -0.0087
 6224SOL    HW130134   3.845   4.456  10.461 -3.2448  0.8699  0.9650
 6224SOL    HW230135   3.921   4.544  10.381  1.6818 -1.7448  1.3689
 6225SOL     OW30136   3.353   0.041   3.763  0.5709 -0.0598  0.0982
 6225SOL    HW130137   3.361   0.028   3.668 -0.3385 -1.9355  0.2731
 6225SOL    HW230138   3.430   4.714   3.788  0.9752  0.3045 -0.4213
 6226SOL     OW30139   4.018   1.176   2.446  0.5965  0.0167 -0.0897
 6226SOL    HW130140   4.002   1.091   2.406 -0.4161  0.9842 -1.7742
 6226SOL    HW230141   4.031   1.219   2.361 -2.6105  1.2379  0.0352
 6227SOL     OW30142   3.181   3.334   7.748  0.3231  0.1653  0.0958
 6227SOL    HW130143   3.208   3.288   7.669  0.4763 -0.5874  0.5964
 6227SOL    HW230144   3.140   3.410   7.706  0.8660  1.3394  1.6964
 6228SOL     OW30145   2.548   4.081  13.472 -0.1149  0.8721 -0.4405
 6228SOL    HW130146   2.586   4.119  13.393  1.1012  0.5024 -0.0447
 6228SOL    HW230147   2.506   4.002  13.438  0.6712  0.0204  0.5559
 6229SOL     OW30148   0.896   1.827   9.957  0.2556  0.3597  0.0827
 6229SOL    HW130149   0.857   1.894  10.013 -1.6520 -0.6531 -0.0442
 6229SOL    HW230150   0.849   1.836   9.875 -1.8677 -0.8827  1.1693
 6230SOL     OW30151   1.921   0.642   2.876  0.6514  0.3232  0.2038
 6230SOL    HW130152   1.916   0.665   2.969  1.7305 -1.7139  0.7593
 6230SOL    HW230153   1.910   0.730   2.838  0.8097 -0.6164 -2.0478
 6231SOL     OW30154   2.682   2.339   9.485 -0.5156  0.1420  0.3473
 6231SOL    HW130155   2.590   2.319   9.500 -0.9868  1.5389 -0.6713
 6231SOL    HW230156   2.712   2.261   9.439  0.1034  1.6724 -1.8166
 6232SOL     OW30157   0.317   2.620   4.069 -0.0062  0.0074  0.1709
 6232SOL    HW130158   0.252   2.683   4.101  0.1243  0.6219 -0.7678
 6232SOL    HW230159   0.386   2.650   4.128 -0.6189 -0.9375  1.3602
 6233SOL     OW30160   3.093   0.267   1.475  1.0522  0.7471 -0.3630
 6233SOL    HW130161   3.059   0.243   1.389 -1.6183 -0.3096  0.9871
 6233SOL    HW230162   3.168   0.210   1.493  0.0653  0.1177  1.7187
 6234SOL     OW30163   2.930   1.343   5.657 -0.2884 -0.1906 -0.1141
 6234SOL    HW130164   3.023   1.361   5.669 -0.3702  1.2653 -1.6833
 6234SOL    HW230165   2.895   1.426   5.690 -0.3939 -0.1848 -0.2427
 6235SOL     OW30166   3.059   4.285  11.617  0.2124 -0.2580 -0.2213
 6235SOL    HW130167   3.106   4.222  11.671 -0.0511 -0.4717 -0.2455
 6235SOL    HW230168   3.080   4.366  11.663  0.0498 -0.3259 -0.0250
 6236SOL     OW30169   4.351   0.886   9.486 -0.6490  0.2474  0.3975
 6236SOL    HW130170   4.422   0.930   9.533  2.5237 -0.9727 -3.2433
 6236SOL    HW230171   4.290   0.857   9.553 -0.2427  1.0143  1.1075
 6237SOL     OW30172   1.555   4.309   2.530  0.2841  0.8507 -0.2268
 6237SOL    HW130173   1.540   4.221   2.563  1.3836  0.6171 -0.3274
 6237SOL    HW230174   1.566   4.353   2.614  1.9310 -1.2360  0.6400
 6238SOL     OW30175   1.502   1.982   2.510  0.1817  0.3208  0.4501
 6238SOL    HW130176   1.562   1.924   2.463 -0.3852  0.6277 -0.6438
 6238SOL    HW230177   1.527   2.055   2.454 -2.0691  0.9257  0.2330
 6239SOL     OW30178   3.640   2.103   5.415  0.5223 -0.0732 -0.1893
 6239SOL    HW130179   3.708   2.044   5.382  0.3885  0.0093 -0.6027
 6239SOL    HW230180   3.581   2.086   5.342  1.3833  3.1396 -1.6340
 6240SOL     OW30181   4.078   4.188   9.490  0.4805  0.6174  0.3709
 6240SOL    HW130182   3.988   4.210   9.465  0.5819  1.6191  0.9147
 6240SOL    HW230183   4.057   4.112   9.544 -2.9068  0.3910 -1.2123
 6241SOL     OW30184   0.797   1.029   1.758  0.2935  0.7071  0.3545
 6241SOL    HW130185   0.702   1.016   1.750  0.5116 -0.5505 -0.3377
 6241SOL    HW230186   0.819   1.023   1.665  2.0607  0.4117  0.7972
 6242SOL     OW30187   0.887   3.941   0.493  0.2123 -0.3933 -0.5101
 6242SOL    HW130188   0.800   3.977   0.513  0.9163 -0.1328  2.0012
 6242SOL    HW230189   0.893   3.890   0.574 -0.8627  0.7846  0.3089
 6243SOL     OW30190   0.318   0.338   9.391  0.4516 -0.0285  0.2346
 6243SOL    HW130191   0.401   0.373   9.424  1.4712 -0.6191 -1.7300
 6243SOL    HW230192   0.307   0.394   9.315  2.4490 -0.6030 -0.4832
 6244SOL     OW30193   1.988   3.227   3.562  0.0910 -0.2401 -0.2687
 6244SOL    HW130194   2.047   3.270   3.500  0.2132  1.3017  0.9368
 6244SOL    HW230195   1.904   3.270   3.546  0.5638  0.2174 -1.5441
 6245SOL     OW30196   4.658   2.978  13.406  0.1876 -0.1718  0.1434
 6245SOL    HW130197   4.689   2.932  13.328 -1.9239 -0.0384 -0.7884
 6245SOL    HW230198   4.598   2.911  13.437  0.2694 -0.3637 -0.1108
 6246SOL     OW30199   1.927   0.571   5.688  0.5138  0.3577 -0.0633
 6246SOL    HW130200   1.931   0.633   5.615  1.1419 -0.4456 -0.7168
 6246SOL    HW230201   2.016   0.580   5.720  1.0271 -1.9398 -0.8265
 6247SOL     OW30202   4.674   2.456   6.459 -0.3776 -0.2245 -0.0415
 6247SOL    HW130203   0.018   2.522   6.471  1.4331 -1.8905 -1.0851
 6247SOL    HW230204   0.004   2.377   6.451 -0.4166 -0.2519 -0.0326
 6248SOL     OW30205   2.227   2.698   8.418  0.2993  0.0192 -0.0824
 6248SOL    HW130206   2.232   2.679   8.325 -1.0502 -1.2454  0.0961
 6248SOL    HW230207   2.134   2.716   8.435  1.0423  3.2411  0.5619
 6249SOL     OW30208   1.672   0.006   4.944 -0.0301 -0.0598 -0.5310
 6249SOL    HW130209   1.742   0.071   4.936 -0.5959  0.5513 -0.4893
 6249SOL    HW230210   1.651   4.721   4.851 -0.0111 -0.3420 -0.5119
 6250SOL     OW30211   4.323   0.964   3.366  0.0560 -0.1515  0.2267
 6250SOL    HW130212   4.276   0.963   3.283  0.4675  0.3425 -0.0112
 6250SOL    HW230213   4.332   0.870   3.382 -1.5521 -0.2708  0.4026
 6251SOL     OW30214   4.399   3.955   2.179 -0.2369 -0.6674 -0.2941
 6251SOL    HW130215   4.349   3.876   2.156  2.7604 -2.4801 -0.5509
 6251SOL    HW230216   4.428   3.926   2.266  0.9098 -0.8127 -0.7218
 6252SOL     OW30217   4.534   0.622   8.929  0.3746 -0.2301  1.0269
 6252SOL    HW130218   4.440   0.625   8.909  0.5736 -0.1544  0.1469
 6252SOL    HW230219   4.568   0.654   8.846 -0.3103  1.4597  1.3922
 6253SOL     OW30220   2.104   1.808   5.356 -0.3742 -0.5115  0.1066
 6253SOL    HW130221   2.162   1.776   5.424 -0.3853 -0.5159  0.1140
 6253SOL    HW230222   2.171   1.840   5.296  1.5486 -0.5449  2.2583
 6254SOL     OW30223   2.003   0.858  10.735 -0.4504  0.3061 -0.0950
 6254SOL    HW130224   1.968   0.777  10.773 -0.0265 -0.6512 -1.7758
 6254SOL    HW230225   2.043   0.894  10.814 -0.6926  0.6027 -0.1086
 6255SOL     OW30226   4.400   3.040   3.087 -0.1461 -0.3688  0.4675
 6255SOL    HW130227   4.423   2.956   3.048 -0.4955 -0.6382  0.8501
 6255SOL    HW230228   4.319   3.022   3.135  0.1673 -2.3594  0.2259
 6256SOL     OW30229   0.839   1.043   7.379  0.2932  0.2206  0.8597
 6256SOL    HW130230   0.915   1.040   7.437 -0.7893 -0.6789  2.2571
 6256SOL    HW230231   0.805   1.132   7.388 -1.7676 -0.3915 -0.7193
 6257SOL     OW30232   4.165   2.224   9.341  0.1110 -0.0301 -0.8651
 6257SOL    HW130233   4.236   2.248   9.282 -0.4153  3.1940 -0.1988
 6257SOL    HW230234   4.181   2.279   9.418 -2.1356  0.8796 -1.0332
 6258SOL     OW30235   4.293   2.104   3.329  0.3227 -0.7197  0.4171
 6258SOL    HW130236   4.216   2.158   3.347 -0.1798 -2.0210  2.1716
 6258SOL    HW230237   4.314   2.059   3.411  1.0863  0.1687  0.7060
 6259SOL     OW30238   3.157   3.863   5.225 -0.6226  0.9630 -0.5437
 6259SOL    HW130239   3.210   3.863   5.304 -1.2668 -0.1325 -0.1046
 6259SOL    HW230240   3.164   3.769   5.206  0.5356  0.8916  0.2912
 6260SOL     OW30241   1.984   2.355   7.146  0.6477 -0.1262 -0.2649
 6260SOL    HW130242   2.044   2.398   7.085  1.9789 -2.4076 -0.5873
 6260SOL    HW230243   1.990   2.261   7.127  0.3315 -0.3974  0.9285
 6261SOL     OW30244   3.841   0.177  12.752  0.2620  0.0485  0.2746
 6261SOL    HW130245   3.839   0.273  12.753 -1.2584  0.0145  0.2235
 6261SOL    HW230246   3.905   0.158  12.821  0.9922  3.7374  0.6184
 6262SOL     OW30247   0.664   1.021   5.534  0.0038 -0.2073  0.2698
 6262SOL    HW130248   0.669   0.953   5.601 -0.5855 -1.0311 -0.5255
 6262SOL    HW230249   0.758   1.033   5.534 -0.0821  0.4673  2.0917
 6263SOL     OW30250   1.579   3.517  13.176  0.1612 -0.4427  0.3303
 6263SOL    HW130251   1.620   3.557  13.252  1.2821 -2.2004  0.6271
 6263SOL    HW230252   1.624   3.548  13.097 -0.0852 -2.2257 -0.5141
 6264SOL     OW30253   2.774   3.986   6.355 -0.2724 -0.3612  0.3970
 6264SOL    HW130254   2.750   3.990   6.447  0.4924  0.2613  0.5698
 6264SOL    HW230255   2.792   3.892   6.353  0.4629 -0.2062 -0.4754
 6265SOL     OW30256   3.635   2.003   8.439 -0.0884  0.1410  0.1224
 6265SOL    HW130257   3.661   2.092   8.460 -3.2248  0.9003  0.7745
 6265SOL    HW230258   3.724   1.968   8.434 -0.2027 -0.1945  0.4383
 6266SOL     OW30259   1.345   2.292   5.878 -0.1379 -0.2036  0.1010
 6266SOL    HW130260   1.346   2.373   5.828  0.6188  0.8358  1.7831
 6266SOL    HW230261   1.439   2.274   5.884  0.0972  0.2960 -2.1449
 6267SOL     OW30262   4.422   1.129   2.669 -0.2359  0.2558  0.2507
 6267SOL    HW130263   4.356   1.199   2.669  0.0892  0.5615 -0.1933
 6267SOL    HW230264   4.407   1.089   2.584 -0.3989 -1.0800  0.9107
 6268SOL     OW30265   0.643   1.291   7.646  0.2195 -0.1044  0.3306
 6268SOL    HW130266   0.733   1.263   7.630  1.0585  2.4806  0.6533
 6268SOL    HW230267   0.638   1.285   7.741  1.2776 -2.1633  0.2610
 6269SOL     OW30268   2.335   0.461  12.153  0.5042  0.1370 -0.1366
 6269SOL    HW130269   2.323   0.495  12.242  1.3270 -2.7643  1.1098
 6269SOL    HW230270   2.319   0.538  12.100  1.1011 -0.1816 -0.7881
 6270SOL     OW30271   4.600   0.454   3.044  0.1465 -0.8740 -0.1897
 6270SOL    HW130272   4.520   0.485   3.086 -1.0075 -2.6315 -1.0761
 6270SOL    HW230273   4.595   0.366   3.083  2.8028 -0.4130  1.2013
 6271SOL     OW30274   2.667   0.610   2.050 -0.0795 -0.0806 -0.5756
 6271SOL    HW130275   2.663   0.696   2.094 -0.5827 -0.4750  0.1607
 6271SOL    HW230276   2.728   0.558   2.102 -0.2184 -0.8944 -1.2333
 6272SOL     OW30277   2.992   4.053  10.226  0.4613  0.1150 -0.2050
 6272SOL    HW130278   3.008   4.086  10.315  1.1191 -0.2496 -0.1908
 6272SOL    HW230279   2.917   3.997  10.244 -0.7515  1.7203 -0.2786
 6273SOL     OW30280   3.567   3.513   8.168 -0.4880 -0.0183 -0.1165
 6273SOL    HW130281   3.594   3.529   8.077  1.2647 -0.0996  0.3925
 6273SOL    HW230282   3.474   3.491   8.157 -0.0671 -0.8710 -1.9193
 6274SOL     OW30283   4.665   0.869   6.690 -0.3195  0.2177  0.5779
 6274SOL    HW130284   4.652   0.884   6.596 -2.2016 -1.6261  0.5472
 6274SOL    HW230285   0.031   0.838   6.708  0.1158  0.6432 -0.8953
 6275SOL     OW30286   3.095   3.835   7.163 -0.3430 -0.2404  0.1195
 6275SOL    HW130287   3.140   3.919   7.155 -0.0315 -0.3247  0.9679
 6275SOL    HW230288   3.002   3.857   7.164 -0.1597  0.4139  2.8901
 6276SOL     OW30289   0.283   2.269  10.472  0.2684 -0.1406 -0.1522
 6276SOL    HW130290   0.306   2.272  10.379  3.9368 -0.9572  0.7377
 6276SOL    HW230291   0.250   2.180  10.482  1.3081 -0.7348 -1.9339
 6277SOL     OW30292   1.948   0.374   2.873 -0.1232 -0.6059  0.4283
 6277SOL    HW130293   1.939   0.469   2.868  2.4101 -0.3594  0.1619
 6277SOL    HW230294   1.867   0.349   2.917 -1.3789 -0.4056 -1.7680
 6278SOL     OW30295   3.712   3.634   6.923  0.1406  0.3232 -0.2025
 6278SOL    HW130296   3.654   3.575   6.973 -1.2438 -0.2405 -2.4712
 6278SOL    HW230297   3.715   3.707   6.984 -1.4181  0.2698 -0.0644
 6279SOL     OW30298   3.742   2.262   8.492  0.1565 -0.0237  0.3887
 6279SOL    HW130299   3.772   2.314   8.417 -0.2583 -0.7783 -0.3101
 6279SOL    HW230300   3.700   2.328   8.546  2.4674  1.0145  0.9180
 6280SOL     OW30301   4.262   3.365  10.740  0.2955 -0.1295 -0.3733
 6280SOL    HW130302   4.244   3.424  10.814 -0.1778 -0.6648 -0.0602
 6280SOL    HW230303   4.293   3.295  10.797  0.8739  0.1431 -0.3450
 6281SOL     OW30304   4.535   3.151  16.382  0.3214 -0.2130 -0.0328
 6281SOL    HW130305   4.584   3.089  16.328  0.4423  1.2096 -1.5627
 6281SOL    HW230306   4.458   3.105  16.415 -0.4694  1.0782 -0.0668
 6282SOL     OW30307   4.629   1.355   1.462  0.4706 -0.5172  0.5069
 6282SOL    HW130308   4.632   1.392   1.550 -1.4391  2.4654 -0.6931
 6282SOL    HW230309   4.688   1.280   1.458  0.1390 -0.8076  1.1181
 6283SOL     OW30310   3.711   1.783   5.462 -0.7764  0.0740  0.2277
 6283SOL    HW130311   3.698   1.757   5.371 -0.9227  0.0935  0.2432
 6283SOL    HW230312   3.795   1.826   5.446 -1.5509  1.5423  0.0741
 6284SOL     OW30313   1.908   1.548   4.618 -0.3681  0.4235  0.7506
 6284SOL    HW130314   1.860   1.489   4.560 -1.8950  1.1426  1.2766
 6284SOL    HW230315   1.894   1.629   4.569 -1.9632 -0.8951 -0.9762
 6285SOL     OW30316   2.100   3.364   2.112  0.3369  0.2822 -0.5184
 6285SOL    HW130317   2.150   3.339   2.189  1.4235  0.0996 -1.2854
 6285SOL    HW230318   2.175   3.383   2.056  0.9442  0.6246  0.4235
 6286SOL     OW30319   1.365   4.245   4.530 -0.8512  0.0304  0.5586
 6286SOL    HW130320   1.294   4.240   4.593 -0.9193 -0.2757  0.4586
 6286SOL    HW230321   1.395   4.334   4.549 -0.4676 -0.4092  2.0145
 6287SOL     OW30322   2.169   1.716  10.420 -0.3202  0.4615  0.0900
 6287SOL    HW130323   2.112   1.774  10.370  0.4761 -0.7323 -2.1814
 6287SOL    HW230324   2.119   1.635  10.432  0.3778 -0.3150 -2.3929
 6288SOL     OW30325   3.861   0.956   4.701 -0.2945  0.3913  0.2616
 6288SOL    HW130326   3.889   1.011   4.628 -0.4318 -0.9432 -0.8000
 6288SOL    HW230327   3.943   0.950   4.752 -0.5872 -1.2203  0.5487
 6289SOL     OW30328   0.503   1.005   2.292 -0.0828  0.2020  0.1720
 6289SOL    HW130329   0.513   1.017   2.387 -0.4075 -0.4027  0.2867
 6289SOL    HW230330   0.536   1.089   2.262  2.2795  0.5985  3.7889
 6290SOL     OW30331   3.948   1.796   6.860  0.0027 -0.1914 -0.3262
 6290SOL    HW130332   3.943   1.712   6.906  0.6033  0.9469  1.7885
 6290SOL    HW230333   3.892   1.767   6.788 -2.8777  0.0764  1.8245
 6291SOL     OW30334   0.250   0.920  13.871  0.5009  0.1811 -0.3519
 6291SOL    HW130335   0.213   0.870  13.799  0.5302  2.9584 -2.2695
 6291SOL    HW230336   0.272   0.847  13.929 -0.1660 -0.3603 -0.7836
 6292SOL     OW30337   2.993   1.236   6.308 -0.4537  0.4099 -0.2708
 6292SOL    HW130338   3.052   1.241   6.384 -0.9877 -1.5767  0.2550
 6292SOL    HW230339   2.990   1.144   6.285  1.5868  1.5209 -4.9684
 6293SOL     OW30340   2.982   2.596   7.623  0.7007  0.7510 -0.3764
 6293SOL    HW130341   3.063   2.613   7.575  1.2620  0.5130  0.4843
 6293SOL    HW230342   2.948   2.684   7.614 -1.1531 -0.0882 -1.5473
 6294SOL     OW30343   2.185   3.502  11.938  0.3233 -0.2302 -0.0875
 6294SOL    HW130344   2.255   3.437  11.935 -0.0804 -0.6380 -0.6271
 6294SOL    HW230345   2.118   3.445  11.974 -1.2474  0.6039 -1.6745
 6295SOL     OW30346   0.932   0.933   2.595 -0.0091 -0.1496 -0.7925
 6295SOL    HW130347   1.010   0.975   2.631 -0.5809 -0.1055  0.4278
 6295SOL    HW230348   0.970   0.846   2.583  0.9582  0.0556  0.8011
 6296SOL     OW30349   0.140   0.272   1.949  0.0956 -0.3510  0.2989
 6296SOL    HW130350   0.065   0.301   2.001  1.5586  2.4344  0.8675
 6296SOL    HW230351   0.152   0.183   1.981  1.8835 -0.7148 -1.4011
 6297SOL     OW30352   3.924   1.995   4.349  0.2265  0.3059  0.9024
 6297SOL    HW130353   3.905   2.042   4.268  0.2985  1.0103  1.2932
 6297SOL    HW230354   3.971   2.060   4.402  0.5091  0.9280 -0.1004
 6298SOL     OW30355   2.682   0.908   4.163  0.6408 -0.5147  0.0706
 6298SOL    HW130356   2.769   0.931   4.130 -0.8275  0.8910 -2.8004
 6298SOL    HW230357   2.702   0.818   4.189  0.3383 -0.5957  0.0233
 6299SOL     OW30358   3.994   1.347   0.457 -0.4313 -0.0829 -0.0527
 6299SOL    HW130359   4.065   1.299   0.415  2.1219  2.8093  0.9463
 6299SOL    HW230360   4.035   1.371   0.541 -2.2338  0.9850  0.5287
 6300SOL     OW30361   2.242   0.038   1.293  0.1136  0.1349  0.2720
 6300SOL    HW130362   2.183   0.030   1.368 -0.1396 -3.5213 -0.3107
 6300SOL    HW230363   2.247   0.134   1.290 -0.3661  0.0839 -1.8683
 6301SOL     OW30364   1.239   3.868  14.386  0.4385  0.3916  0.3824
 6301SOL    HW130365   1.323   3.905  14.411  1.0242 -0.5480 -0.2017
 6301SOL    HW230366   1.208   3.848  14.475  4.0398  1.3098  1.8414
 6302SOL     OW30367   3.487   2.865   1.602 -0.2030 -0.7203 -0.0909
 6302SOL    HW130368   3.560   2.820   1.558 -0.3509  1.0457 -2.1932
 6302SOL    HW230369   3.527   2.897   1.683 -0.4476 -0.7324  0.0332
 6303SOL     OW30370   2.172   2.599   8.962 -0.4158  0.3758 -0.5974
 6303SOL    HW130371   2.232   2.666   8.928  1.5667 -1.1531 -0.0894
 6303SOL    HW230372   2.223   2.521   8.985  1.5553  1.8518  0.0415
 6304SOL     OW30373   2.010   1.186   6.952 -0.1801  0.2416 -0.5547
 6304SOL    HW130374   1.994   1.137   7.032 -0.8171 -1.9666 -2.0536
 6304SOL    HW230375   2.038   1.110   6.901  1.6562  0.7675 -0.3372
 6305SOL     OW30376   3.490   1.851   8.921  0.2612 -0.4001  0.1308
 6305SOL    HW130377   3.567   1.818   8.968  1.3826  2.3403  0.2096
 6305SOL    HW230378   3.425   1.804   8.973 -0.6516 -2.6974 -3.0410
 6306SOL     OW30379   1.489   1.859   5.645 -0.1090 -0.4489 -0.5465
 6306SOL    HW130380   1.439   1.784   5.676  1.5768 -1.3949 -0.1436
 6306SOL    HW230381   1.541   1.817   5.577  0.4668 -0.0145 -0.3701
 6307SOL     OW30382   2.438   4.566   8.135 -0.1246  0.4013 -0.3020
 6307SOL    HW130383   2.443   4.592   8.042 -1.2400 -1.7788 -0.9624
 6307SOL    HW230384   2.499   4.496   8.160 -0.5587  0.9032  2.1193
 6308SOL     OW30385   4.555   0.935   6.436 -0.1731  0.6550  0.3546
 6308SOL    HW130386   4.565   0.893   6.351  0.6543 -0.7128  1.1406
 6308SOL    HW230387   4.600   1.019   6.420  0.4088  0.2253 -0.2448
 6309SOL     OW30388   4.169   1.378   6.785  0.2098 -0.1022 -0.5011
 6309SOL    HW130389   4.123   1.304   6.825 -0.5041  1.0681  0.8698
 6309SOL    HW230390   4.225   1.329   6.725 -0.9988 -2.5157  0.3417
 6310SOL     OW30391   0.918   3.907   5.471 -0.2409 -0.1058  0.2211
 6310SOL    HW130392   0.998   3.958   5.461  0.2672 -0.5188  2.2289
 6310SOL    HW230393   0.915   3.898   5.566  1.7032  0.8941  0.3733
 6311SOL     OW30394   2.975   4.348  16.955 -0.1654  0.0768 -0.3998
 6311SOL    HW130395   3.009   4.410  16.891  0.2598  1.4914  1.2097
 6311SOL    HW230396   3.022   4.374  17.034  1.8987 -3.8330 -0.3160
 6312SOL     OW30397   2.849   4.426   8.039 -0.8230  0.0837 -0.3133
 6312SOL    HW130398   2.837   4.388   7.951  0.1595 -1.9507  0.4229
 6312SOL    HW230399   2.768   4.393   8.077 -1.3091  0.4033 -1.0620
 6313SOL     OW30400   1.893   1.051   9.587  0.5772 -0.1148  0.5140
 6313SOL    HW130401   1.924   0.965   9.615  1.3101  1.2507  3.8051
 6313SOL    HW230402   1.818   1.016   9.538  0.8337 -1.8479  1.3673
 6314SOL     OW30403   4.546   1.112  12.941  0.6362 -0.3212 -0.1080
 6314SOL    HW130404   4.573   1.049  13.008  1.5935  3.0387  2.6810
 6314SOL    HW230405   4.520   1.055  12.869 -0.9152 -1.6185  1.4948
 6315SOL     OW30406   1.297   1.789   7.475  0.0532  0.5025 -0.7391
 6315SOL    HW130407   1.304   1.703   7.434 -0.6045  1.1038 -2.1080
 6315SOL    HW230408   1.350   1.834   7.408 -0.9672  2.4075 -0.2658
 6316SOL     OW30409   0.511   1.080  10.944  0.3529  0.0177 -0.0175
 6316SOL    HW130410   0.474   1.161  10.977  2.0276  0.2580  1.2710
 6316SOL    HW230411   0.576   1.055  11.010  0.2347  0.1820  0.1585
 6317SOL     OW30412   0.154   1.924  16.927  0.2087 -0.1524 -0.0190
 6317SOL    HW130413   0.074   1.876  16.951 -0.1760 -0.2068 -1.3964
 6317SOL    HW230414   0.128   2.007  16.889  1.4859  0.0057 -0.5323
 6318SOL     OW30415   3.244   2.660   7.473 -0.2175 -0.6295  0.1838
 6318SOL    HW130416   3.200   2.594   7.420 -1.4306 -0.5135  1.0418
 6318SOL    HW230417   3.303   2.606   7.526 -1.4886 -1.8647  0.3270
 6319SOL     OW30418   3.260   1.566   4.552  0.1654  0.5873 -0.2389
 6319SOL    HW130419   3.287   1.650   4.591  0.6639  0.2317  0.1824
 6319SOL    HW230420   3.318   1.555   4.477 -0.4948 -0.3922 -0.5978
 6320SOL     OW30421   4.541   2.299  12.888  0.7613  0.0450 -0.0645
 6320SOL    HW130422   4.615   2.290  12.828  0.6202  0.1312 -0.2536
 6320SOL    HW230423   4.498   2.213  12.879  2.8192 -0.9302 -0.6121
 6321SOL     OW30424   4.609   1.486   4.160 -0.0782 -0.6993  0.1976
 6321SOL    HW130425   4.560   1.428   4.102  0.6469 -0.8193 -0.2877
 6321SOL    HW230426   4.674   1.523   4.100  1.8038 -3.4590  0.5390
 6322SOL     OW30427   4.351   1.342  15.033 -0.8150 -0.7687  0.0611
 6322SOL    HW130428   4.380   1.306  15.117  0.0780  3.4301  1.5491
 6322SOL    HW230429   4.420   1.399  14.998  0.0580 -0.5521  2.0946
 6323SOL     OW30430   2.939   1.303   6.037 -0.6176 -0.4357  0.4276
 6323SOL    HW130431   2.948   1.295   6.132 -0.6515 -1.4388  0.3495
 6323SOL    HW230432   3.028   1.325   6.009 -0.3074 -0.8360  1.1010
 6324SOL     OW30433   1.836   0.028   6.556  0.5599  0.1099 -0.4578
 6324SOL    HW130434   1.911   4.699   6.530 -0.0007 -0.5042 -0.8519
 6324SOL    HW230435   1.821   0.072   6.472 -0.7029  2.2119  0.8523
 6325SOL     OW30436   2.956   0.624   3.141  0.0541 -0.4688 -0.2174
 6325SOL    HW130437   3.051   0.636   3.140  0.4275 -3.3627 -0.5189
 6325SOL    HW230438   2.928   0.640   3.051  3.0777  2.3299 -0.6262
 6326SOL     OW30439   2.309   2.699  11.140 -0.2841  0.0124 -0.1365
 6326SOL    HW130440   2.293   2.640  11.214  2.7257  0.2733  0.7015
 6326SOL    HW230441   2.282   2.783  11.177  0.4576 -0.7336  2.1275
 6327SOL     OW30442   1.915   0.079  10.417  0.0966 -0.3606 -0.1651
 6327SOL    HW130443   1.973   0.149  10.448 -1.0603  0.8414 -0.6980
 6327SOL    HW230444   1.833   0.127  10.408 -0.0176 -0.7364 -1.1760
 6328SOL     OW30445   2.298   4.256   6.420 -0.0553 -0.3557 -0.5806
 6328SOL    HW130446   2.298   4.242   6.515  1.6126 -0.9750 -0.6752
 6328SOL    HW230447   2.234   4.187   6.401 -0.1630 -1.0234  2.0579
 6329SOL     OW30448   1.152   0.694   9.126 -0.1502 -0.2080 -0.3806
 6329SOL    HW130449   1.119   0.636   9.195 -1.4435 -0.2884 -1.0628
 6329SOL    HW230450   1.243   0.709   9.152  0.0062 -1.0531 -0.4697
 6330SOL     OW30451   3.401   1.486   8.734  0.2259  0.3005  0.5970
 6330SOL    HW130452   3.469   1.480   8.801 -0.2984  1.8377  1.2592
 6330SOL    HW230453   3.321   1.470   8.783  0.4077  0.5232  0.9684
 6331SOL     OW30454   0.763   0.225   5.490 -0.1238  0.6618 -0.7166
 6331SOL    HW130455   0.735   0.185   5.572 -1.1260  0.3525 -1.2153
 6331SOL    HW230456   0.715   0.307   5.491  2.3007  2.0856 -0.8046
 6332SOL     OW30457   0.301   1.424   5.512 -0.0337 -0.2653 -0.5989
 6332SOL    HW130458   0.305   1.474   5.594  2.6731  0.8289 -1.3989
 6332SOL    HW230459   0.212   1.390   5.518  1.4063 -3.9132  0.2581
 6333SOL     OW30460   3.534   3.954   3.148 -0.1776  0.2725 -0.4292
 6333SOL    HW130461   3.516   3.909   3.229 -2.8558  1.2153 -0.5188
 6333SOL    HW230462   3.448   3.985   3.121 -0.6548  1.3220  2.3480
 6334SOL     OW30463   3.256   2.330   3.647  0.6730  0.2352  0.0773
 6334SOL    HW130464   3.280   2.409   3.697  0.6608  1.3434 -1.6879
 6334SOL    HW230465   3.161   2.321   3.647  0.6052  0.8973 -0.2541
 6335SOL     OW30466   4.488   1.024   3.579  0.3557  0.2778  0.1120
 6335SOL    HW130467   4.473   1.117   3.564  1.4201  0.9780  3.4721
 6335SOL    HW230468   4.442   0.986   3.504 -0.1829 -1.2934  1.2334
 6336SOL     OW30469   0.843   1.487   5.510 -0.4449  0.5341 -0.6575
 6336SOL    HW130470   0.883   1.504   5.595 -0.2832 -0.6378 -0.4994
 6336SOL    HW230471   0.879   1.559   5.458 -0.9077  0.9181 -0.4437
 6337SOL     OW30472   2.259   1.942  16.968  0.6121  0.3905 -0.6232
 6337SOL    HW130473   2.180   1.947  17.023  1.0446  0.4826 -0.0163
 6337SOL    HW230474   2.227   1.898  16.889 -1.7833 -0.6599  0.9354
 6338SOL     OW30475   2.110   3.505   7.166 -0.5971  0.6650  0.1728
 6338SOL    HW130476   2.020   3.487   7.137  0.8144 -0.2076 -3.7235
 6338SOL    HW230477   2.129   3.587   7.119  0.6394  0.8948  1.0932
 6339SOL     OW30478   0.883   0.960  14.099  0.0537 -0.2962  0.1925
 6339SOL    HW130479   0.894   0.998  14.186  2.9005  1.5115 -0.9481
 6339SOL    HW230480   0.886   1.040  14.046  0.5197 -0.1615  0.4287
 6340SOL     OW30481   2.406   0.843  14.277  0.0693  0.5577 -0.6192
 6340SOL    HW130482   2.459   0.792  14.216 -0.4470 -0.8514  0.1006
 6340SOL    HW230483   2.404   0.778  14.348  2.2872  1.1690 -0.0052
 6341SOL     OW30484   0.080   0.693  12.869  0.4169  0.7371 -0.4140
 6341SOL    HW130485   4.723   0.708  12.919 -0.5131  1.2000 -2.0348
 6341SOL    HW230486   0.044   0.722  12.784  0.7884  1.7322 -0.2373
 6342SOL     OW30487   2.737   1.210   5.099  0.8315 -0.4338 -0.0898
 6342SOL    HW130488   2.789   1.276   5.145  1.7012 -2.3122  1.6519
 6342SOL    HW230489   2.769   1.228   5.011 -1.8897  0.2256 -0.9695
 6343SOL     OW30490   2.771   1.254   4.228  0.3229 -0.3582 -0.5089
 6343SOL    HW130491   2.838   1.189   4.205 -1.6435 -2.2153 -0.9024
 6343SOL    HW230492   2.764   1.300   4.144 -0.6816  0.9173  0.2845
 6344SOL     OW30493   3.264   1.486   3.976 -0.0200  0.8525  0.1806
 6344SOL    HW130494   3.195   1.469   4.040 -0.4583 -0.1917 -0.5710
 6344SOL    HW230495   3.273   1.400   3.935  0.8734  0.4057  1.3263
 6345SOL     OW30496   1.581   1.264  14.961 -0.2992 -0.3962  0.0397
 6345SOL    HW130497   1.636   1.329  14.917 -1.2229  0.9771  0.9080
 6345SOL    HW230498   1.523   1.246  14.887  0.4062 -3.5415  0.2562
 6346SOL     OW30499   3.149   1.322  14.064  0.5010 -0.8053 -0.2021
 6346SOL    HW130500   3.229   1.369  14.040  0.5994 -0.0056  1.7427
 6346SOL    HW230501   3.082   1.389  14.054  2.6904  1.3976 -0.2873
 6347SOL     OW30502   0.033   0.799   5.011  0.2998  0.0222 -1.1320
 6347SOL    HW130503   4.674   0.804   4.963 -0.6121  0.8479  0.5056
 6347SOL    HW230504   0.098   0.843   4.958 -0.1792 -0.2866 -1.9747
 6348SOL     OW30505   2.658   4.606   5.047 -0.1541 -0.3121  0.0216
 6348SOL    HW130506   2.568   4.618   5.019 -0.4584 -1.8462  0.3138
 6348SOL    HW230507   2.660   4.647   5.133  0.6786 -0.2549 -0.0245
 6349SOL     OW30508   2.340   0.545   6.005 -0.3961  0.1875 -0.2734
 6349SOL    HW130509   2.350   0.455   5.973 -1.1149  0.7688 -2.1383
 6349SOL    HW230510   2.412   0.594   5.965 -0.9256  1.7250  0.6435
 6350SOL     OW30511   3.788   1.341   3.209 -0.1010 -0.2611  0.0163
 6350SOL    HW130512   3.766   1.367   3.120  1.2450  0.8528  0.0111
 6350SOL    HW230513   3.738   1.403   3.263  2.0819 -0.0244  1.7771
 6351SOL     OW30514   0.305   0.847   8.527 -0.1275 -0.0606 -0.5008
 6351SOL    HW130515   0.360   0.802   8.590  1.8181 -0.8166 -2.7557
 6351SOL    HW230516   0.295   0.936   8.559  0.8687 -0.2647  0.3675
 6352SOL     OW30517   3.293   3.198   4.064 -0.5982  0.5932  0.1730
 6352SOL    HW130518   3.221   3.235   4.012 -0.1441  1.5687  0.2322
 6352SOL    HW230519   3.359   3.239   4.008 -0.2997 -1.1848 -0.7640
 6353SOL     OW30520   2.343   0.501   3.537  0.2234 -0.4511 -0.2442
 6353SOL    HW130521   2.384   0.475   3.454 -0.3724  2.7049 -1.5355
 6353SOL    HW230522   2.322   0.413   3.569  0.2054 -0.2273  0.3508
 6354SOL     OW30523   2.167   1.027   7.850  0.2720 -0.2073 -0.1296
 6354SOL    HW130524   2.136   0.937   7.865  1.3035 -0.1435  2.4625
 6354SOL    HW230525   2.192   1.054   7.938 -0.1682 -0.2205 -0.0019
 6355SOL     OW30526   0.831   1.843   2.861  0.1032  0.1246 -0.0885
 6355SOL    HW130527   0.815   1.781   2.790  1.3289  1.3118 -1.3995
 6355SOL    HW230528   0.921   1.872   2.846 -0.1439  0.4353 -0.9680
 6356SOL     OW30529   1.896   1.477   5.551  0.4549 -1.0397 -0.1126
 6356SOL    HW130530   1.848   1.443   5.477 -0.9993  1.1872 -0.2004
 6356SOL    HW230531   1.865   1.427   5.626 -1.6155 -0.8550 -0.8404
 6357SOL     OW30532   3.178   4.157   4.799  0.0698  0.0638 -0.0164
 6357SOL    HW130533   3.154   4.082   4.852 -0.0972 -0.3850 -0.7338
 6357SOL    HW230534   3.098   4.209   4.803  0.6527  0.9505  0.1713
 6358SOL     OW30535   3.029   1.167   9.242 -0.1456 -0.3329 -0.3201
 6358SOL    HW130536   3.093   1.237   9.227  1.8055 -1.8129  1.1101
 6358SOL    HW230537   3.016   1.171   9.337  1.5641  0.6576 -0.1181
 6359SOL     OW30538   1.771   1.758  10.258 -0.3694 -0.1726  0.1610
 6359SOL    HW130539   1.758   1.676  10.305 -1.9607 -0.6938 -1.2007
 6359SOL    HW230540   1.789   1.727  10.170 -2.3003 -0.5822 -0.0894
 6360SOL     OW30541   3.360   2.832   3.313 -0.0805  0.4372 -0.1752
 6360SOL    HW130542   3.286   2.802   3.260  0.0181 -1.6849  0.9038
 6360SOL    HW230543   3.441   2.820   3.263 -0.0012 -1.1222  0.3498
 6361SOL     OW30544   0.537   0.404  12.518 -0.4996 -0.4736 -0.3290
 6361SOL    HW130545   0.499   0.326  12.479  2.2769 -1.8714 -0.2303
 6361SOL    HW230546   0.585   0.372  12.594  0.2920 -0.6876 -0.9158
 6362SOL     OW30547   4.023   2.104  12.929 -0.4592  0.0910 -0.2304
 6362SOL    HW130548   4.026   2.102  13.025 -1.7161  2.8975 -0.1520
 6362SOL    HW230549   4.046   2.016  12.900  2.4502  1.1998 -1.1721
 6363SOL     OW30550   0.273   3.130   6.528  0.5639 -0.1868  0.1692
 6363SOL    HW130551   0.362   3.147   6.559  1.3424 -1.0557 -1.5854
 6363SOL    HW230552   0.235   3.187   6.594 -1.4269  1.1028 -2.1004
 6364SOL     OW30553   1.302   1.393   3.940 -0.0833 -0.3426  0.3367
 6364SOL    HW130554   1.250   1.315   3.922  1.1049 -1.0751  0.0347
 6364SOL    HW230555   1.295   1.404   4.035 -1.4742 -0.0580  0.2027
 6365SOL     OW30556   1.143   1.984  10.109  0.0904  0.5815 -0.0765
 6365SOL    HW130557   1.101   1.900  10.089  1.4915 -0.2246  0.3588
 6365SOL    HW230558   1.075   2.047  10.085 -0.9141 -0.7367 -0.7080
 6366SOL     OW30559   3.590   0.180   2.379  0.1055 -0.4653  0.1539
 6366SOL    HW130560   3.508   0.130   2.378 -0.8366  1.0295  3.0900
 6366SOL    HW230561   3.566   0.264   2.340  1.3324  0.6697  1.8158
 6367SOL     OW30562   4.088   0.355   6.482 -0.3808 -0.3885 -0.0671
 6367SOL    HW130563   4.034   0.276   6.490 -0.6622  0.1208  2.7549
 6367SOL    HW230564   4.156   0.340   6.546  0.2388  0.8111 -0.4351
 6368SOL     OW30565   0.446   3.256   4.957 -0.4318  0.4613 -0.4095
 6368SOL    HW130566   0.449   3.161   4.958  1.4150  0.5591  1.8007
 6368SOL    HW230567   0.374   3.284   5.014  0.3846  2.6063 -0.4073
 6369SOL     OW30568   0.411   2.690   8.217  0.3519 -0.1414  0.4263
 6369SOL    HW130569   0.396   2.649   8.303 -0.7158  0.4459  0.5264
 6369SOL    HW230570   0.497   2.732   8.216  0.2403  0.0282 -2.3758
 6370SOL     OW30571   2.446   2.121   3.947  0.4404 -0.4863  0.0520
 6370SOL    HW130572   2.357   2.145   3.923  0.2705 -1.2825 -0.1193
 6370SOL    HW230573   2.459   2.133   4.041  2.0499 -0.2702 -0.1961
 6371SOL     OW30574   1.580   3.632   7.162 -0.3196 -0.5183  0.4816
 6371SOL    HW130575   1.651   3.673   7.211  0.3647 -0.4008 -0.6037
 6371SOL    HW230576   1.624   3.570   7.104  4.1232  2.0223  1.1230
 6372SOL     OW30577   4.696   2.595  13.033 -0.0693 -0.4931 -0.3644
 6372SOL    HW130578   4.601   2.595  13.021 -0.1216  1.4621  0.1860
 6372SOL    HW230579   4.710   2.513  13.081 -0.8347 -0.0246  0.6363
 6373SOL     OW30580   1.094   2.230   0.700  0.2664  0.6447 -0.1072
 6373SOL    HW130581   1.126   2.228   0.791  1.7516 -0.3703 -0.6541
 6373SOL    HW230582   1.144   2.161   0.656  1.1478  0.7663  0.7083
 6374SOL     OW30583   1.799   4.490  11.790 -0.0059 -0.4083  0.1132
 6374SOL    HW130584   1.760   4.565  11.836 -0.5591 -0.6410  0.0257
 6374SOL    HW230585   1.827   4.434  11.863 -0.6042 -0.9284 -0.0594
 6375SOL     OW30586   4.238   4.493   2.678 -0.5003 -0.4773  0.3784
 6375SOL    HW130587   4.298   4.423   2.702  1.3576  0.1887 -2.3715
 6375SOL    HW230588   4.272   4.562   2.735  3.5548 -0.2990 -2.2757
 6376SOL     OW30589   2.210   0.666   4.759 -0.0691  0.4352  0.4987
 6376SOL    HW130590   2.306   0.673   4.763 -0.1558  1.0527  1.4486
 6376SOL    HW230591   2.189   0.697   4.847  0.1799 -1.2966  1.1600
 6377SOL     OW30592   1.234   2.932   5.525  0.1235  0.0628 -0.3056
 6377SOL    HW130593   1.188   2.849   5.512 -0.8503  0.5125  0.2599
 6377SOL    HW230594   1.176   2.987   5.578 -0.9224 -2.3729  1.0725
 6378SOL     OW30595   4.694   2.215  10.541  0.2318  0.4249  0.0049
 6378SOL    HW130596   0.032   2.141  10.536  0.6190  0.9196 -2.7638
 6378SOL    HW230597   0.020   2.276  10.486 -2.6733  1.9049 -0.9218
 6379SOL     OW30598   1.154   2.788   3.000  0.8066  0.2626  0.9425
 6379SOL    HW130599   1.122   2.713   3.051 -1.4103  1.4884  1.3661
 6379SOL    HW230600   1.144   2.753   2.911 -0.3444  2.1093  0.3516
 6380SOL     OW30601   1.841   1.349  17.074  0.0155  0.5236 -0.3040
 6380SOL    HW130602   1.786   1.272  17.088  0.6319  0.6963  3.1656
 6380SOL    HW230603   1.928   1.312  17.058  0.3804  2.0203 -1.7979
 6381SOL     OW30604   1.443   0.669  10.230  0.3732 -0.2534 -0.4367
 6381SOL    HW130605   1.482   0.714  10.305  1.0358  0.3895 -1.1651
 6381SOL    HW230606   1.496   0.589  10.222  2.1255  0.7347  1.2628
 6382SOL     OW30607   1.866   1.841   1.061  0.2567 -0.2892  0.1200
 6382SOL    HW130608   1.886   1.896   0.985  0.1506  0.1705  0.4287
 6382SOL    HW230609   1.833   1.765   1.012 -3.2759  1.5518 -0.2817
 6383SOL     OW30610   0.804   1.205   8.806 -0.0148  0.0863 -0.4206
 6383SOL    HW130611   0.754   1.271   8.853  0.7338 -0.6155  1.3859
 6383SOL    HW230612   0.862   1.169   8.874  0.0436  2.0612  0.5665
 6384SOL     OW30613   3.541   1.091   0.675  0.2094 -0.1676  0.0655
 6384SOL    HW130614   3.455   1.132   0.687  0.0306 -1.2255  2.4655
 6384SOL    HW230615   3.583   1.123   0.755  1.5008 -1.2169 -0.2091
 6385SOL     OW30616   3.338   1.367   7.759 -0.0344 -0.1943 -0.1769
 6385SOL    HW130617   3.424   1.347   7.724 -0.9785 -1.8586 -1.5266
 6385SOL    HW230618   3.296   1.282   7.745  2.1648 -1.2856 -0.0377
 6386SOL     OW30619   1.262   2.930  16.079 -0.2988 -0.0314 -0.4070
 6386SOL    HW130620   1.306   2.950  16.162  2.5608 -0.5964 -1.7781
 6386SOL    HW230621   1.313   2.984  16.019  0.2535 -1.6921 -1.4069
 6387SOL     OW30622   3.915   1.681  12.778 -0.5938  0.1445  0.2858
 6387SOL    HW130623   3.974   1.609  12.800 -0.4961 -0.1652 -0.9841
 6387SOL    HW230624   3.946   1.702  12.690  1.1013 -1.7877  0.4162
 6388SOL     OW30625   3.989   0.611   6.763  0.1021 -0.2479 -0.1911
 6388SOL    HW130626   3.971   0.564   6.845 -1.0006 -1.3509 -1.0817
 6388SOL    HW230627   4.058   0.561   6.719 -0.3602  0.6296 -1.8909
 6389SOL     OW30628   4.604   4.043  13.382  0.4316  0.3557  0.0552
 6389SOL    HW130629   4.604   4.138  13.368 -0.5494  0.5492  1.2787
 6389SOL    HW230630   4.675   4.008  13.329 -0.8369  0.2058 -1.5279
 6390SOL     OW30631   3.231   2.243  11.278  0.0773  0.0051 -0.5452
 6390SOL    HW130632   3.207   2.244  11.185 -3.2333  0.6388  0.3225
 6390SOL    HW230633   3.143   2.254  11.313  0.0736 -2.8893  0.4102
 6391SOL     OW30634   2.050   0.314  16.329 -0.6137  0.2621  0.1010
 6391SOL    HW130635   2.120   0.251  16.346  0.2229  0.5649 -2.1412
 6391SOL    HW230636   1.987   0.282  16.392  1.3895  0.3579  2.1548
 6392SOL     OW30637   2.328   1.827   3.208  0.4988  0.5703  0.1018
 6392SOL    HW130638   2.392   1.770   3.164 -0.3907  0.9284 -1.6372
 6392SOL    HW230639   2.391   1.883   3.253  0.0251  1.3457 -0.1999
 6393SOL     OW30640   3.572   4.400   2.133  0.1540  0.2600 -0.2594
 6393SOL    HW130641   3.479   4.421   2.138  0.2315  0.2233  1.0855
 6393SOL    HW230642   3.578   4.312   2.096 -0.3711  0.1697 -0.1221
 6394SOL     OW30643   4.103   0.804   9.586  0.6686 -0.1521  0.2806
 6394SOL    HW130644   4.061   0.848   9.513 -0.3361 -0.7628  0.4905
 6394SOL    HW230645   4.028   0.792   9.644  0.2286  3.9651  0.5717
 6395SOL     OW30646   4.424   1.046  16.998 -0.7774 -0.3531 -0.4691
 6395SOL    HW130647   4.474   1.120  16.962 -0.5010  0.0262  0.6756
 6395SOL    HW230648   4.467   0.978  16.946  0.0421 -0.5339  0.4324
 6396SOL     OW30649   0.457   0.721  16.729  0.6083 -0.4571  0.1343
 6396SOL    HW130650   0.390   0.788  16.748 -0.0868 -0.8100 -1.0469
 6396SOL    HW230651   0.522   0.769  16.678 -0.8816 -0.2408 -1.5787
 6397SOL     OW30652   2.946   0.540   1.793  0.3081 -0.3068  0.2566
 6397SOL    HW130653   3.009   0.540   1.720 -0.9142  0.8544 -0.7917
 6397SOL    HW230654   2.896   0.459   1.783 -0.1039 -0.2199  1.6236
 6398SOL     OW30655   3.293   0.919   9.029  0.2269  0.0910  0.5928
 6398SOL    HW130656   3.251   0.832   9.032  0.4855 -0.0321  0.6208
 6398SOL    HW230657   3.328   0.916   8.940 -1.8757  0.5748 -0.2439
 6399SOL     OW30658   3.260   2.071   6.550  0.4637 -0.8956 -0.6853
 6399SOL    HW130659   3.299   2.016   6.618  0.1024 -1.4576 -0.9308
 6399SOL    HW230660   3.286   2.021   6.472 -0.9075  1.6032 -2.7228
 6400SOL     OW30661   4.067   4.583   9.886  0.6431  0.5371 -0.2058
 6400SOL    HW130662   4.012   4.573   9.808  1.2073 -0.9829 -0.4046
 6400SOL    HW230663   4.013   4.549   9.957 -0.0664  0.0451 -0.9674
 6401SOL     OW30664   0.098   2.462   3.675  0.4133  0.9815 -0.2350
 6401SOL    HW130665   0.085   2.555   3.658  2.6177  1.1073 -1.3867
 6401SOL    HW230666   0.064   2.430   3.591 -2.4656  1.4085  0.7949
 6402SOL     OW30667   2.206   2.577  10.907  0.3056  0.0984  0.1520
 6402SOL    HW130668   2.127   2.610  10.862  0.2979  0.1721  0.2196
 6402SOL    HW230669   2.201   2.628  10.988 -0.4135  0.2353  0.0242
 6403SOL     OW30670   0.947   4.558   8.120 -0.0631  0.1566  0.3071
 6403SOL    HW130671   0.989   4.644   8.124 -1.4499  0.8583 -0.5380
 6403SOL    HW230672   1.004   4.519   8.187 -0.0642 -0.3001  0.0413
 6404SOL     OW30673   2.679   3.330   6.360  0.0539  0.1922  0.3797
 6404SOL    HW130674   2.689   3.322   6.455 -2.2522  1.7216  0.7452
 6404SOL    HW230675   2.587   3.303   6.359  0.2578 -0.4637 -0.3404
 6405SOL     OW30676   1.844   1.131   4.590 -0.3261  0.1276 -0.4398
 6405SOL    HW130677   1.852   1.206   4.649  2.7508 -0.2906 -0.3447
 6405SOL    HW230678   1.832   1.182   4.510  0.6269  0.0667 -0.6180
 6406SOL     OW30679   2.611   0.124   7.937  0.3505 -0.0836 -0.0836
 6406SOL    HW130680   2.609   0.049   7.877  2.0482  0.2084 -0.5036
 6406SOL    HW230681   2.549   0.175   7.884  2.2919  0.4824 -1.7910
 6407SOL     OW30682   2.478   0.278  15.591  0.6908  0.3001 -0.2020
 6407SOL    HW130683   2.478   0.182  15.589 -1.7306  0.3655 -3.3776
 6407SOL    HW230684   2.394   0.299  15.633  0.5825  0.1093 -0.3260
 6408SOL     OW30685   4.631   2.099   6.527 -0.2011  0.1206 -0.3772
 6408SOL    HW130686   4.631   2.146   6.611  0.9649 -0.7700  0.1208
 6408SOL    HW230687   4.690   2.145   6.468 -0.0839  0.1885 -0.2071
 6409SOL     OW30688   0.943   1.397   3.928 -0.3078 -0.0187  0.5305
 6409SOL    HW130689   0.857   1.429   3.955 -2.1790 -2.2567 -2.7465
 6409SOL    HW230690   0.992   1.474   3.955 -1.0637  0.5438  0.2946
 6410SOL     OW30691   3.223   3.886   6.190  0.3679 -0.2010  0.0941
 6410SOL    HW130692   3.281   3.961   6.173 -0.4247  0.4570  0.2589
 6410SOL    HW230693   3.225   3.886   6.286 -1.5175 -2.2797  0.1169
 6411SOL     OW30694   4.501   3.828   6.187 -0.0059 -0.5399  0.0497
 6411SOL    HW130695   4.414   3.812   6.151  0.4577 -0.3005 -1.2003
 6411SOL    HW230696   4.474   3.890   6.255 -0.3882 -0.3278 -0.2951
 6412SOL     OW30697   1.005   3.509   7.327  0.2653 -0.5026  0.0416
 6412SOL    HW130698   1.061   3.518   7.404  0.3835 -0.3941 -0.0577
 6412SOL    HW230699   1.064   3.540   7.258  2.7572 -0.7259  2.0814
 6413SOL     OW30700   0.499   0.867  13.752  0.2602 -0.4225 -0.2634
 6413SOL    HW130701   0.549   0.887  13.831  0.2895  0.5796 -0.5332
 6413SOL    HW230702   0.410   0.895  13.775  0.0047  0.0955 -1.9081
 6414SOL     OW30703   4.569   2.821   2.434 -0.4610 -0.1179  0.4135
 6414SOL    HW130704   4.519   2.792   2.510  0.0131 -0.4572  0.5900
 6414SOL    HW230705   4.554   2.748   2.374 -2.8403 -0.9425  2.0050
 6415SOL     OW30706   1.411   0.948  14.829  1.2547 -0.0106 -0.2288
 6415SOL    HW130707   1.404   1.042  14.810 -0.9887  0.0340  0.7953
 6415SOL    HW230708   1.321   0.920  14.845  1.5364  0.0859  1.5260
 6416SOL     OW30709   3.040   0.071   5.038  0.2166  0.2297 -0.3631
 6416SOL    HW130710   2.980   0.051   5.109 -0.5986 -0.1766 -1.1582
 6416SOL    HW230711   2.985   0.036   4.967  1.0170 -0.5053 -0.6158
 6417SOL     OW30712   4.296   0.576   6.680 -0.3919 -0.3784  0.4887
 6417SOL    HW130713   4.328   0.629   6.753 -4.2292  1.1806  0.9936
 6417SOL    HW230714   4.321   0.628   6.604 -1.0338 -0.2207  0.3909
 6418SOL     OW30715   2.614   1.566   3.859  0.5002 -0.5512 -0.2701
 6418SOL    HW130716   2.642   1.574   3.767 -0.1796 -2.1863 -0.6225
 6418SOL    HW230717   2.668   1.637   3.895 -1.7017  0.2510  1.4310
 6419SOL     OW30718   0.639   3.506   9.768 -0.3030 -0.5793 -0.3293
 6419SOL    HW130719   0.583   3.431   9.749 -0.1438 -0.6321 -0.5900
 6419SOL    HW230720   0.660   3.521   9.676 -0.3596 -1.5189 -0.4916
 6420SOL     OW30721   3.920   2.352  14.560  0.0741  0.5326 -0.6051
 6420SOL    HW130722   3.875   2.429  14.526 -1.3220 -0.5347 -1.1952
 6420SOL    HW230723   3.842   2.302  14.582  1.5095 -1.4925 -0.0560
 6421SOL     OW30724   0.802   0.591   0.485 -0.0416  0.2049 -0.6176
 6421SOL    HW130725   0.859   0.540   0.427  2.1379 -0.1860  1.8522
 6421SOL    HW230726   0.849   0.674   0.480  1.1561 -0.3837  0.7733
 6422SOL     OW30727   2.876   3.424   2.406 -0.4178 -0.2286 -0.1833
 6422SOL    HW130728   2.824   3.422   2.326 -1.3198  2.7356  0.3306
 6422SOL    HW230729   2.804   3.431   2.469 -0.1325 -0.1428  0.1377
 6423SOL     OW30730   0.858   3.744   4.329  0.0813  0.2182  0.1124
 6423SOL    HW130731   0.763   3.756   4.338 -0.0663 -2.0052  1.3330
 6423SOL    HW230732   0.878   3.744   4.422 -0.6670  0.8026  0.2690
 6424SOL     OW30733   2.351   4.303   3.973 -0.2931 -0.2506 -0.1404
 6424SOL    HW130734   2.315   4.350   4.048 -0.4318  1.1633 -1.0984
 6424SOL    HW230735   2.376   4.370   3.910  0.7938 -1.5035 -1.0419
 6425SOL     OW30736   3.002   2.046   5.614 -0.2566 -0.1850 -0.0774
 6425SOL    HW130737   2.934   2.002   5.564  1.9113 -0.6076 -2.6075
 6425SOL    HW230738   3.062   1.973   5.625 -1.0274 -0.8657 -0.3918
 6426SOL     OW30739   3.565   3.569  16.066  0.7405 -0.4382 -0.1608
 6426SOL    HW130740   3.525   3.501  16.013  0.4335  0.4954 -1.1376
 6426SOL    HW230741   3.504   3.566  16.139  0.1469  1.6735 -0.5675
 6427SOL     OW30742   3.237   1.466  15.764  0.7525  0.3271 -0.3815
 6427SOL    HW130743   3.301   1.444  15.832  0.4761 -4.8409 -1.8057
 6427SOL    HW230744   3.230   1.560  15.780  0.4271 -0.1829  2.5191
 6428SOL     OW30745   3.769   4.690   7.901  0.3371 -0.2528  0.0747
 6428SOL    HW130746   3.750   4.616   7.957  0.5499 -0.3565  0.0107
 6428SOL    HW230747   3.683   4.721   7.873  0.3816 -0.1867  0.0079
 6429SOL     OW30748   0.163   1.820   7.599 -0.0451  0.0345  0.3560
 6429SOL    HW130749   0.172   1.827   7.694  1.4080  1.3048  0.1244
 6429SOL    HW230750   0.226   1.888   7.574 -1.5915  1.6377  0.7918
 6430SOL     OW30751   2.718   3.883   5.897  0.6648 -0.5092  0.1006
 6430SOL    HW130752   2.707   3.961   5.951  0.2034 -0.2882 -0.3111
 6430SOL    HW230753   2.682   3.908   5.811  1.4191  0.5029  0.0788
 6431SOL     OW30754   4.526   3.949   6.735 -0.1463  0.4623 -0.4178
 6431SOL    HW130755   4.584   3.990   6.800 -1.0752 -2.7697  2.3878
 6431SOL    HW230756   4.570   3.982   6.656 -1.4856  0.5603 -1.1252
 6432SOL     OW30757   3.614   3.124  14.703  0.5123  0.3050  0.4609
 6432SOL    HW130758   3.603   3.200  14.761 -0.0323  0.7065 -0.1795
 6432SOL    HW230759   3.707   3.112  14.684  0.1684 -0.7545 -0.5582
 6433SOL     OW30760   3.744   2.184  14.686 -0.4426  0.2909 -0.1565
 6433SOL    HW130761   3.694   2.180  14.768  2.6723  1.7203  1.7931
 6433SOL    HW230762   3.784   2.098  14.684 -2.5234 -0.6704 -1.0535
 6434SOL     OW30763   2.824   0.790  16.268 -0.7924  0.2010 -0.1101
 6434SOL    HW130764   2.747   0.754  16.224 -0.3392 -2.7634  1.5254
 6434SOL    HW230765   2.859   0.855  16.206 -2.1367  1.2914  0.2732
 6435SOL     OW30766   1.347   2.854   3.961 -0.2975 -0.3929  0.7381
 6435SOL    HW130767   1.353   2.866   4.056  1.1428 -0.0103  0.5981
 6435SOL    HW230768   1.272   2.794   3.969 -1.3328  0.7799 -0.2950
 6436SOL     OW30769   3.262   3.532   4.743  0.5273 -0.2628 -0.5955
 6436SOL    HW130770   3.192   3.481   4.703 -2.3463  2.8870  0.4517
 6436SOL    HW230771   3.254   3.502   4.834 -1.3987  0.4348 -0.5430
 6437SOL     OW30772   0.187   4.002   8.432 -0.1604  0.0195  0.0635
 6437SOL    HW130773   0.268   4.044   8.406  0.6048 -1.8756 -0.6305
 6437SOL    HW230774   0.127   4.075   8.415 -0.3620 -0.1955 -0.1505
 6438SOL     OW30775   1.789   4.142  11.457 -0.3662  0.0993  0.2330
 6438SOL    HW130776   1.799   4.114  11.548 -0.5223  2.0545  0.8362
 6438SOL    HW230777   1.746   4.065  11.419  0.1824  0.2432 -0.6646
 6439SOL     OW30778   4.488   0.204   9.111 -0.4941  0.2316  0.1293
 6439SOL    HW130779   4.502   0.298   9.124  1.4220 -0.1908  1.0917
 6439SOL    HW230780   4.491   0.194   9.016 -0.7304 -0.3989  0.1853
 6440SOL     OW30781   0.965   2.248   1.163 -0.2590  0.2661  0.1263
 6440SOL    HW130782   0.905   2.285   1.097  0.1500  0.9677  0.1430
 6440SOL    HW230783   1.025   2.203   1.104 -1.3939 -0.2797 -0.6121
 6441SOL     OW30784   1.429   2.396   2.394  0.3891  0.4806  0.0354
 6441SOL    HW130785   1.360   2.441   2.442 -1.0894 -1.3765 -0.3303
 6441SOL    HW230786   1.422   2.437   2.308  0.5844  1.4034  0.4597
 6442SOL     OW30787   3.903   0.848   1.601 -0.0105  0.6038  0.2557
 6442SOL    HW130788   3.910   0.931   1.553 -1.1093  0.8630  0.5377
 6442SOL    HW230789   3.809   0.838   1.613 -0.3619  1.8813 -1.2786
 6443SOL     OW30790   0.586   2.937   8.256 -0.1126 -0.5822 -0.2226
 6443SOL    HW130791   0.589   2.928   8.160 -0.2389  2.5668 -0.5279
 6443SOL    HW230792   0.532   3.014   8.274  1.0759  0.3878 -0.7525
 6444SOL     OW30793   2.224   4.193   0.024  0.1922  0.1155 -0.0017
 6444SOL    HW130794   2.183   4.271  17.682 -0.2852 -0.4146 -0.5784
 6444SOL    HW230795   2.295   4.227   0.079 -0.0988  1.4502 -0.4431
 6445SOL     OW30796   3.672   0.630  11.206 -0.8323 -0.0791 -0.1754
 6445SOL    HW130797   3.643   0.546  11.171  0.1470  0.3988 -2.1285
 6445SOL    HW230798   3.642   0.684  11.133  0.3188  0.7918 -0.0022
 6446SOL     OW30799   2.222   2.779  16.202 -0.2172  0.7228 -0.1586
 6446SOL    HW130800   2.273   2.724  16.261 -0.3848  0.7630  0.0215
 6446SOL    HW230801   2.206   2.854  16.258 -1.6513 -1.3751  2.2270
 6447SOL     OW30802   1.038   0.032   4.127 -0.1556  0.0250  0.0780
 6447SOL    HW130803   1.087   0.086   4.189  1.0573 -0.0797 -0.7766
 6447SOL    HW230804   0.994   4.693   4.186 -4.0618  3.3633  0.6433
 6448SOL     OW30805   0.745   2.207   4.295  0.0533 -0.4301 -0.0520
 6448SOL    HW130806   0.841   2.200   4.297  0.2201  1.9524  0.4084
 6448SOL    HW230807   0.732   2.300   4.313 -2.8450 -1.0970  1.2133
 6449SOL     OW30808   1.205   0.764   2.036  0.5868 -0.7300 -0.0420
 6449SOL    HW130809   1.125   0.785   1.987  0.2967  1.1919  1.2560
 6449SOL    HW230810   1.160   0.764   2.121 -0.6062  0.2104 -0.6716
 6450SOL     OW30811   3.402   1.163  17.663  0.4151  0.7809  0.1742
 6450SOL    HW130812   3.465   1.224  17.625  0.4315 -0.9388 -2.6221
 6450SOL    HW230813   3.384   1.201   0.054 -1.8228 -1.7328  0.8358
 6451SOL     OW30814   2.654   3.310   3.053 -0.3664 -0.0253  0.3786
 6451SOL    HW130815   2.740   3.272   3.035 -0.2393  0.8485 -0.8733
 6451SOL    HW230816   2.598   3.277   2.983 -0.1880  1.9060 -0.6646
 6452SOL     OW30817   0.289   1.879  13.099 -0.1036  1.1181 -0.4526
 6452SOL    HW130818   0.361   1.904  13.156  0.9325  0.7849 -1.6058
 6452SOL    HW230819   0.267   1.968  13.071  1.8845  1.6262 -0.4185
 6453SOL     OW30820   2.451   0.300   7.260 -0.4238 -0.3002  0.0927
 6453SOL    HW130821   2.505   0.360   7.209 -0.8744  0.6608  0.7684
 6453SOL    HW230822   2.516   0.261   7.320  0.2248  1.4056  0.4898
 6454SOL     OW30823   3.665   3.774   1.062 -0.2889  0.0120 -0.0727
 6454SOL    HW130824   3.621   3.729   0.990 -2.3182  1.2961  0.3543
 6454SOL    HW230825   3.637   3.719   1.135 -1.5823 -0.2510 -0.7746
 6455SOL     OW30826   0.390   4.721   0.805  0.3119 -0.3165  0.3799
 6455SOL    HW130827   0.436   0.044   0.735 -0.9401 -0.3659 -0.4745
 6455SOL    HW230828   0.313   4.682   0.764 -1.7208  0.6651  3.2353
 6456SOL     OW30829   0.708   4.403   8.101 -0.1457 -0.3118  0.2583
 6456SOL    HW130830   0.735   4.357   8.022 -2.6351 -2.0339  0.4065
 6456SOL    HW230831   0.784   4.462   8.106 -0.3088 -0.4003  3.7481
 6457SOL     OW30832   3.699   1.413   6.136 -0.5240 -0.1660  0.7984
 6457SOL    HW130833   3.647   1.416   6.056 -0.5069 -1.6485  0.7399
 6457SOL    HW230834   3.665   1.498   6.166  0.1739  0.1568  0.6690
 6458SOL     OW30835   1.667   0.867  11.588  0.0487  0.0738 -0.1801
 6458SOL    HW130836   1.739   0.804  11.602  2.2157  2.6131  0.0865
 6458SOL    HW230837   1.593   0.818  11.624 -1.0118  0.8439 -1.3668
 6459SOL     OW30838   3.771   3.454  12.385 -0.2365 -0.0197  0.3361
 6459SOL    HW130839   3.852   3.431  12.429 -0.3640 -0.8614  0.1334
 6459SOL    HW230840   3.754   3.369  12.344 -2.2479  0.3252  0.4181
 6460SOL     OW30841   0.796   2.765   7.624 -0.1912 -0.1294 -0.7529
 6460SOL    HW130842   0.744   2.698   7.668 -1.5147  0.4604 -1.4126
 6460SOL    HW230843   0.870   2.775   7.684 -0.0995 -0.4423 -0.8132
 6461SOL     OW30844   3.905   1.882   8.965  0.4270  0.4347 -0.6600
 6461SOL    HW130845   3.932   1.965   9.005  0.7903 -0.5040  1.0179
 6461SOL    HW230846   3.928   1.887   8.872  2.4034  0.8101 -0.1551
 6462SOL     OW30847   3.539   1.253   0.389 -0.1181 -0.3986 -0.0777
 6462SOL    HW130848   3.619   1.304   0.401  2.7154 -4.3800 -1.7513
 6462SOL    HW230849   3.546   1.191   0.462 -3.5396 -0.6861 -0.0139
 6463SOL     OW30850   0.387   3.450  12.710  0.8333 -0.2536 -0.2084
 6463SOL    HW130851   0.347   3.438  12.796 -0.8715  0.7345 -0.8686
 6463SOL    HW230852   0.332   3.513  12.664  0.9647 -0.2885 -0.4123
 6464SOL     OW30853   0.132   1.330   7.246  0.2702 -0.3198 -0.5331
 6464SOL    HW130854   0.205   1.360   7.191  1.0945  0.5359  1.0266
 6464SOL    HW230855   0.170   1.256   7.293 -1.4808 -1.1190 -0.3869
 6465SOL     OW30856   2.549   3.707   5.198 -0.1751 -1.4291 -0.3143
 6465SOL    HW130857   2.500   3.726   5.278 -2.7154 -0.0059 -2.1924
 6465SOL    HW230858   2.524   3.781   5.143  0.2057 -0.3418  0.9587
 6466SOL     OW30859   1.735   1.079  14.781  0.4994 -0.2930  0.4586
 6466SOL    HW130860   1.669   1.121  14.836  0.7116 -1.9842  1.9972
 6466SOL    HW230861   1.804   1.074  14.848  0.9120  0.0170  0.0540
 6467SOL     OW30862   3.433   0.616  15.139 -0.3761 -0.0197 -0.6996
 6467SOL    HW130863   3.398   0.667  15.065 -0.6270 -1.5009 -1.6077
 6467SOL    HW230864   3.433   0.678  15.212  0.6045 -0.2545 -0.5102
 6468SOL     OW30865   3.204   3.968  12.180 -0.3957 -0.7461  0.1999
 6468SOL    HW130866   3.117   3.930  12.186  0.5887 -3.0069  0.1992
 6468SOL    HW230867   3.256   3.888  12.178 -0.6128 -0.8776 -0.1674
 6469SOL     OW30868   4.186   4.193   4.229 -0.2160  0.0327 -0.5016
 6469SOL    HW130869   4.252   4.225   4.167  0.0582 -2.3747 -1.4450
 6469SOL    HW230870   4.192   4.267   4.290  0.7920 -1.6542  1.4394
 6470SOL     OW30871   4.599   3.378   6.863  0.3088  0.0652 -0.3522
 6470SOL    HW130872   4.685   3.413   6.886  0.0329  0.5321 -0.0091
 6470SOL    HW230873   4.568   3.449   6.806  0.7656  0.4521 -0.1159
 6471SOL     OW30874   2.539   2.601   8.748 -0.2985 -0.2480 -0.6800
 6471SOL    HW130875   2.567   2.538   8.814 -2.4129 -1.7158 -1.1862
 6471SOL    HW230876   2.619   2.608   8.697  0.5645 -0.6471  0.6150
 6472SOL     OW30877   4.116   1.790   3.364 -0.0573 -0.1393 -0.4871
 6472SOL    HW130878   4.199   1.803   3.317  1.1214 -1.1074  1.2894
 6472SOL    HW230879   4.076   1.716   3.318  0.0028  0.1921 -1.0666
 6473SOL     OW30880   3.243   1.289   4.326 -0.1783 -0.3235  0.3804
 6473SOL    HW130881   3.169   1.344   4.302 -0.1675 -0.1127  0.8284
 6473SOL    HW230882   3.223   1.218   4.265  0.5879 -1.4070  1.3880
 6474SOL     OW30883   4.434   0.977   4.904 -0.0973 -0.1175 -0.5799
 6474SOL    HW130884   4.426   0.885   4.929 -0.6995 -0.0552 -0.5301
 6474SOL    HW230885   4.410   0.984   4.811 -0.6381 -0.1201 -0.4415
 6475SOL     OW30886   1.102   1.945   6.632  0.3931  0.6896 -0.5384
 6475SOL    HW130887   1.107   1.937   6.727 -1.1584  1.3604 -0.4084
 6475SOL    HW230888   1.165   2.015   6.612  1.1823  0.7264  2.0812
 6476SOL     OW30889   0.317   3.398   1.946  0.0598  0.5287  0.2362
 6476SOL    HW130890   0.292   3.371   1.858  4.6431  1.4065 -1.3619
 6476SOL    HW230891   0.285   3.488   1.957 -1.4382  0.3119 -2.2996
 6477SOL     OW30892   2.926   0.884   1.802  0.7163 -0.2296 -0.5985
 6477SOL    HW130893   2.919   0.979   1.802 -0.3152 -0.2974  1.3246
 6477SOL    HW230894   2.915   0.875   1.707 -1.9719  1.3669 -0.4318
 6478SOL     OW30895   4.394   3.249   7.063 -0.3337  0.5051  0.0318
 6478SOL    HW130896   4.435   3.295   6.990 -0.8265  0.5583 -0.2080
 6478SOL    HW230897   4.357   3.326   7.105 -0.9281 -1.1637  2.5449
 6479SOL     OW30898   4.257   0.139   6.027  0.2647 -0.2062  0.0429
 6479SOL    HW130899   4.230   0.191   6.102  0.2021 -1.4120  0.8600
 6479SOL    HW230900   4.349   0.160   6.011  0.2811 -1.6417 -1.8489
 6480SOL     OW30901   0.503   0.117   0.292 -0.2821 -0.9400  0.1892
 6480SOL    HW130902   0.463   0.189   0.244  2.0233 -1.0491 -1.9137
 6480SOL    HW230903   0.493   0.155   0.379  0.0441 -1.7995  0.5981
 6481SOL     OW30904   0.092   1.702   8.618  0.0123  0.9077 -0.8693
 6481SOL    HW130905   0.183   1.701   8.648  0.3161 -2.0503 -1.8710
 6481SOL    HW230906   0.076   1.796   8.620  1.4979  1.1361  0.0494
 6482SOL     OW30907   4.338   3.909   7.337 -0.1522  0.0763  0.1497
 6482SOL    HW130908   4.365   3.992   7.374 -2.1188  0.0478  1.6488
 6482SOL    HW230909   4.268   3.886   7.398 -1.2277  2.2536 -0.2518
 6483SOL     OW30910   2.083   1.294   3.469 -0.4044 -0.1406 -0.1978
 6483SOL    HW130911   2.171   1.330   3.464  0.0705 -1.2301  0.5577
 6483SOL    HW230912   2.044   1.336   3.545  0.6445  0.2544  0.1173
 6484SOL     OW30913   4.035   0.276  11.648  0.0659 -0.0079  0.0863
 6484SOL    HW130914   4.094   0.328  11.703 -0.3322  2.1445 -1.5443
 6484SOL    HW230915   3.981   0.348  11.615  0.0237 -0.3475 -0.5846
 6485SOL     OW30916   3.292   2.894   7.787  0.1002 -0.1834 -0.1418
 6485SOL    HW130917   3.242   2.934   7.716  2.6880  0.0608 -1.8488
 6485SOL    HW230918   3.281   2.964   7.852  1.1637 -1.6721  1.6348
 6486SOL     OW30919   3.024   0.032   1.949  0.2030 -0.8206 -0.8028
 6486SOL    HW130920   3.103   4.709   1.921 -1.0330 -2.3204 -1.7865
 6486SOL    HW230921   2.982   0.062   1.869 -1.1621 -1.1082 -0.1900
 6487SOL     OW30922   1.938   3.530   3.965 -0.4076  0.1897  0.5305
 6487SOL    HW130923   1.950   3.443   4.003 -0.8332  0.6832  1.7783
 6487SOL    HW230924   1.852   3.546   4.004 -0.1094  0.1633  1.1905
 6488SOL     OW30925   4.093   1.649  14.524 -0.4346 -0.0221  0.6320
 6488SOL    HW130926   4.120   1.621  14.611  0.3016  1.5943  0.9096
 6488SOL    HW230927   4.155   1.720  14.508 -2.2142  1.3177 -0.3012
 6489SOL     OW30928   4.207   3.143   7.920  0.3966 -0.3669 -0.2440
 6489SOL    HW130929   4.142   3.128   7.851 -0.4344  1.2237  0.1870
 6489SOL    HW230930   4.203   3.056   7.959  0.0321 -1.3625 -2.4789
 6490SOL     OW30931   2.511   4.598   0.825 -0.3526  0.0271 -0.5631
 6490SOL    HW130932   2.586   4.553   0.864 -2.2443 -1.5120  1.2482
 6490SOL    HW230933   2.558   4.617   0.743  0.8719  0.8500  0.3318
 6491SOL     OW30934   3.465   3.026   2.602 -0.4258  0.1441 -0.0134
 6491SOL    HW130935   3.436   3.050   2.514  1.2315 -0.6010 -0.7708
 6491SOL    HW230936   3.526   2.957   2.576  0.2387  0.5845  0.3877
 6492SOL     OW30937   4.526   1.226   4.440  0.0903  0.4696  0.2269
 6492SOL    HW130938   4.617   1.235   4.469 -0.4863  0.8723  1.9077
 6492SOL    HW230939   4.484   1.276   4.509  4.0247  1.8108  1.6233
 6493SOL     OW30940   0.294   0.480   1.837  0.1097  0.1852  0.1451
 6493SOL    HW130941   0.231   0.550   1.820 -1.1442 -0.2673  3.0767
 6493SOL    HW230942   0.234   0.413   1.870 -0.0163  0.3080  0.1666
 6494SOL     OW30943   4.007   4.409  15.893  0.7516  0.0689  0.1841
 6494SOL    HW130944   4.036   4.458  15.970 -0.1494 -0.1400  0.6493
 6494SOL    HW230945   3.934   4.462  15.861 -0.5394 -1.7202  0.2035
 6495SOL     OW30946   1.810   3.655   7.319  0.0305  0.2734  0.0798
 6495SOL    HW130947   1.892   3.673   7.366  1.2542 -0.5811 -1.7586
 6495SOL    HW230948   1.766   3.626   7.399  0.0814 -0.5768 -0.1983
 6496SOL     OW30949   3.259   1.572  14.699 -0.6485 -0.0351 -0.3846
 6496SOL    HW130950   3.251   1.559  14.793  0.4172  1.6832 -0.0565
 6496SOL    HW230951   3.261   1.483  14.663  1.1168  0.2019 -0.8593
 6497SOL     OW30952   0.161   0.470  11.132  0.2269  0.1613  0.0207
 6497SOL    HW130953   0.186   0.539  11.071 -2.7455  1.4699  0.2811
 6497SOL    HW230954   0.156   0.397  11.071  0.1407  1.8906 -2.0512
 6498SOL     OW30955   0.858   1.109   8.243  0.0169  0.7084  0.5471
 6498SOL    HW130956   0.828   1.147   8.325  0.5568  1.8444  0.2213
 6498SOL    HW230957   0.894   1.023   8.265  1.3587  1.2316  0.4474
 6499SOL     OW30958   3.236   0.932   6.491 -0.2832  0.3258  0.1104
 6499SOL    HW130959   3.232   0.914   6.397  1.8269  1.1292 -0.1352
 6499SOL    HW230960   3.148   0.907   6.517  0.1423 -0.3676  0.8904
 6500SOL     OW30961   1.177   2.999   6.176 -0.2252 -0.4733  0.4504
 6500SOL    HW130962   1.116   3.043   6.235  0.8991  2.1289 -0.3393
 6500SOL    HW230963   1.165   2.919   6.228  2.3900 -0.1466  1.5752
 6501SOL     OW30964   1.958   3.137  15.183  0.0081 -0.3530 -0.1440
 6501SOL    HW130965   2.030   3.197  15.202  0.4678 -1.4162  1.4993
 6501SOL    HW230966   1.948   3.086  15.263  0.7272  0.5165  0.4918
 6502SOL     OW30967   1.846   0.334   8.944  0.5095 -0.4121 -0.6581
 6502SOL    HW130968   1.902   0.410   8.924  2.5281 -1.5198  0.7597
 6502SOL    HW230969   1.790   0.335   8.866  0.6770  1.2281 -0.7510
 6503SOL     OW30970   4.063   2.810   1.494 -0.2211 -0.0967  0.1959
 6503SOL    HW130971   3.967   2.810   1.501 -0.1288  0.2674  1.3722
 6503SOL    HW230972   4.069   2.732   1.439 -1.8903 -0.2878  0.2846
 6504SOL     OW30973   1.991   2.171   3.034  0.1118  0.0987  0.1965
 6504SOL    HW130974   1.922   2.230   3.004 -0.1833 -0.1427  0.4123
 6504SOL    HW230975   1.936   2.100   3.067 -0.1686  0.6862  0.9888
 6505SOL     OW30976   3.614   4.180   3.360 -0.1673 -0.1222  0.2246
 6505SOL    HW130977   3.630   4.173   3.266 -0.3573  0.0148  0.1828
 6505SOL    HW230978   3.572   4.096   3.382 -0.1175 -0.7701 -2.1811
 6506SOL     OW30979   1.519   1.459   2.903 -0.2873 -0.5894  0.7798
 6506SOL    HW130980   1.532   1.391   2.969  0.5453 -0.5853  0.6145
 6506SOL    HW230981   1.456   1.515   2.949 -0.8384 -1.6957  1.3521
 6507SOL     OW30982   2.739   0.425  17.034  0.1123 -0.2830  0.0588
 6507SOL    HW130983   2.689   0.432  16.953  0.9018  1.7671 -0.2701
 6507SOL    HW230984   2.809   0.484  17.005 -0.7382 -0.2007 -1.8427
 6508SOL     OW30985   3.835   2.640  12.997  0.2888 -0.3737  0.0593
 6508SOL    HW130986   3.916   2.624  13.046 -0.8893 -1.4889  1.6386
 6508SOL    HW230987   3.773   2.584  13.043 -0.2678  1.2297  1.2799
 6509SOL     OW30988   2.635   2.799   7.930 -0.3195  0.1467  0.2420
 6509SOL    HW130989   2.725   2.830   7.940 -0.3658  0.9985 -1.9419
 6509SOL    HW230990   2.656   2.705   7.937  0.6140  0.3810  0.5813
 6510SOL     OW30991   1.496   0.496  13.498  0.1098 -0.4137 -0.0728
 6510SOL    HW130992   1.496   0.400  13.493 -0.6804 -0.3126 -2.0594
 6510SOL    HW230993   1.418   0.510  13.552  1.0943 -2.6814  1.9062
 6511SOL     OW30994   1.043   2.620  14.516  0.8419  0.2572 -0.4979
 6511SOL    HW130995   1.060   2.665  14.434  2.3621 -1.5057 -1.1350
 6511SOL    HW230996   0.971   2.674  14.550  0.3743 -0.9265  0.3986
 6512SOL     OW30997   3.488   0.797   0.486  0.2571 -0.3472 -0.3001
 6512SOL    HW130998   3.476   0.736   0.414  0.7166  0.1439 -0.7908
 6512SOL    HW230999   3.402   0.781   0.525  1.0579 -3.8987 -0.0204
 6513SOL     OW31000   3.582   2.285   2.641  0.1668 -0.1648  0.3515
 6513SOL    HW131001   3.584   2.340   2.720 -1.8429  0.5302 -0.0751
 6513SOL    HW231002   3.623   2.337   2.571  0.9023 -1.3538 -0.1000
 6514SOL     OW31003   0.955   0.069   4.763  0.5138  0.2181  0.2880
 6514SOL    HW131004   1.027   0.017   4.799  0.9574  0.6236 -0.0182
 6514SOL    HW231005   0.905   0.088   4.842  3.2892  3.5258  1.2569
 6515SOL     OW31006   4.643   2.175   8.310 -0.2505  0.1991 -0.5205
 6515SOL    HW131007   4.576   2.208   8.370  1.4237  0.4214  1.2431
 6515SOL    HW231008   4.689   2.109   8.360 -0.4005 -0.2593 -0.9865
 6516SOL     OW31009   4.418   4.027   4.321  0.1415 -0.4246  0.6408
 6516SOL    HW131010   4.423   3.933   4.335  2.1411 -0.3395  0.5148
 6516SOL    HW231011   4.329   4.055   4.301  0.7041 -0.4775 -1.9620
 6517SOL     OW31012   3.537   2.723  17.177 -0.0936 -0.1129 -0.0720
 6517SOL    HW131013   3.589   2.798  17.207 -1.1663  1.2840 -1.6776
 6517SOL    HW231014   3.531   2.673  17.258 -2.9315  0.4072  0.0287
 6518SOL     OW31015   0.180   0.732  13.685  0.1929 -0.0751 -0.5781
 6518SOL    HW131016   0.197   0.674  13.758 -1.1932 -4.4911 -3.7629
 6518SOL    HW231017   0.152   0.676  13.613 -0.6105 -1.7145  1.0108
 6519SOL     OW31018   3.224   2.041   7.833  0.0729 -0.1465 -0.2130
 6519SOL    HW131019   3.236   1.965   7.889  1.1761 -1.1584 -1.7989
 6519SOL    HW231020   3.283   2.103   7.874  0.6994 -0.4274 -0.6804
 6520SOL     OW31021   1.247   0.183   3.145 -0.2381 -0.4654  0.3211
 6520SOL    HW131022   1.222   0.238   3.219 -0.9930 -1.0381  0.4929
 6520SOL    HW231023   1.162   0.149   3.117  0.3243 -2.0280  0.5603
 6521SOL     OW31024   1.153   0.819   7.720  1.5143  0.0936 -0.1468
 6521SOL    HW131025   1.134   0.891   7.660  0.6461  0.0108  0.0223
 6521SOL    HW231026   1.124   0.856   7.804 -1.1566 -1.4687 -0.3956
 6522SOL     OW31027   2.611   2.629   8.405  0.8928 -0.4623 -0.0056
 6522SOL    HW131028   2.697   2.651   8.369  0.6003 -1.1603 -1.1226
 6522SOL    HW231029   2.589   2.717   8.438 -1.4807 -1.2735  0.5553
 6523SOL     OW31030   3.240   2.591   1.369  0.5185 -0.3994  0.2013
 6523SOL    HW131031   3.328   2.566   1.398  0.3907 -2.0763 -0.8322
 6523SOL    HW231032   3.232   2.673   1.417  1.2659 -0.7601  0.9505
 6524SOL     OW31033   2.484   4.104   8.103  0.1342  0.1233 -0.0280
 6524SOL    HW131034   2.406   4.055   8.127  0.3063 -0.3654 -0.4763
 6524SOL    HW231035   2.496   4.071   8.014 -1.9070 -3.5107  1.0137
 6525SOL     OW31036   2.759   0.410   6.237  0.4261 -0.0936 -0.1005
 6525SOL    HW131037   2.694   0.380   6.174  0.4312 -1.3491  0.4876
 6525SOL    HW231038   2.774   0.331   6.288  0.6182 -1.8417 -2.9025
 6526SOL     OW31039   0.441   4.526   9.124 -0.1143 -0.2183 -0.5307
 6526SOL    HW131040   0.536   4.534   9.119 -0.1127 -0.1784 -0.4327
 6526SOL    HW231041   0.404   4.595   9.069  1.1428 -0.6465 -1.9065
 6527SOL     OW31042   3.938   2.564  11.139  0.5263 -0.3429 -0.0423
 6527SOL    HW131043   3.913   2.520  11.058 -0.5203 -0.0818  0.1328
 6527SOL    HW231044   3.853   2.564  11.184  0.2461 -1.3597 -0.5860
 6528SOL     OW31045   3.374   4.065   5.060 -0.5313  0.0068  0.0594
 6528SOL    HW131046   3.294   4.013   5.060 -0.6374  0.1472  1.5738
 6528SOL    HW231047   3.327   4.148   5.075 -2.1306 -0.7815 -0.5617
 6529SOL     OW31048   4.082   0.820   7.073  0.4567  0.1528  0.3837
 6529SOL    HW131049   4.094   0.904   7.118  2.1705 -0.4728  1.0791
 6529SOL    HW231050   4.061   0.848   6.984  1.1057  0.2007  0.2491
 6530SOL     OW31051   2.185   1.367   1.828 -0.6297 -0.8679 -0.0054
 6530SOL    HW131052   2.279   1.350   1.824 -0.4318  0.0738  0.6686
 6530SOL    HW231053   2.154   1.282   1.798 -1.0564  0.7108 -4.0084
 6531SOL     OW31054   1.344   0.544  13.716  0.0915 -0.0081  0.0550
 6531SOL    HW131055   1.383   0.566  13.800  1.7054 -0.9827 -0.4370
 6531SOL    HW231056   1.255   0.576  13.731 -0.3921 -1.1167 -0.4674
 6532SOL     OW31057   4.042   0.847   8.503  0.3011 -0.0767  0.9335
 6532SOL    HW131058   4.052   0.935   8.467  1.5436 -0.7687 -0.4538
 6532SOL    HW231059   4.100   0.856   8.578  0.6013 -0.9757  0.8144
 6533SOL     OW31060   4.495   3.851  16.250 -0.0396  0.0567  0.1125
 6533SOL    HW131061   4.530   3.940  16.238 -1.0163  0.0865 -2.5914
 6533SOL    HW231062   4.513   3.809  16.166  0.6316 -2.7409  1.6811
 6534SOL     OW31063   0.941   2.255   6.434  0.0663  0.4311 -0.3252
 6534SOL    HW131064   1.016   2.311   6.454  0.5651 -0.6693  0.8254
 6534SOL    HW231065   0.942   2.196   6.509  1.5828 -0.2360 -0.8745
 6535SOL     OW31066   4.578   1.935  12.575  0.7346 -0.4024  0.2789
 6535SOL    HW131067   4.503   1.907  12.627  1.5668 -2.7994  0.2171
 6535SOL    HW231068   4.540   1.925  12.487  2.6845  2.4489 -0.8842
 6536SOL     OW31069   4.097   2.305   5.138  0.2310  0.4933 -0.0346
 6536SOL    HW131070   4.117   2.370   5.071 -2.3715 -0.8645 -2.1042
 6536SOL    HW231071   4.001   2.302   5.131  0.0908  0.5325  1.7109
 6537SOL     OW31072   4.075   3.314  16.953  0.4247  0.3117  0.5072
 6537SOL    HW131073   4.069   3.410  16.950  0.6881  0.3639  1.8222
 6537SOL    HW231074   4.161   3.296  16.992  0.8913  0.8630 -0.2411
 6538SOL     OW31075   3.503   1.988   4.925 -0.2438 -0.1218  0.0053
 6538SOL    HW131076   3.494   2.055   4.857 -0.4872 -1.9693 -1.7464
 6538SOL    HW231077   3.557   1.921   4.884 -0.3475 -0.8139  0.9796
 6539SOL     OW31078   4.515   3.077   3.406  0.3688 -0.7981 -0.1538
 6539SOL    HW131079   4.482   3.146   3.349 -1.2629 -0.3333  1.3516
 6539SOL    HW231080   4.606   3.101   3.419 -0.2695  1.5653 -0.1511
 6540SOL     OW31081   2.700   2.819   7.512  0.2475 -0.2633  0.6260
 6540SOL    HW131082   2.732   2.909   7.523 -1.1247  0.3260 -0.2934
 6540SOL    HW231083   2.619   2.812   7.562  0.4965 -1.4268  0.8661
 6541SOL     OW31084   1.614   3.292   8.098  0.1206 -0.0669  0.0929
 6541SOL    HW131085   1.702   3.262   8.077  1.1127  1.4224  2.1403
 6541SOL    HW231086   1.587   3.244   8.176 -1.9606  2.0298  0.6876
 6542SOL     OW31087   0.973   2.183   7.891 -0.3125  0.4137  0.1113
 6542SOL    HW131088   0.953   2.161   7.800  0.6534 -2.3755  0.5686
 6542SOL    HW231089   0.905   2.127   7.930  0.1600 -1.6572 -2.0107
 6543SOL     OW31090   0.310   0.411  15.321  1.2730  0.2273  0.2035
 6543SOL    HW131091   0.270   0.325  15.306  1.3866  0.1671  0.2469
 6543SOL    HW231092   0.387   0.393  15.267  0.3633 -1.5139 -0.5326
 6544SOL     OW31093   1.186   4.167   3.753 -0.1414 -0.2326  0.0595
 6544SOL    HW131094   1.104   4.192   3.795 -0.0466  1.4858 -0.7701
 6544SOL    HW231095   1.182   4.076   3.780  1.0878  0.0183  1.0770
 6545SOL     OW31096   1.845   4.105   6.349  0.2888 -0.1827  0.0969
 6545SOL    HW131097   1.751   4.113   6.363 -0.0732 -3.2200 -0.4481
 6545SOL    HW231098   1.879   4.142   6.431 -1.0169 -0.7014  0.8698
 6546SOL     OW31099   1.792   4.404   0.936  0.5838  0.4717  0.3711
 6546SOL    HW131100   1.884   4.376   0.928  0.7357  1.1139 -0.0834
 6546SOL    HW231101   1.759   4.399   0.847 -2.7893  0.3371  1.6390
 6547SOL     OW31102   3.808   2.745   6.433 -0.8293 -0.1019  0.7694
 6547SOL    HW131103   3.836   2.653   6.427  0.1472  0.2687 -0.2723
 6547SOL    HW231104   3.884   2.782   6.478 -0.1309 -1.1576  0.4627
 6548SOL     OW31105   1.401   4.698   2.704  0.2850 -0.3332  0.1781
 6548SOL    HW131106   1.459   4.626   2.677  1.2486  0.7009 -0.5388
 6548SOL    HW231107   1.433   4.702   2.794  3.3283  1.2401 -0.9711
 6549SOL     OW31108   2.469   1.059   6.924  0.1150  0.0042 -0.0981
 6549SOL    HW131109   2.420   0.996   6.975  0.3381 -0.1779 -0.1080
 6549SOL    HW231110   2.529   1.008   6.869  0.8123 -1.4079  1.9646
 6550SOL     OW31111   4.207   3.341   8.753 -0.0286 -0.4242 -0.1316
 6550SOL    HW131112   4.254   3.423   8.738 -0.9226  0.4244  1.7887
 6550SOL    HW231113   4.257   3.287   8.690  1.3917 -0.8202  1.3373
 6551SOL     OW31114   3.147   0.189  12.510 -0.1569  0.5066 -0.4128
 6551SOL    HW131115   3.176   0.108  12.469 -1.7717 -1.4453  2.2610
 6551SOL    HW231116   3.075   0.145  12.556 -0.4381  0.0489 -1.2886
 6552SOL     OW31117   4.212   4.042   8.790 -0.1924  0.0085 -0.1056
 6552SOL    HW131118   4.211   3.949   8.765 -0.2311  0.1651 -0.6836
 6552SOL    HW231119   4.289   4.073   8.743 -1.4805  1.6235 -1.1384
 6553SOL     OW31120   4.580   0.794   8.426  0.4705 -0.8118 -0.1428
 6553SOL    HW131121   4.600   0.825   8.338  0.6355 -0.4566  0.0225
 6553SOL    HW231122   4.509   0.734   8.399  1.0024 -0.6799 -1.8111
 6554SOL     OW31123   0.006   3.010   0.752  0.1236 -0.0173 -0.9122
 6554SOL    HW131124   4.700   2.919   0.756 -0.7210  0.3854  2.5482
 6554SOL    HW231125   4.664   3.055   0.806  1.7229  1.2302 -0.0155
 6555SOL     OW31126   4.522   1.103   7.590 -0.5849  0.2873  0.3818
 6555SOL    HW131127   4.612   1.069   7.593  0.6711  3.3841 -2.6706
 6555SOL    HW231128   4.496   1.062   7.508  0.3484 -0.4591  0.4567
 6556SOL     OW31129   0.769   4.438   6.628 -0.7632  0.1880 -0.3184
 6556SOL    HW131130   0.860   4.449   6.657 -0.7694 -2.1039  0.6096
 6556SOL    HW231131   0.744   4.353   6.666  0.5477  0.3597  0.9265
 6557SOL     OW31132   1.624   0.974   4.283  0.1045  0.1237  0.0378
 6557SOL    HW131133   1.666   1.007   4.204  1.4127 -0.5255  0.4598
 6557SOL    HW231134   1.549   1.033   4.287 -1.5213 -2.0777  2.1302
 6558SOL     OW31135   3.677   3.079   3.830  0.1097 -0.0685  0.7103
 6558SOL    HW131136   3.713   3.006   3.881 -1.9154 -2.0226 -0.6686
 6558SOL    HW231137   3.725   3.154   3.866  1.0973  0.0809 -0.9300
 6559SOL     OW31138   1.224   2.697  15.932  0.5897 -0.0258  0.0988
 6559SOL    HW131139   1.214   2.783  15.971 -0.0583 -0.9867  2.0713
 6559SOL    HW231140   1.224   2.720  15.840  1.3801  0.0586  0.1238
 6560SOL     OW31141   1.620   4.487   0.710 -0.0209  0.2936  0.0621
 6560SOL    HW131142   1.548   4.540   0.676 -1.2396  0.1159  2.3083
 6560SOL    HW231143   1.652   4.446   0.630 -1.7814  0.1941 -0.5907
 6561SOL     OW31144   0.715   4.253   4.937 -0.1825 -0.1105  0.0273
 6561SOL    HW131145   0.711   4.168   4.894 -1.3380 -0.4774  0.8634
 6561SOL    HW231146   0.627   4.260   4.974 -0.1212  2.0427 -0.2090
 6562SOL     OW31147   3.092   1.126   7.303 -0.3792 -0.4886  0.4985
 6562SOL    HW131148   3.041   1.201   7.272  0.2750 -0.4920 -0.5751
 6562SOL    HW231149   3.178   1.168   7.307 -0.7124  0.2588 -0.2759
 6563SOL     OW31150   0.305   3.759   2.186  0.1809 -0.0565 -0.0244
 6563SOL    HW131151   0.389   3.730   2.219  0.6960 -0.7679 -1.9335
 6563SOL    HW231152   0.287   3.825   2.253  1.4063 -0.2300  0.4705
 6564SOL     OW31153   3.276   1.426   1.103  0.1320  0.5196 -0.0912
 6564SOL    HW131154   3.361   1.413   1.062  0.3946  0.1575  0.5580
 6564SOL    HW231155   3.213   1.422   1.032  1.0937  0.5452 -0.9488
 6565SOL     OW31156   1.846   1.814   4.468 -0.2562  0.3668  0.1690
 6565SOL    HW131157   1.904   1.783   4.399  0.4115  0.0661  0.8734
 6565SOL    HW231158   1.823   1.900   4.431  3.2451  0.5791 -1.4823
 6566SOL     OW31159   1.623   2.216   2.306  0.1445 -0.0777  0.0891
 6566SOL    HW131160   1.675   2.219   2.386 -1.0964 -0.1743  0.8963
 6566SOL    HW231161   1.546   2.270   2.323  0.2720 -0.3665  1.5449
 6567SOL     OW31162   1.531   3.713   3.008 -0.2746  0.5106  0.4829
 6567SOL    HW131163   1.552   3.620   3.013 -0.4640  0.5341  1.7253
 6567SOL    HW231164   1.602   3.751   2.956  0.5343  1.0435  1.9552
 6568SOL     OW31165   0.826   4.301  10.765 -0.2805  0.2303  0.6102
 6568SOL    HW131166   0.841   4.389  10.731  1.5517 -0.5467 -0.6459
 6568SOL    HW231167   0.742   4.273  10.729  0.1726 -1.4759  0.8858
 6569SOL     OW31168   2.817   4.559   7.279 -0.0232 -0.6503  0.2378
 6569SOL    HW131169   2.821   4.485   7.340 -1.9379  0.3565  1.5596
 6569SOL    HW231170   2.872   4.626   7.319 -2.0648  1.4876 -0.5758
 6570SOL     OW31171   3.138   3.238   3.322 -0.5158  0.0742  0.8622
 6570SOL    HW131172   3.218   3.193   3.350  0.2473  0.5208 -0.5896
 6570SOL    HW231173   3.173   3.319   3.285 -1.4025  0.0442 -0.0502
 6571SOL     OW31174   2.142   4.457   6.672  0.8303 -0.4187  0.3208
 6571SOL    HW131175   2.059   4.418   6.644 -0.4153  1.4324  1.4610
 6571SOL    HW231176   2.128   4.460   6.767  1.3570  0.5752  0.3714
 6572SOL     OW31177   3.740   0.411   8.561 -0.6405  0.3338 -0.5828
 6572SOL    HW131178   3.725   0.502   8.586 -0.1735  0.7457 -1.7781
 6572SOL    HW231179   3.805   0.414   8.490 -1.7990  0.6674 -1.6295
 6573SOL     OW31180   2.474   4.513  15.776  0.0540  0.5121 -0.3543
 6573SOL    HW131181   2.466   4.567  15.855  4.0109  1.0595 -0.3145
 6573SOL    HW231182   2.408   4.445  15.787  1.0481 -0.2600  0.9225
 6574SOL     OW31183   1.407   1.872  12.063  0.0045  0.2749  0.0234
 6574SOL    HW131184   1.409   1.894  11.970 -3.3206 -1.4982 -0.4796
 6574SOL    HW231185   1.326   1.912  12.094  0.7012 -0.4178  2.7290
 6575SOL     OW31186   3.407   1.213   4.849 -0.1989 -0.7488  0.8971
 6575SOL    HW131187   3.491   1.169   4.864 -0.2859 -1.1011  0.3592
 6575SOL    HW231188   3.403   1.273   4.924  2.4884 -0.3233  0.6981
 6576SOL     OW31189   0.180   0.492   3.907 -0.0570  0.0805  0.0489
 6576SOL    HW131190   0.124   0.479   3.983 -0.8239  2.4794 -0.0921
 6576SOL    HW231191   0.145   0.572   3.868 -0.1927 -1.1045 -2.2082
 6577SOL     OW31192   4.274   4.642   5.628  0.2699 -0.1370 -0.4070
 6577SOL    HW131193   4.255   0.012   5.620 -1.3158 -0.6071 -2.0760
 6577SOL    HW231194   4.272   4.628   5.533 -1.1621  1.4133 -0.5950
 6578SOL     OW31195   2.026   0.080  12.208  0.2146  0.2912  0.3470
 6578SOL    HW131196   2.024   4.711  12.232  0.9240  0.2999  0.4296
 6578SOL    HW231197   2.117   0.104  12.192  0.4306 -1.8244 -1.6101
 6579SOL     OW31198   4.126   1.013  12.769 -0.3139 -0.2687 -0.1269
 6579SOL    HW131199   4.171   1.067  12.704  1.2302  1.3385  2.2921
 6579SOL    HW231200   4.034   1.040  12.763 -0.5213 -1.1856 -1.2100
 6580SOL     OW31201   2.970   3.585   4.811  0.8406  0.0694  0.5006
 6580SOL    HW131202   3.018   3.534   4.746  0.5409  0.0333  0.3100
 6580SOL    HW231203   2.935   3.510   4.859 -2.7475  1.3950 -0.0976
 6581SOL     OW31204   4.397   3.091   7.688  0.5140 -0.3609  0.0843
 6581SOL    HW131205   4.458   3.086   7.762 -0.4352  3.0307  1.1056
 6581SOL    HW231206   4.313   3.102   7.734  1.0504 -1.1489  1.2670
 6582SOL     OW31207   0.585   2.252   0.084 -0.1009  0.2905 -0.0582
 6582SOL    HW131208   0.529   2.301   0.024 -1.4902 -0.9609  0.2049
 6582SOL    HW231209   0.629   2.316   0.138 -0.6633  0.2914  0.3997
 6583SOL     OW31210   1.537   3.633  11.657 -0.2350  0.0525  0.3093
 6583SOL    HW131211   1.509   3.622  11.566 -1.5670 -0.1685  0.7573
 6583SOL    HW231212   1.615   3.578  11.665  1.6985  2.8053  0.8518
 6584SOL     OW31213   4.004   0.298   4.752  0.0053  0.2276 -0.3880
 6584SOL    HW131214   3.933   0.362   4.757  0.1527  0.5364 -2.1602
 6584SOL    HW231215   3.946   0.225   4.771  0.6007 -0.5223 -1.4218
 6585SOL     OW31216   2.337   1.948  11.741  0.4005 -0.3175  0.1036
 6585SOL    HW131217   2.422   1.932  11.782  0.3214 -3.2358 -0.8445
 6585SOL    HW231218   2.283   1.888  11.793 -0.0579  0.0790  0.0804
 6586SOL     OW31219   4.452   3.751  17.181  0.4125 -0.3177  0.1461
 6586SOL    HW131220   4.413   3.780  17.099 -0.7287  0.4027  0.9274
 6586SOL    HW231221   4.420   3.661  17.187  0.3366 -0.3167 -0.2497
 6587SOL     OW31222   2.007   0.532  11.890  0.2256 -0.7986 -0.3879
 6587SOL    HW131223   2.085   0.586  11.881  0.0730 -0.5622 -0.2883
 6587SOL    HW231224   2.052   0.454  11.857 -0.6662 -0.7363 -1.7975
 6588SOL     OW31225   0.139   2.479   8.800  0.1442  0.5338 -0.4905
 6588SOL    HW131226   0.112   2.443   8.716  1.4841 -1.1599 -0.2130
 6588SOL    HW231227   0.188   2.403   8.833 -0.1808  0.4007 -0.3152
 6589SOL     OW31228   2.205   0.019   3.828 -0.1184  0.1698 -0.0081
 6589SOL    HW131229   2.157   4.706   3.753 -1.5169  3.1068 -0.5300
 6589SOL    HW231230   2.287   4.693   3.814 -0.8238 -2.1331  4.0883
 6590SOL     OW31231   4.231   3.894   2.559 -0.0264  0.0711  0.0518
 6590SOL    HW131232   4.209   3.983   2.530  1.1493 -0.6954 -3.1684
 6590SOL    HW231233   4.312   3.883   2.510 -0.3356  0.3157 -0.5123
 6591SOL     OW31234   0.807   3.514   9.114 -0.0312 -0.1243 -0.6617
 6591SOL    HW131235   0.902   3.528   9.118 -0.4082  1.9285  0.9499
 6591SOL    HW231236   0.787   3.580   9.180 -1.7167 -0.6598 -0.6453
 6592SOL     OW31237   1.253   2.169   7.608 -0.2035  0.0007 -0.6715
 6592SOL    HW131238   1.301   2.239   7.653  0.1142 -0.8750  0.3268
 6592SOL    HW231239   1.239   2.219   7.527  1.0799  1.2945 -0.0976
 6593SOL     OW31240   0.021   3.801   6.901  0.1515  0.4342 -0.3433
 6593SOL    HW131241   0.000   3.744   6.975 -2.8028  2.1599  0.1765
 6593SOL    HW231242   0.002   3.887   6.937 -1.7706  0.6952 -1.9207
 6594SOL     OW31243   0.093   0.553  17.360 -0.5113 -0.1998 -0.9028
 6594SOL    HW131244   0.127   0.509  17.438 -2.4043 -0.7650 -0.3975
 6594SOL    HW231245   0.168   0.579  17.306  1.5225  1.0156  2.4880
 6595SOL     OW31246   2.042   2.332  10.584 -0.1617 -0.1662 -0.0129
 6595SOL    HW131247   2.073   2.324  10.675 -0.2765 -0.7357 -0.0263
 6595SOL    HW231248   2.066   2.423  10.564 -0.6481  0.5636  2.7043
 6596SOL     OW31249   3.238   3.503   2.073  0.3796  0.1587  0.2091
 6596SOL    HW131250   3.300   3.523   2.003  0.4024  1.2084  0.5302
 6596SOL    HW231251   3.157   3.547   2.046 -0.9489 -1.9247  0.8132
 6597SOL     OW31252   4.528   0.244   6.378  0.8297 -0.1811 -0.0288
 6597SOL    HW131253   4.471   0.278   6.446  1.5684  1.1180 -0.0767
 6597SOL    HW231254   4.562   0.327   6.345  1.1950 -0.5783 -0.6671
 6598SOL     OW31255   4.003   0.065   2.557 -0.1095  0.8438 -0.0690
 6598SOL    HW131256   3.957   0.145   2.534 -0.0602  0.7376 -0.5323
 6598SOL    HW231257   3.942   4.721   2.526  2.0734 -1.7034  1.1397
 6599SOL     OW31258   3.612   1.802  12.606 -0.2981  0.1716 -0.1812
 6599SOL    HW131259   3.583   1.891  12.628  0.3487  0.1862  0.6426
 6599SOL    HW231260   3.628   1.808  12.512  0.6840  0.4455 -0.0020
 6600SOL     OW31261   0.406   3.244   6.031  0.4459 -0.0870 -0.2484
 6600SOL    HW131262   0.497   3.225   6.054 -0.1116 -2.1323  0.2253
 6600SOL    HW231263   0.355   3.209   6.104  2.1439 -0.1388  0.9254
 6601SOL     OW31264   0.831   0.788   9.260 -0.6376  0.0702 -0.3148
 6601SOL    HW131265   0.746   0.745   9.261 -0.3047 -0.5089  2.9183
 6601SOL    HW231266   0.888   0.710   9.265 -0.5091  0.2007  0.2609
 6602SOL     OW31267   3.852   1.498   2.017 -1.0253  0.0665  0.6947
 6602SOL    HW131268   3.828   1.413   1.981 -0.4981 -0.0717  0.6825
 6602SOL    HW231269   3.883   1.551   1.943 -1.6991  1.0406  1.1043
 6603SOL     OW31270   0.432   0.507   9.844 -0.0848 -0.1319 -0.2138
 6603SOL    HW131271   0.437   0.454   9.924  1.4788 -0.7701 -0.7353
 6603SOL    HW231272   0.520   0.543   9.841  0.4031 -1.3521 -0.7370
 6604SOL     OW31273   3.429   0.483   2.535 -0.1284  0.1315 -0.4426
 6604SOL    HW131274   3.379   0.479   2.453 -1.6235 -0.8878  0.5368
 6604SOL    HW231275   3.406   0.402   2.580  0.5813  0.4074  0.4196
 6605SOL     OW31276   0.650   4.306   7.673  0.8895 -0.2039  0.4498
 6605SOL    HW131277   0.683   4.251   7.603  0.1149 -0.2817  0.1449
 6605SOL    HW231278   0.642   4.238   7.739 -1.2486 -0.7038 -0.3150
 6606SOL     OW31279   0.513   3.223   6.705  0.1632 -0.1722 -0.3834
 6606SOL    HW131280   0.536   3.239   6.796  2.1804  1.0634 -1.0821
 6606SOL    HW231281   0.517   3.311   6.665  1.1160 -0.7765 -1.6339
 6607SOL     OW31282   0.384   2.094   7.354  0.4694  0.2593 -0.3873
 6607SOL    HW131283   0.354   2.145   7.430 -0.8026 -0.2655 -0.5332
 6607SOL    HW231284   0.369   2.149   7.278  2.6155  3.0410  1.1822
 6608SOL     OW31285   0.565   0.915   7.777  0.1290 -0.4570  0.2262
 6608SOL    HW131286   0.554   0.821   7.788 -0.4455 -0.5036 -0.7148
 6608SOL    HW231287   0.494   0.951   7.830  0.1786  0.7245 -0.4971
 6609SOL     OW31288   0.013   0.268   4.876  0.2595 -0.5276 -0.2176
 6609SOL    HW131289   0.058   0.227   4.950  0.0057 -1.4498 -0.5705
 6609SOL    HW231290   0.017   0.358   4.909  1.6779  0.6765 -3.6638
 6610SOL     OW31291   0.266   3.886   2.844 -0.0870 -0.8165  0.4987
 6610SOL    HW131292   0.233   3.868   2.756 -0.0110 -1.1496  0.5371
 6610SOL    HW231293   0.202   3.947   2.881 -0.2462 -0.2416 -0.7445
 6611SOL     OW31294   4.064   0.780   2.680  0.2728 -0.3658  0.4041
 6611SOL    HW131295   4.034   0.818   2.598 -0.2019  1.5626  1.4864
 6611SOL    HW231296   4.149   0.751   2.648  1.0122  0.6403  1.4337
 6612SOL     OW31297   1.295   4.074   0.694  0.3825  0.2196 -0.4212
 6612SOL    HW131298   1.302   4.011   0.766  2.4873  0.7579 -0.1634
 6612SOL    HW231299   1.206   4.106   0.708  0.3235  0.5736 -1.5757
 6613SOL     OW31300   1.269   1.456   8.569 -0.3092  0.2221  0.2311
 6613SOL    HW131301   1.202   1.387   8.575 -0.5359  0.3670 -0.6320
 6613SOL    HW231302   1.352   1.412   8.587  0.4138  1.7344  0.5889
 6614SOL     OW31303   0.578   1.704   5.459  0.1063 -0.1442 -0.0982
 6614SOL    HW131304   0.560   1.641   5.529  2.9921  1.7817  2.3741
 6614SOL    HW231305   0.673   1.693   5.456  0.2542  1.1405  0.0629
 6615SOL     OW31306   3.516   3.661  16.335  0.1575  0.2324  0.1830
 6615SOL    HW131307   3.582   3.655  16.404 -0.5005  2.5906  1.0286
 6615SOL    HW231308   3.567   3.648  16.255  0.4632 -0.9843  0.5739
 6616SOL     OW31309   4.303   3.389   5.685  0.6988  0.4839  0.0097
 6616SOL    HW131310   4.236   3.426   5.627  0.6858  1.0509  0.3837
 6616SOL    HW231311   4.279   3.297   5.687  1.7094  0.1895 -1.2716
 6617SOL     OW31312   0.018   2.509   5.419 -0.0183  0.4593 -0.4953
 6617SOL    HW131313   0.047   2.429   5.463 -1.9194  0.1743  0.2258
 6617SOL    HW231314   4.692   2.559   5.484 -0.6850 -2.2947  1.0909
 6618SOL     OW31315   3.495   4.050  14.763 -0.4975  0.0787  0.5836
 6618SOL    HW131316   3.472   3.970  14.810  0.3459 -1.7887 -2.1961
 6618SOL    HW231317   3.404   4.079  14.758 -0.7608 -0.8194  0.2131
 6619SOL     OW31318   1.665   1.951   8.344  0.1725 -0.1619 -0.3929
 6619SOL    HW131319   1.663   1.909   8.258 -1.0731 -1.3554  0.2187
 6619SOL    HW231320   1.637   2.040   8.322 -2.1943 -1.0339 -0.8811
 6620SOL     OW31321   2.880   0.215  14.597  0.0858  0.3343  0.3087
 6620SOL    HW131322   2.849   0.162  14.523  1.2182  1.2620 -0.8385
 6620SOL    HW231323   2.814   0.185  14.659 -0.0573 -0.0404 -0.0218
 6621SOL     OW31324   3.886   0.288  10.616 -0.4656 -0.3530  0.0266
 6621SOL    HW131325   3.853   0.226  10.551 -1.4477 -0.1345  0.3262
 6621SOL    HW231326   3.799   0.315  10.645 -1.1106  0.5666 -2.7455
 6622SOL     OW31327   2.129   3.326   6.796 -0.1210  0.4371  0.2849
 6622SOL    HW131328   2.036   3.336   6.774 -0.1686  1.8377  1.0965
 6622SOL    HW231329   2.160   3.416   6.809 -1.2320  0.9748 -0.8405
 6623SOL     OW31330   0.881   0.552   5.321 -0.4404 -0.3902 -0.3957
 6623SOL    HW131331   0.927   0.532   5.239  0.3543 -1.5884  0.3501
 6623SOL    HW231332   0.789   0.556   5.294 -1.0361  0.7066  1.7865
 6624SOL     OW31333   1.529   1.677   9.402  0.0801 -0.4534 -0.1744
 6624SOL    HW131334   1.526   1.607   9.337 -1.9852  0.4682 -1.0635
 6624SOL    HW231335   1.623   1.695   9.407 -0.0048  0.0658 -0.5004
 6625SOL     OW31336   3.644   3.500  17.483 -0.0117 -0.4580 -0.3583
 6625SOL    HW131337   3.598   3.544  17.555 -0.2395  0.3296 -0.9912
 6625SOL    HW231338   3.583   3.483  17.412  0.7641 -0.8386 -0.9318
 6626SOL     OW31339   1.744   1.616   1.783 -0.0376  0.0804  0.0182
 6626SOL    HW131340   1.765   1.689   1.841  0.6469  1.8510 -2.4082
 6626SOL    HW231341   1.825   1.605   1.733 -0.8507  0.0336 -1.3107
 6627SOL     OW31342   0.117   0.775   0.892 -0.1195  0.5739  0.0158
 6627SOL    HW131343   0.139   0.769   0.985 -0.3237  1.1690  0.0999
 6627SOL    HW231344   0.021   0.766   0.894 -0.1647  1.3793  1.6801
 6628SOL     OW31345   0.847   2.121   6.679 -0.5084 -0.1075  0.0216
 6628SOL    HW131346   0.839   2.026   6.675 -0.7097 -0.0075 -2.0221
 6628SOL    HW231347   0.830   2.146   6.770 -2.5655 -0.1276 -0.3417
 6629SOL     OW31348   4.465   0.834   3.067  0.2472  0.2045  0.0755
 6629SOL    HW131349   4.416   0.817   2.987  3.5959  0.9805 -2.1123
 6629SOL    HW231350   4.395   0.864   3.126  0.7713 -0.4558  1.0386
 6630SOL     OW31351   4.372   1.550   6.905  0.2482  0.2570  0.0316
 6630SOL    HW131352   4.299   1.508   6.861  0.8376 -2.9425  2.0914
 6630SOL    HW231353   4.440   1.483   6.916  0.0312 -0.1019 -0.8313
 6631SOL     OW31354   1.941   3.273   4.060 -0.8974  0.4406  0.1259
 6631SOL    HW131355   1.861   3.234   4.094 -0.8689  0.0610 -0.2430
 6631SOL    HW231356   1.951   3.216   3.984 -1.1128  0.5174  0.0425
 6632SOL     OW31357   3.044   1.464  12.994  0.2683 -0.6071  0.5099
 6632SOL    HW131358   3.026   1.518  12.917 -0.9319  1.4689  2.2393
 6632SOL    HW231359   2.951   1.456  13.017 -0.0207  1.3498  0.0530
 6633SOL     OW31360   2.880   1.372   4.463 -0.3126  0.1268 -0.1228
 6633SOL    HW131361   2.850   1.332   4.381 -2.6841 -1.4403  1.5269
 6633SOL    HW231362   2.924   1.449   4.428 -1.9098  0.0019 -2.4507
 6634SOL     OW31363   1.555   2.360  14.475  0.2285 -0.1529 -0.0973
 6634SOL    HW131364   1.562   2.358  14.570  0.9014  1.3141 -0.1206
 6634SOL    HW231365   1.476   2.414  14.479  0.7853  0.8373 -2.1543
 6635SOL     OW31366   0.308   3.903   0.095  0.2328 -0.5194 -0.4086
 6635SOL    HW131367   0.229   3.953   0.075  1.5681  0.9066 -2.1266
 6635SOL    HW231368   0.362   3.915   0.017  2.6193 -2.2387  0.9716
 6636SOL     OW31369   2.854   3.518   2.901 -0.4247  0.3013 -0.2132
 6636SOL    HW131370   2.835   3.442   2.956  0.0555  0.2069 -0.1736
 6636SOL    HW231371   2.833   3.494   2.811  0.4285  0.8380 -0.5576
 6637SOL     OW31372   1.855   2.751  12.068  0.0263 -0.3913 -0.4376
 6637SOL    HW131373   1.907   2.676  12.096 -0.2188 -0.5883 -0.5107
 6637SOL    HW231374   1.842   2.719  11.979 -1.6750 -0.6189 -0.1224
 6638SOL     OW31375   3.962   2.607  12.590 -0.0282  0.2163 -0.0765
 6638SOL    HW131376   3.986   2.570  12.675 -0.1409 -0.1048 -0.1853
 6638SOL    HW231377   3.870   2.581  12.587  0.4472 -1.4084 -0.9059
 6639SOL     OW31378   2.854   0.212  11.153  0.1151 -0.7011 -0.1156
 6639SOL    HW131379   2.834   0.302  11.178  2.1209  0.2677 -2.0721
 6639SOL    HW231380   2.885   0.213  11.063  0.9087  0.6537  0.1828
 6640SOL     OW31381   1.678   1.095   1.861  0.0290 -0.4010 -0.7398
 6640SOL    HW131382   1.759   1.047   1.842  1.5260  1.0050  2.0405
 6640SOL    HW231383   1.720   1.181   1.866 -0.3509 -0.2479 -0.2650
 6641SOL     OW31384   2.070   1.664   5.967  0.6344 -0.3796  0.5200
 6641SOL    HW131385   2.016   1.692   6.041  0.0483  1.0318 -0.4658
 6641SOL    HW231386   2.005   1.663   5.897 -0.2025 -0.5800  1.2994
 6642SOL     OW31387   2.107   3.976   6.419  0.3050  0.2748  0.0626
 6642SOL    HW131388   2.196   3.956   6.449 -0.3238 -0.7787  1.2421
 6642SOL    HW231389   2.066   3.986   6.505  0.1045 -1.1987  0.1433
 6643SOL     OW31390   1.861   1.826   5.479 -0.9638  0.1229  0.6650
 6643SOL    HW131391   1.780   1.780   5.458 -0.1752  0.2702 -2.6869
 6643SOL    HW231392   1.932   1.786   5.428 -0.6024  0.3268  1.0005
 6644SOL     OW31393   3.805   1.553   3.739  0.6650  0.0632 -0.4513
 6644SOL    HW131394   3.821   1.459   3.732 -0.3386 -0.1472 -0.0076
 6644SOL    HW231395   3.719   1.564   3.696  0.9769  3.7471 -0.2050
 6645SOL     OW31396   4.661   0.379   0.729  0.0807  0.1821  0.1576
 6645SOL    HW131397   4.595   0.363   0.661 -0.7868 -0.1453  1.0818
 6645SOL    HW231398   4.710   0.453   0.692 -0.3474  0.6017  0.4228
 6646SOL     OW31399   2.391   0.839   5.826  0.1062 -0.2679  0.6103
 6646SOL    HW131400   2.458   0.771   5.832  0.7701  0.3220 -0.1003
 6646SOL    HW231401   2.442   0.920   5.816 -0.4797 -0.0976 -1.0588
 6647SOL     OW31402   1.379   1.849   8.737 -0.2980 -0.8564  0.5376
 6647SOL    HW131403   1.387   1.816   8.827  1.4575 -0.2106  0.6050
 6647SOL    HW231404   1.353   1.940   8.751  0.2086 -0.3978 -1.5762
 6648SOL     OW31405   3.446   4.089  14.334  0.3497  0.4205 -0.3882
 6648SOL    HW131406   3.495   4.162  14.372  2.2132 -0.0081 -1.9469
 6648SOL    HW231407   3.436   4.117  14.243  1.5554  1.9146 -0.0775
 6649SOL     OW31408   4.187   3.892   6.093 -0.8314  0.1173  0.0365
 6649SOL    HW131409   4.104   3.919   6.054 -1.9198 -2.7800  0.3412
 6649SOL    HW231410   4.238   3.928   6.021 -0.3655 -1.9654 -0.6735
 6650SOL     OW31411   0.262   3.278   2.346  0.4021  0.0280  0.5798
 6650SOL    HW131412   0.236   3.265   2.437 -0.2264 -0.1169  0.3778
 6650SOL    HW231413   0.178   3.306   2.310  1.2132  0.5482 -0.8975
 6651SOL     OW31414   1.147   2.387   5.171 -0.0096 -0.5758  0.1184
 6651SOL    HW131415   1.081   2.363   5.106  0.2418 -0.1855 -0.2721
 6651SOL    HW231416   1.137   2.482   5.173 -1.5299 -0.6821 -3.9996
 6652SOL     OW31417   3.592   2.459  16.207 -0.0057 -0.2449 -0.1607
 6652SOL    HW131418   3.624   2.548  16.222  2.9418 -1.6261  1.8677
 6652SOL    HW231419   3.563   2.468  16.116 -0.8750  1.4757  0.2893
 6653SOL     OW31420   3.141   3.448  13.618  0.1427 -0.1949  0.2346
 6653SOL    HW131421   3.097   3.473  13.536  0.2951 -1.6118 -0.2817
 6653SOL    HW231422   3.191   3.370  13.594  1.1852  1.5303 -3.2083
 6654SOL     OW31423   0.892   1.658   6.455 -0.2972  0.2087 -0.4835
 6654SOL    HW131424   0.827   1.727   6.441  0.2092  0.3479 -2.1380
 6654SOL    HW231425   0.938   1.640   6.373  1.1306  0.2561  0.2979
 6655SOL     OW31426   1.877   3.102   4.822 -0.1588 -0.1510 -0.1039
 6655SOL    HW131427   1.938   3.098   4.748  0.9336  1.1928  0.7134
 6655SOL    HW231428   1.897   3.188   4.860  0.4170 -0.6873  0.7943
 6656SOL     OW31429   1.504   2.074   0.760  0.4338  0.0483 -0.1455
 6656SOL    HW131430   1.532   2.100   0.848  1.3354 -1.0235 -0.1281
 6656SOL    HW231431   1.518   2.150   0.703  0.0721 -0.0723 -0.3949
 6657SOL     OW31432   3.602   1.813   4.569  0.4507  0.5466 -0.4337
 6657SOL    HW131433   3.692   1.834   4.594  0.1441  1.8362 -0.4401
 6657SOL    HW231434   3.605   1.823   4.474 -0.2924 -2.1680 -0.7473
 6658SOL     OW31435   2.071   1.342  13.916  0.0612  0.2487  0.4441
 6658SOL    HW131436   2.050   1.264  13.864 -1.0263  0.5903  0.3619
 6658SOL    HW231437   2.163   1.332  13.941  0.1042 -0.8315 -0.1487
 6659SOL     OW31438   1.123   0.334   4.808  0.1360 -0.2353  0.3545
 6659SOL    HW131439   1.181   0.336   4.884  2.7073  0.7849 -1.6064
 6659SOL    HW231440   1.048   0.288   4.843 -1.5318 -0.9155 -4.0434
 6660SOL     OW31441   0.434   4.634   1.663  0.2523 -0.1668 -0.4355
 6660SOL    HW131442   0.506   4.635   1.727  0.1011 -2.4362 -0.2124
 6660SOL    HW231443   0.390   4.718   1.675  0.2333 -0.0358 -1.4395
 6661SOL     OW31444   1.573   0.329   1.476  0.1333  0.1752  0.1974
 6661SOL    HW131445   1.556   0.262   1.410  0.9279  1.2884 -1.1373
 6661SOL    HW231446   1.612   0.394   1.417 -1.9183  1.1860 -0.0292
 6662SOL     OW31447   3.952   1.915   3.540  0.3831  0.1491  0.2599
 6662SOL    HW131448   3.870   1.871   3.518 -0.7657  1.2594  2.3254
 6662SOL    HW231449   4.004   1.880   3.467 -1.0957  0.8855 -1.1411
 6663SOL     OW31450   0.117   3.511   2.627 -0.1327  0.4108  0.4936
 6663SOL    HW131451   0.072   3.438   2.583 -1.6910  1.2399  0.7172
 6663SOL    HW231452   0.160   3.470   2.702 -0.0911 -0.6784 -0.1247
 6664SOL     OW31453   1.757   3.453  16.671  0.7028  0.1257 -0.5498
 6664SOL    HW131454   1.704   3.511  16.726  1.4831 -0.7765  1.1796
 6664SOL    HW231455   1.830   3.432  16.729  0.1111 -1.6186 -0.4246
 6665SOL     OW31456   4.324   3.763   9.823  0.1670 -0.8241  0.1235
 6665SOL    HW131457   4.349   3.855   9.815  0.6067 -0.9992 -0.4489
 6665SOL    HW231458   4.405   3.725   9.790  2.0589  2.0911  1.4105
 6666SOL     OW31459   2.719   2.945   1.784  0.2035  0.2651  0.1036
 6666SOL    HW131460   2.783   2.993   1.731  0.4342  0.3251  0.4302
 6666SOL    HW231461   2.644   2.941   1.725  1.1602 -0.0559 -1.1011
 6667SOL     OW31462   1.376   3.032  16.316 -0.4764 -0.1680  0.4359
 6667SOL    HW131463   1.420   2.992  16.391  0.6921  0.9933  0.3594
 6667SOL    HW231464   1.353   3.116  16.355  0.0121 -0.7917  2.0492
 6668SOL     OW31465   1.782   2.229  10.844 -0.0183  0.5667 -0.6061
 6668SOL    HW131466   1.754   2.232  10.753  1.6659  1.2968 -1.0919
 6668SOL    HW231467   1.722   2.292  10.883 -0.2309 -1.0314  1.6692
 6669SOL     OW31468   2.560   0.791  15.783 -0.2779  0.3362  0.3748
 6669SOL    HW131469   2.599   0.874  15.808  1.2879 -0.5886  0.9718
 6669SOL    HW231470   2.550   0.809  15.689 -1.1329  0.8740  0.5694
 6670SOL     OW31471   1.142   2.644   0.392 -0.5967  0.2132  0.3468
 6670SOL    HW131472   1.126   2.739   0.386 -1.0713  0.0374 -1.2785
 6670SOL    HW231473   1.209   2.632   0.324 -1.9290 -1.2366 -0.6961
 6671SOL     OW31474   2.819   4.505   7.674 -0.1317 -0.1112  0.2387
 6671SOL    HW131475   2.858   4.447   7.609  0.1274  0.7071 -0.3276
 6671SOL    HW231476   2.741   4.457   7.702 -1.1954  1.1562 -0.6018
 6672SOL     OW31477   4.426   1.105   5.805 -0.6532  0.0262  0.6715
 6672SOL    HW131478   4.391   1.121   5.718 -0.6678 -0.5817  0.5593
 6672SOL    HW231479   4.506   1.054   5.790 -0.7465  0.5956 -1.7343
 6673SOL     OW31480   3.796   4.130   7.318  0.1547  0.8854 -0.0544
 6673SOL    HW131481   3.891   4.124   7.309  0.3487 -1.3532  3.2892
 6673SOL    HW231482   3.774   4.200   7.257 -0.1630  0.5214 -0.3560
 6674SOL     OW31483   3.149   3.776  10.341 -0.3960  0.1401 -0.0544
 6674SOL    HW131484   3.059   3.744  10.334 -0.3918  0.1712 -0.2358
 6674SOL    HW231485   3.168   3.732  10.424 -0.3685  0.8937  0.3320
 6675SOL     OW31486   2.825   0.718   4.527 -0.0743  0.1516  0.3374
 6675SOL    HW131487   2.738   0.678   4.524  0.0083 -0.1043  1.5626
 6675SOL    HW231488   2.800   0.810   4.539 -0.3907  0.1075  0.0210
 6676SOL     OW31489   4.141   0.031   5.030  0.4586  0.1695 -0.1399
 6676SOL    HW131490   4.163   0.015   4.938 -0.7135 -0.0212 -0.3883
 6676SOL    HW231491   4.078   4.683   5.036  0.7174 -0.0680 -0.2254
 6677SOL     OW31492   2.863   1.453  16.603 -0.4132 -0.6565  0.8152
 6677SOL    HW131493   2.941   1.401  16.584 -1.7970 -1.9500 -1.2270
 6677SOL    HW231494   2.875   1.464  16.698 -0.8979  3.4306  0.3889
 6678SOL     OW31495   3.341   2.504   1.711 -0.3887 -0.3976 -0.2573
 6678SOL    HW131496   3.401   2.497   1.637  0.2087 -0.4756  0.2277
 6678SOL    HW231497   3.393   2.568   1.759  1.0951 -0.5413 -1.6700
 6679SOL     OW31498   2.939   4.224  11.044  0.2863  0.3226  0.2233
 6679SOL    HW131499   3.010   4.285  11.022 -1.7535  3.5118  2.4066
 6679SOL    HW231500   2.963   4.207  11.135 -0.6462 -0.9016  0.2309
 6680SOL     OW31501   2.795   4.301   3.979 -0.7113 -0.1355 -0.5344
 6680SOL    HW131502   2.842   4.384   3.971  0.3403 -0.5710  1.2702
 6680SOL    HW231503   2.857   4.228   3.979 -0.0726  0.4112  2.0098
 6681SOL     OW31504   0.358   2.661   7.780  0.0487 -0.4813  0.0797
 6681SOL    HW131505   0.429   2.604   7.809 -1.6232 -3.2110 -1.2015
 6681SOL    HW231506   0.286   2.625   7.831 -0.5100  0.6490  0.0769
 6682SOL     OW31507   1.779   3.919   0.904 -0.1309  0.1320 -0.2553
 6682SOL    HW131508   1.833   3.871   0.967 -1.7157 -0.4379  0.6843
 6682SOL    HW231509   1.747   3.991   0.958 -2.6568  0.2940 -1.9952
 6683SOL     OW31510   4.110   2.966  11.361 -0.0684 -0.0806  0.6911
 6683SOL    HW131511   4.062   2.935  11.284 -2.1801  1.5397  1.3765
 6683SOL    HW231512   4.044   3.022  11.402  2.1619  2.3354  0.9524
 6684SOL     OW31513   1.374   2.101   8.785 -0.0091  0.0526  0.0071
 6684SOL    HW131514   1.394   2.182   8.739 -1.2120 -0.1638 -0.8726
 6684SOL    HW231515   1.400   2.136   8.871 -0.2023  1.4863 -0.5392
 6685SOL     OW31516   2.402   2.875   5.471  0.3211 -0.0607 -0.4397
 6685SOL    HW131517   2.368   2.891   5.383 -2.4890 -2.9645  0.1269
 6685SOL    HW231518   2.494   2.865   5.445  0.5491  3.4618 -1.1206
 6686SOL     OW31519   2.883   3.064  15.812  0.4401 -0.0904  0.1466
 6686SOL    HW131520   2.906   3.072  15.904 -0.7676 -0.3181  0.4557
 6686SOL    HW231521   2.878   2.969  15.799  3.0260 -0.0660 -1.2026
 6687SOL     OW31522   3.457   4.556   5.204 -1.0319  0.5097 -0.5559
 6687SOL    HW131523   3.397   4.483   5.225  0.6535 -1.3077 -2.0426
 6687SOL    HW231524   3.525   4.503   5.162 -2.1317 -0.8993 -0.5714
 6688SOL     OW31525   2.364   1.801   7.315  0.0421  0.3122  0.2374
 6688SOL    HW131526   2.327   1.839   7.395  1.2606  2.8845 -0.4394
 6688SOL    HW231527   2.326   1.715   7.334 -0.3811  0.3489 -0.4591
 6689SOL     OW31528   1.909   0.476   1.450  0.5117  0.0992  0.3875
 6689SOL    HW131529   1.958   0.504   1.373 -0.0483 -0.9703 -0.3562
 6689SOL    HW231530   1.841   0.542   1.451 -0.4006 -0.8346 -0.2194
 6690SOL     OW31531   3.799   2.815  13.645 -0.3346  0.0722 -0.1356
 6690SOL    HW131532   3.736   2.747  13.667  1.8224 -2.2284 -1.1441
 6690SOL    HW231533   3.763   2.858  13.568 -1.7539  0.2073  0.5864
 6691SOL     OW31534   3.685   0.419  16.888 -0.1187  0.9408  0.0448
 6691SOL    HW131535   3.607   0.470  16.907  0.4584  3.6998 -4.9792
 6691SOL    HW231536   3.655   0.329  16.876  0.1088  0.8360  0.2692
 6692SOL     OW31537   3.555   2.470  17.006 -0.1760  0.2281  0.0254
 6692SOL    HW131538   3.523   2.488  17.095  1.5443  0.0398  0.6822
 6692SOL    HW231539   3.563   2.375  17.018  0.9504  0.7119  3.0749
 6693SOL     OW31540   1.647   2.851  12.191  0.3798  0.2029 -0.8660
 6693SOL    HW131541   1.721   2.813  12.143 -0.5096 -0.2014 -1.9193
 6693SOL    HW231542   1.575   2.845  12.128 -2.3758  1.9931  2.1132
 6694SOL     OW31543   1.891   4.164  17.651 -0.6965  0.0799 -0.0303
 6694SOL    HW131544   1.843   4.247  17.652 -0.1943  0.3319  2.3394
 6694SOL    HW231545   1.819   4.101  17.649  0.9657 -1.8750  2.3468
 6695SOL     OW31546   3.450   3.444  17.310  0.0425  0.8285 -0.4331
 6695SOL    HW131547   3.419   3.494  17.235 -0.2692  2.6770  0.9442
 6695SOL    HW231548   3.371   3.402  17.345 -0.3181  0.8990 -1.1794
 6696SOL     OW31549   1.052   4.455   2.993 -0.1578 -1.0825 -0.0004
 6696SOL    HW131550   1.129   4.509   2.979 -2.2895  1.4500 -1.8838
 6696SOL    HW231551   0.991   4.529   2.985  1.7716  0.4955  0.0014
 6697SOL     OW31552   1.520   4.097  11.120 -0.4043 -0.4787  0.3134
 6697SOL    HW131553   1.592   4.139  11.073  0.6103 -3.4540 -0.8104
 6697SOL    HW231554   1.441   4.146  11.096  0.4230 -0.1263 -1.6843
 6698SOL     OW31555   1.406   1.654   2.372 -0.1716  0.2426 -0.3944
 6698SOL    HW131556   1.390   1.748   2.364 -0.7318  0.1724 -0.0531
 6698SOL    HW231557   1.393   1.637   2.465  1.9424 -1.2379 -0.3706
 6699SOL     OW31558   2.940   1.058   4.132  0.3872 -0.4510 -0.3406
 6699SOL    HW131559   2.967   1.008   4.209 -1.2225 -0.9116 -0.0666
 6699SOL    HW231560   3.000   1.021   4.067 -0.3883 -2.5910  0.1599
 6700SOL     OW31561   4.199   1.223   0.327  0.4199 -0.0079 -0.0165
 6700SOL    HW131562   4.264   1.179   0.273 -0.9756 -0.8568 -1.0022
 6700SOL    HW231563   4.222   1.315   0.316 -0.5020  0.2499  0.2049
 6701SOL     OW31564   1.227   2.265   4.411  0.2123  0.1056  0.0796
 6701SOL    HW131565   1.147   2.254   4.361  0.3307 -0.4076 -0.0035
 6701SOL    HW231566   1.233   2.188   4.468  1.8996  0.3526  0.2343
 6702SOL     OW31567   3.371   3.344  15.951 -0.5444 -0.1751  0.3327
 6702SOL    HW131568   3.372   3.355  15.856 -1.4899  0.4004  0.3825
 6702SOL    HW231569   3.373   3.249  15.960  1.3443 -0.1145  0.4277
 6703SOL     OW31570   3.734   2.156   9.106  0.3783 -0.2929  0.3810
 6703SOL    HW131571   3.806   2.122   9.054  0.3266  1.0361 -0.5442
 6703SOL    HW231572   3.774   2.150   9.193  1.8229 -1.8157 -0.3787
 6704SOL     OW31573   4.219   3.290   3.430 -0.3773 -0.4150  0.3733
 6704SOL    HW131574   4.125   3.296   3.449 -0.3230  0.7173  0.2830
 6704SOL    HW231575   4.254   3.345   3.499  0.3852 -1.2191  0.6286
 6705SOL     OW31576   2.038   2.022   7.646  0.5587  0.3276  0.6540
 6705SOL    HW131577   2.109   2.027   7.710 -0.5258  0.2567  1.8721
 6705SOL    HW231578   1.966   2.030   7.709 -1.6581 -1.4930 -1.6595
 6706SOL     OW31579   3.971   3.030  12.345 -0.3690  0.0906  0.3060
 6706SOL    HW131580   3.998   3.117  12.373  4.4779 -0.6959 -2.0162
 6706SOL    HW231581   4.008   2.981  12.418  2.0901 -0.6065 -1.4041
 6707SOL     OW31582   1.218   4.573   5.113 -0.1319  0.2587 -0.0359
 6707SOL    HW131583   1.137   4.600   5.070 -0.4588 -1.8631 -0.7130
 6707SOL    HW231584   1.277   4.592   5.040  1.2204  0.1311  1.0271
 6708SOL     OW31585   2.104   1.864   2.089  0.5111  0.0889  0.3157
 6708SOL    HW131586   2.130   1.953   2.068 -2.1963  0.2945 -2.1981
 6708SOL    HW231587   2.129   1.832   2.002 -1.5981 -0.1587 -0.2124
 6709SOL     OW31588   3.787   3.533   3.670  0.4597 -0.0310 -0.1009
 6709SOL    HW131589   3.803   3.619   3.707 -1.1595  0.0865  0.3107
 6709SOL    HW231590   3.793   3.549   3.576  2.2466  0.7856  0.1641
 6710SOL     OW31591   1.028   3.162   7.858  0.3748 -0.4563  0.3731
 6710SOL    HW131592   1.096   3.228   7.874  2.0345 -1.3504 -2.9889
 6710SOL    HW231593   1.073   3.084   7.891  0.1822 -1.1004 -0.9111
 6711SOL     OW31594   3.685   1.390  14.614  0.2353 -0.4703 -0.0371
 6711SOL    HW131595   3.676   1.484  14.602 -0.7023 -0.3316  1.7699
 6711SOL    HW231596   3.708   1.399  14.707  0.2329 -2.7520  0.1964
 6712SOL     OW31597   0.419   0.150   3.197 -0.2433 -0.7369 -0.1907
 6712SOL    HW131598   0.368   0.219   3.156  1.4954  1.0128  0.5971
 6712SOL    HW231599   0.498   0.137   3.143  0.1609 -0.2090  0.2829
 6713SOL     OW31600   2.761   2.336   5.012 -0.3956  0.0207  0.3097
 6713SOL    HW131601   2.818   2.403   4.973 -3.0276  0.3370 -2.9531
 6713SOL    HW231602   2.806   2.327   5.096  1.8510  0.2417 -0.8569
 6714SOL     OW31603   1.065   0.376  15.543  0.2777 -0.3133  0.2953
 6714SOL    HW131604   1.094   0.379  15.634  0.5668 -2.3304  0.2726
 6714SOL    HW231605   0.974   0.351  15.561  0.3751 -0.8722  0.0384
 6715SOL     OW31606   2.268   0.116  17.124  0.4314  0.0232  0.0093
 6715SOL    HW131607   2.265   0.191  17.183  2.5188  0.7963 -0.8590
 6715SOL    HW231608   2.347   0.072  17.155  0.0881 -0.1859  0.5964
 6716SOL     OW31609   0.101   2.832   4.970 -0.4317 -0.2096  0.0671
 6716SOL    HW131610   0.174   2.890   4.992 -0.9189 -0.1224  1.4372
 6716SOL    HW231611   0.128   2.755   5.020  1.0902 -0.3459 -0.9613
 6717SOL     OW31612   2.124   0.188   4.203  0.4407 -0.3558  0.1813
 6717SOL    HW131613   2.032   0.210   4.193  0.7460  1.3553  1.2375
 6717SOL    HW231614   2.103   0.096   4.183  0.6153 -0.5556  0.9071
 6718SOL     OW31615   0.901   1.780   7.017 -0.0192  0.3063 -0.5277
 6718SOL    HW131616   0.945   1.745   7.094  0.8203 -0.5988 -1.4270
 6718SOL    HW231617   0.817   1.797   7.061  0.3791 -0.5861  0.5620
 6719SOL     OW31618   4.167   3.833   4.220 -0.2769 -0.5476  0.0922
 6719SOL    HW131619   4.249   3.787   4.238 -0.4206 -1.5267 -1.8507
 6719SOL    HW231620   4.101   3.800   4.281  0.7423 -1.0326  0.9230
 6720SOL     OW31621   2.559   2.229  14.187 -0.6526 -0.2736  0.4747
 6720SOL    HW131622   2.514   2.149  14.213 -0.2994 -1.0612 -1.3748
 6720SOL    HW231623   2.652   2.207  14.195 -1.2184 -2.8057  0.1744
 6721SOL     OW31624   2.499   1.107   7.927 -0.1131  0.4129 -0.3496
 6721SOL    HW131625   2.489   1.026   7.878  2.9573 -0.8230  1.0494
 6721SOL    HW231626   2.578   1.140   7.884  1.2053 -0.7356  1.1742
 6722SOL     OW31627   3.049   0.640   6.282 -0.0048  0.0317  0.5032
 6722SOL    HW131628   3.134   0.664   6.245  0.4376 -0.1156  1.4223
 6722SOL    HW231629   3.079   0.580   6.350  1.8128 -1.0306 -1.2506
 6723SOL     OW31630   2.710   4.227   3.003 -0.2442  0.2399  0.3238
 6723SOL    HW131631   2.787   4.260   2.957 -1.2272 -0.3619 -1.7584
 6723SOL    HW231632   2.714   4.133   2.987  0.5873  0.3847 -0.3306
 6724SOL     OW31633   2.834   4.440  11.467  0.7052 -1.0751  0.6482
 6724SOL    HW131634   2.782   4.507  11.422 -0.8650 -2.1647  0.8292
 6724SOL    HW231635   2.882   4.501  11.522 -0.0900  2.4753 -2.5635
 6725SOL     OW31636   2.945   4.513   8.415 -0.9169 -0.1422  0.1498
 6725SOL    HW131637   2.855   4.545   8.418  0.4589  3.8537 -0.8486
 6725SOL    HW231638   2.972   4.551   8.499  0.4090 -1.2711  0.2386
 6726SOL     OW31639   3.138   0.566   3.950 -0.8080  0.3367  0.4572
 6726SOL    HW131640   3.131   0.608   3.865  1.4677  0.4860  0.3578
 6726SOL    HW231641   3.221   0.600   3.983 -0.4768 -0.1060  0.0775
 6727SOL     OW31642   4.147   0.487   9.101 -0.0378 -0.5254 -0.5734
 6727SOL    HW131643   4.177   0.447   9.183  0.6379  2.0759  0.4386
 6727SOL    HW231644   4.120   0.410   9.050  1.3612 -0.6025 -1.2153
 6728SOL     OW31645   0.705   0.729  10.784 -0.5003  0.0389 -0.6403
 6728SOL    HW131646   0.790   0.748  10.825  0.6700 -1.6760 -2.2387
 6728SOL    HW231647   0.704   0.633  10.785  2.5066  0.0013  0.3395
 6729SOL     OW31648   1.992   2.619   1.578  0.2342  0.6117 -0.2965
 6729SOL    HW131649   2.053   2.666   1.635  0.4925  1.3624 -1.1811
 6729SOL    HW231650   1.985   2.677   1.502 -4.1288  0.1914 -0.1958
 6730SOL     OW31651   4.305   0.489   7.689 -0.0316 -0.4315 -0.1445
 6730SOL    HW131652   4.303   0.525   7.778  3.4203  0.8654 -0.5580
 6730SOL    HW231653   4.393   0.511   7.657 -0.2671  1.9908  0.9212
 6731SOL     OW31654   0.091   3.091   8.365  0.1409 -0.3574  0.3205
 6731SOL    HW131655   4.721   3.070   8.379  0.3237 -1.8986 -0.7337
 6731SOL    HW231656   0.097   3.047   8.280 -2.3945  0.3116 -0.2210
 6732SOL     OW31657   3.498   3.500  11.888  0.4558 -0.2517 -0.0414
 6732SOL    HW131658   3.473   3.574  11.833  0.4004 -0.8668 -0.8548
 6732SOL    HW231659   3.517   3.523  11.979 -0.7184 -0.3855  0.2404
 6733SOL     OW31660   2.039   3.659   8.353  0.0615  0.0141  0.4812
 6733SOL    HW131661   2.083   3.600   8.292 -1.0381 -1.3073  0.9758
 6733SOL    HW231662   2.094   3.622   8.422 -1.8152  0.4015  2.1816
 6734SOL     OW31663   0.587   2.546  12.923 -0.3638  0.1227  0.4293
 6734SOL    HW131664   0.495   2.565  12.941 -0.4238 -0.8006  1.0829
 6734SOL    HW231665   0.594   2.469  12.980  0.3440 -0.1653 -0.0471
 6735SOL     OW31666   2.358   3.278  15.109 -0.4246 -0.2808 -0.3140
 6735SOL    HW131667   2.429   3.220  15.079 -0.5477 -0.4329 -0.3156
 6735SOL    HW231668   2.369   3.340  15.037 -0.9646  0.3445  0.1483
 6736SOL     OW31669   2.529   3.445   5.116  0.4001  0.7962 -0.2370
 6736SOL    HW131670   2.537   3.449   5.021  0.8294 -1.4132 -0.3127
 6736SOL    HW231671   2.509   3.537   5.131 -2.9181  0.4220 -2.2517
 6737SOL     OW31672   2.953   2.296  17.299  0.2817  0.2791  0.1708
 6737SOL    HW131673   2.868   2.255  17.314 -0.1384  0.7721 -0.8595
 6737SOL    HW231674   2.918   2.371  17.251 -1.3484  0.4476  1.6105
 6738SOL     OW31675   0.656   0.813   8.182 -0.3475  0.1360 -0.0814
 6738SOL    HW131676   0.618   0.725   8.189  1.5039 -0.7838 -1.5497
 6738SOL    HW231677   0.604   0.851   8.252 -0.1334  1.6996 -0.7728
 6739SOL     OW31678   1.038   4.350   4.045  1.0016 -0.2299 -0.0998
 6739SOL    HW131679   0.947   4.374   4.027  0.5123 -1.2216  1.0555
 6739SOL    HW231680   1.031   4.277   4.106 -0.5174  0.4367  0.5245
 6740SOL     OW31681   1.696   2.041   8.793  0.0044 -0.4013 -0.1468
 6740SOL    HW131682   1.678   1.993   8.713  2.3106  1.5700 -1.8492
 6740SOL    HW231683   1.617   2.095   8.799 -0.8498 -1.6570 -0.1906
 6741SOL     OW31684   1.002   4.553   9.115  0.3444  0.1406 -0.0278
 6741SOL    HW131685   1.023   4.494   9.187 -0.7854  0.6966  0.7467
 6741SOL    HW231686   0.906   4.548   9.115  0.4761 -2.0425  3.0117
 6742SOL     OW31687   0.611   3.712   1.881  0.1849 -0.2439  0.6112
 6742SOL    HW131688   0.688   3.768   1.878  1.1238 -1.7235 -2.0024
 6742SOL    HW231689   0.544   3.769   1.842  1.0531 -0.8518 -1.7609
 6743SOL     OW31690   3.940   2.362  10.404  0.2873 -0.0661 -0.1156
 6743SOL    HW131691   3.957   2.453  10.431 -0.4298  0.6478 -2.0213
 6743SOL    HW231692   3.854   2.345  10.441 -0.2403 -2.1891 -2.2898
 6744SOL     OW31693   2.541   4.597   2.716  0.1843  0.0379 -0.2214
 6744SOL    HW131694   2.466   4.656   2.717 -0.6046 -1.0010  1.5314
 6744SOL    HW231695   2.614   4.633   2.767  0.5064 -0.1163 -0.5757
 6745SOL     OW31696   4.181   4.142   4.978 -0.7147 -0.3961  0.4329
 6745SOL    HW131697   4.147   4.221   5.019 -1.7801  0.1135 -1.4679
 6745SOL    HW231698   4.246   4.111   5.042 -1.8887 -2.2573  0.7202
 6746SOL     OW31699   4.103   3.667   5.917  0.0972  0.3685 -0.4229
 6746SOL    HW131700   4.039   3.629   5.977  0.7962 -0.5028 -0.2318
 6746SOL    HW231701   4.051   3.688   5.839 -3.7044 -1.9278  1.5507
 6747SOL     OW31702   2.964   2.862   1.909 -0.3018  0.0025 -0.7187
 6747SOL    HW131703   2.972   2.782   1.857  0.3943  0.5532 -1.4663
 6747SOL    HW231704   2.903   2.918   1.861 -0.4424  0.6866  0.2612
 6748SOL     OW31705   4.022   4.316   5.347 -0.0794 -0.0491  0.4484
 6748SOL    HW131706   3.969   4.245   5.310 -1.3821  0.2732  1.7070
 6748SOL    HW231707   3.957   4.386   5.344 -1.3384 -1.2582 -0.7939
 6749SOL     OW31708   0.118   0.727   3.771  0.5872 -0.2078  0.0963
 6749SOL    HW131709   0.199   0.778   3.760  0.6628 -1.1813 -3.7050
 6749SOL    HW231710   0.047   0.790   3.787 -1.9635 -2.9795 -0.3874
 6750SOL     OW31711   3.356   1.465   0.500  0.1344  0.7756 -0.2806
 6750SOL    HW131712   3.395   1.388   0.460  0.4496  0.5307  0.5098
 6750SOL    HW231713   3.427   1.529   0.505  0.1523  0.8498 -1.5747
 6751SOL     OW31714   3.157   1.334   6.555 -0.1204 -0.0115  0.5192
 6751SOL    HW131715   3.152   1.429   6.569 -0.1880 -0.0091  0.4789
 6751SOL    HW231716   3.074   1.313   6.599  0.2502 -1.0005  0.7300
 6752SOL     OW31717   1.636   0.594   8.265  0.3792  0.3057 -0.0338
 6752SOL    HW131718   1.645   0.540   8.186 -0.6341 -0.3543  0.2934
 6752SOL    HW231719   1.687   0.670   8.236  0.0463  0.9878  1.1627
 6753SOL     OW31720   3.102   2.404   5.122  0.1507  0.2169  0.2657
 6753SOL    HW131721   3.061   2.453   5.193  2.8626  1.3235  1.0772
 6753SOL    HW231722   3.047   2.327   5.112  1.5478 -0.9579  1.4245
 6754SOL     OW31723   3.564   2.157  12.193 -0.4603 -0.1620 -0.0187
 6754SOL    HW131724   3.500   2.229  12.184 -1.4599 -0.9476  0.7910
 6754SOL    HW231725   3.520   2.110  12.263  0.1686  0.6129  0.8950
 6755SOL     OW31726   4.354   1.207   6.406 -0.3115 -0.2592 -0.6508
 6755SOL    HW131727   4.305   1.289   6.403 -2.5082 -1.5556 -0.2998
 6755SOL    HW231728   4.287   1.148   6.439  1.8433 -2.2216  0.2010
 6756SOL     OW31729   3.577   0.424  11.686 -0.4263 -0.1339  0.5666
 6756SOL    HW131730   3.622   0.469  11.615 -0.5017 -1.4161 -0.3019
 6756SOL    HW231731   3.658   0.382  11.716  0.6172  0.0140 -2.0334
 6757SOL     OW31732   2.649   0.451  12.191  0.2163  0.0014  0.1172
 6757SOL    HW131733   2.588   0.525  12.200 -0.3507 -0.1559 -2.2644
 6757SOL    HW231734   2.716   0.476  12.254 -0.3846 -0.0652  0.7797
 6758SOL     OW31735   4.471   4.130   7.391  0.2716  0.1869  0.5788
 6758SOL    HW131736   4.476   4.225   7.397  3.4386  0.1108 -0.3596
 6758SOL    HW231737   4.557   4.090   7.375 -0.1712 -0.4330 -0.2900
 6759SOL     OW31738   3.209   2.854   0.845 -0.1175  0.4949  0.6359
 6759SOL    HW131739   3.120   2.840   0.811 -0.0760 -0.3589  0.8773
 6759SOL    HW231740   3.204   2.791   0.917  0.6182  0.5620  0.7415
 6760SOL     OW31741   3.199   4.230  13.101 -0.3313 -0.6306  0.2672
 6760SOL    HW131742   3.285   4.193  13.082  0.4805  1.0577  0.6063
 6760SOL    HW231743   3.152   4.155  13.138 -1.7028 -0.0185 -0.2521
 6761SOL     OW31744   0.458   3.218   2.141 -0.2364 -0.0920  0.2211
 6761SOL    HW131745   0.384   3.258   2.187 -1.7883 -0.0052 -2.3606
 6761SOL    HW231746   0.437   3.125   2.155 -0.8767 -0.1505 -1.1124
 6762SOL     OW31747   3.735   2.219   7.793  0.3334 -0.2800 -0.4277
 6762SOL    HW131748   3.790   2.148   7.825  1.0902  0.9769  1.0665
 6762SOL    HW231749   3.737   2.279   7.868 -0.0875 -1.1136  0.2428
 6763SOL     OW31750   2.166   0.128   4.813  0.3942 -0.6376 -0.3061
 6763SOL    HW131751   2.169   0.224   4.808 -2.3080 -0.4466  1.6562
 6763SOL    HW231752   2.233   0.106   4.748 -0.9187  1.1407 -2.2792
 6764SOL     OW31753   4.645   2.940   5.449 -0.0357 -0.4509 -0.0154
 6764SOL    HW131754   4.634   2.865   5.507 -0.8180 -0.6601 -0.4355
 6764SOL    HW231755   0.016   2.950   5.436 -0.2075  1.3140  0.1693
 6765SOL     OW31756   4.096   2.832   6.426  0.9946 -0.7114 -0.2433
 6765SOL    HW131757   4.167   2.780   6.464  0.4986 -1.6741 -0.6395
 6765SOL    HW231758   4.105   2.921   6.459 -1.2461  0.3319 -2.5155
 6766SOL     OW31759   4.221   0.190   4.065 -0.2680 -0.4060  0.4321
 6766SOL    HW131760   4.143   0.141   4.040 -0.7540  1.3744 -1.5896
 6766SOL    HW231761   4.249   0.131   4.134  1.0028 -0.1063  0.1672
 6767SOL     OW31762   1.625   0.547  14.327  0.8122 -0.5215 -0.0887
 6767SOL    HW131763   1.542   0.545  14.280 -0.6362 -3.0132  2.5305
 6767SOL    HW231764   1.676   0.482  14.279  0.3775 -1.5487  0.8374
 6768SOL     OW31765   0.094   2.663   5.213 -0.4244 -0.0477 -0.2272
 6768SOL    HW131766   0.069   2.609   5.287  3.7925 -0.1040  1.1349
 6768SOL    HW231767   0.024   2.641   5.151  1.4002  0.7654 -2.6023
 6769SOL     OW31768   0.566   2.438  17.060  0.0597  0.1321 -0.1278
 6769SOL    HW131769   0.560   2.530  17.032 -0.2397 -0.0248 -0.5710
 6769SOL    HW231770   0.500   2.441  17.130  0.0539  1.4715 -0.1770
 6770SOL     OW31771   4.400   0.732   6.496  0.7368 -0.0737  0.2799
 6770SOL    HW131772   4.445   0.814   6.478 -0.3903  0.2175 -1.1425
 6770SOL    HW231773   4.362   0.717   6.410 -2.3141 -0.7789  1.7380
 6771SOL     OW31774   0.612   3.566   3.291  0.1460  0.0327  0.3000
 6771SOL    HW131775   0.614   3.478   3.256 -0.6564  0.3861 -0.6452
 6771SOL    HW231776   0.530   3.559   3.341  0.6319 -0.1370  1.0642
 6772SOL     OW31777   0.314   2.771  10.776  0.0514 -0.3989 -0.1640
 6772SOL    HW131778   0.285   2.717  10.850 -0.9911 -3.2013 -2.6439
 6772SOL    HW231779   0.279   2.859  10.793 -2.3675 -1.1321 -1.3186
 6773SOL     OW31780   0.054   1.478   9.605  0.1240  0.2674 -0.0636
 6773SOL    HW131781   0.059   1.430   9.688 -1.1290  0.8510  0.3452
 6773SOL    HW231782   0.101   1.560   9.621  0.8203 -0.2579  0.5833
 6774SOL     OW31783   2.220   1.443  13.530 -0.1872 -0.0832  0.2865
 6774SOL    HW131784   2.194   1.486  13.449  1.1367 -2.2170 -1.2797
 6774SOL    HW231785   2.226   1.522  13.583 -0.7395 -0.2263  0.5691
 6775SOL     OW31786   1.823   4.506   4.524 -0.5057  0.0748 -0.1366
 6775SOL    HW131787   1.802   4.526   4.433  1.5687 -0.7521 -0.8056
 6775SOL    HW231788   1.880   4.574   4.558  1.2444 -0.3869 -2.2045
 6776SOL     OW31789   0.861   3.470  11.651  0.0516  0.7078  0.0886
 6776SOL    HW131790   0.830   3.466  11.742 -2.2468 -0.3378 -0.7524
 6776SOL    HW231791   0.778   3.497  11.613  0.0760  2.2232  1.1032
 6777SOL     OW31792   2.107   3.296   1.424 -0.2552 -0.2016 -0.0742
 6777SOL    HW131793   2.191   3.279   1.466 -0.0649  0.6887 -0.0873
 6777SOL    HW231794   2.043   3.306   1.495  0.1797  0.0069  0.2874
 6778SOL     OW31795   1.386   3.413   5.292 -0.1083  0.4107  0.1739
 6778SOL    HW131796   1.314   3.355   5.266  0.8766 -0.2232 -1.1411
 6778SOL    HW231797   1.435   3.364   5.358 -1.7258  0.3576  1.3345
 6779SOL     OW31798   2.825   1.866   5.532 -0.3056  0.6136  0.5524
 6779SOL    HW131799   2.831   1.837   5.622  4.0602 -0.9552 -0.2698
 6779SOL    HW231800   2.731   1.887   5.527 -0.5573 -0.6171  0.2083
 6780SOL     OW31801   1.548   2.953  10.772  0.1202  0.7666 -0.6938
 6780SOL    HW131802   1.480   2.894  10.803  2.4535 -0.6617  1.7464
 6780SOL    HW231803   1.549   3.021  10.840 -1.1034 -1.4861  1.5815
 6781SOL     OW31804   1.697   3.043   6.475 -0.2609 -0.4947  0.3657
 6781SOL    HW131805   1.682   3.099   6.551 -2.3644  1.0631 -1.2081
 6781SOL    HW231806   1.756   3.094   6.419 -0.0137 -2.1182 -0.8659
 6782SOL     OW31807   0.348   4.161  10.497  0.1188 -0.0580  0.2404
 6782SOL    HW131808   0.304   4.197  10.574 -0.5546 -0.6988  0.1555
 6782SOL    HW231809   0.433   4.142  10.535  0.8947  1.2689 -0.8377
 6783SOL     OW31810   3.428   1.282  14.850 -0.1702  0.0941  0.2390
 6783SOL    HW131811   3.390   1.316  14.931 -1.0932  0.4342 -0.3390
 6783SOL    HW231812   3.390   1.194  14.847 -0.5322  0.2348  0.8010
 6784SOL     OW31813   2.827   3.489   7.003 -0.2964 -0.1099  0.2425
 6784SOL    HW131814   2.816   3.428   6.930  0.3754  0.8575 -0.6803
 6784SOL    HW231815   2.923   3.497   7.011 -0.0950 -0.9063 -1.4427
 6785SOL     OW31816   1.373   0.969   8.612 -0.4641  0.0566 -0.7015
 6785SOL    HW131817   1.456   0.933   8.582  0.1686 -0.1679  1.3320
 6785SOL    HW231818   1.407   0.973   8.702 -0.4738  2.8741 -0.8036
 6786SOL     OW31819   1.966   0.824   7.480  0.9323  0.0059 -0.2787
 6786SOL    HW131820   1.996   0.735   7.498 -0.2134 -0.1092  1.0792
 6786SOL    HW231821   2.011   0.823   7.395 -0.3781 -0.3352 -0.9816
 6787SOL     OW31822   3.774   0.376  10.260  0.0810 -0.2186  0.5624
 6787SOL    HW131823   3.688   0.380  10.303 -0.6046  1.2844 -0.9437
 6787SOL    HW231824   3.788   0.291  10.302  0.1855 -0.4163  0.1202
 6788SOL     OW31825   3.839   1.197   7.963  0.8493 -0.1724 -0.5237
 6788SOL    HW131826   3.861   1.290   7.954 -0.8069  0.1280 -1.3620
 6788SOL    HW231827   3.925   1.162   7.938  0.5195 -0.7344 -0.8507
 6789SOL     OW31828   0.654   2.114   6.432 -0.4211 -0.3019  0.2691
 6789SOL    HW131829   0.721   2.181   6.442  1.7457 -2.5330  0.4285
 6789SOL    HW231830   0.630   2.136   6.342 -0.5464 -0.9919  0.1376
 6790SOL     OW31831   2.504   2.078   4.640  0.4896  0.7884  0.3988
 6790SOL    HW131832   2.516   2.165   4.603 -1.2675  0.4449 -0.9806
 6790SOL    HW231833   2.547   2.085   4.726 -0.5257  2.5645  0.7525
 6791SOL     OW31834   2.170   0.977  16.895  0.4181 -0.0717  0.6013
 6791SOL    HW131835   2.209   0.978  16.807 -0.4096 -0.3713  0.2285
 6791SOL    HW231836   2.101   0.912  16.883  1.1697 -1.0754  1.7582
 6792SOL     OW31837   3.571   4.254  13.701 -0.4389 -0.1425  0.2622
 6792SOL    HW131838   3.511   4.327  13.715 -1.2772 -0.1653 -3.0763
 6792SOL    HW231839   3.603   4.234  13.789  0.8940  1.8996  0.2517
 6793SOL     OW31840   4.301   3.461   4.210 -0.3096 -0.2900 -0.6698
 6793SOL    HW131841   4.376   3.402   4.201 -0.6010 -0.3308 -2.7886
 6793SOL    HW231842   4.252   3.442   4.129 -0.5888  0.0446 -0.5801
 6794SOL     OW31843   3.726   0.703   3.850 -0.6187 -0.4484 -0.0530
 6794SOL    HW131844   3.770   0.627   3.812 -0.3685 -0.3178 -0.0274
 6794SOL    HW231845   3.642   0.673   3.885  0.2501 -0.1325  2.3130
 6795SOL     OW31846   3.577   4.277   1.654 -0.6219  0.0862 -0.2640
 6795SOL    HW131847   3.658   4.298   1.701  0.5502 -0.3262 -2.0894
 6795SOL    HW231848   3.562   4.187   1.683 -0.8073  0.1373 -0.1989
 6796SOL     OW31849   0.254   4.597   3.552  0.6845 -0.4250 -0.3739
 6796SOL    HW131850   0.259   4.501   3.549 -2.2064 -0.5719  0.0148
 6796SOL    HW231851   0.325   4.614   3.490 -0.3374  1.1179 -1.0963
 6797SOL     OW31852   0.675   0.458  15.516  0.1524  0.7520  0.8364
 6797SOL    HW131853   0.730   0.404  15.572  0.7620 -0.6897 -1.1487
 6797SOL    HW231854   0.708   0.443  15.427  2.1151  2.3949  1.2673
 6798SOL     OW31855   0.656   4.164   2.262 -0.0739  0.1574 -0.0874
 6798SOL    HW131856   0.577   4.172   2.315  1.7250 -2.8885  3.1254
 6798SOL    HW231857   0.605   4.141   2.185 -2.4625 -1.5045  1.9887
 6799SOL     OW31858   1.950   3.117   7.800 -0.0507  0.2722 -0.3556
 6799SOL    HW131859   1.969   3.161   7.718  2.2573  0.2663  0.1616
 6799SOL    HW231860   1.921   3.034   7.762  0.3867  0.2769 -0.6966
 6800SOL     OW31861   1.801   2.682  11.798  0.3231  0.3088 -0.2074
 6800SOL    HW131862   1.741   2.756  11.792  1.6583  1.3727 -0.2954
 6800SOL    HW231863   1.765   2.621  11.734 -1.4547 -0.0741  1.1448
 6801SOL     OW31864   1.345   0.314   4.037 -0.4074 -0.1530  0.4597
 6801SOL    HW131865   1.429   0.344   4.000 -0.4481 -1.8299 -0.9768
 6801SOL    HW231866   1.310   0.247   3.979 -0.9100  0.5612 -0.0592
 6802SOL     OW31867   2.729   0.698  14.543  0.0142 -0.4344 -0.3113
 6802SOL    HW131868   2.718   0.651  14.460  2.3588 -1.5024 -0.0243
 6802SOL    HW231869   2.795   0.763  14.521 -0.3098  0.4610  1.3759
 6803SOL     OW31870   2.020   3.392   5.869  0.6208 -0.1645  0.3101
 6803SOL    HW131871   2.057   3.479   5.884  0.7466 -0.2353  0.4181
 6803SOL    HW231872   2.015   3.362   5.960  1.1473  1.9599  1.0358
 6804SOL     OW31873   0.141   3.579   6.724  0.3223  0.3776  0.3123
 6804SOL    HW131874   0.088   3.637   6.779  0.0647  0.5608 -0.1303
 6804SOL    HW231875   0.161   3.514   6.791 -1.1038  0.0558  0.4444
 6805SOL     OW31876   3.356   3.580   7.553  0.7109  0.2079 -0.1850
 6805SOL    HW131877   3.357   3.513   7.485 -0.5157  1.8913 -1.8726
 6805SOL    HW231878   3.397   3.660   7.520 -3.2703  1.7651 -1.4522
 6806SOL     OW31879   3.527   3.264   2.703  0.6736 -0.2644 -0.2205
 6806SOL    HW131880   3.504   3.266   2.795  1.4833  1.4410 -0.0506
 6806SOL    HW231881   3.514   3.173   2.678 -3.1895  0.1670  0.3089
 6807SOL     OW31882   3.914   2.636  10.433  0.1232 -0.0151  1.1639
 6807SOL    HW131883   3.896   2.693  10.358 -1.6419  0.2238  1.7775
 6807SOL    HW231884   3.843   2.646  10.497 -1.8434 -1.1513 -0.8576
 6808SOL     OW31885   3.459   0.892   4.947  0.5391 -0.4751 -0.0989
 6808SOL    HW131886   3.399   0.840   4.895 -0.0733 -1.1243  1.2615
 6808SOL    HW231887   3.530   0.917   4.887  1.6475  1.0658  1.8392
 6809SOL     OW31888   1.008   2.804   3.764 -0.1294  0.3745 -0.9004
 6809SOL    HW131889   1.071   2.733   3.753  0.5095  0.4872  2.1361
 6809SOL    HW231890   0.928   2.770   3.723 -0.0152  0.0797 -0.8777
 6810SOL     OW31891   1.531   0.602  15.301  0.0229 -0.2184  0.2728
 6810SOL    HW131892   1.459   0.586  15.239  0.1765  1.1673 -0.2652
 6810SOL    HW231893   1.551   0.695  15.290  0.3008 -0.6644 -2.9439
 6811SOL     OW31894   4.014   4.422   6.931 -0.0741  0.3303  0.3839
 6811SOL    HW131895   4.046   4.399   7.018  0.8487  2.0241  0.4745
 6811SOL    HW231896   4.056   4.506   6.912  0.9557 -0.3353 -0.3056
 6812SOL     OW31897   4.714   3.385  16.269 -0.0180  0.4886 -0.1375
 6812SOL    HW131898   0.065   3.328  16.287  0.1895  0.6010 -0.6464
 6812SOL    HW231899   0.006   3.400  16.176 -0.6077 -0.7624 -0.4266
 6813SOL     OW31900   3.448   3.116   5.910  0.3131 -0.3144 -0.2415
 6813SOL    HW131901   3.373   3.067   5.945  0.3267 -0.1818 -0.0223
 6813SOL    HW231902   3.431   3.101   5.817  0.3163 -2.0955  0.0481
 6814SOL     OW31903   1.544   1.551   6.013 -0.0721  0.2163  0.4743
 6814SOL    HW131904   1.584   1.497   6.081 -0.1658 -3.0466 -2.0023
 6814SOL    HW231905   1.595   1.631   6.019 -0.6091  0.6040 -0.1490
 6815SOL     OW31906   0.348   0.435   8.951  0.3214 -0.0908 -0.8855
 6815SOL    HW131907   0.355   0.488   8.871 -0.2036  0.8214 -0.3318
 6815SOL    HW231908   0.381   0.354   8.912  1.8349 -0.2081  0.6687
 6816SOL     OW31909   1.748   0.689   1.443  0.3143  0.8640  0.4704
 6816SOL    HW131910   1.804   0.753   1.400  1.4441 -0.8015 -0.5455
 6816SOL    HW231911   1.663   0.733   1.438  0.8552  1.9081  0.6482
 6817SOL     OW31912   1.919   4.686  14.402 -0.4805 -0.2907 -0.9569
 6817SOL    HW131913   1.875   4.656  14.481  0.2148 -2.1268 -1.2653
 6817SOL    HW231914   1.942   0.054  14.422 -1.0363 -0.3571 -0.0123
 6818SOL     OW31915   4.301   1.802   6.620  0.4862  0.0522  0.4244
 6818SOL    HW131916   4.229   1.805   6.683  0.6632 -0.7986  0.6645
 6818SOL    HW231917   4.373   1.837   6.673 -0.4670 -1.0847  2.4439
 6819SOL     OW31918   0.671   0.790   9.678 -0.6547  0.3585  0.1661
 6819SOL    HW131919   0.592   0.795   9.732  0.9230  0.9803  2.4141
 6819SOL    HW231920   0.687   0.882   9.656 -2.6126  0.8045  0.5908
 6820SOL     OW31921   1.484   4.453   5.594 -0.2538  0.2070 -0.7340
 6820SOL    HW131922   1.512   4.543   5.604  0.1905  0.0532 -0.6022
 6820SOL    HW231923   1.551   4.422   5.533  1.4779  2.5367  0.0126
 6821SOL     OW31924   4.279   2.298   8.563  0.0870 -0.6293 -0.4848
 6821SOL    HW131925   4.193   2.278   8.525 -1.3232  0.9539  1.8509
 6821SOL    HW231926   4.329   2.220   8.537  1.6051  0.3533 -0.4854
 6822SOL     OW31927   0.248   0.594  10.919 -0.3754 -0.0321  0.5195
 6822SOL    HW131928   0.285   0.682  10.916 -0.1146 -0.0930  2.1898
 6822SOL    HW231929   0.313   0.550  10.866  1.4338  1.6175  1.3676
 6823SOL     OW31930   3.922   3.678   3.981 -0.1712 -0.0341 -0.0404
 6823SOL    HW131931   3.840   3.701   4.024 -0.4954 -0.3079 -0.5217
 6823SOL    HW231932   3.921   3.721   3.895 -0.2258  2.0643  0.9915
 6824SOL     OW31933   1.432   2.335  11.847  0.5095  0.3354 -0.1490
 6824SOL    HW131934   1.416   2.404  11.782  0.8708 -0.4938 -1.1250
 6824SOL    HW231935   1.442   2.260  11.788 -2.8248  0.0653 -0.3636
 6825SOL     OW31936   1.168   0.853   2.795  0.1597 -0.1591  0.4896
 6825SOL    HW131937   1.097   0.792   2.773 -0.1876  0.0573  1.0120
 6825SOL    HW231938   1.228   0.784   2.822 -1.5626 -1.0255  2.0982
 6826SOL     OW31939   4.114   4.629   6.270  0.3241 -0.0455  0.3019
 6826SOL    HW131940   4.202   4.666   6.280  0.5378 -0.3642 -0.3800
 6826SOL    HW231941   4.064   4.668   6.341  0.0833  2.5717 -1.2917
 6827SOL     OW31942   3.252   3.781  12.402  0.4974  0.0950 -0.3902
 6827SOL    HW131943   3.159   3.760  12.393  1.0922 -2.4052 -0.7346
 6827SOL    HW231944   3.285   3.718  12.337 -0.3379 -0.8793  0.1328
 6828SOL     OW31945   0.564   0.826   2.056  0.5267  1.1665  0.2050
 6828SOL    HW131946   0.659   0.812   2.056  0.2885 -0.4431  0.3759
 6828SOL    HW231947   0.553   0.888   2.128 -0.9834  1.8203 -0.5829
 6829SOL     OW31948   2.178   3.592   6.847  0.2107  0.7465  0.0173
 6829SOL    HW131949   2.131   3.667   6.811 -0.7461 -0.3825 -1.0963
 6829SOL    HW231950   2.255   3.637   6.881 -0.2029  1.0466  0.5575
 6830SOL     OW31951   2.336   0.631   5.476 -0.0744 -0.3380 -0.7837
 6830SOL    HW131952   2.316   0.717   5.438 -0.0655 -0.8927 -2.0487
 6830SOL    HW231953   2.354   0.566   5.408 -2.4642 -2.6019  0.7577
 6831SOL     OW31954   3.725   2.538  14.695 -0.5496  0.3742  0.4675
 6831SOL    HW131955   3.818   2.552  14.714 -0.3993 -0.7859  0.5589
 6831SOL    HW231956   3.715   2.577  14.608 -2.4670 -0.0783  0.4852
 6832SOL     OW31957   3.423   1.415   5.034 -0.4362  0.4329 -0.4499
 6832SOL    HW131958   3.368   1.430   5.111  0.3570  3.5612 -0.4716
 6832SOL    HW231959   3.385   1.490   4.987 -1.8193  0.8857  1.3866
 6833SOL     OW31960   3.301   0.990   0.822 -0.0841  0.6141  0.3525
 6833SOL    HW131961   3.274   1.078   0.795 -0.1083 -0.0913 -1.8668
 6833SOL    HW231962   3.314   1.007   0.915  0.8055  0.6544  0.2213
 6834SOL     OW31963   2.850   1.387   7.880  0.1200 -0.1794  0.1162
 6834SOL    HW131964   2.793   1.320   7.842 -0.6383  1.6691 -2.0332
 6834SOL    HW231965   2.923   1.396   7.819  0.3087 -1.2449  0.1805
 6835SOL     OW31966   3.422   3.188   7.978 -0.3333  0.3212 -0.2574
 6835SOL    HW131967   3.375   3.270   7.994  1.2633  1.1793  0.0615
 6835SOL    HW231968   3.353   3.123   7.985  1.1118 -1.3053 -1.1982
 6836SOL     OW31969   0.929   3.810   8.948 -0.1034 -0.2457  0.4786
 6836SOL    HW131970   1.004   3.864   8.972  0.8628 -1.2390 -0.3151
 6836SOL    HW231971   0.878   3.813   9.029 -0.4678 -3.3648  0.3791
 6837SOL     OW31972   4.063   2.902   1.752 -0.6104 -0.3923 -0.3125
 6837SOL    HW131973   4.099   2.849   1.681  0.4390 -0.6044  0.3871
 6837SOL    HW231974   4.063   2.833   1.817  0.6768  1.3635  1.5464
 6838SOL     OW31975   1.438   1.259   6.375 -0.2970  0.0551  0.2662
 6838SOL    HW131976   1.500   1.208   6.427 -0.4092 -2.1964 -1.8176
 6838SOL    HW231977   1.470   1.343   6.408 -0.9048  1.0457 -1.6633
 6839SOL     OW31978   4.098   4.038   7.001 -0.0844 -0.1622 -0.0048
 6839SOL    HW131979   4.191   4.058   7.009  0.0347 -0.8319  0.2386
 6839SOL    HW231980   4.100   3.944   6.986  2.1933 -0.3285  1.4173
 6840SOL     OW31981   0.670   2.025   2.396 -0.4236 -0.8937  0.0294
 6840SOL    HW131982   0.759   2.028   2.432 -0.1993  0.2722 -0.6384
 6840SOL    HW231983   0.660   1.930   2.387  0.0483 -0.7910 -1.5593
 6841SOL     OW31984   0.463   3.542  11.313 -0.3554 -0.0900 -0.5346
 6841SOL    HW131985   0.451   3.523  11.219  3.2058 -0.0542 -1.0027
 6841SOL    HW231986   0.402   3.615  11.317 -0.4156 -0.0670 -1.7836
 6842SOL     OW31987   3.944   0.217   1.900 -0.3023  0.3958 -0.4066
 6842SOL    HW131988   4.012   0.266   1.946  1.1091 -2.2696  0.3245
 6842SOL    HW231989   3.907   0.291   1.852 -0.3497  0.5950 -0.0669
 6843SOL     OW31990   0.669   1.882   3.844  0.3504  0.1672 -0.2229
 6843SOL    HW131991   0.591   1.910   3.797  0.3695 -0.5867 -0.6992
 6843SOL    HW231992   0.619   1.889   3.925 -0.0316 -1.1422 -0.3430
 6844SOL     OW31993   2.292   4.457  15.313  0.3506 -0.4165 -0.3715
 6844SOL    HW131994   2.248   4.374  15.296  0.8706 -1.3348  2.7804
 6844SOL    HW231995   2.362   4.457  15.249 -0.4222  0.6446 -1.2194
 6845SOL     OW31996   1.155   2.317   8.523  0.1328 -0.1214 -0.3014
 6845SOL    HW131997   1.062   2.310   8.544  0.2226  1.6662  0.6766
 6845SOL    HW231998   1.173   2.224   8.536  0.4083 -0.1474 -0.8910
 6846SOL     OW31999   2.910   1.041   8.844  0.2864 -1.4678  0.2128
 6846SOL    HW132000   2.993   1.088   8.844  0.5091 -1.8546  1.4769
 6846SOL    HW232001   2.908   1.015   8.936  0.8859 -3.1146 -0.2336
 6847SOL     OW32002   0.843   1.250  12.588  0.4622 -0.2083  0.3559
 6847SOL    HW132003   0.767   1.235  12.644 -0.5636  1.2887 -0.6518
 6847SOL    HW232004   0.813   1.311  12.521  0.5888  1.3662  1.7295
 6848SOL     OW32005   3.804   3.261   4.259  0.0630  0.1825  0.3289
 6848SOL    HW132006   3.840   3.329   4.204  3.8246 -0.7428  1.6856
 6848SOL    HW232007   3.725   3.305   4.291  0.0724  0.9302 -0.6944
 6849SOL     OW32008   3.333   0.031   2.102  0.0499 -0.1005 -0.0979
 6849SOL    HW132009   3.375   0.083   2.033 -2.1654  1.3890 -0.3561
 6849SOL    HW232010   3.352   4.665   2.075  1.2476  0.9278 -2.6820
 6850SOL     OW32011   1.006   1.174   4.916  0.2186 -0.0847  0.1752
 6850SOL    HW132012   1.006   1.114   4.990  0.3494  1.9367  1.8284
 6850SOL    HW232013   0.925   1.224   4.928  1.3276  1.9429 -0.6684
 6851SOL     OW32014   1.372   0.335   2.341 -0.8461  0.0437  0.6648
 6851SOL    HW132015   1.457   0.345   2.300 -1.4909 -0.8640 -0.8937
 6851SOL    HW232016   1.399   0.296   2.424  1.6178 -2.1221 -1.1784
 6852SOL     OW32017   0.096   1.623  13.905  0.5875  0.6650  0.4015
 6852SOL    HW132018   0.048   1.656  13.829  0.3537  2.4668  1.3530
 6852SOL    HW232019   0.179   1.660  13.875  1.7009 -2.5670 -0.6077
 6853SOL     OW32020   1.526   2.304  15.151  0.0077 -0.0124 -0.7996
 6853SOL    HW132021   1.541   2.212  15.174 -0.9195  0.4731  1.8336
 6853SOL    HW232022   1.574   2.303  15.069  0.7937 -0.5217 -0.3353
 6854SOL     OW32023   4.689   0.235   9.358  0.1961 -0.1530  0.0380
 6854SOL    HW132024   4.639   0.182   9.296  2.1289 -0.7227 -1.0085
 6854SOL    HW232025   4.721   0.305   9.303 -1.1801  0.7830  0.4297
 6855SOL     OW32026   4.695   1.427   7.628  0.3879 -0.2664 -0.1423
 6855SOL    HW132027   4.717   1.352   7.683 -1.9581  0.5726  1.9847
 6855SOL    HW232028   0.024   1.410   7.550 -1.4233 -1.7206 -1.0384
 6856SOL     OW32029   3.106   1.344  16.628 -0.4276 -0.0265 -0.4012
 6856SOL    HW132030   3.140   1.265  16.671 -0.2235  0.3605  0.1459
 6856SOL    HW232031   3.136   1.336  16.538  0.7987 -1.6849  0.1532
 6857SOL     OW32032   1.225   2.430  15.928  0.0374  0.2066 -0.1438
 6857SOL    HW132033   1.315   2.433  15.896 -0.1084 -1.0230 -0.6651
 6857SOL    HW232034   1.217   2.526  15.931 -0.3958  0.1017  2.1714
 6858SOL     OW32035   2.439   4.381  16.659 -0.7701  0.3249 -0.1524
 6858SOL    HW132036   2.391   4.464  16.668 -1.1248  0.0629  0.3680
 6858SOL    HW232037   2.530   4.401  16.679 -0.5428 -0.7531 -0.0978
 6859SOL     OW32038   2.185   4.496   3.084  0.3788 -0.4826 -0.3731
 6859SOL    HW132039   2.243   4.571   3.088 -0.9346  0.5487 -0.6543
 6859SOL    HW232040   2.247   4.426   3.107  0.4673 -0.6550 -1.1337
 6860SOL     OW32041   1.788   0.739  13.115  0.6411 -0.5247  0.5778
 6860SOL    HW132042   1.874   0.743  13.157  0.9530  1.2950 -0.2583
 6860SOL    HW232043   1.743   0.797  13.176 -0.3897  0.8192 -1.4728
 6861SOL     OW32044   4.239   0.877   0.946 -0.1937 -0.2550  0.3310
 6861SOL    HW132045   4.280   0.959   0.919 -0.1797  0.2822  2.0088
 6861SOL    HW232046   4.298   0.843   1.013 -1.3489  0.2180  1.6060
 6862SOL     OW32047   1.840   4.085  14.947  0.5915  0.0718 -0.0159
 6862SOL    HW132048   1.817   4.068  14.855  2.5436  0.8701 -0.6517
 6862SOL    HW232049   1.909   4.019  14.948  1.5423  1.0686 -0.6069
 6863SOL     OW32050   0.175   0.552   0.104 -0.2904  0.5812  0.1918
 6863SOL    HW132051   0.155   0.506   0.186 -0.6164  3.1295  1.5693
 6863SOL    HW232052   0.216   0.632   0.138  0.8931 -1.2644  3.1666
 6864SOL     OW32053   3.151   0.352   3.133 -0.3135 -0.4806 -0.4217
 6864SOL    HW132054   3.145   0.326   3.225  2.7689  1.4040  0.2837
 6864SOL    HW232055   3.198   0.434   3.148  0.3980 -0.8800 -0.5059
 6865SOL     OW32056   1.358   4.021   6.513 -0.1419  0.1290 -0.0189
 6865SOL    HW132057   1.283   4.040   6.569  0.7647  2.1427  0.5344
 6865SOL    HW232058   1.426   4.008   6.580 -0.6047  0.8751  0.5963
 6866SOL     OW32059   0.936   2.410   7.554 -0.2459  0.4402 -0.1572
 6866SOL    HW132060   0.841   2.402   7.562 -0.2507  1.1111  0.4586
 6866SOL    HW232061   0.940   2.467   7.476  1.8412 -1.5550 -1.5109
 6867SOL     OW32062   1.225   3.121  16.991  0.1579  0.7198 -0.0508
 6867SOL    HW132063   1.256   3.210  17.006  0.8963  0.4698 -0.0678
 6867SOL    HW232064   1.262   3.106  16.904 -2.5736 -2.3438 -0.6703
 6868SOL     OW32065   0.136   1.060  14.099  0.2245 -0.1117 -0.1517
 6868SOL    HW132066   0.046   1.032  14.113  0.2204  0.9397  1.8065
 6868SOL    HW232067   0.149   1.037  14.007  1.0810 -0.6310  0.0995
 6869SOL     OW32068   1.754   3.777  11.449  1.0598 -0.3528 -0.4918
 6869SOL    HW132069   1.709   3.736  11.376 -3.3792  0.8142  1.6224
 6869SOL    HW232070   1.705   3.859  11.447  0.4595 -0.7532 -1.7073
 6870SOL     OW32071   0.893   0.224   1.172 -0.4541  0.2483 -0.5206
 6870SOL    HW132072   0.855   0.285   1.110 -1.0735  0.1518 -0.2369
 6870SOL    HW232073   0.821   0.161   1.166 -0.7992  0.8114 -2.3135
 6871SOL     OW32074   3.055   2.356   5.595  0.4766 -0.2393 -0.9308
 6871SOL    HW132075   3.020   2.267   5.590 -0.4755  0.0862 -0.0439
 6871SOL    HW232076   3.135   2.345   5.647  1.5381 -0.3058 -2.6071
 6872SOL     OW32077   1.440   2.387  14.719 -0.0258  0.3093  0.0824
 6872SOL    HW132078   1.371   2.334  14.759  0.7692 -1.2286 -0.6032
 6872SOL    HW232079   1.405   2.475  14.707  0.4353  0.6303  1.1266
 6873SOL     OW32080   4.300   2.697   3.540 -0.0308  0.1815 -0.1867
 6873SOL    HW132081   4.355   2.738   3.473  2.0588 -2.9709 -0.4168
 6873SOL    HW232082   4.229   2.662   3.486  0.8629  1.5251 -2.2244
 6874SOL     OW32083   3.428   1.104   5.231 -0.0424 -0.0786  0.4033
 6874SOL    HW132084   3.409   1.187   5.187 -2.0147  0.1655  1.6872
 6874SOL    HW232085   3.338   1.074   5.248 -0.8404  1.1205 -1.7573
 6875SOL     OW32086   3.230   4.512   8.982 -0.1668  0.0474 -0.1704
 6875SOL    HW132087   3.297   4.464   9.033 -1.9168 -0.8171  1.3201
 6875SOL    HW232088   3.210   4.439   8.923  0.1493 -0.3694  0.2320
 6876SOL     OW32089   0.141   3.459   3.741 -0.2457  0.1298 -0.3139
 6876SOL    HW132090   0.151   3.399   3.815 -1.4261  0.6128  0.2493
 6876SOL    HW232091   0.165   3.537   3.791 -0.8648  0.0785  0.0719
 6877SOL     OW32092   0.318   1.556   4.715  0.3479 -0.3817 -0.1741
 6877SOL    HW132093   0.258   1.519   4.650  0.6721 -0.2859 -0.5264
 6877SOL    HW232094   0.251   1.584   4.778 -1.4002 -0.4062 -1.9964
 6878SOL     OW32095   1.528   2.785   2.314  0.1945 -0.2704 -0.2409
 6878SOL    HW132096   1.512   2.829   2.231  0.9598  1.6308  0.6020
 6878SOL    HW232097   1.447   2.810   2.358  0.7608 -1.8239  1.6894
 6879SOL     OW32098   4.587   3.914  10.082  0.0199  0.3620  0.2217
 6879SOL    HW132099   4.500   3.881  10.060 -0.0343  1.4697 -1.1738
 6879SOL    HW232100   4.638   3.845  10.038 -0.8314  0.0317 -0.2443
 6880SOL     OW32101   0.523   0.267   7.491 -0.1399 -1.0078 -0.1812
 6880SOL    HW132102   0.486   0.214   7.562  1.1264 -1.0192  0.4674
 6880SOL    HW232103   0.574   0.325   7.548  2.2316 -2.1595 -1.1290
 6881SOL     OW32104   0.422   4.374  14.652  0.3843 -0.1392  0.0889
 6881SOL    HW132105   0.470   4.322  14.587 -1.1143  1.1710 -2.0659
 6881SOL    HW232106   0.473   4.453  14.637  1.4479 -0.9384 -0.5234
 6882SOL     OW32107   3.275   0.146  10.358 -0.2717  0.5432 -0.3327
 6882SOL    HW132108   3.306   0.214  10.298  2.0693  0.1529  0.4302
 6882SOL    HW232109   3.342   0.080  10.340 -1.9113 -0.7782 -1.5494
 6883SOL     OW32110   0.887   0.433   1.373 -0.4501  0.3523  0.1979
 6883SOL    HW132111   0.897   0.343   1.344 -1.8403  0.6720 -1.2393
 6883SOL    HW232112   0.798   0.461   1.354 -0.0418  1.0854 -0.6773
 6884SOL     OW32113   1.604   3.951   1.802 -0.6386 -0.2651 -0.0940
 6884SOL    HW132114   1.685   3.917   1.841  0.6014  1.6600 -1.0067
 6884SOL    HW232115   1.633   3.973   1.713 -1.9331 -1.3881 -0.7890
 6885SOL     OW32116   2.500   1.125   5.006  0.0198  0.0846 -0.6990
 6885SOL    HW132117   2.492   1.152   4.915 -0.1250  1.7309 -0.2110
 6885SOL    HW232118   2.590   1.143   5.036  0.1030 -1.5005 -0.0025
 6886SOL     OW32119   0.889   4.263   8.433 -0.5011 -0.2694 -0.0702
 6886SOL    HW132120   0.870   4.215   8.513  0.9374  0.0726  0.4823
 6886SOL    HW232121   0.940   4.339   8.461 -0.1701 -0.0708 -1.1881
 6887SOL     OW32122   0.952   0.670  13.086 -0.0816 -0.5571 -0.4718
 6887SOL    HW132123   0.971   0.748  13.137  0.6614 -3.2222  3.3658
 6887SOL    HW232124   0.882   0.708  13.034 -0.3686  0.1601  0.4417
 6888SOL     OW32125   2.318   2.345   8.939  0.1916 -0.2977 -0.1816
 6888SOL    HW132126   2.346   2.257   8.911  0.6294 -0.2971  0.2410
 6888SOL    HW232127   2.388   2.363   9.002 -0.1937  1.2676 -0.2013
 6889SOL     OW32128   4.078   4.253   3.903  0.2857  0.4309 -0.5729
 6889SOL    HW132129   4.082   4.160   3.926  1.0472  0.2009 -1.6398
 6889SOL    HW232130   4.166   4.253   3.866  0.9723  1.5191  1.0622
 6890SOL     OW32131   3.527   4.414   2.971 -0.4309  0.5069  0.1445
 6890SOL    HW132132   3.454   4.395   2.912 -1.6578  1.9179  1.2262
 6890SOL    HW232133   3.479   4.393   3.052 -1.0829 -0.6503 -0.5360
 6891SOL     OW32134   3.463   4.721   3.486 -0.5210 -0.8341  0.1986
 6891SOL    HW132135   3.546   4.675   3.475 -0.5293 -0.5668 -0.9640
 6891SOL    HW232136   3.399   4.693   3.421 -1.3899  0.5949  0.4257
 6892SOL     OW32137   2.597   1.078  16.097  0.8002 -0.0055 -0.4088
 6892SOL    HW132138   2.601   1.162  16.142  0.9058  0.2619 -0.9236
 6892SOL    HW232139   2.528   1.037  16.149 -0.5963 -0.2160 -2.4312
 6893SOL     OW32140   0.492   1.034   4.018 -0.3063 -0.1618 -0.0327
 6893SOL    HW132141   0.415   0.980   4.034 -1.0985  1.1388  0.5370
 6893SOL    HW232142   0.535   1.031   4.104  0.9804 -0.7127 -0.6867
 6894SOL     OW32143   0.916   4.228   6.351  0.5357 -0.9862 -0.5474
 6894SOL    HW132144   0.830   4.269   6.340 -0.6208 -2.8785  1.4350
 6894SOL    HW232145   0.971   4.305   6.362 -1.8783  0.5707  0.5802
 6895SOL     OW32146   0.711   1.840   6.383  0.0177 -0.1380 -0.2014
 6895SOL    HW132147   0.693   1.932   6.405  2.2844  0.1268  0.4794
 6895SOL    HW232148   0.695   1.849   6.289  0.3062  0.6033 -0.1817
 6896SOL     OW32149   0.489   1.122   5.323 -0.0623  0.3911  0.3115
 6896SOL    HW132150   0.466   1.046   5.271 -0.5016  1.1116 -0.5434
 6896SOL    HW232151   0.518   1.079   5.404 -1.5416  0.8706  1.0959
 6897SOL     OW32152   1.453   1.701  10.212 -0.4839 -0.6029 -0.0925
 6897SOL    HW132153   1.520   1.755  10.254  1.8044 -1.4854 -2.5833
 6897SOL    HW232154   1.464   1.618  10.259 -1.9603  0.4195  2.0360
 6898SOL     OW32155   0.547   4.341   4.506 -0.1396 -0.6439  0.0029
 6898SOL    HW132156   0.459   4.314   4.532 -0.8318  1.1114 -0.4840
 6898SOL    HW232157   0.546   4.437   4.512 -1.3838 -0.6622  0.0275
 6899SOL     OW32158   1.680   3.435   7.003 -0.2981 -0.3298 -0.1730
 6899SOL    HW132159   1.750   3.397   7.055 -1.5544  0.0737  1.8276
 6899SOL    HW232160   1.628   3.356   6.987  0.1744 -1.2244  2.7916
 6900SOL     OW32161   3.374   2.300   8.375 -0.0419  0.3222  0.0462
 6900SOL    HW132162   3.456   2.345   8.352 -1.1440  2.2407 -0.0858
 6900SOL    HW232163   3.397   2.221   8.424  2.0342  0.7557 -0.2075
 6901SOL     OW32164   3.765   4.575   8.143 -0.0337 -0.7877  0.0173
 6901SOL    HW132165   3.726   4.573   8.230  0.2250 -2.4124  0.0911
 6901SOL    HW232166   3.836   4.637   8.162 -0.6950  0.0562 -0.2815
 6902SOL     OW32167   0.449   4.273   5.059  0.4245  0.0160 -0.2990
 6902SOL    HW132168   0.401   4.354   5.073 -1.7578 -1.4806  0.8437
 6902SOL    HW232169   0.450   4.238   5.148 -2.9094  1.6040  0.3612
 6903SOL     OW32170   2.302   2.418   5.632  0.3912 -0.3774  0.1546
 6903SOL    HW132171   2.209   2.414   5.657  0.7587  0.3657  1.6023
 6903SOL    HW232172   2.322   2.324   5.634  0.0401 -0.4355  1.1680
 6904SOL     OW32173   0.004   2.484   9.782 -0.2161 -0.1995  0.4226
 6904SOL    HW132174   0.025   2.393   9.803  2.9076  0.1576 -1.2901
 6904SOL    HW232175   4.679   2.520   9.857  0.6007 -0.0382  0.8752
 6905SOL     OW32176   1.499   1.765   9.789 -0.6560  0.9349 -0.3375
 6905SOL    HW132177   1.428   1.710   9.758  1.7330 -3.2619  1.5783
 6905SOL    HW232178   1.539   1.701   9.848  1.7254  0.8021 -2.0682
 6906SOL     OW32179   3.385   3.863   5.389  0.2693  0.0437 -0.0616
 6906SOL    HW132180   3.415   3.908   5.311 -2.1049  0.8195 -0.5218
 6906SOL    HW232181   3.424   3.911   5.463  1.5575  1.9626 -1.9918
 6907SOL     OW32182   2.025   4.313   3.900 -0.0172  0.3028  0.6308
 6907SOL    HW132183   2.009   4.253   3.973  1.9810 -0.6413  0.2947
 6907SOL    HW232184   2.119   4.305   3.886  0.2858  2.0717  1.7020
 6908SOL     OW32185   2.775   2.052   7.458 -0.1072  0.1242  0.4574
 6908SOL    HW132186   2.680   2.046   7.469 -0.1775  1.1556  0.4284
 6908SOL    HW232187   2.769   2.051   7.363 -0.1567 -0.8780  0.4709
 6909SOL     OW32188   1.291   2.713   1.496 -0.0913  0.3548 -1.2278
 6909SOL    HW132189   1.205   2.740   1.530 -1.3141 -1.1893 -3.0890
 6909SOL    HW232190   1.289   2.755   1.410 -1.7063  2.3628 -0.1962
 6910SOL     OW32191   0.655   4.061   9.367 -0.7613 -0.3452  0.3780
 6910SOL    HW132192   0.634   3.974   9.334  0.9142 -0.6519  0.1615
 6910SOL    HW232193   0.743   4.046   9.401 -0.1040  0.5277 -0.9127
 6911SOL     OW32194   1.954   1.871   6.551  0.1298  0.0235 -0.1424
 6911SOL    HW132195   1.863   1.845   6.562  0.0558  1.7029  3.2280
 6911SOL    HW232196   1.987   1.789   6.513 -0.0602  0.1764 -0.6394
 6912SOL     OW32197   4.277   0.290  12.755 -0.0946  0.1347 -0.0414
 6912SOL    HW132198   4.218   0.365  12.765 -2.6028 -1.7929 -0.3052
 6912SOL    HW232199   4.310   0.293  12.845 -1.3467 -0.3876  0.4380
 6913SOL     OW32200   2.068   3.674  14.207  0.3183  0.4413 -0.3876
 6913SOL    HW132201   2.032   3.627  14.131 -1.4352 -2.1985  2.0886
 6913SOL    HW232202   2.071   3.611  14.278 -0.4949  0.3790 -0.4105
 6914SOL     OW32203   0.039   0.051   3.628  0.6089  0.3669 -0.2145
 6914SOL    HW132204   0.087   0.116   3.577  0.2057  0.7177 -0.1460
 6914SOL    HW232205   0.108   4.708   3.634  1.1121  0.7758 -1.3803
 6915SOL     OW32206   3.460   2.243  13.258 -0.2201 -0.1412 -0.1695
 6915SOL    HW132207   3.417   2.280  13.180  1.5301 -1.5719 -1.8111
 6915SOL    HW232208   3.504   2.166  13.223 -1.6913 -0.9069 -0.3507
 6916SOL     OW32209   3.228   2.397   2.343  0.2822  0.3009 -1.0276
 6916SOL    HW132210   3.191   2.360   2.263 -1.5555 -1.9561  0.8777
 6916SOL    HW232211   3.160   2.382   2.408 -0.3051 -2.0386 -2.1604
 6917SOL     OW32212   3.712   2.395   7.574  0.3288 -0.6301  0.6139
 6917SOL    HW132213   3.805   2.390   7.553  0.4240  1.2641  0.5843
 6917SOL    HW232214   3.701   2.343   7.653 -0.9687 -1.1082  0.1117
 6918SOL     OW32215   0.735   3.417   4.280  0.1823  0.2111  1.0557
 6918SOL    HW132216   0.697   3.480   4.219  1.6641  0.8001  0.7628
 6918SOL    HW232217   0.827   3.441   4.279 -0.3783  2.2040 -0.5450
 6919SOL     OW32218   1.776   3.555   3.110 -0.3969 -0.0402  0.1929
 6919SOL    HW132219   1.834   3.493   3.066 -0.2564 -0.0917  0.4512
 6919SOL    HW232220   1.757   3.510   3.193 -0.6008 -1.2227 -0.4848
 6920SOL     OW32221   1.358   1.819  13.708  0.1680  0.4665  0.0281
 6920SOL    HW132222   1.281   1.825  13.652 -0.7032  0.8675  1.2690
 6920SOL    HW232223   1.425   1.820  13.640  1.2548  0.0012  1.0847
 6921SOL     OW32224   3.877   0.436   2.742  0.3818  0.0193 -0.3895
 6921SOL    HW132225   3.809   0.389   2.693 -0.6375  3.4371 -2.2519
 6921SOL    HW232226   3.933   0.363   2.768 -0.6299 -1.3426 -1.9701
 6922SOL     OW32227   2.888   1.241   8.179  0.2536 -0.2846  0.4931
 6922SOL    HW132228   2.975   1.248   8.140 -0.9737  0.9215 -2.0542
 6922SOL    HW232229   2.866   1.163   8.129 -0.0720 -1.6221  2.7512
 6923SOL     OW32230   3.061   3.479   3.486 -0.0379  0.2253  0.6230
 6923SOL    HW132231   3.072   3.545   3.416  0.8476 -0.3381  0.2306
 6923SOL    HW232232   3.043   3.396   3.442  3.5478  1.3069 -2.9352
 6924SOL     OW32233   0.096   0.673   4.727 -0.0166  0.5654 -0.3247
 6924SOL    HW132234   0.032   0.612   4.690 -0.5131  1.5939 -1.1626
 6924SOL    HW232235   0.136   0.619   4.795  1.3223 -0.3671 -1.8483
 6925SOL     OW32236   1.161   2.848   2.696 -0.1130  0.3278  0.0669
 6925SOL    HW132237   1.256   2.850   2.689 -0.2727  0.9302 -1.8203
 6925SOL    HW232238   1.146   2.895   2.614 -2.0290  0.5313  0.5341
 6926SOL     OW32239   2.799   4.101  10.716 -0.4694 -0.4521  0.2978
 6926SOL    HW132240   2.867   4.167  10.732  1.5720 -2.1742 -1.3361
 6926SOL    HW232241   2.720   4.146  10.748 -1.2065 -1.0274 -0.7031
 6927SOL     OW32242   2.282   1.004   4.570 -0.0996  0.2322  0.1004
 6927SOL    HW132243   2.204   0.948   4.570  0.9087 -1.1921  1.6309
 6927SOL    HW232244   2.344   0.950   4.618 -0.2764 -0.1416 -0.0931
 6928SOL     OW32245   2.482   1.722   7.908 -0.1971  0.4621 -0.3078
 6928SOL    HW132246   2.422   1.647   7.903 -1.8336  1.9263 -2.2003
 6928SOL    HW232247   2.568   1.692   7.939  0.0303 -0.8566 -2.2021
 6929SOL     OW32248   4.183   0.822   1.992 -0.9077 -0.4431 -0.3454
 6929SOL    HW132249   4.175   0.734   1.955 -2.0008  0.4311 -2.1387
 6929SOL    HW232250   4.199   0.873   1.912 -1.9460  3.5328  2.0007
 6930SOL     OW32251   0.100   1.051   2.448 -0.0936  0.4693 -0.2006
 6930SOL    HW132252   0.150   1.119   2.403  1.0345  1.9546  3.3762
 6930SOL    HW232253   0.139   0.975   2.404  1.8748  1.2324  0.2208
 6931SOL     OW32254   3.860   2.487   8.924 -0.6903  0.0378  0.2243
 6931SOL    HW132255   3.941   2.480   8.974  0.0210  1.2283 -0.7527
 6931SOL    HW232256   3.793   2.449   8.981 -1.1142  1.5174  0.7201
 6932SOL     OW32257   2.052   1.966   1.185  0.1679  0.0251 -0.1272
 6932SOL    HW132258   1.991   2.012   1.243  0.8998  0.5414  0.2379
 6932SOL    HW232259   1.995   1.914   1.130 -0.0107  0.9367 -0.8130
 6933SOL     OW32260   4.323   0.898   0.373  0.1997  0.4719 -0.3816
 6933SOL    HW132261   4.315   0.849   0.454  0.4327 -0.2977 -0.8198
 6933SOL    HW232262   4.251   0.861   0.321  0.6812 -0.4212 -0.4226
 6934SOL     OW32263   1.532   3.806   2.601 -0.0833  0.1968  0.1275
 6934SOL    HW132264   1.590   3.764   2.665 -1.2461  0.0806  1.0844
 6934SOL    HW232265   1.493   3.731   2.555 -2.2273  0.2745  1.8363
 6935SOL     OW32266   2.144   0.094   5.458 -0.3147  0.1051 -0.1495
 6935SOL    HW132267   2.158   0.177   5.413 -2.8936  0.8558  0.4016
 6935SOL    HW232268   2.203   0.037   5.409 -1.2618 -1.2988  0.3375
 6936SOL     OW32269   3.185   2.212   3.380  0.4096  0.2783 -0.0257
 6936SOL    HW132270   3.210   2.249   3.465 -1.0794  0.5547  0.2961
 6936SOL    HW232271   3.140   2.287   3.341  0.8665  1.0993  1.0092
 6937SOL     OW32272   4.628   1.211   6.357 -0.0554  0.8130 -0.3809
 6937SOL    HW132273   4.539   1.227   6.389  0.0645 -0.6550  0.6741
 6937SOL    HW232274   4.619   1.197   6.263 -0.2603 -2.0896  0.0851
 6938SOL     OW32275   0.288   1.934   2.190  0.1925 -0.1086  0.1825
 6938SOL    HW132276   0.358   1.999   2.196 -0.7301  1.0601 -1.6290
 6938SOL    HW232277   0.285   1.895   2.278 -1.4740  0.6778  0.4749
 6939SOL     OW32278   2.475   2.964   1.991 -0.2101  0.5559  0.4574
 6939SOL    HW132279   2.464   2.945   2.084  0.7308  1.3410  0.7270
 6939SOL    HW232280   2.568   2.941   1.980 -0.0267  1.3556  0.3791
 6940SOL     OW32281   1.012   2.119   4.309  0.5352  0.0371 -0.0744
 6940SOL    HW132282   1.012   2.033   4.351  1.2446 -0.4723 -1.1292
 6940SOL    HW232283   1.075   2.111   4.238 -0.3732 -0.6131 -0.8115
 6941SOL     OW32284   4.068   1.821   6.464 -0.1227  0.2619  0.0254
 6941SOL    HW132285   4.084   1.900   6.412 -2.7533  0.9997  0.3549
 6941SOL    HW232286   4.155   1.803   6.499 -0.5997 -2.4756 -0.1774
 6942SOL     OW32287   2.757   0.436   2.907  0.5116  0.0324 -0.1844
 6942SOL    HW132288   2.767   0.527   2.879  0.2514  0.2188  0.3291
 6942SOL    HW232289   2.851   0.426   2.924  0.6563  0.5148 -0.6739
 6943SOL     OW32290   2.735   0.844  12.631  0.5907 -0.0565  0.1062
 6943SOL    HW132291   2.805   0.816  12.690 -0.8215  0.5813  2.0704
 6943SOL    HW232292   2.767   0.798  12.554  2.5111  1.8924 -0.2663
 6944SOL     OW32293   0.728   2.716   5.029  0.0221 -0.0267 -0.4181
 6944SOL    HW132294   0.780   2.794   5.007  2.3087 -1.7740 -1.1924
 6944SOL    HW232295   0.642   2.755   5.012  0.0147 -0.7261 -1.9763
 6945SOL     OW32296   4.079   4.467   1.183 -0.3848 -0.0196 -0.2956
 6945SOL    HW132297   4.174   4.482   1.189 -0.6392  1.6452 -0.5112
 6945SOL    HW232298   4.051   4.558   1.187  2.0223  0.7209 -0.2081
 6946SOL     OW32299   1.733   1.396   6.200  0.0577  0.0594  0.2448
 6946SOL    HW132300   1.750   1.311   6.241  0.2780  1.2010  2.5394
 6946SOL    HW232301   1.684   1.435   6.272 -0.8044  1.9260 -1.3482
 6947SOL     OW32302   3.871   3.549   4.418 -0.0530  0.1602  0.1711
 6947SOL    HW132303   3.876   3.457   4.390 -0.0863 -0.5065  2.3121
 6947SOL    HW232304   3.961   3.565   4.389  0.6204 -2.2286  0.9377
 6948SOL     OW32305   1.141   4.233   4.709  0.3674 -0.6315  0.2916
 6948SOL    HW132306   1.064   4.278   4.674  1.9879  1.1612 -0.9611
 6948SOL    HW232307   1.091   4.179   4.770 -0.8354 -0.4601 -0.5558
 6949SOL     OW32308   4.361   2.839  11.327 -0.2989  0.0426 -0.6757
 6949SOL    HW132309   4.336   2.749  11.306  0.9383 -0.7558  1.2807
 6949SOL    HW232310   4.280   2.889  11.339 -0.4077 -0.0085 -1.1623
 6950SOL     OW32311   1.176   1.169  14.551 -0.4395 -0.7366  0.1653
 6950SOL    HW132312   1.161   1.190  14.459  0.8426  1.3344  0.4579
 6950SOL    HW232313   1.198   1.076  14.553  1.8404 -0.1802 -0.1194
 6951SOL     OW32314   1.362   4.008   0.181  0.0751  0.2819 -0.8346
 6951SOL    HW132315   1.301   3.937   0.199 -0.9189  1.2740 -0.2091
 6951SOL    HW232316   1.438   3.966   0.141  0.0231  0.5303 -1.1934
 6952SOL     OW32317   3.097   4.248   0.910 -0.8147 -0.4669  0.1770
 6952SOL    HW132318   3.177   4.285   0.872  0.6457 -1.4740  2.2577
 6952SOL    HW232319   3.139   4.194   0.977 -2.5026 -0.1660  1.4795
 6953SOL     OW32320   1.878   3.567   4.829 -0.5650  0.3420  0.3979
 6953SOL    HW132321   1.919   3.542   4.746 -0.2559 -0.5528  0.8227
 6953SOL    HW232322   1.824   3.641   4.801  1.2221  2.1815  1.8184
 6954SOL     OW32323   0.521   3.103   3.977  0.2473 -0.5388  0.2565
 6954SOL    HW132324   0.521   3.008   3.962  1.5382 -0.4714 -0.1839
 6954SOL    HW232325   0.613   3.123   3.959  0.5291 -0.7323  1.4862
 6955SOL     OW32326   1.741   1.346  10.559 -0.0841 -0.2316 -0.0849
 6955SOL    HW132327   1.661   1.298  10.537 -0.4154 -1.1353  3.1048
 6955SOL    HW232328   1.714   1.382  10.643 -1.8348 -2.3318  0.2807
 6956SOL     OW32329   3.438   2.448   4.689  0.5833 -0.0505 -0.0140
 6956SOL    HW132330   3.365   2.437   4.750  1.8323 -1.3203  1.2526
 6956SOL    HW232331   3.411   2.531   4.649  0.0960 -1.0662 -1.7839
 6957SOL     OW32332   0.540   2.966   6.365 -0.1609 -0.0718 -0.0194
 6957SOL    HW132333   0.510   2.994   6.279 -0.0409 -1.1555 -0.4176
 6957SOL    HW232334   0.578   3.047   6.398 -0.2811  0.3386 -0.9104
 6958SOL     OW32335   2.395   0.342   4.761 -0.6579  0.6858  0.0212
 6958SOL    HW132336   2.396   0.323   4.668  1.5804  0.3420  0.1018
 6958SOL    HW232337   2.460   0.282   4.797  1.4923  1.7577 -2.0488
 6959SOL     OW32338   0.858   3.026   0.118 -0.1080  0.3697 -0.2541
 6959SOL    HW132339   0.884   3.041   0.027  0.6394  1.5669  0.1599
 6959SOL    HW232340   0.772   3.066   0.120  0.7196  2.3104 -3.1807
 6960SOL     OW32341   1.625   2.504   4.603  0.1650 -0.2405  0.7655
 6960SOL    HW132342   1.597   2.583   4.558 -3.9885 -0.9887  2.0219
 6960SOL    HW232343   1.712   2.525   4.638  1.0391 -2.9771  0.2644
 6961SOL     OW32344   3.492   1.279  15.622  0.1235 -0.6098 -0.4515
 6961SOL    HW132345   3.457   1.330  15.695 -1.0453 -1.4241 -0.4310
 6961SOL    HW232346   3.515   1.345  15.557 -3.0831  1.6572  0.7211
 6962SOL     OW32347   1.486   3.961  10.224  0.0582  0.1712  0.1124
 6962SOL    HW132348   1.480   4.035  10.285  0.5664  1.0976 -0.9493
 6962SOL    HW232349   1.447   3.888  10.271  1.0239 -0.3742  0.0619
 6963SOL     OW32350   3.778   2.913  17.607  0.6561 -0.4336 -0.3072
 6963SOL    HW132351   3.760   2.937   0.003 -0.0229 -0.0111 -0.5466
 6963SOL    HW232352   3.794   2.999  17.567  1.8988 -0.5755 -0.1096
 6964SOL     OW32353   3.923   3.023   2.883  0.0145 -0.5040  0.5926
 6964SOL    HW132354   3.877   3.015   2.799  1.5129 -2.4326 -0.0405
 6964SOL    HW232355   3.931   2.932   2.912  1.9387 -0.3214  0.6389
 6965SOL     OW32356   1.048   0.413  14.687  0.0320  0.0992  0.6629
 6965SOL    HW132357   0.955   0.422  14.665  0.4782 -1.4913 -1.8981
 6965SOL    HW232358   1.048   0.318  14.700 -1.5517 -0.0818 -0.6396
 6966SOL     OW32359   3.333   3.903   2.528  0.1864  0.1001  0.1939
 6966SOL    HW132360   3.287   3.962   2.587 -0.0504 -2.0788  2.1971
 6966SOL    HW232361   3.427   3.914   2.542  0.4297 -2.2269  0.3810
 6967SOL     OW32362   1.913   1.063   0.270 -0.3059  1.2765 -0.0230
 6967SOL    HW132363   1.979   1.087   0.336  1.4535  2.2341 -2.1551
 6967SOL    HW232364   1.957   1.008   0.205 -1.1866 -0.5990  0.9805
 6968SOL     OW32365   3.816   3.281   3.251 -0.4983  0.3089 -0.3393
 6968SOL    HW132366   3.769   3.223   3.192 -1.2904 -0.5492  1.1320
 6968SOL    HW232367   3.786   3.361   3.207 -0.1874  0.9423  0.5925
 6969SOL     OW32368   1.838   0.893   2.824 -0.0675  0.4093 -0.1923
 6969SOL    HW132369   1.770   0.955   2.798 -0.9987 -0.9599 -1.0786
 6969SOL    HW232370   1.874   0.934   2.902 -0.1945  2.1824 -1.0817
 6970SOL     OW32371   4.537   1.781   4.475 -0.4841 -0.0603  0.1289
 6970SOL    HW132372   4.606   1.766   4.411 -0.9094  0.2162 -0.3986
 6970SOL    HW232373   4.463   1.740   4.431 -0.7938  0.7403 -0.0894
 6971SOL     OW32374   1.020   0.364  10.094  0.6861  0.1673 -0.8441
 6971SOL    HW132375   0.951   0.343  10.031 -0.3221  2.1358 -0.4196
 6971SOL    HW232376   0.997   0.457  10.099 -1.3746 -0.3956  0.3477
 6972SOL     OW32377   0.938   4.383   3.458  0.0132 -0.0521  0.4958
 6972SOL    HW132378   0.937   4.368   3.364 -3.5413  0.3705  0.4474
 6972SOL    HW232379   1.003   4.452   3.469 -0.2754 -0.0503  2.2503
 6973SOL     OW32380   1.935   0.926   4.725  0.1861 -0.0500 -0.7908
 6973SOL    HW132381   1.900   1.013   4.708 -3.2978 -1.9599 -3.2828
 6973SOL    HW232382   1.973   0.899   4.642  0.1169 -0.5198 -0.6693
 6974SOL     OW32383   0.599   0.969  10.698  0.3032 -0.3008  0.3953
 6974SOL    HW132384   0.602   1.007  10.786  0.2850  2.8048 -0.9362
 6974SOL    HW232385   0.616   0.879  10.725 -1.6448 -0.7607  0.0470
 6975SOL     OW32386   1.966   4.329  11.363  0.3259  0.4274  0.0036
 6975SOL    HW132387   1.892   4.273  11.385 -0.0218  1.9716  2.8492
 6975SOL    HW232388   2.020   4.323  11.441  0.4245 -1.9805 -0.2694
 6976SOL     OW32389   2.158   4.210  15.593  0.1164  0.1605  0.4631
 6976SOL    HW132390   2.171   4.290  15.645  0.3095  1.3430 -1.4109
 6976SOL    HW232391   2.063   4.204  15.586 -0.2358  1.3073  4.1893
 6977SOL     OW32392   3.914   0.897   8.855  0.3444 -0.0312  0.1600
 6977SOL    HW132393   3.999   0.920   8.817 -0.9688  0.0197 -2.7235
 6977SOL    HW232394   3.857   0.931   8.786 -0.1480 -0.0933  0.5399
 6978SOL     OW32395   2.919   1.544  14.780  0.0588  0.0014  0.4460
 6978SOL    HW132396   3.014   1.531  14.776 -0.0921 -0.3616 -1.9958
 6978SOL    HW232397   2.878   1.473  14.731  0.0555 -0.4772  1.1303
 6979SOL     OW32398   0.210   0.755   5.717 -0.3635  0.2669 -0.0337
 6979SOL    HW132399   0.224   0.829   5.776  1.0434  0.7696 -0.9952
 6979SOL    HW232400   0.130   0.711   5.744  0.2971 -0.0421  1.4223
 6980SOL     OW32401   0.684   0.820  12.367  0.0726 -0.0843 -1.2677
 6980SOL    HW132402   0.625   0.824  12.442  1.5481 -0.0256 -0.1058
 6980SOL    HW232403   0.758   0.870  12.401  0.2319 -1.6201  0.6225
 6981SOL     OW32404   3.894   2.571   6.184  0.0681  0.8532  0.0221
 6981SOL    HW132405   3.984   2.539   6.174  0.3855  1.5929  0.4259
 6981SOL    HW232406   3.894   2.654   6.135  1.0618 -0.6284 -2.4622
 6982SOL     OW32407   3.689   3.440  13.574 -0.9162  0.0596  0.0906
 6982SOL    HW132408   3.675   3.346  13.581 -0.0219 -0.1267 -0.5359
 6982SOL    HW232409   3.764   3.445  13.634  0.2023 -1.7440 -1.1593
 6983SOL     OW32410   0.549   1.537   4.866 -0.3462 -0.0390  0.0429
 6983SOL    HW132411   0.560   1.631   4.880 -1.0593  0.1857 -0.9161
 6983SOL    HW232412   0.461   1.519   4.833  0.2475  1.1190 -2.1700
 6984SOL     OW32413   1.176   1.608  15.513 -0.2784  0.5340  0.0318
 6984SOL    HW132414   1.219   1.691  15.493 -0.5073  0.4240 -0.9508
 6984SOL    HW232415   1.137   1.586  15.428  0.0832 -1.4162  0.3685
 6985SOL     OW32416   1.062   0.566   2.297  0.0827  0.2355  0.3475
 6985SOL    HW132417   1.078   0.488   2.243 -2.0368  0.1660 -0.1845
 6985SOL    HW232418   0.977   0.590   2.261  0.9876 -1.3780 -2.8308
 6986SOL     OW32419   3.098   2.688   3.420 -0.3388 -0.0368  0.4843
 6986SOL    HW132420   3.034   2.752   3.388  0.4453 -0.7429 -2.5049
 6986SOL    HW232421   3.111   2.714   3.511  3.8201  2.1052 -0.6867
 6987SOL     OW32422   3.488   4.685  10.313 -0.4836 -0.0228 -0.2749
 6987SOL    HW132423   3.526   4.636  10.240 -1.4498 -3.0945  1.2789
 6987SOL    HW232424   3.549   4.665  10.385 -0.5968 -1.8945 -0.6854
 6988SOL     OW32425   1.891   3.822   4.661  0.0627 -0.0791 -0.1358
 6988SOL    HW132426   1.967   3.808   4.604 -1.4770 -0.1858 -2.1651
 6988SOL    HW232427   1.898   3.917   4.666  2.2549 -0.1913 -1.0152
 6989SOL     OW32428   0.532   1.041  14.696  0.1386  0.1040  0.1919
 6989SOL    HW132429   0.458   1.100  14.713 -0.1586 -0.8901  2.4064
 6989SOL    HW232430   0.608   1.092  14.724  0.0404  1.4915 -2.0789
 6990SOL     OW32431   0.383   3.573   4.024 -0.3339 -0.6200  0.1560
 6990SOL    HW132432   0.379   3.615   4.110  0.3210  1.2783 -0.7375
 6990SOL    HW232433   0.478   3.563   4.020 -0.0883  1.4236  0.7579
 6991SOL     OW32434   0.046   0.061   5.092  0.3845 -0.4127 -0.2900
 6991SOL    HW132435   4.722   0.031   5.169 -1.4102  2.7234 -0.2065
 6991SOL    HW232436   0.061   4.699   5.049 -3.9621 -1.6514  0.6590
 6992SOL     OW32437   0.965   4.570   2.425 -0.2562 -0.2574 -0.0878
 6992SOL    HW132438   0.908   4.645   2.443  0.1498  0.0032  0.0952
 6992SOL    HW232439   0.906   4.506   2.385  0.6181 -0.7108 -0.6541
 6993SOL     OW32440   4.142   4.084   5.512  0.1141  0.0957 -0.3747
 6993SOL    HW132441   4.130   4.162   5.457  2.8704  1.4327  0.8994
 6993SOL    HW232442   4.237   4.089   5.525 -0.1035 -2.1253  1.8955
 6994SOL     OW32443   3.628   2.009   1.914  0.3064  0.2863 -0.0891
 6994SOL    HW132444   3.687   2.000   1.839  2.8393  2.1637  1.7017
 6994SOL    HW232445   3.678   1.971   1.986  0.0181  1.2173  0.6080
 6995SOL     OW32446   0.918   1.918   8.493  0.9054 -0.0184 -0.1070
 6995SOL    HW132447   0.991   1.856   8.486  0.1279 -1.0893  1.0765
 6995SOL    HW232448   0.890   1.917   8.402  2.2290 -1.7818 -0.5009
 6996SOL     OW32449   2.766   1.850   6.093 -0.4946 -0.1262  0.1420
 6996SOL    HW132450   2.729   1.827   6.178  1.4140 -0.5070  0.8647
 6996SOL    HW232451   2.752   1.944   6.091 -0.3028 -0.0912  0.5708
 6997SOL     OW32452   4.433   3.847  14.180 -0.0442 -0.3568  0.4859
 6997SOL    HW132453   4.476   3.771  14.140  0.1282 -0.1924  0.3564
 6997SOL    HW232454   4.500   3.916  14.188 -2.2995  1.4286  3.9447
 6998SOL     OW32455   1.614   3.623  11.251  0.0001  0.5239  0.1645
 6998SOL    HW132456   1.573   3.664  11.175 -2.5488 -0.6253  0.9308
 6998SOL    HW232457   1.548   3.619  11.320  0.6586  0.4799  0.7894
 6999SOL     OW32458   1.799   2.096   7.453  0.0777  0.4025 -0.1875
 6999SOL    HW132459   1.871   2.119   7.512 -0.9830  0.0451  1.2603
 6999SOL    HW232460   1.763   2.182   7.432 -0.1358  0.0591 -1.2101
 7000SOL     OW32461   2.456   4.258  16.153 -0.3099 -0.3280 -0.3936
 7000SOL    HW132462   2.455   4.196  16.226 -3.1810  1.7093  1.3291
 7000SOL    HW232463   2.397   4.222  16.087  1.1206 -2.1376 -0.6449
 7001SOL     OW32464   2.134   1.766  11.800 -0.4020 -0.1789  0.1867
 7001SOL    HW132465   2.066   1.834  11.804 -0.1703  0.1314 -1.1636
 7001SOL    HW232466   2.124   1.723  11.885  3.6293  1.2098  1.3557
 7002SOL     OW32467   0.626   4.306   2.590  0.3293  0.1811 -0.8851
 7002SOL    HW132468   0.679   4.236   2.552  0.1072 -0.8184  0.6260
 7002SOL    HW232469   0.683   4.345   2.656 -3.6896  0.1738  2.6163
 7003SOL     OW32470   2.653   0.590   1.768  0.2905 -0.5542 -0.1987
 7003SOL    HW132471   2.679   0.632   1.686 -0.6718  0.8374  0.1999
 7003SOL    HW232472   2.716   0.632   1.828  0.0534 -0.9080  0.2994
 7004SOL     OW32473   2.780   2.321  11.665 -0.4929  0.4440  0.2079
 7004SOL    HW132474   2.735   2.390  11.615 -2.9586 -0.4489  1.1993
 7004SOL    HW232475   2.755   2.338  11.756  2.2375  2.3686  0.5870
 7005SOL     OW32476   1.416   1.149   3.700 -0.2151  0.0252  0.5429
 7005SOL    HW132477   1.338   1.146   3.645  2.2172 -1.2648 -2.8380
 7005SOL    HW232478   1.407   1.071   3.755  1.6452  0.0327  0.8831
 7006SOL     OW32479   3.111   0.901  14.693 -0.4515 -0.1156  0.0996
 7006SOL    HW132480   3.145   0.823  14.651 -0.8154 -0.7546  0.9910
 7006SOL    HW232481   3.058   0.938  14.622 -1.9995 -2.6526 -0.0761
 7007SOL     OW32482   4.321   3.825   9.496 -0.1738  0.1578  0.0562
 7007SOL    HW132483   4.301   3.895   9.433  2.9556  2.2259  1.3895
 7007SOL    HW232484   4.255   3.836   9.564 -1.2648  1.2998 -1.1809
 7008SOL     OW32485   1.265   2.886   9.699 -0.2453  0.1335  0.3242
 7008SOL    HW132486   1.190   2.881   9.759 -2.3196 -2.7263 -2.4742
 7008SOL    HW232487   1.219   2.913   9.619 -0.8952  2.2736  1.4287
 7009SOL     OW32488   0.949   3.550   3.718 -0.7765 -0.1716 -0.8750
 7009SOL    HW132489   0.872   3.513   3.762 -0.2661 -0.6134 -0.3591
 7009SOL    HW232490   0.950   3.499   3.637 -1.6452 -0.5898 -0.6229
 7010SOL     OW32491   2.471   4.341   2.379  0.3694 -0.3257  0.7508
 7010SOL    HW132492   2.426   4.319   2.460 -0.3977 -2.8221 -0.3190
 7010SOL    HW232493   2.418   4.412   2.343  0.2624 -1.7193 -1.8717
 7011SOL     OW32494   2.794   1.155  10.972  0.2991  0.0307 -0.7227
 7011SOL    HW132495   2.711   1.202  10.970  1.2282  1.7591  1.3297
 7011SOL    HW232496   2.763   1.069  11.001  1.8133 -0.4978 -0.6577
 7012SOL     OW32497   3.915   0.262  10.038 -0.5125 -0.0847 -0.2105
 7012SOL    HW132498   3.865   0.331  10.081  2.7746  2.1741  0.0264
 7012SOL    HW232499   3.882   0.255   9.948  1.3795 -0.4262 -0.8842
 7013SOL     OW32500   3.930   2.314   4.854 -0.1933  0.1298  0.4274
 7013SOL    HW132501   3.854   2.359   4.817 -0.2104 -0.0903  0.1936
 7013SOL    HW232502   3.907   2.311   4.947 -1.3070  0.6397  0.1695
 7014SOL     OW32503   4.533   1.069   9.670  0.1475  0.3201 -0.3775
 7014SOL    HW132504   4.466   1.135   9.650  1.7356  3.1359  3.6589
 7014SOL    HW232505   4.490   1.019   9.739 -0.9075  0.8726 -0.6266
 7015SOL     OW32506   4.663   4.491   3.322 -0.1770 -0.0483  0.8958
 7015SOL    HW132507   4.641   4.435   3.396 -1.9550  3.0242  2.7068
 7015SOL    HW232508   0.012   4.447   3.277 -0.0163  2.7944 -1.6190
 7016SOL     OW32509   4.446   1.262   2.313 -0.6560 -0.4010 -0.0997
 7016SOL    HW132510   4.481   1.173   2.319  0.7072  0.2287  1.2980
 7016SOL    HW232511   4.354   1.247   2.295 -0.8133  2.5157 -1.5685
 7017SOL     OW32512   4.517   2.430   4.240  0.1498  0.3451 -0.8954
 7017SOL    HW132513   4.612   2.444   4.249  0.3622 -2.1376  0.6934
 7017SOL    HW232514   4.505   2.454   4.148 -0.8192  0.4162 -0.7516
 7018SOL     OW32515   3.051   1.901   9.770 -0.0114  0.1303  0.1027
 7018SOL    HW132516   2.991   1.877   9.841  0.3489  3.1965  1.4552
 7018SOL    HW232517   3.126   1.937   9.817  1.3454 -2.1325 -0.3835
 7019SOL     OW32518   2.805   1.470   6.373  0.3991 -0.6077  0.1773
 7019SOL    HW132519   2.854   1.530   6.316  0.3843 -0.5518  0.2233
 7019SOL    HW232520   2.860   1.392   6.370 -0.6138 -1.3950  2.0137
 7020SOL     OW32521   0.604   0.720   6.812  0.3383  0.2791 -0.1106
 7020SOL    HW132522   0.630   0.656   6.745  0.0495 -0.1027  0.1502
 7020SOL    HW232523   0.644   0.799   6.774  1.4054  0.2682  0.9962
 7021SOL     OW32524   2.859   2.348  13.876  0.3065  0.2964  0.2414
 7021SOL    HW132525   2.927   2.294  13.835  1.2372  0.6945  1.2492
 7021SOL    HW232526   2.867   2.320  13.967 -2.4958 -2.1992 -0.2763
 7022SOL     OW32527   2.679   2.657   7.278 -0.1685  0.8118  0.1659
 7022SOL    HW132528   2.675   2.682   7.370 -0.9511  2.9650 -0.4557
 7022SOL    HW232529   2.758   2.603   7.288  0.8439  1.8466 -2.2014
 7023SOL     OW32530   4.064   0.266  16.535  0.3455 -0.8497 -0.2992
 7023SOL    HW132531   3.992   0.267  16.598 -0.1962 -0.7585 -0.9099
 7023SOL    HW232532   4.059   0.172  16.518  1.0044 -0.7318 -1.1603
 7024SOL     OW32533   2.391   0.507  17.046 -0.2582  0.4123  0.5017
 7024SOL    HW132534   2.296   0.503  17.033 -0.2587  1.3899  0.2484
 7024SOL    HW232535   2.387   0.506  17.141  2.4738  0.0882  0.6229
 7025SOL     OW32536   4.273   2.479   3.741 -0.3890 -0.4332  0.2613
 7025SOL    HW132537   4.195   2.524   3.775 -0.1897  2.1576 -2.7434
 7025SOL    HW232538   4.313   2.544   3.684  0.5029  1.4846  3.1066
 7026SOL     OW32539   3.593   2.788   6.804 -0.3729  0.4683  0.4704
 7026SOL    HW132540   3.610   2.827   6.718 -2.8953  0.0881 -0.2044
 7026SOL    HW232541   3.649   2.832   6.868  0.9292 -2.0829  1.1227
 7027SOL     OW32542   2.674   0.476  16.379  0.1886  0.5641  0.1365
 7027SOL    HW132543   2.754   0.519  16.410 -0.1311  0.8567  0.5674
 7027SOL    HW232544   2.618   0.499  16.454 -1.2074 -1.2077 -0.3669
 7028SOL     OW32545   0.054   4.210   2.074 -0.5455 -0.0519 -0.6576
 7028SOL    HW132546   4.695   4.176   2.039 -0.7804 -2.0050  1.8161
 7028SOL    HW232547   0.022   4.285   2.124  0.6975  0.4744 -0.6528
 7029SOL     OW32548   3.694   3.008  12.151 -0.0180  0.2003  0.3956
 7029SOL    HW132549   3.784   3.022  12.123 -0.7752  1.5379 -1.3565
 7029SOL    HW232550   3.671   2.945  12.082 -0.8775 -0.6989  1.5057
 7030SOL     OW32551   0.567   1.400  16.741 -0.1872 -0.3327  0.2683
 7030SOL    HW132552   0.656   1.410  16.706 -0.3539 -0.2350 -0.1327
 7030SOL    HW232553   0.524   1.445  16.669  2.1776 -1.3702 -1.8171
 7031SOL     OW32554   3.311   2.519   4.259 -0.4954 -0.0525  0.0823
 7031SOL    HW132555   3.233   2.547   4.212 -0.5758 -0.1425  0.1618
 7031SOL    HW232556   3.281   2.471   4.336 -2.6711  0.8464 -0.2127
 7032SOL     OW32557   2.557   3.762  15.473 -0.1925  0.8772 -0.2193
 7032SOL    HW132558   2.524   3.847  15.502 -0.3144  0.9491 -0.5719
 7032SOL    HW232559   2.574   3.708  15.550 -0.2384 -1.1807 -1.6492
 7033SOL     OW32560   1.424   2.676   3.529  0.1659 -0.5649 -0.4891
 7033SOL    HW132561   1.502   2.689   3.583 -0.7872  0.6404  0.5966
 7033SOL    HW232562   1.413   2.762   3.489 -3.1981 -0.4603  0.6769
 7034SOL     OW32563   2.613   1.922   2.498  0.0103  0.1447 -0.4641
 7034SOL    HW132564   2.672   1.916   2.423  1.5493  1.7900  0.5904
 7034SOL    HW232565   2.554   1.987   2.460  0.6032  0.3909 -0.9561
 7035SOL     OW32566   0.344   1.899  16.166 -0.5927  0.3510  0.3645
 7035SOL    HW132567   0.373   1.832  16.104  0.9713  0.4800  0.9443
 7035SOL    HW232568   0.251   1.893  16.144 -0.2302 -2.3898 -0.3888
 7036SOL     OW32569   1.431   2.461   6.113 -0.5076  0.6408 -0.8169
 7036SOL    HW132570   1.430   2.457   6.017  4.0367  0.3581 -0.8473
 7036SOL    HW232571   1.509   2.510   6.139 -0.3535 -0.5788  0.9561
 7037SOL     OW32572   1.934   4.591   5.101 -0.0714  0.2817  0.1717
 7037SOL    HW132573   1.849   4.549   5.111  0.0876  0.0450  0.5149
 7037SOL    HW232574   1.989   4.522   5.139  0.2716  0.2239 -0.4318
 7038SOL     OW32575   2.527   1.438   3.229  0.5526  0.3663 -0.4689
 7038SOL    HW132576   2.448   1.394   3.261  0.5195  0.7265 -0.0708
 7038SOL    HW232577   2.491   1.525   3.212  1.7553  1.0976  0.7999
 7039SOL     OW32578   1.989   1.313  14.572 -0.1626  0.2995  0.1028
 7039SOL    HW132579   1.982   1.232  14.521  4.3166 -0.7047  1.0501
 7039SOL    HW232580   1.897   1.322  14.596  0.2551  2.2334  1.0015
 7040SOL     OW32581   4.148   0.057  12.695  0.0033 -0.3824  0.6712
 7040SOL    HW132582   4.113   0.095  12.776  3.1039  1.8092  0.9592
 7040SOL    HW232583   4.191   0.141  12.682 -0.9713  0.2105  1.2708
 7041SOL     OW32584   0.636   2.163   7.380  0.6490 -0.5898 -0.9394
 7041SOL    HW132585   0.688   2.086   7.405  0.9366  0.2291  1.0078
 7041SOL    HW232586   0.548   2.128   7.366 -0.8128  2.5107  0.6640
 7042SOL     OW32587   2.880   2.777   4.026  0.9987  0.6854  0.2291
 7042SOL    HW132588   2.786   2.761   4.021  1.3247 -1.6219  1.2311
 7042SOL    HW232589   2.896   2.845   3.961  0.0839  0.1743 -0.5347
 7043SOL     OW32590   0.393   2.807   3.430 -0.5373 -0.1914  0.2811
 7043SOL    HW132591   0.359   2.808   3.341 -2.1661 -1.1744  0.8969
 7043SOL    HW232592   0.328   2.871   3.462 -0.0632  0.2935  0.2794
 7044SOL     OW32593   3.496   3.678   2.615  0.0295 -0.1637  0.3237
 7044SOL    HW132594   3.557   3.742   2.579 -0.8042  1.2247  1.4039
 7044SOL    HW232595   3.424   3.692   2.554 -0.0968  2.0346  0.9918
 7045SOL     OW32596   1.346   0.234  15.500  0.3005 -0.3119  0.2670
 7045SOL    HW132597   1.296   0.272  15.427  1.0723 -0.9629 -0.5842
 7045SOL    HW232598   1.404   0.309  15.513 -2.0701  1.4708  0.5990
 7046SOL     OW32599   4.261   0.573   3.837 -0.1571 -0.2257 -0.2676
 7046SOL    HW132600   4.167   0.565   3.853  0.4159 -1.1179  2.6999
 7046SOL    HW232601   4.295   0.492   3.874  1.2338  0.0159 -1.0018
 7047SOL     OW32602   3.268   1.516   7.483 -0.1312  0.2610 -0.1525
 7047SOL    HW132603   3.286   1.571   7.558  3.1078 -0.8097 -0.1082
 7047SOL    HW232604   3.196   1.464   7.518  0.6866 -1.8555 -1.5541
 7048SOL     OW32605   1.926   1.598  12.321  0.0925  0.1047  0.0928
 7048SOL    HW132606   1.959   1.511  12.345  1.8166  1.5669  3.0397
 7048SOL    HW232607   1.981   1.655  12.374 -0.4998 -1.4617  2.3791
 7049SOL     OW32608   3.232   4.152   6.866  0.0318 -0.5841  0.6674
 7049SOL    HW132609   3.214   4.139   6.959  2.7866 -1.6717  1.0311
 7049SOL    HW232610   3.226   4.248   6.866  1.5971 -0.4992  1.9240
 7050SOL     OW32611   0.137   2.106   4.212 -0.3138  0.0184 -0.4542
 7050SOL    HW132612   0.065   2.167   4.196  0.7420  1.2922 -0.3680
 7050SOL    HW232613   0.210   2.167   4.206 -0.3874  0.2859  1.4255
 7051SOL     OW32614   1.102   1.971   6.928 -0.5806  0.0320 -0.1849
 7051SOL    HW132615   1.038   2.042   6.926  2.0232  2.2494 -3.7643
 7051SOL    HW232616   1.052   1.907   6.979 -0.5961  0.2480  0.0711
 7052SOL     OW32617   3.802   4.413   9.523  0.6841  1.0485 -0.2617
 7052SOL    HW132618   3.766   4.351   9.459  3.0157  0.0992 -0.6699
 7052SOL    HW232619   3.738   4.483   9.525 -0.4949  0.0169 -1.8150
 7053SOL     OW32620   0.197   1.670   6.895  0.0923 -0.2465 -0.0716
 7053SOL    HW132621   0.278   1.672   6.844  0.2313 -1.6374  0.0914
 7053SOL    HW232622   0.129   1.638   6.836 -0.3045  0.4617 -0.0050
 7054SOL     OW32623   3.538   2.653   4.178 -0.3298  0.2398  0.0313
 7054SOL    HW132624   3.525   2.747   4.162  0.8477  0.5219  0.7730
 7054SOL    HW232625   3.450   2.620   4.197  1.0271 -3.2316  0.1486
 7055SOL     OW32626   3.273   4.642   3.290  0.1827 -0.3028 -0.0603
 7055SOL    HW132627   3.185   4.605   3.283  0.2410 -0.4752  0.1259
 7055SOL    HW232628   3.270   4.701   3.215 -0.3868 -2.4908 -1.7429
 7056SOL     OW32629   2.185   0.275   3.930 -0.3922 -0.1746 -0.7895
 7056SOL    HW132630   2.181   0.187   3.894 -1.2842 -1.4481  2.3705
 7056SOL    HW232631   2.169   0.248   4.021 -0.6653 -1.6721 -1.2905
 7057SOL     OW32632   3.463   0.733  14.051  0.2453 -0.6736  0.0589
 7057SOL    HW132633   3.498   0.816  14.083 -1.0586  0.0169 -0.3129
 7057SOL    HW232634   3.436   0.762  13.964 -0.6298  0.0747  0.5809
 7058SOL     OW32635   0.256   0.959   8.217 -0.5604 -0.2453 -0.3003
 7058SOL    HW132636   0.170   0.999   8.225 -0.1409  0.8075 -1.0492
 7058SOL    HW232637   0.260   0.894   8.287 -3.4107  0.0897  0.1822
 7059SOL     OW32638   3.897   1.393   2.260  0.6020 -0.5573  0.0144
 7059SOL    HW132639   3.986   1.381   2.229  1.0813  0.9738  0.7789
 7059SOL    HW232640   3.867   1.447   2.187 -1.9777 -0.0609  1.4276
 7060SOL     OW32641   1.186   1.754   3.337 -0.0877 -0.0344  0.3192
 7060SOL    HW132642   1.214   1.801   3.415  0.7176  1.2129 -0.7342
 7060SOL    HW232643   1.272   1.722   3.310 -0.1088 -0.5476  0.8451
 7061SOL     OW32644   4.401   2.293  10.434 -0.1224  0.6699 -0.6705
 7061SOL    HW132645   4.451   2.363  10.391  1.2981  0.2609  0.2874
 7061SOL    HW232646   4.439   2.305  10.521  0.3721  0.0388 -0.7971
 7062SOL     OW32647   1.901   2.288  14.986  0.1967  0.0471  0.0529
 7062SOL    HW132648   1.919   2.202  15.023 -0.2365 -0.6971 -1.5236
 7062SOL    HW232649   1.816   2.282  14.944 -0.0541 -1.9910  0.8843
 7063SOL     OW32650   3.081   4.556   6.357 -0.1081 -0.0489 -0.1298
 7063SOL    HW132651   3.085   4.462   6.337  1.3188 -0.3285  1.4818
 7063SOL    HW232652   3.035   4.554   6.441 -1.1909  1.3160 -0.6894
 7064SOL     OW32653   2.164   3.195   8.623 -0.2954 -0.1084 -0.2924
 7064SOL    HW132654   2.165   3.101   8.639  0.5023  0.0280  0.4398
 7064SOL    HW232655   2.196   3.191   8.533 -0.9159 -0.5723 -0.4909
 7065SOL     OW32656   0.709   0.071   4.653  0.1265  0.3923 -0.2392
 7065SOL    HW132657   0.782   0.035   4.703 -1.2177  0.0810  1.5114
 7065SOL    HW232658   0.708   0.162   4.683  2.1176 -0.1225  1.3578
 7066SOL     OW32659   4.646   1.118  15.110 -0.4461 -0.0029 -0.6853
 7066SOL    HW132660   4.578   1.058  15.078 -0.9482 -0.0135  0.4034
 7066SOL    HW232661   4.717   1.081  15.057 -0.8155 -1.7863  0.0561
 7067SOL     OW32662   0.451   3.643   2.764  0.3020  0.4464  0.5331
 7067SOL    HW132663   0.396   3.587   2.818 -1.8818  0.9053 -1.2211
 7067SOL    HW232664   0.409   3.728   2.770  0.2059  0.5587 -1.5691
 7068SOL     OW32665   0.254   0.936   0.456 -0.2814  0.0882 -0.2143
 7068SOL    HW132666   0.334   0.955   0.408  0.8425 -0.8677  1.2922
 7068SOL    HW232667   0.293   0.900   0.535 -1.2593  0.3125  0.3719
 7069SOL     OW32668   3.541   4.149   6.467 -0.0502 -0.7200  0.0593
 7069SOL    HW132669   3.513   4.084   6.403 -0.0919 -0.8897  0.2492
 7069SOL    HW232670   3.543   4.100   6.550  0.9447 -0.7871 -0.0038
 7070SOL     OW32671   4.576   0.193   2.872 -0.5824 -0.5938 -0.3287
 7070SOL    HW132672   4.660   0.237   2.886 -0.0855 -0.6968 -3.0335
 7070SOL    HW232673   4.561   0.140   2.950 -0.8832  0.6566  0.4671
 7071SOL     OW32674   1.783   2.468   6.805 -0.1016 -0.0357  0.2775
 7071SOL    HW132675   1.758   2.423   6.725  0.1642  0.7259 -0.2369
 7071SOL    HW232676   1.824   2.396   6.854  0.8661  0.6250  0.4509
 7072SOL     OW32677   1.712   2.356   4.925 -0.1666  0.8208  0.3705
 7072SOL    HW132678   1.766   2.433   4.943  2.3715 -0.3663 -2.2385
 7072SOL    HW232679   1.629   2.401   4.909 -0.4247  0.1751 -0.0935
 7073SOL     OW32680   3.625   0.218   6.981 -0.5615  0.0860 -0.2983
 7073SOL    HW132681   3.625   0.235   6.887 -0.2449  0.1617 -0.2846
 7073SOL    HW232682   3.584   0.299   7.011 -0.3435  1.2028 -2.9955
 7074SOL     OW32683   0.339   1.305   7.537  0.1259 -0.2629 -0.6405
 7074SOL    HW132684   0.326   1.385   7.487  0.6227 -0.0044 -0.3525
 7074SOL    HW232685   0.421   1.325   7.582  0.1470 -2.1124  0.1831
 7075SOL     OW32686   1.899   0.938   1.826  0.0285 -0.2097 -0.3791
 7075SOL    HW132687   1.954   0.904   1.896 -0.4077  0.9365  0.5189
 7075SOL    HW232688   1.951   1.008   1.788  1.6215 -0.5908  1.1179
 7076SOL     OW32689   0.992   1.418   7.337 -0.6291  0.0669 -0.6587
 7076SOL    HW132690   0.950   1.375   7.263 -0.7046 -3.0106  1.1440
 7076SOL    HW232691   1.083   1.387   7.342 -1.0567 -0.9348  1.0300
 7077SOL     OW32692   0.577   2.850   0.412  0.4959  0.2461 -0.0829
 7077SOL    HW132693   0.664   2.828   0.380  0.1325  0.7714 -1.4176
 7077SOL    HW232694   0.594   2.824   0.503 -2.4233  1.5877  0.8477
 7078SOL     OW32695   3.320   0.950  17.463 -0.4718 -0.0740 -0.6789
 7078SOL    HW132696   3.409   0.932  17.433  0.8659  0.5397  2.9047
 7078SOL    HW232697   3.341   1.032  17.506  2.2294 -0.6762 -0.8526
 7079SOL     OW32698   1.016   2.912  15.561  0.6215  0.5257  0.0952
 7079SOL    HW132699   0.957   2.851  15.516  0.5047  1.0113 -0.4102
 7079SOL    HW232700   1.011   2.985  15.499 -1.2112 -0.2719 -0.6967
 7080SOL     OW32701   2.654   1.379   5.979  0.6605  0.5949  0.3644
 7080SOL    HW132702   2.740   1.407   6.012  0.8049  2.8477 -1.9286
 7080SOL    HW232703   2.691   1.341   5.899  0.4964  2.6454 -0.7180
 7081SOL     OW32704   0.495   3.101  12.701 -0.4462 -0.2595 -0.4444
 7081SOL    HW132705   0.406   3.107  12.736 -0.3401 -0.8388 -0.0770
 7081SOL    HW232706   0.541   3.059  12.774 -0.5214  1.7111  0.7188
 7082SOL     OW32707   0.347   0.264   4.253 -0.3308  0.1749 -0.3370
 7082SOL    HW132708   0.423   0.320   4.233  0.7466 -1.2686 -0.2803
 7082SOL    HW232709   0.327   0.227   4.167 -1.8947 -2.1961  1.0430
 7083SOL     OW32710   3.258   2.455   8.563 -0.5085 -0.3620 -0.0150
 7083SOL    HW132711   3.316   2.434   8.490 -1.4629  1.1262 -1.1924
 7083SOL    HW232712   3.195   2.389   8.536 -2.3300  1.3790  0.0026
 7084SOL     OW32713   0.658   3.502   2.086  0.2432 -0.4743 -0.0884
 7084SOL    HW132714   0.661   3.584   2.037  1.3429 -2.8290 -3.9845
 7084SOL    HW232715   0.610   3.530   2.164 -1.7589 -2.1519 -0.7018
 7085SOL     OW32716   1.148   3.758   8.400 -0.1405  0.6075  0.0013
 7085SOL    HW132717   1.239   3.736   8.418 -0.5226 -1.6106 -0.8841
 7085SOL    HW232718   1.157   3.853   8.408  3.8831  0.0281  2.1060
 7086SOL     OW32719   3.437   4.410  11.030 -0.5188 -0.6628 -0.4322
 7086SOL    HW132720   3.494   4.366  10.967  1.6099  1.3418  0.1290
 7086SOL    HW232721   3.489   4.488  11.047 -2.4323  0.5026  0.0510
 7087SOL     OW32722   1.235   3.938  14.666 -0.0120 -0.1926 -0.2640
 7087SOL    HW132723   1.325   3.946  14.699  0.6288 -1.3152 -1.7792
 7087SOL    HW232724   1.195   4.025  14.666  0.0124 -0.1813  0.5534
 7088SOL     OW32725   4.024   2.512   3.863 -0.2717  0.1268  0.0264
 7088SOL    HW132726   3.937   2.504   3.902 -1.1133 -0.7078 -2.0347
 7088SOL    HW232727   4.052   2.421   3.849  1.3196  0.3518  1.7017
 7089SOL     OW32728   3.434   2.473  14.442  0.1876  0.0262  0.3118
 7089SOL    HW132729   3.460   2.424  14.364  1.0975 -0.2382  0.7758
 7089SOL    HW232730   3.451   2.410  14.512  0.9694 -0.2329 -0.1057
 7090SOL     OW32731   0.118   3.342   1.680  0.6029  0.0845  0.2593
 7090SOL    HW132732   0.067   3.410   1.723 -0.1652 -0.5977  0.4084
 7090SOL    HW232733   0.075   3.263   1.712  0.9440  0.0060  0.5228
 7091SOL     OW32734   4.505   4.003   0.656  0.3110  0.3634 -0.0932
 7091SOL    HW132735   4.558   3.946   0.713 -1.1115  0.4166  1.2988
 7091SOL    HW232736   4.479   3.950   0.581 -0.1971  1.8077 -0.9295
 7092SOL     OW32737   0.991   0.764   6.862  0.6560 -0.0144  0.2077
 7092SOL    HW132738   0.944   0.789   6.942  1.2503  0.1945  0.4938
 7092SOL    HW232739   1.075   0.809   6.862  0.6722 -0.0447  0.0195
 7093SOL     OW32740   0.594   2.922   7.965 -0.0605  0.5008  0.2219
 7093SOL    HW132741   0.537   2.915   7.889 -0.1512 -2.1211  0.5429
 7093SOL    HW232742   0.660   2.988   7.942  0.8107 -0.7839 -0.9593
 7094SOL     OW32743   1.195   1.588   2.190 -0.1936  0.1902 -0.2660
 7094SOL    HW132744   1.217   1.570   2.282  0.6322  1.0091 -0.3063
 7094SOL    HW232745   1.266   1.645   2.163  2.2522 -2.9255 -0.4410
 7095SOL     OW32746   2.324   3.605   6.542  0.1021  0.1394  0.2210
 7095SOL    HW132747   2.382   3.559   6.603  0.5628 -0.9371 -1.0591
 7095SOL    HW232748   2.308   3.539   6.476 -0.5167  1.8579 -1.3460
 7096SOL     OW32749   0.364   4.102  14.801  0.4600 -0.3647  0.0124
 7096SOL    HW132750   0.408   4.087  14.884  1.1403  2.4315  0.1460
 7096SOL    HW232751   0.390   4.192  14.780  2.0241 -0.2874  2.3226
 7097SOL     OW32752   0.024   4.319   4.110 -0.0106  0.4021 -0.7066
 7097SOL    HW132753   0.080   4.266   4.167 -1.5866 -0.0112  0.4655
 7097SOL    HW232754   0.073   4.307   4.029  2.6440 -0.0696  0.9826
 7098SOL     OW32755   1.448   1.178   3.177 -0.0798  0.9547  0.2070
 7098SOL    HW132756   1.377   1.148   3.120  0.7078 -0.2357 -0.1417
 7098SOL    HW232757   1.436   1.273   3.175 -2.1946  0.7802  3.2948
 7099SOL     OW32758   2.442   3.351  11.303 -0.4893 -0.5250 -0.1497
 7099SOL    HW132759   2.442   3.429  11.247  1.8983 -0.5200 -0.1455
 7099SOL    HW232760   2.349   3.329  11.296 -1.0463  1.3259  1.4036
 7100SOL     OW32761   0.790   3.849   2.388  0.0996  0.4674 -0.4116
 7100SOL    HW132762   0.783   3.800   2.470 -2.0192  0.8504 -0.3686
 7100SOL    HW232763   0.865   3.904   2.412 -0.0319  0.3814  0.2161
 7101SOL     OW32764   0.359   3.114   8.395  0.4767  0.1005 -0.4051
 7101SOL    HW132765   0.265   3.109   8.379  0.5830 -3.1663  0.0110
 7101SOL    HW232766   0.388   3.201   8.367 -0.0309 -0.3706 -2.4045
 7102SOL     OW32767   1.376   3.917   2.844 -0.3403  0.0134 -0.2774
 7102SOL    HW132768   1.382   3.972   2.922 -0.8236 -1.2834  0.6775
 7102SOL    HW232769   1.447   3.854   2.857 -0.4907 -0.2961 -0.9632
 7103SOL     OW32770   2.476   0.816   7.405  0.0784 -0.0072 -0.5690
 7103SOL    HW132771   2.424   0.850   7.478 -0.6697  0.5643 -1.3626
 7103SOL    HW232772   2.550   0.877   7.412 -0.8080  0.7305  2.6829
 7104SOL     OW32773   0.877   1.376  11.858  0.4193 -0.4402 -0.2444
 7104SOL    HW132774   0.821   1.350  11.785  0.5431 -0.2146 -0.4199
 7104SOL    HW232775   0.839   1.319  11.925 -0.8044  0.8448  0.1840
 7105SOL     OW32776   0.525   4.666   4.226  0.2150 -0.0958  0.9776
 7105SOL    HW132777   0.599   4.703   4.275  0.5255 -0.0628  0.4795
 7105SOL    HW232778   0.576   4.655   4.145 -0.1915 -3.5221  1.1662
 7106SOL     OW32779   1.375   1.875   9.289  0.1239 -0.1668 -0.0136
 7106SOL    HW132780   1.410   1.803   9.342  0.8169  0.5022  0.4370
 7106SOL    HW232781   1.341   1.930   9.359  1.3910 -1.0955  1.3285
 7107SOL     OW32782   1.458   1.426   4.623  0.7900  0.4862 -0.8100
 7107SOL    HW132783   1.369   1.459   4.611  0.2133 -0.4313  0.9832
 7107SOL    HW232784   1.515   1.477   4.565 -2.2597  3.9189 -0.8364
 7108SOL     OW32785   1.251   0.184   5.436  0.4212 -0.5590 -0.1749
 7108SOL    HW132786   1.192   0.260   5.437 -0.2270 -1.0876  1.0600
 7108SOL    HW232787   1.311   0.214   5.504  0.2798 -0.2147 -0.2001
 7109SOL     OW32788   0.174   1.352   4.438  0.1201 -0.3265  0.1001
 7109SOL    HW132789   0.151   1.429   4.491  0.5713 -1.1774  1.5537
 7109SOL    HW232790   0.127   1.281   4.483  2.9154 -1.6417  0.9754
 7110SOL     OW32791   0.330   4.405  10.385 -0.0861 -0.5132  0.4093
 7110SOL    HW132792   0.348   4.319  10.423  1.2002 -0.0100  0.9364
 7110SOL    HW232793   0.397   4.459  10.427  3.5203 -3.9287 -0.9753
 7111SOL     OW32794   3.620   3.418  13.103 -0.0603  0.1345  0.4046
 7111SOL    HW132795   3.693   3.460  13.148  0.9331  0.5228 -1.5441
 7111SOL    HW232796   3.659   3.346  13.053 -1.1965  0.5929 -1.1540
 7112SOL     OW32797   3.438   1.607  13.345  0.2379  0.2289 -0.0311
 7112SOL    HW132798   3.351   1.590  13.307 -0.0965  0.2874  0.7138
 7112SOL    HW232799   3.509   1.602  13.281  0.8707  1.7429  0.5855
 7113SOL     OW32800   1.238   0.845   8.875 -0.3751  0.6207  0.2527
 7113SOL    HW132801   1.175   0.824   8.944  0.8474 -0.3246  1.0996
 7113SOL    HW232802   1.215   0.935   8.856  0.0684  0.4315 -1.1376
 7114SOL     OW32803   0.592   3.172   1.471 -0.2876  1.1758 -0.3240
 7114SOL    HW132804   0.596   3.265   1.494  1.2597  1.2509 -0.8951
 7114SOL    HW232805   0.666   3.164   1.410  0.4412  3.5053  0.2535
 7115SOL     OW32806   1.538   1.793   3.677  0.2330 -0.0563 -0.0874
 7115SOL    HW132807   1.558   1.726   3.611 -0.3447 -1.5380  1.2295
 7115SOL    HW232808   1.443   1.789   3.687  0.1623 -0.2435 -0.8793
 7116SOL     OW32809   4.421   1.427   7.923  0.0784 -0.1712  0.2658
 7116SOL    HW132810   4.431   1.340   7.961 -0.6733 -0.3544  0.0436
 7116SOL    HW232811   4.507   1.460   7.949 -0.0342  1.2355 -1.1129
 7117SOL     OW32812   3.158   4.385  17.158  0.0895 -0.1608  0.4507
 7117SOL    HW132813   3.143   4.380  17.252 -0.7772 -0.8409  0.2757
 7117SOL    HW232814   3.244   4.344  17.167  1.5047  2.9877  1.4441
 7118SOL     OW32815   0.292   0.022   9.910  0.1368  0.1399 -0.4291
 7118SOL    HW132816   0.241   4.674   9.873 -1.5655  1.0258  0.2261
 7118SOL    HW232817   0.228   0.073   9.959 -0.7380 -4.3231  3.1461
 7119SOL     OW32818   4.581   3.742   3.994 -0.0726  0.4972  0.4562
 7119SOL    HW132819   4.610   3.693   3.917 -0.5205 -0.0134  0.6144
 7119SOL    HW232820   4.495   3.774   3.966  0.2595  0.1074 -0.9853
 7120SOL     OW32821   1.025   2.627   1.767 -0.1136  0.3715 -0.4271
 7120SOL    HW132822   1.068   2.588   1.691  0.9377  0.4310  0.1353
 7120SOL    HW232823   0.947   2.572   1.774  0.1898 -0.3082 -2.3537
 7121SOL     OW32824   2.266   2.464   9.294  0.3082  0.6510 -0.4620
 7121SOL    HW132825   2.241   2.546   9.251  1.4667  1.1469 -0.1719
 7121SOL    HW232826   2.196   2.403   9.269 -1.4339  3.2227 -1.8061
 7122SOL     OW32827   4.219   1.224   6.132  0.0606  0.3701  0.1015
 7122SOL    HW132828   4.137   1.270   6.148 -0.9707 -1.4237 -0.0099
 7122SOL    HW232829   4.240   1.183   6.217  1.6556 -0.8318 -0.8630
 7123SOL     OW32830   3.718   2.142   3.428 -0.7231  0.0469 -0.0917
 7123SOL    HW132831   3.723   2.051   3.399  2.9616  0.1769  0.1528
 7123SOL    HW232832   3.626   2.137   3.453 -0.9074 -0.9979 -1.0150
 7124SOL     OW32833   1.784   1.890  14.233 -0.1626  0.3890 -0.4242
 7124SOL    HW132834   1.870   1.914  14.201  0.2860 -0.5338  0.0721
 7124SOL    HW232835   1.794   1.796  14.215 -1.3112  0.2747 -0.5078
 7125SOL     OW32836   1.819   2.486  15.152  0.0132 -0.3771  0.0089
 7125SOL    HW132837   1.864   2.416  15.105 -1.2530 -0.7356 -0.6693
 7125SOL    HW232838   1.870   2.504  15.232  0.2405 -0.2328 -0.1670
 7126SOL     OW32839   2.529   2.864   4.709  0.0678  0.1767 -0.0863
 7126SOL    HW132840   2.459   2.920   4.744  0.8963  1.1397  0.0100
 7126SOL    HW232841   2.531   2.889   4.617 -1.4690  0.9581  0.0854
 7127SOL     OW32842   2.161   3.047  14.975 -0.1694  0.0435 -0.2502
 7127SOL    HW132843   2.190   3.028  15.064  0.2152  1.3035 -0.1171
 7127SOL    HW232844   2.211   3.126  14.956 -1.2857  0.4444 -1.5048
 7128SOL     OW32845   0.204   3.646   1.980  0.3728  0.3942  0.2550
 7128SOL    HW132846   0.117   3.687   1.979 -0.9868 -2.5009 -0.0934
 7128SOL    HW232847   0.234   3.687   2.062 -2.2710 -0.7759  1.8235
 7129SOL     OW32848   1.126   4.304   5.458  0.2891  0.0373  0.6099
 7129SOL    HW132849   1.155   4.389   5.422  4.1223 -1.1559  0.8261
 7129SOL    HW232850   1.031   4.314   5.458  0.2913  0.0930  1.4695
 7130SOL     OW32851   4.582   1.339   8.619 -0.2626 -0.3154  0.6134
 7130SOL    HW132852   4.506   1.361   8.673 -0.8607 -2.7119  0.7355
 7130SOL    HW232853   4.539   1.295   8.546  0.3876  1.9466 -1.1238
 7131SOL     OW32854   2.669   0.460  15.601  0.4189 -0.3752  0.1071
 7131SOL    HW132855   2.710   0.458  15.515  2.9712  0.9088  1.3087
 7131SOL    HW232856   2.619   0.379  15.594 -1.4364  0.8099 -0.3797
 7132SOL     OW32857   3.972   0.258  16.957  0.3082 -0.6797 -0.1348
 7132SOL    HW132858   3.897   0.239  17.013 -0.8472 -2.2198 -2.2273
 7132SOL    HW232859   3.932   0.266  16.871  1.7004  1.6053 -0.5842
 7133SOL     OW32860   3.434   3.688   6.760  0.3019 -0.0902  0.0527
 7133SOL    HW132861   3.439   3.605   6.712  0.2027  0.1295 -0.3381
 7133SOL    HW232862   3.526   3.709   6.778 -0.0682  1.1633  0.4643
 7134SOL     OW32863   4.013   3.884   9.128 -0.3055  0.0526 -0.1963
 7134SOL    HW132864   4.106   3.897   9.111 -0.3140 -1.2968 -1.3087
 7134SOL    HW232865   4.011   3.804   9.181  1.4570  0.1768  0.0427
 7135SOL     OW32866   3.580   2.391   6.571 -0.4687  0.1421 -0.2569
 7135SOL    HW132867   3.581   2.296   6.559  3.3358 -0.1179  2.1441
 7135SOL    HW232868   3.630   2.399   6.652 -0.2720  0.7694 -0.4434
 7136SOL     OW32869   2.500   0.855   5.011 -0.0928 -0.3378  0.2526
 7136SOL    HW132870   2.502   0.950   5.024  1.9757  0.0301 -2.8810
 7136SOL    HW232871   2.405   0.851   5.022 -0.1284  0.8496  0.4034
 7137SOL     OW32872   0.641   2.367   4.623 -0.2283 -0.3974  0.1983
 7137SOL    HW132873   0.653   2.414   4.706 -3.0373  0.9226 -0.1636
 7137SOL    HW232874   0.594   2.433   4.573  0.3923  1.3789  1.9190
 7138SOL     OW32875   1.445   1.407   5.478  0.4970 -0.5110 -0.2915
 7138SOL    HW132876   1.403   1.342   5.535 -1.7137  1.1550 -0.0359
 7138SOL    HW232877   1.522   1.358   5.449 -0.0430 -2.1063  0.9702
 7139SOL     OW32878   1.943   3.875   6.230  0.0381  0.5213 -0.3783
 7139SOL    HW132879   2.005   3.876   6.303 -0.4511 -0.5259  0.0693
 7139SOL    HW232880   1.884   3.947   6.251 -2.5890 -1.6432 -0.1892
 7140SOL     OW32881   2.006   0.224   7.206  0.3052  0.4159 -0.6751
 7140SOL    HW132882   1.916   0.245   7.180 -0.9116 -2.7797  0.9600
 7140SOL    HW232883   2.048   0.201   7.123 -1.8834 -1.8660 -1.1336
 7141SOL     OW32884   4.490   2.940  10.865 -0.3957  0.2465  0.3805
 7141SOL    HW132885   4.419   3.005  10.861  1.6285  2.3582 -1.2080
 7141SOL    HW232886   4.548   2.982  10.801 -0.2084  0.0860  0.4436
 7142SOL     OW32887   0.322   1.516   3.123  0.0427 -0.0178 -0.5427
 7142SOL    HW132888   0.313   1.473   3.208  3.3645  2.9419  1.2769
 7142SOL    HW232889   0.390   1.580   3.142 -0.8515  0.9438 -0.5211
 7143SOL     OW32890   4.646   0.027   4.678 -0.1592 -0.0473 -0.2650
 7143SOL    HW132891   4.648   4.723   4.769  0.2164 -0.8510 -0.5107
 7143SOL    HW232892   4.556   0.058   4.668  0.5629  1.9043 -0.5495
 7144SOL     OW32893   2.362   2.766   8.879 -0.3043  0.2514  0.0468
 7144SOL    HW132894   2.405   2.815   8.949  0.8884  0.0689 -0.5651
 7144SOL    HW232895   2.432   2.732   8.823  0.4781  0.0915  1.1233
 7145SOL     OW32896   0.317   3.519   9.510 -0.1081 -0.1650 -0.1332
 7145SOL    HW132897   0.393   3.482   9.464  1.0598  0.4728  1.2840
 7145SOL    HW232898   0.309   3.600   9.460 -0.8213 -1.2429 -1.7688
 7146SOL     OW32899   2.861   1.910   0.844  0.3224  0.2333 -0.6406
 7146SOL    HW132900   2.786   1.905   0.785  0.8187 -1.9372 -1.0918
 7146SOL    HW232901   2.822   1.878   0.925 -0.1426  1.0703 -0.5360
 7147SOL     OW32902   4.009   3.318   6.664 -0.4663  0.1239 -0.0836
 7147SOL    HW132903   4.023   3.341   6.572  2.0249 -2.2667 -0.3146
 7147SOL    HW232904   3.921   3.351   6.680 -0.2756  1.2501 -1.3873
 7148SOL     OW32905   3.501   0.740   6.420 -0.1596 -0.0734  0.0630
 7148SOL    HW132906   3.422   0.792   6.435  0.0915 -0.1252  1.5331
 7148SOL    HW232907   3.559   0.778   6.486 -0.7581 -1.2697  1.2777
 7149SOL     OW32908   2.668   1.298  12.491  0.9480  0.2482 -0.6121
 7149SOL    HW132909   2.648   1.209  12.521 -2.1732  1.6908  1.5161
 7149SOL    HW232910   2.749   1.307  12.543  0.6070 -0.9085  0.1230
 7150SOL     OW32911   1.970   0.812   7.172  0.3307  0.2395  0.1226
 7150SOL    HW132912   1.976   0.799   7.078 -1.7960  0.7397 -0.0670
 7150SOL    HW232913   1.954   0.720   7.193  0.6964 -0.0497 -0.8898
 7151SOL     OW32914   4.185   2.560   2.410  0.5343  0.6970 -0.2520
 7151SOL    HW132915   4.248   2.527   2.474 -0.0405  1.3448  0.6497
 7151SOL    HW232916   4.245   2.565   2.336 -0.2784 -0.8945 -1.0295
 7152SOL     OW32917   3.953   3.807  12.381 -0.8172  0.0362  0.6523
 7152SOL    HW132918   4.037   3.854  12.374  0.4393 -2.0357  1.8797
 7152SOL    HW232919   3.970   3.729  12.329  0.1258 -0.0604  1.1071
 7153SOL     OW32920   0.795   1.206   8.478 -0.2549  0.2835  0.2157
 7153SOL    HW132921   0.734   1.177   8.546 -1.1858 -0.1461 -0.8044
 7153SOL    HW232922   0.816   1.287   8.524 -0.9190 -0.0127  1.0406
 7154SOL     OW32923   4.541   3.068   8.403 -0.2257  0.5059  0.5313
 7154SOL    HW132924   4.530   3.158   8.373 -0.5753  0.5138  0.6832
 7154SOL    HW232925   4.477   3.019   8.351 -2.6214  1.8679  2.1964
 7155SOL     OW32926   0.628   4.667   3.962 -0.4691  0.6180  0.0265
 7155SOL    HW132927   0.704   0.001   3.977  1.0379 -1.0155 -1.3919
 7155SOL    HW232928   0.576   4.711   3.895 -0.0827  0.5698 -0.3071
 7156SOL     OW32929   0.020   3.468  16.005 -0.1065  0.1954 -0.1448
 7156SOL    HW132930   4.654   3.471  15.972  0.6193 -1.2637 -2.2230
 7156SOL    HW232931   0.066   3.538  15.959  1.7477  0.0102  1.4438
 7157SOL     OW32932   3.302   1.251   8.365 -0.3805 -0.2706 -0.1220
 7157SOL    HW132933   3.337   1.277   8.450  0.4170 -2.1371  0.1245
 7157SOL    HW232934   3.212   1.280   8.378  0.2539  0.9567  1.4528
 7158SOL     OW32935   4.364   0.791  16.673 -0.3187 -0.1018  0.3910
 7158SOL    HW132936   4.342   0.776  16.582 -1.5864  0.0126  0.6779
 7158SOL    HW232937   4.280   0.819  16.709  0.1386 -2.1025  3.0401
 7159SOL     OW32938   4.309   3.840  15.391  1.0377  0.3048 -0.1464
 7159SOL    HW132939   4.323   3.890  15.472 -2.4919  0.0158  0.6160
 7159SOL    HW232940   4.359   3.887  15.324 -1.5334  1.5348 -1.2028
 7160SOL     OW32941   4.526   3.586  14.112  0.6139  0.5178  0.3575
 7160SOL    HW132942   4.492   3.506  14.073 -0.0695  0.9579  0.0522
 7160SOL    HW232943   4.582   3.624  14.045  0.5030  0.2301  0.1027
 7161SOL     OW32944   4.625   1.775  10.919  0.2335  0.2027 -0.1221
 7161SOL    HW132945   4.531   1.773  10.940 -0.3130  1.0863 -2.4849
 7161SOL    HW232946   4.619   1.833  10.844 -1.2832 -0.9608 -0.9011
 7162SOL     OW32947   2.267   2.398   2.379 -0.2584  0.0285  0.4813
 7162SOL    HW132948   2.295   2.331   2.441 -0.5307  0.0092  0.5805
 7162SOL    HW232949   2.317   2.474   2.409 -0.7899  1.1182 -1.3809
 7163SOL     OW32950   3.674   2.157  11.238  0.3158 -0.0475 -0.4004
 7163SOL    HW132951   3.635   2.200  11.162 -1.2574 -1.1696 -0.2345
 7163SOL    HW232952   3.765   2.156  11.209 -0.3922  0.2504 -2.6337
 7164SOL     OW32953   0.344   2.104   6.840  0.1151 -0.0233  0.5045
 7164SOL    HW132954   0.404   2.034   6.814  1.3501  0.4813  1.9369
 7164SOL    HW232955   0.386   2.134   6.921  0.1670 -0.9749  0.8275
 7165SOL     OW32956   3.006   3.136   0.768 -0.8454 -0.8545  0.6231
 7165SOL    HW132957   3.041   3.138   0.679 -1.5413  1.0057  0.3915
 7165SOL    HW232958   3.046   3.213   0.808 -3.6975 -0.0111  1.8511
 7166SOL     OW32959   4.553   2.467  11.306 -0.4490  0.2617 -0.0878
 7166SOL    HW132960   4.552   2.372  11.293  2.3064  0.1153  0.9296
 7166SOL    HW232961   4.579   2.502  11.221 -0.0818  1.2691  0.4441
 7167SOL     OW32962   0.997   2.233  16.255 -0.1073  0.2361 -0.1239
 7167SOL    HW132963   0.902   2.229  16.265  0.0103 -0.7097  0.6151
 7167SOL    HW232964   1.007   2.323  16.224 -0.5875  0.2446 -0.2507
 7168SOL     OW32965   3.304   4.629  11.714  0.2545 -0.5837 -0.3359
 7168SOL    HW132966   3.238   4.661  11.652  0.2664 -0.9126 -0.5198
 7168SOL    HW232967   3.367   4.701  11.717 -0.8465  0.4017 -0.5145
 7169SOL     OW32968   1.062   0.187   5.139 -0.7177  0.0693 -0.0003
 7169SOL    HW132969   1.083   0.122   5.206  1.6715  0.7923 -0.0416
 7169SOL    HW232970   0.977   0.154   5.109  0.5577 -2.9775 -0.2871
 7170SOL     OW32971   1.036   2.364   8.778  0.3238  0.7384 -0.2502
 7170SOL    HW132972   0.943   2.372   8.754  0.0409 -0.7451  0.3251
 7170SOL    HW232973   1.062   2.285   8.732  0.6771 -1.4972  3.7634
 7171SOL     OW32974   0.151   1.593  15.007  0.2296 -0.1358  0.0510
 7171SOL    HW132975   0.154   1.667  14.947 -0.2264 -1.5557 -1.7391
 7171SOL    HW232976   0.245   1.581  15.016  0.2359 -0.6495 -0.6619
 7172SOL     OW32977   1.520   0.642  13.139  0.3951 -0.2059 -0.0895
 7172SOL    HW132978   1.462   0.714  13.161  1.4193  0.1518  1.4730
 7172SOL    HW232979   1.590   0.691  13.096  1.6081 -1.3084  0.6270
 7173SOL     OW32980   1.245   2.600  14.688  0.1460 -0.7233  0.2428
 7173SOL    HW132981   1.212   2.589  14.777  0.7184 -1.3422  0.3770
 7173SOL    HW232982   1.165   2.602  14.635 -0.7209  2.9089  1.6806
 7174SOL     OW32983   2.780   4.154  15.802  0.1074  0.1391  0.1222
 7174SOL    HW132984   2.750   4.147  15.892  0.7170  0.9899  0.3881
 7174SOL    HW232985   2.701   4.133  15.752  0.6417  3.6967 -2.2003
 7175SOL     OW32986   2.112   4.627  10.319 -0.3351  0.0714 -0.2348
 7175SOL    HW132987   2.084   4.550  10.369 -1.3580  0.1496 -0.6902
 7175SOL    HW232988   2.043   4.692  10.325 -0.4539 -0.0541 -0.2521
 7176SOL     OW32989   1.527   0.834   3.593  0.0534  0.2230  0.8378
 7176SOL    HW132990   1.620   0.854   3.607  0.4912  0.3805 -2.2085
 7176SOL    HW232991   1.495   0.880   3.515 -1.0333 -3.1567 -0.6906
 7177SOL     OW32992   4.381   1.162   9.945  0.1357 -0.3454  0.2013
 7177SOL    HW132993   4.463   1.161   9.994  1.9996 -0.2739 -2.9099
 7177SOL    HW232994   4.372   1.073   9.911 -0.9986 -0.8029  1.7015
 7178SOL     OW32995   2.121   0.817   2.023  0.6091  0.1370 -0.3878
 7178SOL    HW132996   2.155   0.855   1.942  2.0033 -1.5270 -0.5904
 7178SOL    HW232997   2.171   0.736   2.017  2.7502  1.3452  0.9699
 7179SOL     OW32998   2.257   3.768   7.305  0.4115 -0.4744 -0.8278
 7179SOL    HW132999   2.204   3.780   7.226 -0.0437 -0.5976 -0.5392
 7179SOL    HW233000   2.220   3.687   7.341 -1.8233  0.6523 -0.5452
 7180SOL     OW33001   1.620   1.062   2.833 -0.9995 -0.2219  0.0993
 7180SOL    HW133002   1.544   1.046   2.777 -0.3434 -0.3305 -0.7608
 7180SOL    HW233003   1.591   1.011   2.908  1.7828 -4.9091 -2.0291
 7181SOL     OW33004   1.090   4.310  16.764 -0.9489  0.1433  0.5131
 7181SOL    HW133005   1.010   4.258  16.757 -0.5453 -0.6732  2.0154
 7181SOL    HW233006   1.118   4.288  16.852 -1.0274  1.7526  0.9448
 7182SOL     OW33007   3.048   2.749  12.389 -0.4901 -0.4557 -0.3959
 7182SOL    HW133008   2.983   2.712  12.329  1.2889 -0.6756 -2.2207
 7182SOL    HW233009   3.106   2.785  12.322  1.9550 -2.4227  0.6460
 7183SOL     OW33010   1.157   1.146  16.131 -0.2954 -0.8602  0.4635
 7183SOL    HW133011   1.179   1.053  16.138  2.3188 -0.2958 -0.4323
 7183SOL    HW233012   1.116   1.158  16.046  2.2988 -0.0144 -0.6576
 7184SOL     OW33013   2.540   0.442   3.278 -0.1133 -0.4492 -0.0167
 7184SOL    HW133014   2.614   0.382   3.272  0.6107  0.6577 -1.9327
 7184SOL    HW233015   2.477   0.377   3.246 -2.2712  1.1128  0.9930
 7185SOL     OW33016   2.689   1.993   6.668  0.3158 -0.4439  0.2132
 7185SOL    HW133017   2.687   2.051   6.744  0.8572 -1.8457  1.2952
 7185SOL    HW233018   2.727   2.057   6.607 -1.8205 -0.2057 -0.8615
 7186SOL     OW33019   3.092   1.289   3.572 -0.2349  0.7501 -0.3247
 7186SOL    HW133020   3.090   1.382   3.548 -4.5335  0.9909  0.9139
 7186SOL    HW233021   3.101   1.243   3.489 -0.7684 -0.5612  0.3479
 7187SOL     OW33022   0.211   2.550  10.980  0.2579  0.1582 -0.6440
 7187SOL    HW133023   0.201   2.484  11.049  2.0667 -0.5958 -1.0936
 7187SOL    HW233024   0.219   2.493  10.902 -1.2008  1.7346 -1.9249
 7188SOL     OW33025   4.589   0.637   2.541 -0.4154 -0.8186  0.0823
 7188SOL    HW133026   4.593   0.732   2.558 -0.7626 -0.4003 -2.2208
 7188SOL    HW233027   4.605   0.602   2.629  1.4590 -0.8110 -0.2490
 7189SOL     OW33028   3.930   1.163   4.547  0.0202 -0.3166 -0.6877
 7189SOL    HW133029   3.932   1.209   4.463 -0.2201 -2.2719 -1.7881
 7189SOL    HW233030   3.884   1.227   4.600  0.7319  1.1145 -1.8105
 7190SOL     OW33031   2.546   1.897   3.844  0.2395 -0.2784 -0.0979
 7190SOL    HW133032   2.535   1.975   3.899 -1.0621  0.0529 -0.8226
 7190SOL    HW233033   2.483   1.839   3.888  0.8117 -0.0176  1.0866
 7191SOL     OW33034   4.236   1.289   2.613  0.7241  0.2959 -0.5710
 7191SOL    HW133035   4.155   1.252   2.576 -0.3753  2.8042 -0.6709
 7191SOL    HW233036   4.269   1.347   2.544  1.9520  1.0376  0.6621
 7192SOL     OW33037   0.350   4.320   7.631  0.4807 -0.3421  0.3775
 7192SOL    HW133038   0.445   4.321   7.626  0.5643 -0.6970  1.7705
 7192SOL    HW233039   0.335   4.228   7.610 -0.8459 -0.3437  1.3190
 7193SOL     OW33040   2.793   0.555   8.402 -0.4940 -0.8751  0.0754
 7193SOL    HW133041   2.866   0.610   8.430  0.9667 -2.2477 -1.0675
 7193SOL    HW233042   2.822   0.530   8.314  0.6716  0.8661 -0.0388
 7194SOL     OW33043   3.426   3.545   4.022 -0.6316  0.2517  0.0173
 7194SOL    HW133044   3.424   3.503   4.108  0.8176  0.7786  0.3056
 7194SOL    HW233045   3.335   3.574   4.023 -0.6718  0.1843 -1.9777
 7195SOL     OW33046   0.528   1.591   7.756 -0.2595 -0.1215  0.0319
 7195SOL    HW133047   0.547   1.508   7.713  1.5489 -0.5079  1.5843
 7195SOL    HW233048   0.547   1.654   7.687  0.1175 -0.7836 -0.4718
 7196SOL     OW33049   1.791   0.435   8.432 -0.1881  0.3542 -0.0150
 7196SOL    HW133050   1.736   0.503   8.393  0.6914  0.2581 -1.4334
 7196SOL    HW233051   1.827   0.396   8.352  0.0985 -2.7281  1.6097
 7197SOL     OW33052   2.278   2.160  16.764 -0.0650  0.4413 -0.3774
 7197SOL    HW133053   2.308   2.170  16.673  3.4367 -1.5736  0.5469
 7197SOL    HW233054   2.329   2.085  16.795 -1.3777 -0.9581 -1.5797
 7198SOL     OW33055   1.840   2.978  12.380 -0.1587 -0.3547 -0.5766
 7198SOL    HW133056   1.886   3.052  12.340  0.2595 -0.7971 -0.9204
 7198SOL    HW233057   1.769   2.975  12.317 -0.2079 -1.6067 -0.4563
 7199SOL     OW33058   3.574   0.842  14.621 -0.3788  0.2885 -0.4003
 7199SOL    HW133059   3.516   0.908  14.658 -0.0872 -1.0840  2.4908
 7199SOL    HW233060   3.616   0.884  14.546  1.3560 -0.0166  0.4084
 7200SOL     OW33061   2.829   0.598   8.819  0.4645 -0.4380  0.6336
 7200SOL    HW133062   2.920   0.630   8.825  0.1509 -0.1068  3.4023
 7200SOL    HW233063   2.812   0.577   8.911 -0.0686 -0.5494  0.5092
 7201SOL     OW33064   3.541   3.301   0.822 -0.4309  0.4304 -0.0526
 7201SOL    HW133065   3.449   3.301   0.849 -0.3628  0.1491  0.1786
 7201SOL    HW233066   3.523   3.303   0.728 -1.1359 -0.3099  0.0554
 7202SOL     OW33067   0.711   1.301   2.765 -0.0543  0.3012 -0.1992
 7202SOL    HW133068   0.786   1.359   2.759  0.0246  0.2017 -0.1729
 7202SOL    HW233069   0.631   1.354   2.767 -0.8546 -0.9084 -0.2525
 7203SOL     OW33070   3.174   3.019   2.386 -0.1789 -0.3847 -0.2170
 7203SOL    HW133071   3.237   2.971   2.333 -1.2694 -0.5183 -1.3798
 7203SOL    HW233072   3.097   2.969   2.356  0.6644 -1.3162 -0.8168
 7204SOL     OW33073   1.463   1.073  16.979  0.2120 -0.0045 -0.1046
 7204SOL    HW133074   1.439   1.070  16.887  1.3542 -3.0689 -0.3123
 7204SOL    HW233075   1.398   1.133  17.014  1.7463  1.6841 -0.1195
 7205SOL     OW33076   3.340   0.141   6.197  0.4740  0.1647  0.1709
 7205SOL    HW133077   3.346   0.078   6.270  0.9329 -0.1286 -0.1196
 7205SOL    HW233078   3.431   0.136   6.167  0.4563 -0.3998  0.2025
 7206SOL     OW33079   4.153   3.568   2.328 -0.3935 -0.0785  0.0275
 7206SOL    HW133080   4.100   3.544   2.405 -1.6518  1.8656 -0.2025
 7206SOL    HW233081   4.146   3.489   2.275 -0.5333  0.3125 -0.5434
 7207SOL     OW33082   2.923   4.204   5.100 -0.7927 -0.1102  0.1851
 7207SOL    HW133083   2.856   4.248   5.153 -0.1777  0.6785  0.2918
 7207SOL    HW233084   2.878   4.173   5.021 -2.5825 -0.3877  1.2887
 7208SOL     OW33085   1.989   3.773   6.725  0.2008 -0.3336 -0.4377
 7208SOL    HW133086   1.912   3.799   6.674 -0.8449 -2.9807 -0.2541
 7208SOL    HW233087   1.992   3.848   6.784  0.5586  0.3991 -1.3796
 7209SOL     OW33088   1.478   1.439   7.588 -0.2453 -0.2239 -0.0597
 7209SOL    HW133089   1.470   1.416   7.681  0.9961  0.9813  0.3458
 7209SOL    HW233090   1.443   1.527   7.602  2.2674  0.7602 -0.0651
 7210SOL     OW33091   3.909   2.507   2.390  0.0392 -0.1628  0.4327
 7210SOL    HW133092   3.883   2.453   2.465  1.6998  0.9503  1.7825
 7210SOL    HW233093   3.997   2.531   2.416 -0.2642 -0.4837  1.7567
 7211SOL     OW33094   1.309   0.942   1.262 -0.5603 -0.5252  0.3393
 7211SOL    HW133095   1.302   0.941   1.167  0.1470 -2.0004  0.2995
 7211SOL    HW233096   1.220   0.945   1.298  0.8729  1.6148  3.6852
 7212SOL     OW33097   3.891   0.659   5.236  0.0631  0.2087 -0.1898
 7212SOL    HW133098   3.902   0.588   5.299 -0.9871 -1.1779 -1.5544
 7212SOL    HW233099   3.868   0.726   5.300  1.3688  0.9962 -0.5481
 7213SOL     OW33100   2.579   2.126   0.076 -0.2057 -0.2244 -0.4918
 7213SOL    HW133101   2.644   2.094   0.139 -1.4475 -0.8588  0.4701
 7213SOL    HW233102   2.564   2.220   0.090 -0.9560 -0.3732 -0.3003
 7214SOL     OW33103   0.032   2.018   4.592 -0.1807  0.5838  0.2361
 7214SOL    HW133104   4.675   1.982   4.554 -0.0792 -1.4429  1.9606
 7214SOL    HW233105   0.000   2.093   4.642  1.6478  1.0073  0.7573
 7215SOL     OW33106   2.776   3.639   3.840 -0.3225 -0.3743  0.4093
 7215SOL    HW133107   2.788   3.625   3.934  0.6818 -0.3255  0.2877
 7215SOL    HW233108   2.769   3.734   3.837 -1.1358 -0.4432  0.2881
 7216SOL     OW33109   4.559   3.424   5.771 -0.5167  0.2448  0.2042
 7216SOL    HW133110   4.600   3.360   5.714  0.0801 -0.7436  1.7365
 7216SOL    HW233111   4.469   3.423   5.739  0.4029 -1.4024 -2.2743
 7217SOL     OW33112   1.926   1.269   3.743  0.6689  0.1588 -0.0727
 7217SOL    HW133113   1.856   1.219   3.700  1.2349 -0.5076 -0.2184
 7217SOL    HW233114   1.887   1.356   3.748 -0.6176 -0.2654 -2.3843
 7218SOL     OW33115   3.641   0.576   2.389  0.4471  0.3049 -0.2668
 7218SOL    HW133116   3.566   0.553   2.443 -0.1206 -0.1776 -1.2640
 7218SOL    HW233117   3.704   0.604   2.455 -0.1941 -0.3034  0.5979
 7219SOL     OW33118   0.194   4.098  12.192  0.0317 -0.0669  0.4903
 7219SOL    HW133119   0.154   4.137  12.115 -0.6208  0.9688  1.3465
 7219SOL    HW233120   0.272   4.067  12.146  2.3181  4.4126  1.3895
 7220SOL     OW33121   4.179   0.802  10.739  0.6900 -0.3965 -0.0229
 7220SOL    HW133122   4.250   0.810  10.803  1.9371  1.7993 -1.7038
 7220SOL    HW233123   4.105   0.765  10.788 -0.3931 -0.5213 -1.7436
 7221SOL     OW33124   0.595   3.177   5.541 -0.3657 -0.1561 -0.0465
 7221SOL    HW133125   0.554   3.256   5.576 -0.4256 -0.0576 -0.3335
 7221SOL    HW233126   0.519   3.120   5.544 -0.9893  0.6293 -0.8803
 7222SOL     OW33127   3.906   2.281   4.174  0.2511 -0.2261 -0.5735
 7222SOL    HW133128   3.852   2.357   4.156 -0.8417 -1.4975 -2.7606
 7222SOL    HW233129   3.966   2.309   4.243 -1.3951  1.1056  0.2855
 7223SOL     OW33130   4.229   1.147  10.170 -0.1180 -0.3045 -0.5932
 7223SOL    HW133131   4.161   1.208  10.143  0.4540  1.2659  1.5120
 7223SOL    HW233132   4.296   1.172  10.106 -0.1010  1.9069  0.2993
 7224SOL     OW33133   3.300   2.804   4.099  0.4795 -0.0348  0.1676
 7224SOL    HW133134   3.223   2.747   4.099  0.8582 -0.5719 -2.0524
 7224SOL    HW233135   3.295   2.853   4.180 -3.7040 -3.5392  2.0108
 7225SOL     OW33136   3.755   2.086   1.555  0.1530 -0.6140  0.1588
 7225SOL    HW133137   3.794   2.049   1.633  1.6683 -0.6813 -0.6293
 7225SOL    HW233138   3.766   2.023   1.484 -0.0746 -1.1776  0.6250
 7226SOL     OW33139   0.229   3.944  17.369  0.0381 -0.3195 -0.4495
 7226SOL    HW133140   0.234   3.867  17.425  2.1425 -1.4084 -2.1242
 7226SOL    HW233141   0.145   3.934  17.325  0.4924 -1.0139 -1.1553
 7227SOL     OW33142   1.957   3.497   8.074  0.0518 -0.5357  0.0097
 7227SOL    HW133143   1.929   3.408   8.052 -3.0171  0.2364  0.7487
 7227SOL    HW233144   1.868   3.532   8.079  0.8575  1.1778  1.8790
 7228SOL     OW33145   3.347   3.024   6.486 -0.0436  0.0471  0.2777
 7228SOL    HW133146   3.418   2.969   6.451 -2.0886 -2.6275  0.3579
 7228SOL    HW233147   3.381   3.050   6.572 -0.1286  0.9380  0.0477
 7229SOL     OW33148   2.394   1.544  16.427  0.1196  0.4943  0.2951
 7229SOL    HW133149   2.327   1.607  16.452  0.4114  1.7774 -2.1460
 7229SOL    HW233150   2.443   1.536  16.509  0.7421  0.4787 -0.0835
 7230SOL     OW33151   2.436   2.996   2.424 -0.2986  0.0094 -0.1818
 7230SOL    HW133152   2.370   3.023   2.488  0.8334 -0.3536  1.1364
 7230SOL    HW233153   2.464   3.083   2.396 -2.2669  0.3262 -1.1779
 7231SOL     OW33154   3.121   4.645   6.089 -0.5024  0.4069 -0.4457
 7231SOL    HW133155   3.120   4.554   6.058  0.4895  0.5763 -0.9706
 7231SOL    HW233156   3.103   4.637   6.183 -0.4040 -0.1262 -0.4679
 7232SOL     OW33157   4.708   0.841   3.171  0.1157  0.3741 -0.2314
 7232SOL    HW133158   0.007   0.756   3.134 -2.4213  0.0760 -1.0879
 7232SOL    HW233159   4.619   0.853   3.139  0.3867  2.8276 -0.0511
 7233SOL     OW33160   0.920   3.893   3.016 -0.0181 -0.4024 -0.3645
 7233SOL    HW133161   0.997   3.904   3.071  1.0545 -0.6306 -1.8272
 7233SOL    HW233162   0.856   3.893   3.087  2.4161  0.1327  1.8307
 7234SOL     OW33163   1.737   2.921   2.564 -0.1401  0.1015 -0.4974
 7234SOL    HW133164   1.661   2.916   2.507 -0.0028 -0.8527 -0.5932
 7234SOL    HW233165   1.801   2.944   2.497 -0.0094  0.8547 -0.1210
 7235SOL     OW33166   1.509   2.004   5.327 -0.2377  0.3456  0.5333
 7235SOL    HW133167   1.579   1.995   5.262 -1.0698 -1.9186 -0.0223
 7235SOL    HW233168   1.437   1.945   5.304 -0.5475  1.8007 -2.2949
 7236SOL     OW33169   4.366   4.098  16.205 -0.4001  0.6075 -0.0698
 7236SOL    HW133170   4.409   4.178  16.175  0.2071  0.5430  0.6426
 7236SOL    HW233171   4.371   4.040  16.128 -0.1414  1.0252 -0.3690
 7237SOL     OW33172   2.470   1.233   4.758 -0.2679  0.1363 -0.6820
 7237SOL    HW133173   2.402   1.188   4.709 -1.2670 -0.2204  1.0622
 7237SOL    HW233174   2.530   1.244   4.684  1.1475  1.0922  0.5926
 7238SOL     OW33175   1.625   4.264  15.101 -0.6435 -0.1208 -0.3498
 7238SOL    HW133176   1.663   4.348  15.077  0.5169 -0.2681  0.9781
 7238SOL    HW233177   1.681   4.202  15.055 -1.9624 -0.6396 -1.2506
 7239SOL     OW33178   3.079   0.195   6.123 -0.2996  0.3493 -0.3619
 7239SOL    HW133179   3.170   0.185   6.153 -0.4786 -0.7479 -0.2129
 7239SOL    HW233180   3.057   0.107   6.095  0.9017 -0.0299 -0.1173
 7240SOL     OW33181   1.688   3.689   9.922  0.4445 -0.1714  0.0181
 7240SOL    HW133182   1.664   3.643  10.003  0.3386 -2.1686 -1.1538
 7240SOL    HW233183   1.614   3.749   9.915  0.0075 -0.4040  2.7229
 7241SOL     OW33184   2.136   1.703   3.406 -0.2365 -0.0278 -0.1776
 7241SOL    HW133185   2.082   1.648   3.349 -2.3480  1.9809 -0.1215
 7241SOL    HW233186   2.173   1.756   3.336 -1.5902  1.0489 -0.0830
 7242SOL     OW33187   4.548   0.897  11.511  0.5273  0.4511  0.3770
 7242SOL    HW133188   4.508   0.814  11.483 -0.2481  1.1842 -0.6909
 7242SOL    HW233189   4.618   0.897  11.445 -0.5044  0.3235 -0.7124
 7243SOL     OW33190   1.166   3.810  16.048 -0.2459  0.7205  0.2145
 7243SOL    HW133191   1.087   3.834  16.097 -1.0193 -2.1222  0.3372
 7243SOL    HW233192   1.233   3.817  16.115  0.1029 -1.5428  0.0799
 7244SOL     OW33193   3.289   3.613  17.069  0.1947  0.1453  0.0634
 7244SOL    HW133194   3.313   3.528  17.032 -0.2430  1.5894 -3.5264
 7244SOL    HW233195   3.237   3.580  17.142  0.5108 -1.1434 -0.2807
 7245SOL     OW33196   2.933   2.078   9.584  0.0607  0.1571  0.0833
 7245SOL    HW133197   2.982   2.018   9.640  0.5934  1.4195  0.9659
 7245SOL    HW233198   2.913   2.157   9.635 -2.5893  0.2006 -0.9970
 7246SOL     OW33199   4.552   3.548   6.212 -0.3489  0.1979  0.2108
 7246SOL    HW133200   4.606   3.597   6.150 -0.3780 -1.2379 -0.9525
 7246SOL    HW233201   4.477   3.608   6.206  0.3781  1.0266 -0.5534
 7247SOL     OW33202   0.701   1.613   6.633 -0.7343 -0.2542  0.4305
 7247SOL    HW133203   0.753   1.597   6.555 -1.2572 -2.7371  0.5957
 7247SOL    HW233204   0.743   1.691   6.668 -0.1913 -0.6215  0.6007
 7248SOL     OW33205   3.291   4.172  13.556  0.3889  0.6968 -0.3335
 7248SOL    HW133206   3.256   4.230  13.489  0.0461  0.8381 -0.0319
 7248SOL    HW233207   3.238   4.093  13.556  4.2761 -1.9437  0.4401
 7249SOL     OW33208   4.364   2.596  12.241 -0.1953 -0.3768  0.1205
 7249SOL    HW133209   4.366   2.549  12.157  2.6537 -0.1525  0.0689
 7249SOL    HW233210   4.273   2.595  12.270 -0.5191  2.6043 -0.8318
 7250SOL     OW33211   0.957   1.875   3.203 -0.2362 -0.5670 -0.2383
 7250SOL    HW133212   1.037   1.831   3.233  0.1280  0.9180  0.9553
 7250SOL    HW233213   0.953   1.955   3.255 -1.2964 -2.9455  3.4175
 7251SOL     OW33214   0.471   1.375   1.809 -0.0119  0.4861 -0.1463
 7251SOL    HW133215   0.536   1.369   1.739 -0.8298  0.7190 -0.9353
 7251SOL    HW233216   0.445   1.464   1.786  1.9316  0.3883 -2.6699
 7252SOL     OW33217   0.855   4.292   5.431  0.3285  0.3355 -0.0115
 7252SOL    HW133218   0.830   4.280   5.339  0.1127 -0.9477  0.2198
 7252SOL    HW233219   0.791   4.356   5.463 -0.7599  0.0619 -1.5801
 7253SOL     OW33220   2.538   4.043   6.636 -0.4806 -0.1859 -0.0522
 7253SOL    HW133221   2.510   4.134   6.641 -0.4294 -0.2258  0.9226
 7253SOL    HW233222   2.629   4.046   6.665 -0.4677  0.3234 -0.1549
 7254SOL     OW33223   2.932   2.585   7.894  0.0115 -0.0757 -0.4375
 7254SOL    HW133224   2.944   2.571   7.800  2.6413  1.0307 -0.2583
 7254SOL    HW233225   2.844   2.552   7.913  0.0195 -0.5963 -1.2995
 7255SOL     OW33226   1.982   1.871   1.787 -0.0979 -0.0268 -0.1562
 7255SOL    HW133227   2.024   1.849   1.704 -1.4765  0.0136 -0.8725
 7255SOL    HW233228   1.950   1.785   1.814 -1.7630  0.3545 -0.8715
 7256SOL     OW33229   3.881   2.822   0.790  0.1638 -0.5702  0.3948
 7256SOL    HW133230   3.818   2.888   0.819 -0.1560 -0.5903 -0.2711
 7256SOL    HW233231   3.843   2.748   0.836 -1.9628 -0.0266 -0.5175
 7257SOL     OW33232   3.422   1.237   3.329  0.3827  0.6330 -0.6118
 7257SOL    HW133233   3.477   1.314   3.313 -0.2258  1.3531  0.7069
 7257SOL    HW233234   3.339   1.285   3.321  0.0772  0.2425  0.2687
 7258SOL     OW33235   4.207   4.150   7.904 -0.0218  0.0259 -0.1613
 7258SOL    HW133236   4.248   4.147   7.991 -0.1691 -0.7741 -0.1243
 7258SOL    HW233237   4.225   4.061   7.873 -0.9790 -0.6289  1.1593
 7259SOL     OW33238   2.729   2.900  14.024  0.0987 -0.5639 -0.5233
 7259SOL    HW133239   2.806   2.957  14.017 -0.3660 -0.0255 -1.2214
 7259SOL    HW233240   2.677   2.946  14.089  0.0963 -0.9128 -0.2807
 7260SOL     OW33241   0.568   0.950  10.061 -0.4082  0.7182  0.2779
 7260SOL    HW133242   0.581   0.855  10.066 -0.3382  0.7853  1.3599
 7260SOL    HW233243   0.661   0.966  10.044 -0.2244 -0.8208 -0.1916
 7261SOL     OW33244   1.682   0.843   3.206  0.0848  0.3634  0.2926
 7261SOL    HW133245   1.649   0.834   3.117  1.5144  0.2639 -0.2210
 7261SOL    HW233246   1.652   0.761   3.245 -2.2647  1.3642  0.5741
 7262SOL     OW33247   3.746   0.415   8.876 -0.4447  0.1268 -0.6039
 7262SOL    HW133248   3.804   0.485   8.906 -0.3659  0.6297 -1.9176
 7262SOL    HW233249   3.771   0.395   8.785  0.7318 -0.2957 -0.1870
 7263SOL     OW33250   1.075   1.662   6.670  0.0856  0.4578 -0.2476
 7263SOL    HW133251   1.118   1.746   6.653  2.3557 -0.8654 -1.0030
 7263SOL    HW233252   1.018   1.648   6.594 -0.6209 -2.9829  0.9184
 7264SOL     OW33253   3.129   0.434   6.449  0.4961 -0.1276  0.3751
 7264SOL    HW133254   3.132   0.340   6.432 -1.4041  0.0797 -1.1628
 7264SOL    HW233255   3.074   0.437   6.527 -1.6003  2.3725 -1.1946
 7265SOL     OW33256   4.283   0.672   7.334  0.3831  0.2399  0.1389
 7265SOL    HW133257   4.304   0.599   7.392 -1.1986 -0.1177  0.2461
 7265SOL    HW233258   4.305   0.633   7.249  2.2041 -1.0614  1.1859
 7266SOL     OW33259   3.159   3.070   7.232  0.5692 -0.2193  0.0118
 7266SOL    HW133260   3.225   3.001   7.218  0.7329 -0.3211  1.3070
 7266SOL    HW233261   3.083   3.020   7.202 -0.4917  1.0085  0.6821
 7267SOL     OW33262   1.627   4.253   5.434 -0.5087  0.3769 -0.1972
 7267SOL    HW133263   1.715   4.262   5.397 -0.1165 -0.9325  0.4130
 7267SOL    HW233264   1.577   4.229   5.356 -0.9448 -1.2999  0.6000
 7268SOL     OW33265   3.403   3.911  16.405 -1.0605 -0.2095  0.0317
 7268SOL    HW133266   3.310   3.932  16.399 -0.7767  1.1124  0.3095
 7268SOL    HW233267   3.409   3.822  16.370 -2.0050 -0.2665  0.0032
 7269SOL     OW33268   0.723   3.607   9.517  0.4092  0.1565 -0.0293
 7269SOL    HW133269   0.684   3.647   9.439 -2.0373 -0.3022  0.9621
 7269SOL    HW233270   0.771   3.678   9.558 -0.4466  1.8519 -1.9671
 7270SOL     OW33271   2.574   1.343   6.977 -0.1446  0.8709  0.1494
 7270SOL    HW133272   2.532   1.358   7.062 -0.9459 -0.7092  0.0197
 7270SOL    HW233273   2.507   1.283   6.944  1.5360 -0.3836 -0.9554
 7271SOL     OW33274   3.762   4.197  14.425 -0.2240 -0.7216 -0.1019
 7271SOL    HW133275   3.777   4.131  14.494  0.9795 -0.0042  0.3108
 7271SOL    HW233276   3.679   4.237  14.451  0.1184 -0.0458 -0.0752
 7272SOL     OW33277   1.531   1.117   2.098  0.5560 -0.1138 -0.0285
 7272SOL    HW133278   1.567   1.091   2.013 -1.4876  1.6328 -1.4150
 7272SOL    HW233279   1.595   1.074   2.155 -1.7063 -0.7440  2.0384
 7273SOL     OW33280   3.467   1.351   4.622  0.8905 -0.2521  0.3016
 7273SOL    HW133281   3.524   1.427   4.630  0.1064  0.4440 -0.6199
 7273SOL    HW233282   3.442   1.339   4.713  1.1028  0.7244  0.4809
 7274SOL     OW33283   0.772   3.459  11.919 -0.3561 -0.1388 -0.8351
 7274SOL    HW133284   0.863   3.435  11.940 -0.6422 -0.5214 -0.0164
 7274SOL    HW233285   0.769   3.531  11.981 -0.4212 -0.5724 -0.3320
 7275SOL     OW33286   0.100   0.697   0.362  0.1614 -0.0002  0.2693
 7275SOL    HW133287   0.027   0.714   0.302  1.2555 -0.4110 -1.1852
 7275SOL    HW233288   0.163   0.766   0.341  1.8634 -0.8714  2.4802
 7276SOL     OW33289   4.336   0.774   2.611 -0.3548  0.3599 -0.3868
 7276SOL    HW133290   4.382   0.702   2.569  0.5952  1.1958 -0.7558
 7276SOL    HW233291   4.389   0.846   2.580  1.5260 -1.2309 -0.8800
 7277SOL     OW33292   1.523   2.947  17.347  0.0786 -0.2884  0.2100
 7277SOL    HW133293   1.453   2.980  17.291 -0.0929 -0.4364  0.3370
 7277SOL    HW233294   1.473   2.940  17.429  0.7799  0.3010  0.6863
 7278SOL     OW33295   2.484   4.435   7.320  0.1157 -0.8178  0.2486
 7278SOL    HW133296   2.434   4.368   7.272 -0.4568  0.9841 -1.6788
 7278SOL    HW233297   2.428   4.508   7.291  1.0434 -0.4409 -0.5938
 7279SOL     OW33298   2.607   1.947   5.152  0.5669 -0.8371 -0.4601
 7279SOL    HW133299   2.528   1.893   5.160 -2.0553  3.1367  0.4793
 7279SOL    HW233300   2.622   1.959   5.058  0.7345 -1.1845 -0.4774
 7280SOL     OW33301   2.679   0.066  16.512  0.2040 -0.0202 -0.3053
 7280SOL    HW133302   2.731   0.092  16.589 -0.2724 -2.4492  0.8475
 7280SOL    HW233303   2.748   0.080  16.448 -0.4234  0.0607 -0.9657
 7281SOL     OW33304   3.265   1.792   7.328 -0.5059  0.5484  0.3804
 7281SOL    HW133305   3.338   1.819   7.382 -2.1582  0.6861  2.5336
 7281SOL    HW233306   3.239   1.708   7.366 -1.1884  0.1799 -0.8913
 7282SOL     OW33307   1.086   1.275   5.380  0.2231  0.4680  0.5357
 7282SOL    HW133308   1.107   1.307   5.292 -3.6277  1.2354 -0.1232
 7282SOL    HW233309   1.052   1.354   5.423 -2.7839  0.9665 -2.6806
 7283SOL     OW33310   3.159   3.841   6.480 -0.2463  0.2353 -0.2761
 7283SOL    HW133311   3.139   3.804   6.566 -1.3490 -1.9688 -1.4664
 7283SOL    HW233312   3.152   3.762   6.426 -0.2756  0.6860 -0.9290
 7284SOL     OW33313   2.064   4.151  17.426 -0.0985  0.2193  0.0513
 7284SOL    HW133314   1.984   4.113  17.392 -0.0155 -0.1823  0.3064
 7284SOL    HW233315   2.032   4.181  17.511 -1.9894  0.3811 -0.7169
 7285SOL     OW33316   3.828   2.335  17.270 -0.4710 -0.1987  0.2479
 7285SOL    HW133317   3.922   2.325  17.255  0.1101  2.2052  2.3759
 7285SOL    HW233318   3.820   2.425  17.302 -0.6427 -0.4637  0.9614
 7286SOL     OW33319   1.806   2.437  11.521  0.0980 -0.2703 -0.0694
 7286SOL    HW133320   1.844   2.395  11.599 -1.1389 -1.8283 -0.2944
 7286SOL    HW233321   1.868   2.507  11.505 -0.2657 -0.0862 -0.6641
 7287SOL     OW33322   2.313   0.250   1.007 -0.1996  0.0526  0.2180
 7287SOL    HW133323   2.293   0.319   1.071 -0.5489 -0.0547  0.2202
 7287SOL    HW233324   2.240   0.249   0.945 -1.2915  1.5325  1.4542
 7288SOL     OW33325   4.213   0.970   3.132  0.2208 -0.3518 -0.2486
 7288SOL    HW133326   4.141   0.914   3.102 -0.1534  1.1151 -2.0100
 7288SOL    HW233327   4.221   1.039   3.067  0.2371  0.7284  0.9002
 7289SOL     OW33328   1.876   3.944   4.931  0.2017 -0.4524 -0.7890
 7289SOL    HW133329   1.883   3.980   4.842 -0.5188  1.0896 -0.2200
 7289SOL    HW233330   1.952   3.886   4.928  0.4604 -0.1323 -0.4551
 7290SOL     OW33331   2.300   1.949   8.710  0.2235  0.5130  0.3723
 7290SOL    HW133332   2.245   1.901   8.647 -0.4482 -0.2373  1.5398
 7290SOL    HW233333   2.247   1.963   8.788  2.5847  0.0302  2.0442
 7291SOL     OW33334   4.565   3.743   8.752  0.9373  0.2879  0.4304
 7291SOL    HW133335   4.543   3.783   8.836 -1.8837  0.6636 -0.4775
 7291SOL    HW233336   4.657   3.715   8.760  1.0779  0.6760  0.1677
 7292SOL     OW33337   3.803   2.598  14.450  0.6058  0.1974 -0.3169
 7292SOL    HW133338   3.774   2.561  14.366  2.5361  1.4789 -1.5717
 7292SOL    HW233339   3.800   2.691  14.429 -1.8698 -0.2025 -1.7393
 7293SOL     OW33340   1.256   4.528   5.373  0.0765  0.0747  0.7450
 7293SOL    HW133341   1.267   4.547   5.280  2.3783 -0.4599  0.9076
 7293SOL    HW233342   1.341   4.560   5.404  0.3809 -0.4948  0.5093
 7294SOL     OW33343   4.321   4.238   9.614 -0.1612 -0.1340  0.1356
 7294SOL    HW133344   4.330   4.325   9.575  0.9957 -0.2112  0.2530
 7294SOL    HW233345   4.257   4.198   9.554 -0.0786  0.6547 -0.4786
 7295SOL     OW33346   0.169   0.732  15.126  0.7205  0.0605 -0.3467
 7295SOL    HW133347   0.103   0.780  15.076  2.0577  0.4060 -1.7980
 7295SOL    HW233348   0.129   0.661  15.176 -2.8084  1.3161 -1.3966
 7296SOL     OW33349   0.013   0.696   9.486  0.5850 -0.8747  0.4040
 7296SOL    HW133350   4.703   0.630   9.547  1.1605 -0.4707  1.1563
 7296SOL    HW233351   4.698   0.684   9.400 -0.8268  1.4010  0.7118
 7297SOL     OW33352   1.890   0.819   6.896 -1.1298  0.4864 -0.1716
 7297SOL    HW133353   1.969   0.824   6.841 -1.3093  0.5841 -0.4186
 7297SOL    HW233354   1.858   0.731   6.874 -1.0754  1.0124 -2.3996
 7298SOL     OW33355   2.794   3.250   8.528 -0.5359 -0.1940 -0.0527
 7298SOL    HW133356   2.833   3.205   8.453  0.6915 -0.4320  0.7109
 7298SOL    HW233357   2.726   3.186   8.548 -1.7822  1.1740  0.1425
 7299SOL     OW33358   4.033   1.469   6.550 -0.9555  0.3506  0.5578
 7299SOL    HW133359   4.124   1.466   6.520 -0.8620  0.7632  0.8042
 7299SOL    HW233360   4.041   1.466   6.645 -1.0866 -0.2647  0.5494
 7300SOL     OW33361   4.251   2.154   7.206  0.1425 -0.2891 -0.3897
 7300SOL    HW133362   4.210   2.153   7.292 -1.0719 -0.1089 -0.9731
 7300SOL    HW233363   4.301   2.235   7.213  1.1920 -0.8569 -1.3794
 7301SOL     OW33364   3.577   0.105  11.219 -0.1860 -0.1177 -0.6711
 7301SOL    HW133365   3.537   0.096  11.306  0.3401 -1.1277 -0.5327
 7301SOL    HW233366   3.651   0.155  11.253 -0.3896  0.9506 -1.8454
 7302SOL     OW33367   3.491   2.458   2.367 -0.0529 -0.1117  0.4893
 7302SOL    HW133368   3.396   2.449   2.359  0.2798 -1.5845 -1.8485
 7302SOL    HW233369   3.527   2.427   2.284 -0.8289  0.0284  0.1041
 7303SOL     OW33370   4.556   2.733   5.044  0.2295 -0.3580  0.2529
 7303SOL    HW133371   4.477   2.778   5.013 -1.5275 -2.7883  1.1944
 7303SOL    HW233372   4.620   2.773   4.986 -1.5409  1.8049 -0.2043
 7304SOL     OW33373   1.146   2.377  12.726 -0.6645  0.1301  0.1473
 7304SOL    HW133374   1.194   2.453  12.694  0.1435 -0.4491 -0.0159
 7304SOL    HW233375   1.072   2.364  12.667 -0.8466  0.1107  0.3778
 7305SOL     OW33376   2.316   0.497   1.767 -0.2900  0.3848  0.0334
 7305SOL    HW133377   2.322   0.425   1.704  1.5496  0.2806  0.3098
 7305SOL    HW233378   2.222   0.504   1.777 -0.3037  2.5680 -1.5202
 7306SOL     OW33379   4.422   2.550  14.144 -0.2285 -0.0238 -0.2313
 7306SOL    HW133380   4.342   2.557  14.091  0.0129  2.3691 -0.2838
 7306SOL    HW233381   4.430   2.636  14.185 -0.4766 -0.5632  0.9450
 7307SOL     OW33382   1.139   1.145   2.745 -0.2209  0.3096  0.0142
 7307SOL    HW133383   1.200   1.073   2.734  1.5409  1.4533  2.1015
 7307SOL    HW233384   1.173   1.202   2.676  1.8935 -0.2895  0.5783
 7308SOL     OW33385   1.408   3.791   4.489 -0.8008 -0.1842 -0.1208
 7308SOL    HW133386   1.462   3.825   4.417 -2.0906 -2.4025 -2.1396
 7308SOL    HW233387   1.368   3.710   4.457 -1.7700  0.3936 -0.3741
 7309SOL     OW33388   3.126   2.692   5.079  0.2577 -0.5518  0.1942
 7309SOL    HW133389   3.096   2.602   5.072 -0.5901 -0.2525 -0.0420
 7309SOL    HW233390   3.143   2.692   5.173 -0.4477 -5.1253  0.2899
 7310SOL     OW33391   1.455   3.853   5.430 -0.3163 -0.2268 -0.3695
 7310SOL    HW133392   1.448   3.894   5.517  2.1940 -0.7401  0.0839
 7310SOL    HW233393   1.407   3.771   5.442  2.0407 -1.4277  0.8667
 7311SOL     OW33394   1.812   1.046  16.815 -0.4175 -0.6190  0.0942
 7311SOL    HW133395   1.866   1.117  16.782 -3.2099  1.1780 -0.6332
 7311SOL    HW233396   1.751   1.028  16.744  0.4767 -1.0772 -0.5507
 7312SOL     OW33397   3.547   3.781  10.206  0.3297 -0.7148  0.4464
 7312SOL    HW133398   3.522   3.843  10.274  3.5887 -0.7107  1.6369
 7312SOL    HW233399   3.467   3.743  10.171  1.1550 -0.7508 -1.4414
 7313SOL     OW33400   3.810   3.068  10.925 -0.0732 -0.1944 -0.3194
 7313SOL    HW133401   3.801   3.099  11.015  2.8222  2.4137 -0.9451
 7313SOL    HW233402   3.717   3.050  10.909  0.0751  0.1409 -1.5767
 7314SOL     OW33403   1.659   3.212   2.633  0.3903  0.0571  0.3838
 7314SOL    HW133404   1.622   3.203   2.545 -0.3502  2.6928  0.4222
 7314SOL    HW233405   1.662   3.307   2.637 -0.1979  0.1404 -1.1236
 7315SOL     OW33406   3.289   1.184   5.554  0.1581 -0.0560  0.3647
 7315SOL    HW133407   3.237   1.263   5.564 -1.5248 -1.2809  1.3167
 7315SOL    HW233408   3.255   1.141   5.475  1.3615  0.8891 -0.6674
 7316SOL     OW33409   0.498   1.699   3.258  0.7327 -0.0510 -0.0337
 7316SOL    HW133410   0.500   1.765   3.327  0.2010 -1.9818  1.8485
 7316SOL    HW233411   0.541   1.753   3.192  0.4925  1.4455  1.0474
 7317SOL     OW33412   3.915   0.888  16.537  0.1451 -0.1330 -0.4426
 7317SOL    HW133413   4.011   0.883  16.534  0.2696  2.0613 -0.0819
 7317SOL    HW233414   3.908   0.804  16.583 -1.3012 -1.0733 -2.3570
 7318SOL     OW33415   1.717   4.497   5.925  0.1794 -0.2999 -0.1266
 7318SOL    HW133416   1.793   4.453   5.887  1.2503  0.3703  1.2625
 7318SOL    HW233417   1.648   4.432   5.920  0.0471 -0.2347  0.9099
 7319SOL     OW33418   1.596   2.169   6.969  0.4617 -0.5552 -0.5857
 7319SOL    HW133419   1.519   2.178   6.912  0.1652 -0.5198 -0.1810
 7319SOL    HW233420   1.561   2.203   7.051 -1.1427 -0.1798 -1.4163
 7320SOL     OW33421   3.500   1.461  10.644  0.5422 -0.1901  0.2726
 7320SOL    HW133422   3.541   1.375  10.642  0.0607 -0.4089 -0.0260
 7320SOL    HW233423   3.550   1.494  10.719  0.5787 -2.8312  1.3927
 7321SOL     OW33424   3.508   0.620  14.758 -0.3608 -0.3186 -0.1492
 7321SOL    HW133425   3.522   0.703  14.713  0.8334  0.2969  1.3201
 7321SOL    HW233426   3.520   0.557  14.687  1.4718  1.8794 -1.7777
 7322SOL     OW33427   0.483   2.762  13.777  0.0216 -0.1176  0.1219
 7322SOL    HW133428   0.388   2.774  13.780  0.1462  1.5769 -2.9196
 7322SOL    HW233429   0.505   2.774  13.870  0.4380 -1.5221  0.2016
 7323SOL     OW33430   4.048   3.720   3.222  0.2307 -0.0129  0.1468
 7323SOL    HW133431   4.005   3.798   3.258  1.1611  0.4053  0.3612
 7323SOL    HW233432   4.052   3.749   3.131  2.4629 -0.6786  0.0252
 7324SOL     OW33433   2.457   0.835   6.662  0.0655 -0.1908  0.2965
 7324SOL    HW133434   2.396   0.771   6.698  0.5358 -0.6562  0.2688
 7324SOL    HW233435   2.521   0.854   6.730 -1.5114  2.0226  1.1483
 7325SOL     OW33436   2.583   3.352   5.459 -0.1399 -0.2935 -0.1455
 7325SOL    HW133437   2.590   3.273   5.407 -1.6784 -0.7369  0.3066
 7325SOL    HW233438   2.625   3.418   5.404  1.0792 -2.3552 -1.6671
 7326SOL     OW33439   2.211   0.425   7.286 -0.1689 -0.2286  0.8776
 7326SOL    HW133440   2.154   0.372   7.230  0.6641 -1.7197  1.4364
 7326SOL    HW233441   2.297   0.384   7.273  0.4538  0.8346  1.6221
 7327SOL     OW33442   2.454   2.889  12.032 -0.1114  0.0178 -0.2268
 7327SOL    HW133443   2.405   2.896  12.114 -0.0506  0.1282 -0.2006
 7327SOL    HW233444   2.526   2.828  12.046  1.3274  2.1398  1.6192
 7328SOL     OW33445   0.138   0.092   7.551  0.9725  0.2415 -0.4903
 7328SOL    HW133446   0.132   4.720   7.559  0.1254  0.2500 -0.9978
 7328SOL    HW233447   0.116   0.109   7.460  1.9213 -1.0680 -0.9598
 7329SOL     OW33448   1.803   4.300  10.475 -0.1754 -0.0444  0.4190
 7329SOL    HW133449   1.723   4.251  10.456 -0.0169 -0.6529  1.3046
 7329SOL    HW233450   1.845   4.228  10.523 -0.2835  0.8174  1.7848
 7330SOL     OW33451   3.474   0.059   8.593  0.0915  0.1910 -0.0770
 7330SOL    HW133452   3.420   0.081   8.518  0.6523 -0.4055 -0.6533
 7330SOL    HW233453   3.415   0.081   8.666 -1.4983  1.3528 -1.7102
 7331SOL     OW33454   1.771   4.490  12.237 -0.1286  0.4355  0.2831
 7331SOL    HW133455   1.857   4.507  12.276 -0.2461 -0.9692  1.1639
 7331SOL    HW233456   1.721   4.514  12.314 -2.2960 -1.4454 -0.5318
 7332SOL     OW33457   0.064   3.859   4.417 -0.0871 -0.4731  0.7421
 7332SOL    HW133458   0.142   3.877   4.469  0.5321  0.7088 -0.6058
 7332SOL    HW233459   0.028   3.948   4.414  0.1242 -0.3404  2.0125
 7333SOL     OW33460   0.025   1.106   3.126 -0.1880 -0.6980 -0.9024
 7333SOL    HW133461   0.024   1.013   3.147  1.8756 -0.2952  1.0352
 7333SOL    HW233462   0.101   1.150   3.163 -2.0558  2.9980 -1.4244
 7334SOL     OW33463   0.967   4.073  16.580  0.3368  0.0348 -1.1723
 7334SOL    HW133464   0.927   4.138  16.637  2.1752 -0.6743  0.9426
 7334SOL    HW233465   1.004   4.127  16.510  1.3432  1.5707  0.5783
 7335SOL     OW33466   4.308   0.736  10.483 -0.4802  0.6049  0.1166
 7335SOL    HW133467   4.304   0.805  10.416  0.7655  0.0412 -0.5439
 7335SOL    HW233468   4.264   0.782  10.554 -1.6514 -0.1496 -0.1125
 7336SOL     OW33469   0.122   4.709   5.556  0.0804 -0.7721 -0.3077
 7336SOL    HW133470   0.081   4.672   5.478 -2.9098 -2.4298  2.0268
 7336SOL    HW233471   0.157   0.067   5.519  0.9673 -1.2659 -0.5383
 7337SOL     OW33472   0.829   1.721   3.737 -0.0639 -0.2561  0.9956
 7337SOL    HW133473   0.783   1.797   3.771 -0.5907 -0.3076  0.4012
 7337SOL    HW233474   0.772   1.649   3.764 -1.1919  0.6786  1.1178
 7338SOL     OW33475   2.589   1.884   3.571 -0.6005 -0.3639  0.1260
 7338SOL    HW133476   2.589   1.896   3.666  1.4161 -1.7156  0.2824
 7338SOL    HW233477   2.672   1.839   3.556  0.2384  1.1193  0.2561
 7339SOL     OW33478   1.558   2.353   9.566 -0.1985 -0.0436  0.0281
 7339SOL    HW133479   1.619   2.355   9.640 -0.5717 -2.1762  0.3951
 7339SOL    HW233480   1.591   2.423   9.508  1.3099 -1.3376 -0.6848
 7340SOL     OW33481   1.380   3.981  10.890 -0.0726  0.1739 -0.4049
 7340SOL    HW133482   1.468   4.016  10.877  0.4676 -1.8139 -2.1906
 7340SOL    HW233483   1.336   3.981  10.804 -2.2685 -1.5068  0.7215
 7341SOL     OW33484   4.348   1.189  13.700 -0.1703  0.2761 -0.2739
 7341SOL    HW133485   4.400   1.221  13.773 -0.5873  0.1623  0.0740
 7341SOL    HW233486   4.264   1.187  13.745 -0.3819 -0.4364 -0.6977
 7342SOL     OW33487   2.243   0.114  16.437 -0.2551  0.2657  0.0677
 7342SOL    HW133488   2.278   0.050  16.500  1.0165  1.2042  0.3091
 7342SOL    HW233489   2.318   0.174  16.431 -0.0509 -0.2888 -2.8659
 7343SOL     OW33490   4.105   0.695   4.408 -0.3503  0.0745 -0.3163
 7343SOL    HW133491   4.167   0.657   4.470  0.7444  0.0615 -1.4205
 7343SOL    HW233492   4.126   0.643   4.331 -0.1155  0.2263 -0.3545
 7344SOL     OW33493   3.133   1.777   5.489  0.2518  0.4145  0.2693
 7344SOL    HW133494   3.206   1.759   5.430  0.1849  2.7047 -0.4938
 7344SOL    HW233495   3.174   1.746   5.570 -1.2068  1.5190  1.4361
 7345SOL     OW33496   1.276   2.045  17.569  0.2595  0.5520  0.0521
 7345SOL    HW133497   1.187   2.058  17.601  0.6640  3.6107 -0.0528
 7345SOL    HW233498   1.315   2.113  17.625 -0.1507 -0.5224  1.6532
 7346SOL     OW33499   4.659   2.784  12.297  0.9174 -0.4055 -0.5920
 7346SOL    HW133500   4.649   2.842  12.221  3.6214 -1.0104 -1.4110
 7346SOL    HW233501   4.722   2.832  12.352  1.2253  3.3492 -4.2394
 7347SOL     OW33502   3.700   1.750   9.085  0.2938 -0.0409 -0.3889
 7347SOL    HW133503   3.771   1.805   9.051  1.7587 -0.6052  1.7310
 7347SOL    HW233504   3.715   1.737   9.179 -0.5320  1.9026  0.0085
 7348SOL     OW33505   0.661   0.360   4.738 -0.1192 -0.2532 -0.7808
 7348SOL    HW133506   0.731   0.387   4.797 -1.5957  1.7827  0.0560
 7348SOL    HW233507   0.654   0.434   4.677  4.5115 -0.0762 -1.0892
 7349SOL     OW33508   0.685   4.684   0.191  0.0843 -0.5282 -0.1112
 7349SOL    HW133509   0.657   4.664   0.101  0.9173 -1.2148 -0.2169
 7349SOL    HW233510   0.618   0.024   0.218  0.0703  0.0517 -1.4721
 7350SOL     OW33511   0.188   3.697   4.666  0.8600 -0.3896  0.4455
 7350SOL    HW133512   0.109   3.645   4.682  1.2530 -1.3668 -0.7534
 7350SOL    HW233513   0.254   3.642   4.707 -1.4559 -2.8258  0.9050
 7351SOL     OW33514   1.057   4.445   8.565 -0.1652  0.1434 -0.0576
 7351SOL    HW133515   1.057   4.505   8.490  2.0163 -0.4434 -0.5239
 7351SOL    HW233516   1.011   4.500   8.629  0.6167  0.9521 -0.1943
 7352SOL     OW33517   0.396   1.803  15.031  0.0182  0.0014  0.3616
 7352SOL    HW133518   0.340   1.835  14.961  2.3751 -1.5373 -2.2160
 7352SOL    HW233519   0.429   1.723  14.991 -0.9174  0.0444 -0.4973
 7353SOL     OW33520   0.069   2.434  10.376 -0.0349  0.0245  0.3072
 7353SOL    HW133521   4.709   2.462  10.337  1.4536 -1.0101 -3.5621
 7353SOL    HW233522   0.124   2.490  10.321  0.5643  0.3999  1.2896
 7354SOL     OW33523   1.291   2.327   3.164 -0.2519  0.8022  0.2332
 7354SOL    HW133524   1.268   2.253   3.220  1.1928  1.4126  1.6718
 7354SOL    HW233525   1.363   2.356   3.220 -2.2117 -0.3625  3.3464
 7355SOL     OW33526   1.549   2.840   6.121 -0.1630 -0.0010  0.5275
 7355SOL    HW133527   1.586   2.808   6.202  1.4631  0.5999  0.0178
 7355SOL    HW233528   1.563   2.934   6.129 -1.9902  0.2857  0.4438
 7356SOL     OW33529   2.535   3.690   4.106 -0.1883 -0.0294 -0.1858
 7356SOL    HW133530   2.453   3.652   4.073 -1.7075  2.8368  0.2499
 7356SOL    HW233531   2.505   3.765   4.157 -2.4834 -0.4035 -0.9889
 7357SOL     OW33532   4.052   0.111  14.033  0.2079 -0.3344  0.0333
 7357SOL    HW133533   4.122   0.056  14.000  0.6684  0.4404 -0.2767
 7357SOL    HW233534   4.086   0.132  14.120  1.8090  1.9891 -1.1721
 7358SOL     OW33535   1.186   4.163  17.589 -0.6203  0.1046  0.8009
 7358SOL    HW133536   1.209   4.235  17.531 -0.8777 -0.4543 -0.0071
 7358SOL    HW233537   1.190   4.205  17.675 -0.9398 -1.5259  1.6349
 7359SOL     OW33538   1.113   3.224   7.327  0.4982  0.3136  0.3484
 7359SOL    HW133539   1.141   3.277   7.252  1.1741  0.2201  0.5415
 7359SOL    HW233540   1.030   3.262   7.358  1.5224  0.2414  3.2193
 7360SOL     OW33541   3.616   1.960   8.117 -0.7874  0.2234 -0.3674
 7360SOL    HW133542   3.549   1.945   8.183 -0.5360  2.3662  0.3605
 7360SOL    HW233543   3.624   2.055   8.117  0.2417  0.1365  0.2550
 7361SOL     OW33544   3.348   3.950  10.347  0.2445 -0.1699  0.1450
 7361SOL    HW133545   3.348   3.958  10.443  0.5146  2.9350 -0.1165
 7361SOL    HW233546   3.274   3.892  10.330  0.8934 -0.7380 -0.7487
 7362SOL     OW33547   3.936   1.945   2.990 -0.2370 -0.1468 -0.2615
 7362SOL    HW133548   3.899   2.032   2.972 -0.2876  0.1999  1.4726
 7362SOL    HW233549   3.934   1.944   3.086  0.5757  1.1630 -0.2343
 7363SOL     OW33550   3.167   4.531   5.051  0.2179 -0.0531  0.2344
 7363SOL    HW133551   3.094   4.541   4.990 -0.5913  0.6647  1.3199
 7363SOL    HW233552   3.170   4.619   5.089  2.5739  0.2660 -0.7054
 7364SOL     OW33553   1.361   3.291  10.583 -0.2376  0.3314  0.5590
 7364SOL    HW133554   1.289   3.355  10.581 -0.1842  0.3678 -0.4145
 7364SOL    HW233555   1.360   3.260  10.493  1.3608  0.3397  0.5456
 7365SOL     OW33556   2.349   1.851   5.147  0.0057  0.3797  0.2285
 7365SOL    HW133557   2.331   1.901   5.067 -0.9633 -0.3887 -0.0348
 7365SOL    HW233558   2.358   1.766   5.105 -0.6968 -0.1133  1.0986
 7366SOL     OW33559   4.550   4.166   2.336  0.3027  0.0769  0.1585
 7366SOL    HW133560   4.592   4.082   2.358  0.0262 -0.0136  0.3353
 7366SOL    HW233561   4.489   4.143   2.266  1.7653 -2.4873 -0.3034
 7367SOL     OW33562   2.591   1.805   4.631 -0.1697  0.0558  0.8546
 7367SOL    HW133563   2.515   1.760   4.667  0.3713  0.7364  2.8564
 7367SOL    HW233564   2.580   1.894   4.664 -1.2730  0.5339 -0.8141
 7368SOL     OW33565   3.194   2.724   5.345  0.2127 -0.2892 -0.4984
 7368SOL    HW133566   3.235   2.651   5.391  1.6269  0.9219  0.1346
 7368SOL    HW233567   3.271   2.780   5.352  0.9022 -1.5569  1.8737
 7369SOL     OW33568   4.329   4.075   0.909  0.1797  0.3687 -0.1538
 7369SOL    HW133569   4.236   4.055   0.917  0.5542 -1.2848 -0.0280
 7369SOL    HW233570   4.354   4.030   0.828  0.2686  1.3035 -0.6462
 7370SOL     OW33571   2.519   3.064   0.096 -1.0254  0.3794  0.3817
 7370SOL    HW133572   2.595   3.087   0.043 -0.5647 -1.3367  0.2908
 7370SOL    HW233573   2.516   3.151   0.136  0.9844  0.0695  1.1898
 7371SOL     OW33574   2.547   3.558   6.729 -0.2913  0.1734 -0.3238
 7371SOL    HW133575   2.493   3.582   6.805  2.1109  0.4763  1.2893
 7371SOL    HW233576   2.622   3.614   6.748 -0.6144  0.7979 -0.9122
 7372SOL     OW33577   0.857   1.097  10.940  0.6507 -0.1364 -0.9111
 7372SOL    HW133578   0.897   1.026  10.890 -0.5632  0.2731 -2.4899
 7372SOL    HW233579   0.816   1.060  11.018 -2.1041  2.3520 -1.1691
 7373SOL     OW33580   2.205   2.405  14.269 -0.8043 -0.3420  0.5120
 7373SOL    HW133581   2.155   2.376  14.346 -1.1820  0.0080  0.3958
 7373SOL    HW233582   2.229   2.322  14.227 -1.2441 -1.7311  2.9507
 7374SOL     OW33583   1.269   4.661   4.737  0.5363 -0.3590  0.3147
 7374SOL    HW133584   1.288   0.018   4.687  2.5254 -1.7228 -1.1226
 7374SOL    HW233585   1.314   4.673   4.820 -2.4339  0.7843  1.7336
 7375SOL     OW33586   4.338   3.116   8.851 -0.0282  0.3029  0.0102
 7375SOL    HW133587   4.285   3.195   8.860  0.9845  1.0662 -0.7968
 7375SOL    HW233588   4.393   3.124   8.930 -0.0267 -0.1684  0.0567
 7376SOL     OW33589   2.630   0.954   5.368  0.0616  0.6317  0.2463
 7376SOL    HW133590   2.692   1.025   5.352  0.2860  0.3123 -0.2718
 7376SOL    HW233591   2.658   0.916   5.451 -0.2955 -2.0839 -0.8907
 7377SOL     OW33592   2.115   2.544   7.584 -0.2326 -0.2062  0.4999
 7377SOL    HW133593   2.128   2.473   7.648 -0.5741 -3.4360 -3.0252
 7377SOL    HW233594   2.039   2.522   7.530 -1.6971 -0.4120  2.6044
 7378SOL     OW33595   2.205   4.264   5.398 -0.3068 -0.0156  0.3965
 7378SOL    HW133596   2.234   4.267   5.489 -1.9851  0.0812  0.9309
 7378SOL    HW233597   2.157   4.181   5.402 -0.6801  0.1898  0.2256
 7379SOL     OW33598   1.646   3.967   0.267 -0.3036 -0.3036 -0.4732
 7379SOL    HW133599   1.726   3.971   0.319  0.7987  0.6156 -2.2543
 7379SOL    HW233600   1.585   3.958   0.340 -1.6684  1.0065 -1.4551
 7380SOL     OW33601   1.078   2.847   4.171  0.3460  0.3806 -0.8231
 7380SOL    HW133602   1.076   2.907   4.096  1.1463  1.2217 -0.1715
 7380SOL    HW233603   1.089   2.761   4.130 -2.4933 -0.4196  0.1210
 7381SOL     OW33604   2.715   1.984   4.897  0.1398  0.3816  0.1307
 7381SOL    HW133605   2.771   1.917   4.858  1.0235  0.2301  1.6444
 7381SOL    HW233606   2.775   2.054   4.924  0.8346 -0.4556  0.7598
 7382SOL     OW33607   0.058   2.302  10.903  0.5341 -0.1150  0.4255
 7382SOL    HW133608   0.130   2.339  10.852  0.4991 -0.8934 -0.1872
 7382SOL    HW233609   0.094   2.257  10.979 -0.1467 -1.0793  0.1714
 7383SOL     OW33610   3.577   1.047   2.011 -0.6334 -0.1533 -0.1122
 7383SOL    HW133611   3.574   1.141   2.029 -1.8771 -0.7824  2.9579
 7383SOL    HW233612   3.568   1.051   1.916  1.9013  0.7193 -0.3214
 7384SOL     OW33613   1.225   4.392   2.216 -0.9894  0.2031 -0.2021
 7384SOL    HW133614   1.200   4.349   2.134 -1.6425 -0.0170  0.1120
 7384SOL    HW233615   1.155   4.366   2.276 -0.5019 -2.0324 -0.5766
 7385SOL     OW33616   0.660   1.386   1.633  0.3375  0.0481  0.6045
 7385SOL    HW133617   0.693   1.464   1.588  1.7997 -0.7095  0.3567
 7385SOL    HW233618   0.700   1.314   1.584 -0.1945 -0.5196  0.9948
 7386SOL     OW33619   1.174   3.755  11.051  0.1033  0.0044 -0.0029
 7386SOL    HW133620   1.096   3.723  11.096 -0.2075 -0.0034 -0.5390
 7386SOL    HW233621   1.177   3.706  10.969 -0.1058  1.3854 -0.8418
 7387SOL     OW33622   4.411   1.800   7.860  0.1500 -0.0951 -0.0226
 7387SOL    HW133623   4.350   1.817   7.932 -0.1940  0.5300 -0.4608
 7387SOL    HW233624   4.475   1.749   7.910  1.1716 -0.9518 -2.1963
 7388SOL     OW33625   0.033   0.246   4.558  0.4116 -0.1203 -0.5221
 7388SOL    HW133626   4.720   0.328   4.593 -0.1970  0.0319 -1.4981
 7388SOL    HW233627   4.711   0.183   4.614 -0.4753 -0.8440 -2.0713
 7389SOL     OW33628   1.461   3.910   7.392 -0.1712  0.2837  0.6892
 7389SOL    HW133629   1.386   3.947   7.440 -0.2626  3.2251 -1.7424
 7389SOL    HW233630   1.533   3.973   7.396  0.4399 -0.2178 -2.5413
 7390SOL     OW33631   1.729   3.031  14.945 -0.1303 -0.6960 -0.5846
 7390SOL    HW133632   1.653   3.061  14.896  0.8633 -0.2951 -1.8851
 7390SOL    HW233633   1.696   2.950  14.985  0.8609  0.7452  3.1658
 7391SOL     OW33634   1.706   3.448   9.809 -0.4910  0.0509  0.0468
 7391SOL    HW133635   1.721   3.491   9.725 -1.0035  1.2989  0.5793
 7391SOL    HW233636   1.681   3.525   9.861  3.7897  1.0737  0.6166
 7392SOL     OW33637   1.154   3.506   8.584  0.0535 -0.1160 -0.1226
 7392SOL    HW133638   1.060   3.508   8.599  0.0849  1.1501 -0.0887
 7392SOL    HW233639   1.154   3.550   8.498 -0.9490  1.3699  0.6424
 7393SOL     OW33640   1.756   1.280   6.877 -0.1944 -0.4640 -0.2532
 7393SOL    HW133641   1.699   1.274   6.953  2.6171 -3.3376  1.6781
 7393SOL    HW233642   1.838   1.238   6.906 -0.1789  0.1119  0.5278
 7394SOL     OW33643   2.476   2.319   4.531  0.3405  0.3288  0.4040
 7394SOL    HW133644   2.492   2.409   4.562  0.9921  0.0934  0.7545
 7394SOL    HW233645   2.403   2.319   4.470  0.2575 -4.2452  0.5204
 7395SOL     OW33646   0.109   2.738  12.830 -0.4212  0.0233 -0.0814
 7395SOL    HW133647   0.117   2.818  12.882  0.7565  0.6160 -1.1732
 7395SOL    HW233648   0.081   2.680  12.901  0.3360 -0.5705 -0.2662
 7396SOL     OW33649   1.311   0.371   6.362  0.2409  0.0424  0.1802
 7396SOL    HW133650   1.229   0.331   6.391 -0.8219  1.4349 -0.8952
 7396SOL    HW233651   1.289   0.464   6.374 -0.5922  0.2295 -2.7436
 7397SOL     OW33652   2.369   1.238   2.576  0.2468 -0.3562 -0.0646
 7397SOL    HW133653   2.329   1.286   2.504  1.9967 -0.8342 -1.3541
 7397SOL    HW233654   2.460   1.267   2.569  0.3042 -1.0068 -1.8332
 7398SOL     OW33655   2.854   2.654  11.831  0.1689  0.0704 -0.2283
 7398SOL    HW133656   2.946   2.676  11.839  0.4898 -1.9546  1.5360
 7398SOL    HW233657   2.866   2.561  11.848  0.0038  0.5636  2.4780
 7399SOL     OW33658   1.134   3.960   4.455 -0.5074  0.1221 -0.7197
 7399SOL    HW133659   1.061   3.901   4.474 -0.6402  0.9256  1.2110
 7399SOL    HW233660   1.144   4.020   4.528  1.4302  0.7927 -1.5426
 7400SOL     OW33661   1.249   0.632   3.094  0.1458 -1.0213 -0.1099
 7400SOL    HW133662   1.254   0.726   3.078 -2.5733 -0.8834 -0.1498
 7400SOL    HW233663   1.155   0.613   3.092  0.0974 -0.8762  1.0406
 7401SOL     OW33664   0.731   0.448   7.090 -0.1757 -0.6382 -0.0277
 7401SOL    HW133665   0.737   0.489   7.177  0.7908 -0.5722 -0.1190
 7401SOL    HW233666   0.648   0.481   7.056  0.7296  2.5700  0.8411
 7402SOL     OW33667   0.696   2.425   0.451  0.1774  0.1886 -0.2096
 7402SOL    HW133668   0.684   2.334   0.479  2.9075  0.1048  0.6845
 7402SOL    HW233669   0.718   2.462   0.536 -0.0127 -0.6339  0.2043
 7403SOL     OW33670   1.113   1.235   1.351  0.4673 -0.5535 -0.3472
 7403SOL    HW133671   1.161   1.214   1.271  2.9231  1.0905  0.7338
 7403SOL    HW233672   1.164   1.177   1.407  1.2212 -0.0434 -0.5188
 7404SOL     OW33673   2.723   0.469   6.696 -0.4299 -0.4454  0.2769
 7404SOL    HW133674   2.716   0.561   6.671  0.7551 -0.4691 -0.1553
 7404SOL    HW233675   2.817   0.462   6.713 -0.2188  0.4414 -0.5127
 7405SOL     OW33676   3.967   4.257   2.517 -0.1343  0.0848  0.0995
 7405SOL    HW133677   3.976   4.304   2.434 -0.0066 -0.5012 -0.2157
 7405SOL    HW233678   3.967   4.328   2.582 -0.4551 -0.3956  0.6299
 7406SOL     OW33679   0.314   1.716   5.014 -0.2426  0.1220 -0.0840
 7406SOL    HW133680   0.249   1.713   4.944  1.4064 -1.6355 -1.5331
 7406SOL    HW233681   0.345   1.806   5.003  1.9607 -0.7967 -1.2783
 7407SOL     OW33682   2.085   2.700   5.619 -0.6432  0.0289 -0.3170
 7407SOL    HW133683   2.079   2.612   5.657  0.9194  0.0345 -0.0730
 7407SOL    HW233684   1.994   2.730   5.617 -0.8653 -0.6045  0.1198
 7408SOL     OW33685   0.482   0.249   5.444  0.2385 -0.1489  0.4766
 7408SOL    HW133686   0.389   0.246   5.466 -0.1506  0.8619 -0.9918
 7408SOL    HW233687   0.490   0.234   5.349 -1.3059  0.9731  0.1729
 7409SOL     OW33688   4.340   4.471   1.269  0.5652 -0.0942 -0.5757
 7409SOL    HW133689   4.431   4.499   1.256  0.1186  1.5790 -0.1803
 7409SOL    HW233690   4.322   4.495   1.360 -2.7649 -0.8717 -1.0217
 7410SOL     OW33691   1.596   2.001   1.360  0.4287  0.5365  0.3025
 7410SOL    HW133692   1.578   2.058   1.434  1.2729  4.2086 -2.3390
 7410SOL    HW233693   1.689   2.009   1.340 -0.0312  1.5629 -1.3896
 7411SOL     OW33694   2.388   2.832   2.981  0.5098  0.5812  0.1196
 7411SOL    HW133695   2.327   2.789   2.922 -1.1985 -0.3295  2.5098
 7411SOL    HW233696   2.476   2.817   2.947 -1.2678 -3.0963 -2.8439
 7412SOL     OW33697   0.777   2.409   8.317 -0.4094  0.0658 -0.2727
 7412SOL    HW133698   0.856   2.367   8.283 -0.7595 -0.0487 -0.9443
 7412SOL    HW233699   0.739   2.463   8.248 -0.9654  0.4108  0.3061
 7413SOL     OW33700   1.466   1.741   4.689  0.4608 -0.5079  0.4182
 7413SOL    HW133701   1.506   1.674   4.633 -2.3054  0.6919 -2.9242
 7413SOL    HW233702   1.487   1.821   4.641  0.9814  0.6359  2.5730
 7414SOL     OW33703   4.050   1.803   2.367  0.0550 -0.2356  0.2083
 7414SOL    HW133704   4.064   1.794   2.272  1.1977  2.5442  0.1118
 7414SOL    HW233705   4.112   1.870   2.396 -1.2936  0.0850  2.3586
 7415SOL     OW33706   1.638   3.990  16.480  0.3983  0.1989 -0.4906
 7415SOL    HW133707   1.584   4.064  16.452  0.0995  0.8115  1.7174
 7415SOL    HW233708   1.725   4.003  16.442  0.6087 -1.2151 -0.4988
 7416SOL     OW33709   3.529   3.008  15.281  0.0602 -0.5681  0.1420
 7416SOL    HW133710   3.440   2.981  15.305  0.7956 -2.8610  0.2929
 7416SOL    HW233711   3.536   2.950  15.205 -0.7076  0.6120 -0.8259
 7417SOL     OW33712   1.597   0.224   6.626 -0.4325  0.0340 -0.2068
 7417SOL    HW133713   1.626   0.192   6.540 -0.3104  0.0127 -0.1573
 7417SOL    HW233714   1.502   0.214   6.621 -0.1834 -2.2722 -0.3158
 7418SOL     OW33715   3.641   1.113   1.742 -0.0552  0.1501 -0.1196
 7418SOL    HW133716   3.705   1.179   1.715  0.1373  0.3144  0.7632
 7418SOL    HW233717   3.640   1.056   1.665 -0.8899 -0.2529  0.1921
 7419SOL     OW33718   0.950   1.222  13.044  0.0459  0.2689  0.3850
 7419SOL    HW133719   0.992   1.259  12.967  1.4031 -1.5476  0.2615
 7419SOL    HW233720   0.953   1.295  13.107 -0.6268  0.8301 -0.2382
 7420SOL     OW33721   3.132   1.513   8.814 -0.2900 -0.3120  0.2131
 7420SOL    HW133722   3.086   1.541   8.736 -1.5635  2.8037  2.0858
 7420SOL    HW233723   3.165   1.598   8.842  0.9125 -0.5109 -0.6181
 7421SOL     OW33724   1.018   2.949  16.212 -0.0176 -0.3761 -0.7999
 7421SOL    HW133725   1.026   3.035  16.169 -1.7646  0.0758 -0.2294
 7421SOL    HW233726   1.092   2.896  16.182  2.1982  3.5037 -2.3290
 7422SOL     OW33727   0.860   3.085  14.164  0.9162  0.2612 -0.3915
 7422SOL    HW133728   0.955   3.092  14.169  1.1230 -0.8446 -2.4870
 7422SOL    HW233729   0.845   3.152  14.230 -2.2402  1.4684 -2.2874
 7423SOL     OW33730   0.268   0.815   0.158 -1.0702 -0.3863  0.3299
 7423SOL    HW133731   0.359   0.842   0.163 -1.1963 -0.4240  2.8170
 7423SOL    HW233732   0.224   0.900   0.152 -0.2255  0.0726  0.6954
 7424SOL     OW33733   3.370   3.378   7.353 -0.1817 -0.3804  0.4751
 7424SOL    HW133734   3.451   3.421   7.325 -1.7496  1.4767 -1.2095
 7424SOL    HW233735   3.329   3.360   7.268 -0.3799  2.7498 -0.0723
 7425SOL     OW33736   1.293   1.374  15.397 -0.7453 -0.1745  0.0199
 7425SOL    HW133737   1.288   1.282  15.425  1.3994 -0.3736 -0.2597
 7425SOL    HW233738   1.254   1.424  15.469  2.3495  0.4960  1.2403
 7426SOL     OW33739   3.388   4.083  12.995 -0.3516 -0.3199  0.8092
 7426SOL    HW133740   3.383   3.988  13.006 -0.1634 -0.4829 -0.4554
 7426SOL    HW233741   3.468   4.095  13.046 -0.6983  1.7501  0.8532
 7427SOL     OW33742   1.566   3.069   5.108  0.2720  0.6665  0.1568
 7427SOL    HW133743   1.495   3.046   5.168  0.6055  1.6413  0.9137
 7427SOL    HW233744   1.633   3.071   5.176  0.1093 -0.7530  0.3539
 7428SOL     OW33745   1.883   3.998   6.916 -0.2269 -0.2327 -0.4317
 7428SOL    HW133746   1.880   3.962   7.005  1.2297  2.0537  0.5313
 7428SOL    HW233747   1.803   4.050   6.916 -0.7461 -1.0424  0.7465
 7429SOL     OW33748   1.366   2.030  12.844 -0.8726 -0.1216  0.0125
 7429SOL    HW133749   1.322   2.101  12.891 -0.3232 -0.5400  1.1459
 7429SOL    HW233750   1.320   1.949  12.864 -1.3552  0.4278  1.1243
 7430SOL     OW33751   3.851   3.039   1.666 -0.4135  0.2530 -0.4775
 7430SOL    HW133752   3.806   3.053   1.749  0.1822  1.7183 -0.4078
 7430SOL    HW233753   3.920   2.978   1.694  0.2792  0.7671 -1.0574
 7431SOL     OW33754   0.780   2.123   8.836 -0.0742 -0.6239  0.0306
 7431SOL    HW133755   0.757   2.211   8.865  0.5587 -0.3963 -0.1697
 7431SOL    HW233756   0.707   2.072   8.872  0.7013 -0.4752  1.8267
 7432SOL     OW33757   4.599   1.228   9.344  0.0643  0.1508 -0.6937
 7432SOL    HW133758   4.596   1.316   9.307  0.3114 -0.0172 -1.1127
 7432SOL    HW233759   4.505   1.208   9.345  0.1096  0.0081  1.2391
 7433SOL     OW33760   0.718   2.635   8.112 -0.0371 -0.3866  0.1485
 7433SOL    HW133761   0.807   2.652   8.142  0.1474  0.7661 -1.0853
 7433SOL    HW233762   0.700   2.722   8.079 -1.3143 -1.0749 -0.9656
 7434SOL     OW33763   4.424   2.699  14.958  0.6574  0.1416  0.4518
 7434SOL    HW133764   4.459   2.780  14.921 -0.9843  0.5273 -0.2158
 7434SOL    HW233765   4.501   2.642  14.952  2.3913  2.2161  3.1546
 7435SOL     OW33766   0.183   3.486   8.231 -0.2494  0.0476 -0.3861
 7435SOL    HW133767   0.193   3.475   8.137  0.8788 -0.7973 -0.1775
 7435SOL    HW233768   0.096   3.526   8.238 -0.6407 -1.0962  1.4749
 7436SOL     OW33769   3.510   0.648   8.482 -0.8266  0.5103 -0.3511
 7436SOL    HW133770   3.447   0.699   8.431 -1.6000  1.0198  1.1083
 7436SOL    HW233771   3.572   0.625   8.413  1.9438 -0.6209  2.5550
 7437SOL     OW33772   2.883   4.078   7.341 -0.2289  0.5190  0.1103
 7437SOL    HW133773   2.833   4.016   7.288 -1.3790  1.0719  0.5598
 7437SOL    HW233774   2.927   4.018   7.401  0.1685  0.6395 -0.0560
 7438SOL     OW33775   1.434   2.899   2.081  0.2055 -0.1706 -0.0188
 7438SOL    HW133776   1.346   2.933   2.064 -0.0861 -0.3523  1.1506
 7438SOL    HW233777   1.477   2.912   1.997 -0.9460 -0.9230 -0.7195
 7439SOL     OW33778   3.191   1.355   5.966 -0.7484 -0.2028  0.1669
 7439SOL    HW133779   3.205   1.265   5.937  0.5163  0.5779 -1.6263
 7439SOL    HW233780   3.281   1.387   5.966 -1.4080  1.6419 -0.9115
 7440SOL     OW33781   4.279   2.233   6.369 -0.5922  0.3470 -0.2565
 7440SOL    HW133782   4.347   2.179   6.327 -0.7110  0.5544 -0.7167
 7440SOL    HW233783   4.321   2.273   6.446 -1.6717 -1.6383  1.3371
 7441SOL     OW33784   1.156   2.822   6.698  0.2627 -0.0982  0.1825
 7441SOL    HW133785   1.152   2.914   6.722 -1.3523  0.0885 -0.8295
 7441SOL    HW233786   1.224   2.811   6.632  1.7931  2.6582  1.2987
 7442SOL     OW33787   2.863   4.138  13.419  0.4566  0.1690  0.6556
 7442SOL    HW133788   2.907   4.221  13.405 -0.0468  0.4932  1.0050
 7442SOL    HW233789   2.852   4.137  13.514 -1.9224 -2.8779  0.3589
 7443SOL     OW33790   2.345   2.785   3.489  0.1454  0.3080  0.0044
 7443SOL    HW133791   2.314   2.875   3.476  0.2668  0.4296  0.5287
 7443SOL    HW233792   2.373   2.777   3.398  1.8173 -2.6580  0.7865
 7444SOL     OW33793   1.664   1.760  15.321  0.2731  0.1936  0.3751
 7444SOL    HW133794   1.607   1.684  15.311  0.3270  0.3230 -0.9607
 7444SOL    HW233795   1.715   1.745  15.241 -2.1174 -0.0709 -1.0949
 7445SOL     OW33796   1.029   3.561   3.324  0.1146  0.0137  0.0763
 7445SOL    HW133797   0.992   3.560   3.236  2.1290  0.7603 -0.7820
 7445SOL    HW233798   1.122   3.544   3.309  0.0558 -2.1307  2.1883
 7446SOL     OW33799   1.815   2.636   6.537  0.0905 -0.0266  0.3611
 7446SOL    HW133800   1.783   2.596   6.618 -0.5922 -1.4981 -0.6379
 7446SOL    HW233801   1.862   2.559   6.504 -1.9617 -0.4864 -1.5179
 7447SOL     OW33802   0.028   0.099   9.804 -0.5623 -0.4828 -0.7253
 7447SOL    HW133803   0.077   0.119   9.724  2.1132  0.6008  1.1712
 7447SOL    HW233804   0.038   0.004   9.794 -1.7341 -0.6810  0.0870
 7448SOL     OW33805   1.618   4.333   4.951 -0.6722 -0.4215 -0.2381
 7448SOL    HW133806   1.637   4.368   4.864 -0.6788  2.3498  0.8705
 7448SOL    HW233807   1.522   4.331   4.950 -0.6599  0.6237 -3.2146
 7449SOL     OW33808   2.072   2.951   3.557 -0.3462 -0.3496 -0.2263
 7449SOL    HW133809   2.057   3.045   3.558 -0.1877 -0.3131 -1.0587
 7449SOL    HW233810   2.012   2.920   3.626 -2.0329 -0.8813 -1.9168
 7450SOL     OW33811   1.044   2.969   2.473 -0.2685  0.6893  0.1181
 7450SOL    HW133812   1.021   3.061   2.488 -0.7888  0.3845  1.2088
 7450SOL    HW233813   0.964   2.926   2.442  0.1441 -0.6992  0.9614
 7451SOL     OW33814   0.316   3.366  10.866 -0.0328 -0.3107  0.5686
 7451SOL    HW133815   0.256   3.434  10.836 -1.2568 -1.1338  1.1519
 7451SOL    HW233816   0.253   3.299  10.894 -0.7580  0.3574  0.5344
 7452SOL     OW33817   2.290   2.485   4.766 -0.5186  0.6794  0.5974
 7452SOL    HW133818   2.356   2.440   4.818 -1.3251  0.8404  1.7600
 7452SOL    HW233819   2.350   2.515   4.698  2.6287 -0.1556  3.0093
 7453SOL     OW33820   1.325   0.950   3.893 -0.5281  0.1173  0.1295
 7453SOL    HW133821   1.322   0.939   3.988 -0.2507 -0.8311  0.0327
 7453SOL    HW233822   1.241   0.990   3.874  0.2214  2.2718  1.4061
 7454SOL     OW33823   0.985   0.848   4.970 -0.8732 -0.4430  0.1628
 7454SOL    HW133824   0.975   0.918   4.906 -1.3419 -1.3866 -0.7767
 7454SOL    HW233825   0.899   0.808   4.973 -2.3329  2.7440  1.1609
 7455SOL     OW33826   1.922   4.490   3.104 -0.7397 -0.0848  0.0733
 7455SOL    HW133827   1.912   4.455   3.192 -2.7729 -1.8875 -0.8776
 7455SOL    HW233828   2.015   4.476   3.085 -0.9567  0.5779 -1.4958
 7456SOL     OW33829   3.821   3.059   8.561 -0.8393 -0.0765  0.3490
 7456SOL    HW133830   3.786   3.148   8.566 -0.3430  0.0900  0.8493
 7456SOL    HW233831   3.858   3.050   8.649  1.0851  1.5934 -0.2841
 7457SOL     OW33832   2.672   0.965   4.543  0.2403 -0.0495 -0.1804
 7457SOL    HW133833   2.660   1.043   4.597  2.1764  1.5202 -2.0268
 7457SOL    HW233834   2.615   0.987   4.470  0.5664 -0.3048 -0.5158
 7458SOL     OW33835   2.740   0.905   7.349  0.1381  0.3543  0.0299
 7458SOL    HW133836   2.754   0.999   7.347 -0.2280  0.4060 -0.0124
 7458SOL    HW233837   2.736   0.883   7.256 -1.4780 -2.7105  0.8127
 7459SOL     OW33838   3.335   0.152   5.794 -0.3396 -0.1707 -0.1923
 7459SOL    HW133839   3.331   0.090   5.722 -2.7602 -0.8413  0.5078
 7459SOL    HW233840   3.390   0.223   5.760  2.5022 -3.2125 -1.9123
 7460SOL     OW33841   2.391   4.006   2.706  0.9309  0.5306  0.2748
 7460SOL    HW133842   2.394   4.058   2.626 -2.7616  0.2344 -0.0691
 7460SOL    HW233843   2.475   3.961   2.702 -0.2638 -1.7391  0.7775
 7461SOL     OW33844   2.080   0.469   7.599  0.1441  0.5714  0.1213
 7461SOL    HW133845   2.146   0.401   7.584  0.3357  0.9887 -0.9330
 7461SOL    HW233846   2.121   0.538   7.547 -1.1756  2.6863  1.9104
 7462SOL     OW33847   1.504   2.163   6.473  0.3496 -0.0166 -0.1864
 7462SOL    HW133848   1.550   2.092   6.429 -0.0826 -1.6547  2.0466
 7462SOL    HW233849   1.453   2.203   6.403 -1.7395 -1.3836  0.5756
 7463SOL     OW33850   1.923   1.556   0.651  0.1854 -0.5497  0.3562
 7463SOL    HW133851   2.005   1.597   0.622 -1.2716  1.8818 -0.2833
 7463SOL    HW233852   1.892   1.617   0.718 -2.0277 -0.4698 -0.7636
 7464SOL     OW33853   3.612   4.008   3.954 -0.7372 -0.7523 -0.9271
 7464SOL    HW133854   3.578   4.075   4.013 -1.4911 -2.4352  0.5539
 7464SOL    HW233855   3.526   3.985   3.919 -1.4627  0.6563 -0.0539
 7465SOL     OW33856   2.609   3.861   0.544  0.1789  0.1689 -0.2617
 7465SOL    HW133857   2.699   3.880   0.571  0.1141  0.0969  0.0032
 7465SOL    HW233858   2.548   3.900   0.606  2.0820 -0.1123  1.7971
 7466SOL     OW33859   4.550   1.528   4.611 -0.7073  0.1916  0.1346
 7466SOL    HW133860   4.546   1.615   4.571  0.0940  0.8544  1.5048
 7466SOL    HW233861   4.456   1.511   4.609 -0.6322  0.1405 -2.8931
 7467SOL     OW33862   1.098   3.592   7.809  0.1347 -0.8769 -0.0543
 7467SOL    HW133863   1.187   3.584   7.776  1.1168 -3.1120  3.1580
 7467SOL    HW233864   1.098   3.520   7.872  2.3600  0.2923  1.2722
 7468SOL     OW33865   3.592   3.542   3.147  0.3568  0.5112 -0.2794
 7468SOL    HW133866   3.523   3.579   3.092  0.0396  0.2822 -0.0347
 7468SOL    HW233867   3.674   3.573   3.110 -0.2120 -0.6504 -2.4936
 7469SOL     OW33868   1.021   1.395   2.855 -0.1288  0.2537 -0.4948
 7469SOL    HW133869   1.039   1.389   2.949 -0.0420  0.7458 -0.4807
 7469SOL    HW233870   1.080   1.328   2.823 -0.3802  0.0539 -0.5389
 7470SOL     OW33871   4.148   1.107   9.411 -0.0527  0.1482 -0.1774
 7470SOL    HW133872   4.083   1.160   9.458  0.8184  1.8207 -0.8857
 7470SOL    HW233873   4.223   1.152   9.450 -0.7760  0.3252  1.0164
 7471SOL     OW33874   0.070   0.978  14.631  0.1129  0.8194  0.8961
 7471SOL    HW133875   0.155   0.969  14.588  0.2855 -0.2257  1.4689
 7471SOL    HW233876   0.010   0.967  14.557  0.6614 -1.6739  0.8379
 7472SOL     OW33877   2.440   4.010   0.347  0.3787 -0.6269 -0.4595
 7472SOL    HW133878   2.482   4.024   0.262 -1.4326 -2.9865 -1.7494
 7472SOL    HW233879   2.512   3.971   0.396  1.1029  1.0500 -0.1793
 7473SOL     OW33880   4.087   3.587  16.980 -0.0526 -0.5693  0.0232
 7473SOL    HW133881   4.057   3.667  16.937 -0.8761 -0.3357  1.0198
 7473SOL    HW233882   4.181   3.604  16.984 -0.3847  1.1156  0.5345
 7474SOL     OW33883   4.462   1.737   6.254 -0.4475 -0.0495 -0.4702
 7474SOL    HW133884   4.514   1.698   6.324 -3.0620 -1.4494  0.6920
 7474SOL    HW233885   4.512   1.706   6.179  2.1217 -0.5593  1.4416
 7475SOL     OW33886   1.612   0.469   2.221  0.1248  0.1098 -0.7592
 7475SOL    HW133887   1.681   0.506   2.167  1.0455 -1.3735 -0.6186
 7475SOL    HW233888   1.643   0.485   2.311  0.3392 -1.1266 -0.5987
 7476SOL     OW33889   1.871   2.665   4.563  0.3944 -0.4481  0.9841
 7476SOL    HW133890   1.883   2.699   4.652  2.6582  2.7934 -0.5586
 7476SOL    HW233891   1.947   2.610   4.542  0.8487  0.4232  0.3481
 7477SOL     OW33892   1.037   2.088  17.683 -0.0840 -0.1991  0.2055
 7477SOL    HW133893   1.018   2.046   0.072 -1.7352 -1.3900 -0.7812
 7477SOL    HW233894   0.949   2.101  17.646 -0.2114  1.6459  1.1144
 7478SOL     OW33895   0.611   4.057   0.784  0.6561  0.2559  0.1999
 7478SOL    HW133896   0.542   3.991   0.794  1.3236 -0.0522  2.9086
 7478SOL    HW233897   0.631   4.053   0.691  1.4611  0.6712  0.3527
 7479SOL     OW33898   3.180   3.705  13.943 -0.1766  0.2745  0.2988
 7479SOL    HW133899   3.178   3.613  13.915 -0.1017  0.0468  1.0238
 7479SOL    HW233900   3.274   3.714  13.961  0.0276  1.2586 -1.2881
 7480SOL     OW33901   1.159   0.065   2.082  0.1587 -0.3984 -0.1025
 7480SOL    HW133902   1.100   4.714   2.069 -1.2090  0.6994 -0.2361
 7480SOL    HW233903   1.206   0.029   2.157 -0.5818  0.0777  0.6055
 7481SOL     OW33904   2.498   0.725   7.156  0.3796  0.1934  0.7108
 7481SOL    HW133905   2.467   0.769   7.235 -0.2601 -0.9366  1.1024
 7481SOL    HW233906   2.441   0.759   7.087  0.9364 -2.6200 -1.1585
 7482SOL     OW33907   3.585   2.480   8.323 -0.5560 -0.4650  0.1478
 7482SOL    HW133908   3.668   2.519   8.350 -0.7879 -0.3329  0.6668
 7482SOL    HW233909   3.557   2.530   8.246  0.0209  0.2944  0.4208
 7483SOL     OW33910   2.613   2.994   1.131  0.3264  0.8464 -0.0870
 7483SOL    HW133911   2.586   2.987   1.039  2.4122 -2.4275 -0.4543
 7483SOL    HW233912   2.708   2.987   1.122  0.0083  0.0350 -2.8778
 7484SOL     OW33913   3.499   2.819  14.553 -0.8082  0.4795 -0.3527
 7484SOL    HW133914   3.593   2.832  14.541 -0.8565  1.1368 -0.0031
 7484SOL    HW233915   3.480   2.776  14.470 -1.2919 -0.2659  0.1417
 7485SOL     OW33916   1.514   4.254   0.809 -0.1857  0.5639 -0.0510
 7485SOL    HW133917   1.546   4.334   0.767 -0.8789  0.0993 -1.4802
 7485SOL    HW233918   1.421   4.275   0.797 -0.6914 -1.3064  0.7049
 7486SOL     OW33919   3.356   1.208   7.286 -0.2687  0.4746 -0.2148
 7486SOL    HW133920   3.414   1.248   7.351 -0.2095  1.3545 -0.8090
 7486SOL    HW233921   3.367   1.268   7.212  0.1761 -0.9390 -1.2745
 7487SOL     OW33922   3.530   2.957   2.916 -0.1672  0.7802 -0.4580
 7487SOL    HW133923   3.440   2.931   2.900  0.1363 -1.4345  1.5065
 7487SOL    HW233924   3.577   2.892   2.864 -1.4425 -1.6391  1.4155
 7488SOL     OW33925   2.587   1.475  16.606  0.2645 -0.0668 -0.4652
 7488SOL    HW133926   2.582   1.411  16.677  2.7959 -0.5997 -0.7772
 7488SOL    HW233927   2.682   1.480  16.602  0.1470  2.1775 -0.1899
 7489SOL     OW33928   1.724   3.116  16.600 -0.0642 -0.8586 -0.6688
 7489SOL    HW133929   1.781   3.043  16.575  1.9814 -0.6698  3.4833
 7489SOL    HW233930   1.717   3.094  16.693 -0.2429 -1.8720 -0.9154
 7490SOL     OW33931   1.350   4.448   8.629  0.2625 -0.0804  0.1411
 7490SOL    HW133932   1.387   4.526   8.670 -0.0781 -1.0823  2.3643
 7490SOL    HW233933   1.291   4.494   8.569  0.5582 -1.0592 -0.8768
 7491SOL     OW33934   3.022   0.825  11.905 -0.3976 -0.8218  0.0900
 7491SOL    HW133935   2.998   0.899  11.962  0.4676 -0.2639 -0.2828
 7491SOL    HW233936   3.047   0.862  11.821 -1.4703  0.5250  0.3548
 7492SOL     OW33937   1.248   1.174   8.467 -0.0484  0.1296 -0.1189
 7492SOL    HW133938   1.178   1.192   8.530 -0.8477  3.3723 -1.9040
 7492SOL    HW233939   1.306   1.130   8.529  0.5678  0.2535 -0.6073
 7493SOL     OW33940   2.733   3.147   8.087 -0.1388  0.9420 -0.1633
 7493SOL    HW133941   2.796   3.142   8.159 -1.6526 -2.3487  0.9210
 7493SOL    HW233942   2.789   3.108   8.019  0.9348 -0.6984  1.6325
 7494SOL     OW33943   4.652   4.696   3.009  0.4651  0.0786 -0.2416
 7494SOL    HW133944   0.006   0.001   3.057  0.6380 -2.4770  1.0070
 7494SOL    HW233945   4.688   4.650   2.933  0.4357  1.2482 -0.9657
 7495SOL     OW33946   4.529   4.376   0.299  0.2721 -0.2666 -0.0280
 7495SOL    HW133947   4.556   4.321   0.372 -0.4795 -0.3893  0.1560
 7495SOL    HW233948   4.587   4.451   0.316 -0.3811  0.4464 -0.9489
 7496SOL     OW33949   3.713   0.715   4.747  0.1217 -0.1815 -0.1757
 7496SOL    HW133950   3.743   0.728   4.837  0.5528 -0.2503 -0.3112
 7496SOL    HW233951   3.749   0.795   4.710 -0.9840  0.7722  0.8017
 7497SOL     OW33952   3.938   3.724   5.282  0.4970 -0.3800 -0.5240
 7497SOL    HW133953   4.020   3.747   5.327 -0.8837 -0.0261  1.8037
 7497SOL    HW233954   3.951   3.631   5.261  0.9596 -0.4185 -0.0752
 7498SOL     OW33955   3.689   3.475   2.682 -0.7152 -0.4305  0.2858
 7498SOL    HW133956   3.628   3.549   2.687 -1.3895 -1.0230  0.7578
 7498SOL    HW233957   3.632   3.399   2.669 -0.4774 -0.4692 -0.5632
 7499SOL     OW33958   4.693   4.354   2.997  0.5704  0.4002 -0.0065
 7499SOL    HW133959   0.054   4.387   3.028  1.5766 -2.5628  0.4593
 7499SOL    HW233960   4.698   4.379   2.905  1.3575 -0.2700 -0.1442
 7500SOL     OW33961   3.585   0.949   2.695  0.3391 -0.0148  0.4803
 7500SOL    HW133962   3.633   0.874   2.729  1.8910  0.7375 -0.0827
 7500SOL    HW233963   3.652   1.011   2.667  0.5473  0.0742  1.1750
 7501SOL     OW33964   1.826   2.382  11.167  1.0376 -0.0257 -0.0750
 7501SOL    HW133965   1.758   2.388  11.100 -1.0708 -0.8310  2.0343
 7501SOL    HW233966   1.910   2.408  11.129  2.7689 -1.2509  2.9021
 7502SOL     OW33967   3.801   4.616   2.856  0.0393  0.1686 -0.5045
 7502SOL    HW133968   3.727   4.652   2.905 -1.4003 -0.7941 -1.9929
 7502SOL    HW233969   3.808   4.671   2.778  0.9899  3.6174  1.9531
 7503SOL     OW33970   2.470   3.740   8.012 -0.1876 -0.6643  0.2643
 7503SOL    HW133971   2.451   3.741   8.106 -1.9446 -0.6608 -0.0842
 7503SOL    HW233972   2.435   3.828   7.996  0.3709 -0.5062 -0.0969
 7504SOL     OW33973   3.662   1.921   6.790  0.3865  0.3055 -0.3451
 7504SOL    HW133974   3.572   1.889   6.798  1.1332 -1.9806 -1.1074
 7504SOL    HW233975   3.702   1.860   6.728  2.1758 -0.3149  1.4173
 7505SOL     OW33976   4.637   2.761   9.724  0.1156  0.7927  0.0167
 7505SOL    HW133977   4.654   2.737   9.633 -0.7938  0.5694 -0.0925
 7505SOL    HW233978   4.619   2.677   9.766  1.4977  0.9910  1.0033
 7506SOL     OW33979   3.325   4.490   8.595  0.1517 -0.4307  0.1424
 7506SOL    HW133980   3.313   4.483   8.500  0.4780 -0.6452  0.1176
 7506SOL    HW233981   3.268   4.564   8.616 -0.5000 -0.6958 -0.6879
 7507SOL     OW33982   3.524   3.938  12.130 -0.3811  0.2261 -0.5086
 7507SOL    HW133983   3.454   3.934  12.195  1.5001 -1.1060  1.4455
 7507SOL    HW233984   3.536   3.844  12.120  0.1318  0.0962  1.3187
 7508SOL     OW33985   4.208   1.208   2.963  0.0213 -0.1505 -0.2084
 7508SOL    HW133986   4.157   1.289   2.961 -0.4100 -0.3870  1.0559
 7508SOL    HW233987   4.179   1.167   2.881 -1.1759  0.6205 -0.1738
 7509SOL     OW33988   3.815   3.579  16.011  0.4579 -0.0609  0.4119
 7509SOL    HW133989   3.805   3.628  15.929  1.1952 -0.0820  0.3114
 7509SOL    HW233990   3.723   3.577  16.036 -0.1952  0.8982 -1.9536
 7510SOL     OW33991   3.833   4.063   7.701  0.2936 -0.5584  0.2530
 7510SOL    HW133992   3.806   4.110   7.780 -0.3412  1.1665 -1.0016
 7510SOL    HW233993   3.835   3.972   7.731 -3.0393 -1.0685 -1.0430
 7511SOL     OW33994   1.391   4.623   1.796  0.0705 -0.1257 -0.0214
 7511SOL    HW133995   1.352   4.707   1.822 -0.9279  0.2028 -2.6072
 7511SOL    HW233996   1.482   4.635   1.823  0.6162 -1.9966 -1.0432
 7512SOL     OW33997   2.271   1.084   9.041  0.3254  0.0949 -0.5374
 7512SOL    HW133998   2.236   1.013   9.096  2.0011 -1.6152 -1.6732
 7512SOL    HW233999   2.360   1.054   9.024  0.3729  1.2961 -2.3255
 7513SOL     OW34000   3.715   1.328   8.702 -0.3775 -0.4647  0.4560
 7513SOL    HW134001   3.743   1.416   8.676 -0.0998 -1.5468 -2.9348
 7513SOL    HW234002   3.698   1.336   8.795  0.4715 -0.1162  0.5836
 7514SOL     OW34003   3.555   3.001   6.180  0.1319  0.4856 -0.0352
 7514SOL    HW134004   3.475   3.006   6.127  0.0128 -0.4278  0.0557
 7514SOL    HW234005   3.603   2.936   6.127 -0.2284  0.5346 -0.4252
 7515SOL     OW34006   2.716   2.489  14.310  0.1707 -0.8689 -0.3892
 7515SOL    HW134007   2.636   2.462  14.265 -0.4378 -1.0211  0.7805
 7515SOL    HW234008   2.729   2.553  14.241  0.0970 -1.1124 -0.6310
 7516SOL     OW34009   3.480   2.710   5.820  0.1566  0.0611 -0.4311
 7516SOL    HW134010   3.544   2.775   5.791  1.6575 -1.5269 -0.6217
 7516SOL    HW234011   3.535   2.656   5.876 -2.1719 -2.4855 -0.6553
 7517SOL     OW34012   2.234   2.496   2.952  0.0530  0.2990  0.4018
 7517SOL    HW134013   2.211   2.404   2.938 -0.2900  0.3122  0.8700
 7517SOL    HW234014   2.151   2.540   2.935 -0.0398  0.3865  1.0843
 7518SOL     OW34015   0.491   0.258   1.596 -0.1256 -0.1567  0.0218
 7518SOL    HW134016   0.480   0.329   1.533  0.0165 -1.3321 -1.3201
 7518SOL    HW234017   0.547   0.190   1.558 -0.8100  0.1744 -1.5899
 7519SOL     OW34018   1.492   3.667   0.514  0.4150  0.0349 -0.5093
 7519SOL    HW134019   1.479   3.655   0.420 -1.3173  1.2948 -0.4243
 7519SOL    HW234020   1.500   3.762   0.513 -0.9332  0.1374 -1.3409
 7520SOL     OW34021   3.977   3.230   6.984  0.2302 -0.1285 -0.8012
 7520SOL    HW134022   3.954   3.176   6.908 -0.7159  2.0194 -2.0436
 7520SOL    HW234023   4.062   3.191   7.001 -0.4808 -0.7320  1.2885
 7521SOL     OW34024   0.181   2.033   2.543 -0.7315  0.0296 -0.4101
 7521SOL    HW134025   0.205   1.945   2.512  2.2306  0.2586  1.1546
 7521SOL    HW234026   0.259   2.047   2.597 -1.6859  0.0600  0.9486
 7522SOL     OW34027   4.240   1.844   9.553 -0.2226  0.7677 -0.3131
 7522SOL    HW134028   4.327   1.825   9.589 -0.5112  1.0130  0.4984
 7522SOL    HW234029   4.256   1.905   9.481 -0.4806  0.1545 -0.8977
 7523SOL     OW34030   4.507   0.636  11.443  0.6739 -0.1830 -0.0097
 7523SOL    HW134031   4.548   0.559  11.482  0.7840 -0.0384  0.1561
 7523SOL    HW234032   4.538   0.628  11.352 -0.3696 -0.2500 -0.3616
 7524SOL     OW34033   1.087   1.511   6.889  0.1660 -0.3481  0.8300
 7524SOL    HW134034   1.064   1.552   6.806  0.6257 -1.3977  0.1852
 7524SOL    HW234035   1.026   1.438   6.894  0.0516 -0.3519 -0.6855
 7525SOL     OW34036   3.253   2.148  13.419  0.6317  0.2638 -0.1401
 7525SOL    HW134037   3.277   2.115  13.506 -1.1288 -0.4505  0.0650
 7525SOL    HW234038   3.333   2.184  13.381  1.0881 -2.1611 -1.4633
 7526SOL     OW34039   3.185   3.311   0.611 -0.0495 -0.2623  0.0971
 7526SOL    HW134040   3.142   3.293   0.528 -1.3043 -0.8294  0.8676
 7526SOL    HW234041   3.275   3.309   0.580  0.0540 -0.6082  0.4257
 7527SOL     OW34042   3.338   0.246  17.021 -0.1115  0.0499 -0.6105
 7527SOL    HW134043   3.377   0.202  17.097 -1.5471  0.0102  0.1075
 7527SOL    HW234044   3.267   0.288  17.070  1.1648  0.5365  0.8125
 7528SOL     OW34045   3.166   0.513   0.785  0.1837  0.4736  0.6121
 7528SOL    HW134046   3.205   0.434   0.749  0.5602  1.9267 -2.1589
 7528SOL    HW234047   3.205   0.507   0.872 -0.6873 -0.5309  0.9341
 7529SOL     OW34048   1.741   4.259  10.965 -0.4398 -0.2695  0.3658
 7529SOL    HW134049   1.805   4.231  11.032  1.1703 -1.2951 -1.5922
 7529SOL    HW234050   1.785   4.336  10.931  0.1898  0.4972  2.9018
 7530SOL     OW34051   1.457   2.076   9.585  0.4353  0.3329 -0.4866
 7530SOL    HW134052   1.510   2.026   9.646 -0.3787  1.9133  1.5044
 7530SOL    HW234053   1.505   2.159   9.582 -3.1520  2.3998 -0.7417
 7531SOL     OW34054   2.677   3.673   2.378 -0.2831  0.3073  0.4112
 7531SOL    HW134055   2.729   3.749   2.352 -0.7598 -0.4776 -2.8755
 7531SOL    HW234056   2.603   3.682   2.318  1.5055  0.8466 -1.7460
 7532SOL     OW34057   1.708   0.664   5.181  0.0557  0.3216  0.4193
 7532SOL    HW134058   1.684   0.690   5.092  2.2244 -2.1770 -0.8842
 7532SOL    HW234059   1.676   0.737   5.233  0.8455 -0.1681  1.5948
 7533SOL     OW34060   4.059   4.461  13.735 -0.3275  0.1420  0.4169
 7533SOL    HW134061   4.025   4.458  13.646 -2.0568  0.6011  1.0647
 7533SOL    HW234062   4.088   4.552  13.743 -0.6453  0.2495  0.3321
 7534SOL     OW34063   2.454   3.634   4.535  0.0566 -0.1938 -0.4636
 7534SOL    HW134064   2.505   3.703   4.493 -2.8158  1.8131 -0.6557
 7534SOL    HW234065   2.455   3.673   4.623  2.1290 -0.9073 -0.1674
 7535SOL     OW34066   0.470   1.654   6.037  0.2509  0.9125  0.3974
 7535SOL    HW134067   0.452   1.730   6.093 -0.8267  1.9473 -1.3657
 7535SOL    HW234068   0.536   1.691   5.979  0.5666 -0.3282 -0.0441
 7536SOL     OW34069   1.020   1.827   4.970 -0.3459 -0.0113 -0.4144
 7536SOL    HW134070   1.054   1.890   5.033  0.0508  0.0685 -0.7092
 7536SOL    HW234071   1.011   1.754   5.031  0.1257 -1.2927 -1.8674
 7537SOL     OW34072   3.251   4.065   7.124 -0.3339  0.0399  0.3016
 7537SOL    HW134073   3.339   4.092   7.097 -0.1504 -0.0622  0.8062
 7537SOL    HW234074   3.245   4.093   7.215 -2.0639 -0.9873  0.5039
 7538SOL     OW34075   1.025   1.194   2.003  0.7526  0.4331  0.0159
 7538SOL    HW134076   1.024   1.197   2.099 -0.5664 -2.1484  0.0982
 7538SOL    HW234077   1.111   1.161   1.977 -0.1060  0.0734 -2.2743
 7539SOL     OW34078   2.190   2.955   9.216  0.1504  0.2685 -0.0282
 7539SOL    HW134079   2.168   2.975   9.126  1.3857 -0.8532 -0.5794
 7539SOL    HW234080   2.179   3.038   9.263 -0.6674 -0.4156  0.9725
 7540SOL     OW34081   3.784   3.901   9.606 -0.3765 -0.1369 -0.0190
 7540SOL    HW134082   3.742   3.865   9.684 -0.0920 -0.5084 -0.0315
 7540SOL    HW234083   3.857   3.952   9.642 -2.3490  1.9474  0.9745
 7541SOL     OW34084   1.444   1.198   7.858  0.0169  0.6024 -0.4584
 7541SOL    HW134085   1.477   1.282   7.891 -1.5226  0.8363  0.4869
 7541SOL    HW234086   1.521   1.141   7.863 -0.9716 -0.8137 -1.5266
 7542SOL     OW34087   2.649   0.094  14.673  0.2774  0.0980  0.1334
 7542SOL    HW134088   2.566   0.063  14.637 -0.3222  1.9395 -0.0751
 7542SOL    HW234089   2.630   0.187  14.680  2.2272  0.5334 -0.3811
 7543SOL     OW34090   1.346   0.041   6.415  0.1344 -0.2092 -0.3685
 7543SOL    HW134091   1.341   0.114   6.476  1.9895  0.3120 -0.8330
 7543SOL    HW234092   1.426   4.718   6.438  0.2364  0.0150 -0.2756
 7544SOL     OW34093   4.126   3.250   7.468 -0.0490 -0.3970 -0.2459
 7544SOL    HW134094   4.065   3.300   7.415 -0.0840 -0.7581 -0.5384
 7544SOL    HW234095   4.162   3.319   7.525 -2.1236  0.9052 -0.5170
 7545SOL     OW34096   0.847   3.332  10.099 -0.3904  0.3482 -0.1181
 7545SOL    HW134097   0.766   3.359  10.056  0.4554  0.1030 -1.8823
 7545SOL    HW234098   0.912   3.368  10.039 -2.0026  0.7268 -1.6376
 7546SOL     OW34099   0.027   3.769   6.416 -0.0274  0.3885  0.3305
 7546SOL    HW134100   0.054   3.679   6.435  0.3298  0.1706 -1.1517
 7546SOL    HW234101   0.073   3.783   6.333  0.0516 -0.1383  0.2824
 7547SOL     OW34102   3.342   2.900  17.389 -0.5731  0.3857  0.1016
 7547SOL    HW134103   3.385   2.968  17.338  1.5443 -0.9803  0.0671
 7547SOL    HW234104   3.371   2.930  17.475  0.2727  1.9621 -0.7475
 7548SOL     OW34105   2.968   0.330   7.711  0.5227 -0.0593 -0.0893
 7548SOL    HW134106   2.937   0.325   7.620 -0.2555  0.2134  0.1568
 7548SOL    HW234107   2.895   0.366   7.762 -0.9241 -0.0285 -2.1930
 7549SOL     OW34108   1.838   3.029  12.008  0.1622  0.0842 -0.3552
 7549SOL    HW134109   1.871   3.013  11.920 -0.1122  0.9453 -0.6177
 7549SOL    HW234110   1.826   2.937  12.028  0.9897 -0.1220 -0.8102
 7550SOL     OW34111   3.031   2.181   7.568 -0.1127  0.1143 -0.0988
 7550SOL    HW134112   2.977   2.105   7.547  0.9336 -0.6188 -0.1705
 7550SOL    HW234113   2.967   2.240   7.607  0.6068 -0.8213  2.4634
 7551SOL     OW34114   4.146   2.629   4.776 -0.4962 -0.1237 -0.0953
 7551SOL    HW134115   4.201   2.686   4.722  0.5683  0.3765  1.5398
 7551SOL    HW234116   4.059   2.644   4.739  0.8979  0.2193 -3.2166
 7552SOL     OW34117   3.869   2.146   2.751 -0.2055 -0.2941  0.0120
 7552SOL    HW134118   3.773   2.139   2.751 -0.1753 -0.6792  1.0630
 7552SOL    HW234119   3.878   2.075   2.687 -0.2521 -1.2854  1.1149
 7553SOL     OW34120   2.411   3.945  15.252  0.5731 -0.1743 -0.0217
 7553SOL    HW134121   2.387   4.028  15.294  0.4102 -0.8357  1.1962
 7553SOL    HW234122   2.440   3.984  15.169 -0.7937  0.7411 -0.0630
 7554SOL     OW34123   1.338   0.165   6.682 -0.1020 -0.6568  0.0400
 7554SOL    HW134124   1.342   0.127   6.769  1.3625 -2.3931 -0.7843
 7554SOL    HW234125   1.317   0.256   6.705 -0.7492 -0.8951  0.3848
 7555SOL     OW34126   0.278   1.046  10.651 -0.0402 -0.0288  0.2723
 7555SOL    HW134127   0.270   1.056  10.556 -1.7228 -0.3480  0.3834
 7555SOL    HW234128   0.370   1.027  10.670 -0.3540 -0.0084  1.7792
 7556SOL     OW34129   4.483   3.491   3.386 -0.3547 -0.3960  0.3379
 7556SOL    HW134130   4.558   3.468   3.440 -0.9723 -1.9355  0.5570
 7556SOL    HW234131   4.416   3.510   3.452  1.1815  0.7994  1.5423
 7557SOL     OW34132   3.743   3.344   8.584 -0.2656  0.1957 -0.0796
 7557SOL    HW134133   3.704   3.429   8.565 -0.5966  0.5914  2.3373
 7557SOL    HW234134   3.808   3.363   8.652  0.3298 -2.6473  0.1415
 7558SOL     OW34135   4.681   1.554   1.258  0.5210 -0.0994  0.1412
 7558SOL    HW134136   4.677   1.497   1.181  0.0417  1.5431 -1.0632
 7558SOL    HW234137   4.657   1.499   1.332  0.0762 -0.1917 -0.0739
 7559SOL     OW34138   0.349   0.835  14.629 -0.3188  0.4040  0.4004
 7559SOL    HW134139   0.333   0.876  14.544  2.1274 -1.2850 -0.8716
 7559SOL    HW234140   0.416   0.893  14.666  0.5363  0.0643 -0.6083
 7560SOL     OW34141   3.111   2.523   4.520  0.1224  0.2126 -0.1663
 7560SOL    HW134142   3.191   2.564   4.552  0.8795 -0.1512 -1.6433
 7560SOL    HW234143   3.056   2.594   4.486 -0.6773 -1.7895 -3.0320
 7561SOL     OW34144   0.825   2.157  16.863 -0.2788 -0.0557  0.1290
 7561SOL    HW134145   0.816   2.079  16.917  0.7282 -0.0976  0.2402
 7561SOL    HW234146   0.893   2.204  16.913  1.7725 -1.4123 -1.3874
 7562SOL     OW34147   2.915   1.799   7.461 -0.1757  0.0635 -0.7418
 7562SOL    HW134148   2.887   1.886   7.430 -1.6332  0.4938  1.7903
 7562SOL    HW234149   2.993   1.811   7.516 -0.6251 -2.1936  0.3749
 7563SOL     OW34150   2.663   4.460  15.611 -0.2017  0.2754 -0.1796
 7563SOL    HW134151   2.588   4.419  15.568 -0.7189  1.3419 -0.2834
 7563SOL    HW234152   2.622   4.471  15.696 -1.2433  0.2291 -0.6818
 7564SOL     OW34153   2.638   1.313  16.272  0.1239  1.3345 -0.0582
 7564SOL    HW134154   2.611   1.326  16.363  2.9593  0.3246  0.9289
 7564SOL    HW234155   2.674   1.397  16.244  2.4438 -0.3744 -2.1749
 7565SOL     OW34156   3.601   3.755   5.944  0.3865 -0.7170  0.1662
 7565SOL    HW134157   3.576   3.768   5.853 -0.7997  3.3759  1.0928
 7565SOL    HW234158   3.528   3.709   5.986 -0.3159 -0.1172 -0.4043
 7566SOL     OW34159   3.617   1.926   3.665 -0.0538  0.1917 -0.1971
 7566SOL    HW134160   3.642   2.002   3.718 -1.9637 -0.2777  1.3785
 7566SOL    HW234161   3.580   1.959   3.583  1.3398 -0.7401 -1.2048
 7567SOL     OW34162   0.878   3.580   6.037  0.4727 -0.2672  0.2122
 7567SOL    HW134163   0.952   3.524   6.058  1.2683  0.2608 -1.2192
 7567SOL    HW234164   0.905   3.669   6.059 -0.2636  0.1054 -0.3748
 7568SOL     OW34165   1.775   1.898   4.066  0.3240  0.4544  0.8075
 7568SOL    HW134166   1.718   1.931   3.996  0.5553 -1.5657 -0.3444
 7568SOL    HW234167   1.705   1.879   4.129 -0.0629  2.1141  0.8653
 7569SOL     OW34168   0.841   1.442   8.616  0.7392  0.4035 -0.3908
 7569SOL    HW134169   0.909   1.506   8.637  0.6177  0.4009  0.0203
 7569SOL    HW234170   0.774   1.466   8.679 -1.5729  0.8319 -3.0327
 7570SOL     OW34171   0.180   2.636  15.002  0.0609 -0.0919  0.1909
 7570SOL    HW134172   0.200   2.690  15.079 -0.8546  0.5787 -0.0471
 7570SOL    HW234173   0.261   2.629  14.951  0.6712  1.1735  0.9934
 7571SOL     OW34174   1.987   3.142  12.221 -0.0712  0.0310 -0.1023
 7571SOL    HW134175   2.038   3.216  12.254 -0.6967  1.4583 -2.3221
 7571SOL    HW234176   2.033   3.114  12.142 -1.2644  2.3790 -1.6348
 7572SOL     OW34177   0.107   4.230   1.755 -0.0373 -0.1793  0.1844
 7572SOL    HW134178   0.061   4.146   1.762 -0.4468  0.1446  1.4749
 7572SOL    HW234179   0.194   4.213   1.720  0.1506 -1.0609  1.0633
 7573SOL     OW34180   3.174   4.372   7.548 -0.4039  0.0780 -0.0752
 7573SOL    HW134181   3.121   4.298   7.576 -0.0365 -0.7946 -1.6572
 7573SOL    HW234182   3.264   4.339   7.553 -0.5239 -0.6475 -2.5631
 7574SOL     OW34183   1.904   2.770   1.860  0.3544 -0.5668 -0.1670
 7574SOL    HW134184   1.969   2.724   1.808  0.0218 -0.2274 -0.8803
 7574SOL    HW234185   1.918   2.727   1.945 -1.6350  1.9270  1.4531
 7575SOL     OW34186   2.549   1.337   2.334  0.5777 -0.2571 -0.0683
 7575SOL    HW134187   2.563   1.427   2.304 -1.3350 -0.5690 -1.8321
 7575SOL    HW234188   2.574   1.340   2.427  0.5207 -1.9708  0.0021
 7576SOL     OW34189   1.624   2.330   0.132 -1.3027 -0.3968  0.1442
 7576SOL    HW134190   1.719   2.326   0.118 -1.4559  0.9796 -1.2591
 7576SOL    HW234191   1.616   2.345   0.226 -3.6670  0.4334 -0.2092
 7577SOL     OW34192   1.409   0.648   2.338  0.1943  0.0240  0.3760
 7577SOL    HW134193   1.381   0.556   2.337 -1.2506  0.4716  0.0575
 7577SOL    HW234194   1.437   0.660   2.248  1.0684 -1.3751  0.4655
 7578SOL     OW34195   2.289   2.398   7.031  0.0457 -0.6604 -0.0118
 7578SOL    HW134196   2.243   2.454   6.969 -1.6638  0.8959  2.6927
 7578SOL    HW234197   2.366   2.445   7.064 -0.2299 -0.1113 -0.1635
 7579SOL     OW34198   4.684   3.233   5.422 -0.5899 -0.4261  0.9198
 7579SOL    HW134199   4.667   3.140   5.434  0.7582 -0.6485  1.0968
 7579SOL    HW234200   4.722   3.255   5.507  0.2065  3.5472 -0.4301
 7580SOL     OW34201   1.895   4.171  15.640  0.4868  0.1367  0.7747
 7580SOL    HW134202   1.829   4.224  15.684 -0.4347  0.3253 -0.8399
 7580SOL    HW234203   1.882   4.084  15.677  0.6980  0.4149  1.5250
 7581SOL     OW34204   4.719   4.130  11.487  0.4797  0.4596  0.1479
 7581SOL    HW134205   0.001   4.109  11.581 -1.0187 -0.6366 -0.0182
 7581SOL    HW234206   4.706   4.043  11.451 -1.6443  1.2638 -0.9949
 7582SOL     OW34207   1.945   4.087   2.943  0.7146 -0.1366 -0.5080
 7582SOL    HW134208   2.038   4.064   2.939  0.6783 -0.4783  0.6008
 7582SOL    HW234209   1.952   4.170   2.895  1.3479  0.7888  1.1609
 7583SOL     OW34210   2.530   2.356   8.428  0.2273  0.1046 -0.4556
 7583SOL    HW134211   2.453   2.394   8.469  1.4830  0.8952  1.1521
 7583SOL    HW234212   2.590   2.430   8.432 -1.2242  1.4357 -3.4600
 7584SOL     OW34213   1.391   3.609  16.944 -0.1039 -0.0511  0.1254
 7584SOL    HW134214   1.454   3.611  16.872 -1.5851 -0.6345 -1.1806
 7584SOL    HW234215   1.336   3.687  16.936  0.6474  0.5849  1.0858
 7585SOL     OW34216   4.702   3.932  17.183  0.6054  1.0072  0.2971
 7585SOL    HW134217   0.003   4.024  17.196 -2.0148  1.6022  1.0608
 7585SOL    HW234218   4.607   3.940  17.171  0.4201 -0.3219  0.8911
 7586SOL     OW34219   2.141   4.612  14.692  0.2963 -0.6711 -0.3192
 7586SOL    HW134220   2.046   4.599  14.683 -0.0158  1.4160 -0.1880
 7586SOL    HW234221   2.151   4.664  14.772  0.0522 -1.8235  0.4571
 7587SOL     OW34222   3.184   3.804  14.665  0.0979  0.2483  0.4496
 7587SOL    HW134223   3.186   3.850  14.581 -1.0524  1.1544  0.9306
 7587SOL    HW234224   3.099   3.834  14.696  0.8624  0.7713  2.0543
 7588SOL     OW34225   1.024   0.064   3.376  0.3353 -0.7325  0.2994
 7588SOL    HW134226   1.092   0.007   3.342  0.5555 -0.3005  0.0257
 7588SOL    HW234227   1.075   0.132   3.421 -0.6116  0.5781 -0.6223
 7589SOL     OW34228   4.304   4.526   1.515  0.3047 -0.0958  0.1141
 7589SOL    HW134229   4.357   4.598   1.548 -0.4757 -0.1266  1.4445
 7589SOL    HW234230   4.217   4.559   1.539  0.3599  0.4778 -0.4617
 7590SOL     OW34231   0.039   2.083   3.871 -0.0561  0.2841 -0.3756
 7590SOL    HW134232   0.037   2.162   3.923  0.2535 -0.2313  0.4116
 7590SOL    HW234233   4.692   2.027   3.905 -0.4012  0.2722 -1.0999
 7591SOL     OW34234   0.700   4.555   7.786  0.0169 -0.4274  0.1054
 7591SOL    HW134235   0.679   4.475   7.738  1.0423  0.3627 -1.6761
 7591SOL    HW234236   0.614   4.596   7.796 -0.5437 -1.4964 -0.2511
 7592SOL     OW34237   4.064   0.852   4.012  0.5800  0.1290 -0.3300
 7592SOL    HW134238   3.987   0.875   3.961  1.9987 -0.2842 -2.6919
 7592SOL    HW234239   4.069   0.923   4.076 -0.1913 -2.5151  2.6611
 7593SOL     OW34240   4.557   1.351   6.924 -0.3841  0.2899 -0.3763
 7593SOL    HW134241   4.547   1.341   7.018 -0.9265 -1.0306 -0.5791
 7593SOL    HW234242   4.562   1.259   6.900  2.7614  0.1021  1.1028
 7594SOL     OW34243   1.456   1.934  16.588  0.0762 -0.4562 -0.0405
 7594SOL    HW134244   1.411   2.011  16.624  0.1898 -0.4839  0.1624
 7594SOL    HW234245   1.469   1.883  16.668  0.3308 -1.2161 -0.5638
 7595SOL     OW34246   4.661   0.029   6.221 -0.3118 -0.5053  0.1414
 7595SOL    HW134247   4.695   0.116   6.238  1.5373 -1.1205 -0.3873
 7595SOL    HW234248   0.009   4.702   6.260 -0.5471 -1.1045 -0.1974
 7596SOL     OW34249   2.774   2.861   5.891  0.2232  0.0753 -0.2916
 7596SOL    HW134250   2.807   2.951   5.891 -2.8421  1.1874 -0.8512
 7596SOL    HW234251   2.702   2.860   5.954  0.2196 -0.4934 -0.3086
 7597SOL     OW34252   3.289   1.951   0.618  0.0675 -0.5163  0.4571
 7597SOL    HW134253   3.237   1.987   0.547 -1.3619 -2.9333  0.3124
 7597SOL    HW234254   3.298   2.035   0.664 -0.2420  0.0592 -0.5536
 7598SOL     OW34255   3.366   3.787  15.987  0.1064  0.4810  0.2086
 7598SOL    HW134256   3.355   3.732  15.909 -1.2293 -0.5240  1.0975
 7598SOL    HW234257   3.460   3.796  15.997  0.1576  0.1328  0.0423
 7599SOL     OW34258   2.848   1.496   2.485  0.4725  0.0837  0.2289
 7599SOL    HW134259   2.825   1.550   2.410  3.5183  0.0124 -0.7260
 7599SOL    HW234260   2.778   1.533   2.539  1.6018  4.0026 -1.0460
 7600SOL     OW34261   2.981   3.090   4.030  0.3222 -0.1155  0.0368
 7600SOL    HW134262   2.955   3.042   3.951  0.6562 -0.9988  0.4643
 7600SOL    HW234263   2.982   3.181   4.000 -1.3723 -0.4546 -1.0403
 7601SOL     OW34264   2.760   0.953   7.632 -0.7062 -0.0444 -0.1794
 7601SOL    HW134265   2.753   0.916   7.544  1.6823  0.1615 -0.4418
 7601SOL    HW234266   2.855   0.960   7.628 -0.5690 -0.3989  2.4320
 7602SOL     OW34267   2.977   4.555   9.218  0.6924 -0.2193 -0.4746
 7602SOL    HW134268   3.053   4.497   9.220 -0.1932 -1.5382 -3.7105
 7602SOL    HW234269   3.010   4.636   9.257  1.6671 -1.1199  0.5611
 7603SOL     OW34270   2.384   1.648  10.224  0.0610 -0.3127  0.5377
 7603SOL    HW134271   2.395   1.568  10.173  2.2196  1.0437 -1.1345
 7603SOL    HW234272   2.306   1.632  10.277 -0.9846  0.3943 -0.7898
 7604SOL     OW34273   0.828   0.203   5.862  0.5328  0.5202  1.0572
 7604SOL    HW134274   0.908   0.253   5.847 -0.7850  1.8780 -1.5204
 7604SOL    HW234275   0.762   0.269   5.840  0.4459  0.2872  0.6188
 7605SOL     OW34276   1.281   2.560   4.562  0.5264 -0.1337 -0.5537
 7605SOL    HW134277   1.252   2.518   4.643  1.0845  0.7583  0.1103
 7605SOL    HW234278   1.297   2.651   4.587 -2.7029  0.6224 -1.2610
 7606SOL     OW34279   3.065   1.970   5.311  0.2208 -0.0564  0.0319
 7606SOL    HW134280   3.089   1.915   5.385 -0.2669  1.2868  1.1895
 7606SOL    HW234281   2.992   1.916   5.282  0.1184 -0.1673  0.5023
 7607SOL     OW34282   1.115   0.688   1.312  0.5714 -0.3592 -0.5380
 7607SOL    HW134283   1.164   0.697   1.231  2.1946  2.1400  0.7254
 7607SOL    HW234284   1.077   0.775   1.322 -1.4491 -1.4351  1.1910
 7608SOL     OW34285   2.131   3.292   2.795 -0.0916 -0.3151  0.3713
 7608SOL    HW134286   2.189   3.313   2.868  2.5304  0.3708 -1.8714
 7608SOL    HW234287   2.116   3.382   2.767 -0.1180 -0.6331 -0.6595
 7609SOL     OW34288   0.936   2.907   5.333  0.5326  0.0925 -0.1924
 7609SOL    HW134289   0.905   2.881   5.246 -1.5111  0.7434  0.3427
 7609SOL    HW234290   0.998   2.836   5.351  1.7060  1.0497 -0.4864
 7610SOL     OW34291   2.550   4.452   2.977  0.6796 -0.2248 -0.5975
 7610SOL    HW134292   2.602   4.376   3.003  1.5011  0.8189  0.7999
 7610SOL    HW234293   2.619   4.516   2.957 -2.0257  1.9368 -3.0537
 7611SOL     OW34294   2.668   3.802   6.546 -0.2700  0.3169  0.1050
 7611SOL    HW134295   2.733   3.744   6.585 -2.8430 -1.9984  0.9380
 7611SOL    HW234296   2.636   3.854   6.620  0.1680  0.6476  0.0641
 7612SOL     OW34297   4.439   3.689   5.941  0.3915 -0.0395  0.1091
 7612SOL    HW134298   4.441   3.783   5.928  0.1851  0.0450  0.6844
 7612SOL    HW234299   4.346   3.669   5.936  0.3790 -0.4139  1.6632
 7613SOL     OW34300   1.694   0.645   6.098  0.0096  0.2723  0.0644
 7613SOL    HW134301   1.733   0.731   6.082  1.6543 -0.4569  0.1144
 7613SOL    HW234302   1.710   0.612   6.009 -1.1412 -2.8532  1.0097
 7614SOL     OW34303   1.756   0.221  10.204  0.0566 -0.4084  0.2252
 7614SOL    HW134304   1.832   0.245  10.151  0.9293 -1.2404  1.1134
 7614SOL    HW234305   1.743   0.135  10.164 -1.6129  0.4747 -1.1317
 7615SOL     OW34306   1.572   1.455  13.905  0.5313 -0.4899  0.0754
 7615SOL    HW134307   1.618   1.405  13.973  0.4999  0.8360  1.0691
 7615SOL    HW234308   1.634   1.528  13.896  1.3298 -1.0538  0.9372
 7616SOL     OW34309   0.149   4.329   7.806  0.6445 -0.2598 -0.3329
 7616SOL    HW134310   0.135   4.362   7.717 -1.3858  3.1761  1.2712
 7616SOL    HW234311   0.240   4.303   7.789  1.3025  1.6536  0.3413
 7617SOL     OW34312   4.666   4.714   1.815  0.4346  0.3535  0.6216
 7617SOL    HW134313   0.006   4.648   1.842 -1.1033 -1.6080 -0.5714
 7617SOL    HW234314   4.612   4.720   1.893 -0.6738  0.8508 -0.1812
 7618SOL     OW34315   4.547   3.422  16.503 -0.1961  0.0777  0.2988
 7618SOL    HW134316   4.615   3.440  16.439  0.4259  0.2855  1.0129
 7618SOL    HW234317   4.547   3.327  16.488  1.5589  0.4365 -1.9411
 7619SOL     OW34318   1.525   4.304   9.783 -0.4018 -0.3814  0.0885
 7619SOL    HW134319   1.558   4.254   9.857  2.1117  1.0888 -0.0573
 7619SOL    HW234320   1.531   4.245   9.708  1.8701  2.4252 -1.9434
 7620SOL     OW34321   0.015   2.765  10.887 -0.1331  0.5447 -0.2148
 7620SOL    HW134322   0.047   2.790  10.974  0.5826 -0.8674 -0.0630
 7620SOL    HW234323   4.669   2.830  10.875 -0.3520  0.5313  0.9629
 7621SOL     OW34324   4.277   0.055   7.416  0.2766 -0.0148 -0.0702
 7621SOL    HW134325   4.314   0.067   7.503  2.7099  0.6785 -1.2059
 7621SOL    HW234326   4.191   0.088   7.439 -0.3997 -0.8803 -1.3298
 7622SOL     OW34327   1.241   4.205   8.601  0.0376 -0.0700 -0.8743
 7622SOL    HW134328   1.169   4.268   8.595  2.0638  2.2954 -0.6213
 7622SOL    HW234329   1.304   4.272   8.627  1.3405 -0.4672 -3.0843
 7623SOL     OW34330   1.546   3.098   7.253  0.0300 -0.0861 -0.2973
 7623SOL    HW134331   1.576   3.189   7.263  1.9946 -0.8100  0.3491
 7623SOL    HW234332   1.465   3.106   7.303 -0.1768  2.0377 -0.9751
 7624SOL     OW34333   3.809   3.901   7.036  0.1402 -0.0910 -0.4108
 7624SOL    HW134334   3.900   3.878   7.056  0.3921  1.8606  0.6192
 7624SOL    HW234335   3.825   3.980   6.984  1.8186 -2.1404 -3.0394
 7625SOL     OW34336   4.612   1.339   6.130 -0.3692 -0.7299  0.3854
 7625SOL    HW134337   4.672   1.399   6.176 -0.7712  1.2148 -1.6169
 7625SOL    HW234338   4.531   1.381   6.157 -1.6717 -1.1647 -2.7895
 7626SOL     OW34339   3.912   2.420   6.590  0.3125  0.3187 -0.3058
 7626SOL    HW134340   3.990   2.372   6.615  0.4682  0.7044 -0.0421
 7626SOL    HW234341   3.850   2.407   6.662  0.2397  1.7460 -0.0947
 7627SOL     OW34342   1.461   3.901   1.124 -0.5006 -0.1209  0.1840
 7627SOL    HW134343   1.510   3.832   1.079 -1.0530 -0.3427 -0.0949
 7627SOL    HW234344   1.398   3.921   1.054  0.3097 -1.2378 -0.8853
 7628SOL     OW34345   1.788   0.515   3.541  1.2106 -0.3012 -1.0247
 7628SOL    HW134346   1.693   0.522   3.551  1.4665 -0.3020  1.3049
 7628SOL    HW234347   1.800   0.485   3.451  1.1922  0.6722 -1.3421
 7629SOL     OW34348   4.615   2.786   3.433 -0.3687 -0.0777  0.3140
 7629SOL    HW134349   4.570   2.834   3.364  1.6540  1.3422 -0.0353
 7629SOL    HW234350   4.659   2.721   3.379  0.5648  0.7242  0.0923
 7630SOL     OW34351   3.590   0.966   1.473 -0.6514 -0.6083 -0.1598
 7630SOL    HW134352   3.510   0.987   1.424 -0.2073  0.1558 -0.5622
 7630SOL    HW234353   3.645   0.953   1.396 -0.6213  1.4502 -0.4960
 7631SOL     OW34354   2.764   3.828   4.021 -0.8533 -0.0640 -0.6227
 7631SOL    HW134355   2.835   3.830   4.085 -0.1976 -1.4925 -1.3138
 7631SOL    HW234356   2.696   3.779   4.066 -1.2576  0.9846 -0.0886
 7632SOL     OW34357   0.608   0.826   7.414  0.0307 -0.6492 -0.0960
 7632SOL    HW134358   0.551   0.849   7.487  0.4571  3.0267 -0.9426
 7632SOL    HW234359   0.678   0.889   7.429 -0.0953 -0.4187 -0.4904
 7633SOL     OW34360   0.002   1.340   8.177  0.1176 -0.2439  0.3009
 7633SOL    HW134361   4.723   1.373   8.087 -2.8819 -0.9295  0.1168
 7633SOL    HW234362   4.662   1.394   8.225  1.5159  2.1524 -0.5834
 7634SOL     OW34363   1.615   3.179  10.589  0.6159  0.6374 -0.2071
 7634SOL    HW134364   1.528   3.215  10.607  0.4691  1.0264 -1.6654
 7634SOL    HW234365   1.632   3.228  10.508 -2.0732  0.0921 -1.1246
 7635SOL     OW34366   0.431   2.048   5.706  0.4787  0.1180  0.1258
 7635SOL    HW134367   0.367   1.981   5.684 -0.2982  0.6278  0.8558
 7635SOL    HW234368   0.386   2.130   5.726  1.2787  0.3574  0.9558
 7636SOL     OW34369   1.434   3.708   8.117  0.2037  0.2036  0.7938
 7636SOL    HW134370   1.501   3.756   8.164  0.4437 -0.8409  1.5292
 7636SOL    HW234371   1.461   3.729   8.028  2.3702  1.2677  1.7050
 7637SOL     OW34372   4.643   2.591   7.418  0.1214  0.4297 -0.0412
 7637SOL    HW134373   4.614   2.503   7.394  0.6666  0.6963 -1.6393
 7637SOL    HW234374   4.635   2.573   7.512 -0.4914  0.4504 -0.0936
 7638SOL     OW34375   1.838   3.695   6.091 -0.4709  0.5601  0.0991
 7638SOL    HW134376   1.919   3.680   6.043  0.7652 -1.8842  2.9393
 7638SOL    HW234377   1.877   3.752   6.157 -0.1771 -0.4036  0.7575
 7639SOL     OW34378   1.864   0.641   6.471 -0.6477 -0.2605 -0.5420
 7639SOL    HW134379   1.897   0.562   6.429 -1.1488 -1.1813  0.7801
 7639SOL    HW234380   1.935   0.664   6.531 -1.6312 -1.2753  1.0102
 7640SOL     OW34381   3.385   2.913   5.154  0.5848 -0.3071  0.2017
 7640SOL    HW134382   3.440   2.968   5.097  0.7794  0.1220  0.8023
 7640SOL    HW234383   3.303   2.916   5.105 -0.5834  0.1602  2.1909
 7641SOL     OW34384   0.770   2.514   2.344 -0.0665  0.0802 -0.0583
 7641SOL    HW134385   0.808   2.431   2.315 -0.8529 -0.5778  0.7878
 7641SOL    HW234386   0.769   2.494   2.437  1.6067  1.5843  0.2739
 7642SOL     OW34387   0.038   0.157   4.037 -0.0500 -0.0887  0.1550
 7642SOL    HW134388   0.133   0.164   4.029  0.0429 -0.5927  0.8366
 7642SOL    HW234389   0.027   0.132   4.128  0.3324 -0.7196  0.0259
 7643SOL     OW34390   3.192   1.079   3.049 -0.8904  0.2966 -0.2964
 7643SOL    HW134391   3.180   1.029   3.129 -1.7044  0.6168 -0.2244
 7643SOL    HW234392   3.113   1.063   2.998 -1.3096 -0.3303  0.5750
 7644SOL     OW34393   4.085   1.683   7.340 -0.5896 -0.2450 -0.1253
 7644SOL    HW134394   4.160   1.662   7.283  0.4506  1.6043  0.5740
 7644SOL    HW234395   4.115   1.651   7.424 -0.6031  0.9680  0.3408
 7645SOL     OW34396   4.629   0.230   8.221 -0.3372 -0.2205  0.3698
 7645SOL    HW134397   4.553   0.288   8.228  0.5181  0.6333  2.4808
 7645SOL    HW234398   4.637   0.208   8.314 -0.1456  2.3848  0.9732
 7646SOL     OW34399   4.619   0.012   2.559  0.0438 -0.3718 -0.3185
 7646SOL    HW134400   4.664   4.702   2.482  0.9651 -0.0238  0.0680
 7646SOL    HW234401   4.620   0.105   2.538  1.9782  0.2439  2.4493
 7647SOL     OW34402   1.929   3.602   4.369  0.3040 -0.1884  0.1986
 7647SOL    HW134403   1.990   3.591   4.441  1.2582  3.6216  0.0067
 7647SOL    HW234404   1.968   3.674   4.319  2.0786 -1.2548  0.0541
 7648SOL     OW34405   0.595   3.858   4.401 -0.0024  0.2634  0.2438
 7648SOL    HW134406   0.617   3.873   4.493 -1.7063 -0.1699  0.7120
 7648SOL    HW234407   0.589   3.949   4.374 -1.1048  0.2495  0.4754
 7649SOL     OW34408   3.760   3.294   9.692  0.2875  0.4416 -0.4774
 7649SOL    HW134409   3.820   3.303   9.766 -1.4652 -0.3837  1.0451
 7649SOL    HW234410   3.801   3.213   9.660 -1.6105  0.2605 -2.4574
 7650SOL     OW34411   3.239   1.216   2.169  0.6989  0.2297 -0.5074
 7650SOL    HW134412   3.148   1.246   2.173  0.4261 -0.7168  0.3616
 7650SOL    HW234413   3.251   1.179   2.257  0.9164 -3.1829 -2.0133
 7651SOL     OW34414   1.809   2.948  14.247  0.0558 -0.3150  0.2238
 7651SOL    HW134415   1.770   3.031  14.222 -0.4255  0.1142  2.3938
 7651SOL    HW234416   1.736   2.917  14.301  1.5179 -2.6396  0.8926
 7652SOL     OW34417   4.168   2.243   7.951  0.4585  0.2319  0.3971
 7652SOL    HW134418   4.158   2.252   8.046 -1.7879  0.8008  0.0989
 7652SOL    HW234419   4.145   2.336   7.939 -4.0386 -0.8140  0.9472
 7653SOL     OW34420   1.324   3.387   6.416 -0.6981  0.0728 -0.0472
 7653SOL    HW134421   1.339   3.310   6.472 -0.6051 -0.3051 -0.5900
 7653SOL    HW234422   1.233   3.366   6.395 -1.1423 -0.9614  2.8237
 7654SOL     OW34423   3.657   2.583  13.650 -0.2490 -0.1663  0.4111
 7654SOL    HW134424   3.583   2.526  13.630 -0.6680  0.1812  0.9852
 7654SOL    HW234425   3.690   2.544  13.731  1.3678  0.8770  0.2645
 7655SOL     OW34426   3.529   0.890   2.420 -0.0265 -0.5548 -0.1445
 7655SOL    HW134427   3.545   0.912   2.512  0.9476 -1.0300 -0.2024
 7655SOL    HW234428   3.615   0.904   2.380 -0.6708 -2.9019 -2.3666
 7656SOL     OW34429   1.303   3.004   0.400 -0.2736 -0.0009 -0.2079
 7656SOL    HW134430   1.320   3.040   0.488  1.5172  0.2551 -0.6482
 7656SOL    HW234431   1.208   2.991   0.401 -0.3143  0.3848  1.7858
 7657SOL     OW34432   4.235   3.830   8.314 -0.4846  0.3357  0.2386
 7657SOL    HW134433   4.277   3.867   8.391  1.0022 -0.2990 -0.2594
 7657SOL    HW234434   4.189   3.752   8.345  0.6973 -1.1270 -1.5835
 7658SOL     OW34435   1.937   1.223   5.741  0.5621 -0.0712  0.2846
 7658SOL    HW134436   1.864   1.275   5.774 -0.1844 -2.1487  1.8840
 7658SOL    HW234437   2.011   1.242   5.799  1.6509 -0.3143 -1.0127
 7659SOL     OW34438   4.452   0.478   2.366  0.1485  0.5584 -0.4469
 7659SOL    HW134439   4.504   0.525   2.431 -1.2316  2.0537 -0.4458
 7659SOL    HW234440   4.464   0.528   2.285 -0.1883  1.0293 -0.2062
 7660SOL     OW34441   0.744   0.045   4.369  0.7503 -0.5699 -0.0741
 7660SOL    HW134442   0.825   4.721   4.350  0.1910 -1.6448  0.2036
 7660SOL    HW234443   0.738   0.048   4.464  1.1250 -0.4210 -0.0536
 7661SOL     OW34444   4.317   4.205   7.139  0.0427  0.2709  0.0670
 7661SOL    HW134445   4.249   4.265   7.168 -0.3042  0.1391 -0.4858
 7661SOL    HW234446   4.313   4.137   7.206 -0.1184  2.4507  2.2885
 7662SOL     OW34447   2.324   1.277  16.972  0.3744 -0.1395 -0.0875
 7662SOL    HW134448   2.329   1.254  16.879  0.3425 -1.3248  0.1955
 7662SOL    HW234449   2.412   1.310  16.986 -0.4236  1.0554  2.0187
 7663SOL     OW34450   3.086   2.333   2.787 -0.0484  0.1238 -0.2696
 7663SOL    HW134451   3.158   2.291   2.741 -0.4509  0.5314 -1.2647
 7663SOL    HW234452   3.011   2.314   2.730 -0.9090 -0.8587  1.1756
 7664SOL     OW34453   2.088   1.923   3.138 -0.3347 -0.0306  0.0385
 7664SOL    HW134454   2.178   1.908   3.168 -0.3783  0.6207  0.4812
 7664SOL    HW234455   2.107   1.941   3.046 -0.0469  1.3146  0.3709
 7665SOL     OW34456   0.260   4.440   6.103 -0.0607  0.4977  0.1302
 7665SOL    HW134457   0.299   4.527   6.090  2.6111 -1.0035 -1.8854
 7665SOL    HW234458   0.271   4.426   6.197  0.4596 -1.0133 -0.1568
 7666SOL     OW34459   3.358   3.363   8.428 -0.1242 -0.3384  0.1555
 7666SOL    HW134460   3.323   3.433   8.374 -0.9861 -1.7188 -1.0923
 7666SOL    HW234461   3.448   3.382   8.454 -0.4334  0.0236  0.9479
 7667SOL     OW34462   1.202   4.210   2.522  0.0728 -0.0248 -0.0067
 7667SOL    HW134463   1.122   4.167   2.492 -0.6873  1.7434 -0.4658
 7667SOL    HW234464   1.251   4.131   2.548  1.3142  0.5965 -0.4723
 7668SOL     OW34465   0.352   0.556   0.609  0.0311 -0.5320  0.0924
 7668SOL    HW134466   0.425   0.563   0.671 -0.6880 -1.1931  1.0039
 7668SOL    HW234467   0.331   0.463   0.619  1.0389 -0.8898 -1.1008
 7669SOL     OW34468   0.911   3.467   5.790 -0.0284 -0.2412 -0.5142
 7669SOL    HW134469   0.856   3.515   5.727 -0.1966  0.2831  0.0398
 7669SOL    HW234470   0.902   3.518   5.870 -0.3532 -1.4088  0.2046
 7670SOL     OW34471   0.707   0.579   8.866 -0.0486 -0.1792  0.7767
 7670SOL    HW134472   0.792   0.618   8.889  0.4771 -0.5684 -0.5054
 7670SOL    HW234473   0.653   0.641   8.915 -0.8920  1.0418 -1.7060
 7671SOL     OW34474   2.994   2.311   3.688 -0.1530 -0.0669  0.2815
 7671SOL    HW134475   2.982   2.359   3.770 -1.0860 -0.9278  0.6549
 7671SOL    HW234476   2.951   2.226   3.691  1.8829 -1.1627 -1.4299
 7672SOL     OW34477   1.218   3.498   6.842  0.5748 -0.1327  0.2888
 7672SOL    HW134478   1.145   3.518   6.784 -0.2241  0.3729  1.4809
 7672SOL    HW234479   1.275   3.571   6.819 -1.2660  1.6592  1.4658
 7673SOL     OW34480   4.641   2.486  11.049  0.3995  0.1620 -0.0282
 7673SOL    HW134481   4.723   2.533  11.035  0.9717 -0.0045  2.7352
 7673SOL    HW234482   4.668   2.403  11.009 -1.4280  0.6010 -2.1367
 7674SOL     OW34483   0.777   2.128  17.625  0.7250  0.1851 -0.3108
 7674SOL    HW134484   0.760   2.040  17.659 -1.5093  1.1101  0.9363
 7674SOL    HW234485   0.704   2.175  17.665  0.1037 -0.1542 -1.0518
 7675SOL     OW34486   2.087   2.525   6.885  0.0375  0.0267 -0.1648
 7675SOL    HW134487   2.133   2.547   6.804 -1.4074  0.3043 -0.8956
 7675SOL    HW234488   2.001   2.560   6.863  0.5538  0.4215 -1.5535
 7676SOL     OW34489   2.320   4.079  16.004 -0.1658  0.1633 -0.0015
 7676SOL    HW134490   2.233   4.051  15.973 -1.2249  1.7942  1.5666
 7676SOL    HW234491   2.373   4.011  15.962  0.0325 -0.6528  1.5707
 7677SOL     OW34492   1.985   0.314   6.609  0.0964  0.0106 -0.3666
 7677SOL    HW134493   1.979   0.228   6.567 -0.5441 -0.4967  0.7588
 7677SOL    HW234494   2.032   0.371   6.548  0.9340 -0.5598 -0.2467
 7678SOL     OW34495   4.040   1.568   4.651 -0.2169  0.1804 -0.6326
 7678SOL    HW134496   4.002   1.630   4.588  0.1408 -1.0781 -2.1053
 7678SOL    HW234497   3.974   1.499   4.652  0.5561 -0.5889 -1.4856
 7679SOL     OW34498   1.901   2.216   0.644 -0.1955 -0.6534 -0.4184
 7679SOL    HW134499   1.894   2.311   0.642  1.6342 -0.4800  1.1725
 7679SOL    HW234500   1.970   2.207   0.578 -0.5261  0.5394 -0.9155
 7680SOL     OW34501   4.065   2.678   8.270 -0.0546 -1.1033  0.0407
 7680SOL    HW134502   4.151   2.650   8.239  1.1380  1.8150  0.7167
 7680SOL    HW234503   4.091   2.750   8.328  1.9415 -0.3837 -1.7506
 7681SOL     OW34504   1.244   3.910   4.956 -0.1839  0.0386 -0.1128
 7681SOL    HW134505   1.231   3.991   5.005  1.8333  1.0239 -1.1817
 7681SOL    HW234506   1.303   3.861   5.012  1.4375 -1.0949 -2.7725
 7682SOL     OW34507   2.082   2.376   8.257  0.5721 -0.2764  0.0250
 7682SOL    HW134508   2.129   2.298   8.286  0.3880  0.0360  1.1499
 7682SOL    HW234509   2.025   2.398   8.331  1.5445 -0.6375  0.8750
 7683SOL     OW34510   0.887   0.097   3.915  0.0880 -0.2308  0.0865
 7683SOL    HW134511   0.932   0.045   3.982 -0.4519  0.8835  1.3158
 7683SOL    HW234512   0.886   0.185   3.952 -1.1719  0.0889 -0.7134
 7684SOL     OW34513   4.548   0.054   4.203 -0.3033  0.0802 -0.6482
 7684SOL    HW134514   4.633   0.077   4.241  0.1129 -1.4319 -0.6694
 7684SOL    HW234515   4.557   4.683   4.211  0.4757  0.3713  1.6361
 7685SOL     OW34516   1.168   2.144   5.633 -0.3084 -0.6999  0.7940
 7685SOL    HW134517   1.083   2.118   5.668 -0.7561  0.0833  0.2865
 7685SOL    HW234518   1.220   2.171   5.709  0.1141 -1.4230  0.7705
 7686SOL     OW34519   0.871   0.748   6.338  0.0900  0.0713 -0.1996
 7686SOL    HW134520   0.944   0.709   6.290  1.3636 -0.1853  1.9278
 7686SOL    HW234521   0.907   0.837   6.348  2.6986 -1.0447  0.5111
 7687SOL     OW34522   2.790   1.290   3.344 -0.1173  0.6383  0.3593
 7687SOL    HW134523   2.750   1.275   3.258 -1.8794  0.7793  1.1584
 7687SOL    HW234524   2.709   1.312   3.390 -0.6925 -1.6927  0.4229
 7688SOL     OW34525   0.796   2.201   2.025  0.3898  0.4795 -0.5783
 7688SOL    HW134526   0.877   2.193   1.975 -0.5819 -1.4752 -1.8237
 7688SOL    HW234527   0.768   2.110   2.025  0.9869  0.2937  1.2744
 7689SOL     OW34528   0.305   3.269   4.503 -0.3030  0.7816 -0.3413
 7689SOL    HW134529   0.225   3.223   4.527  0.1688 -0.1426 -0.5311
 7689SOL    HW234530   0.269   3.334   4.442 -1.6689  0.9446  0.6410
 7690SOL     OW34531   2.149   3.358  12.272 -0.1195  0.0263  0.0087
 7690SOL    HW134532   2.170   3.340  12.364 -0.7431 -0.8695 -0.0192
 7690SOL    HW234533   2.232   3.346  12.226 -2.0181 -0.7306 -3.2977
 7691SOL     OW34534   2.147   0.216   2.988 -0.0917 -0.0364 -0.7516
 7691SOL    HW134535   2.168   0.245   2.899  1.7609 -0.1483 -0.3630
 7691SOL    HW234536   2.071   0.274   2.996  0.2509  0.5383 -1.6534
 7692SOL     OW34537   2.726   2.719   5.655  0.3218 -0.2585 -0.1868
 7692SOL    HW134538   2.776   2.763   5.724 -1.0482  0.0561  0.6028
 7692SOL    HW234539   2.648   2.697   5.705  0.5916 -2.0602 -0.5758
 7693SOL     OW34540   4.564   0.066   6.749  0.2008  0.4598 -0.6632
 7693SOL    HW134541   4.633   0.063   6.683 -1.9960 -2.3403 -2.7821
 7693SOL    HW234542   4.598   4.714   6.797 -0.3539 -0.4771 -1.7471
 7694SOL     OW34543   0.699   0.762   4.954 -0.3424  0.0323  0.2318
 7694SOL    HW134544   0.608   0.738   4.934 -0.1056  0.0835 -0.9278
 7694SOL    HW234545   0.694   0.845   5.001  1.4987 -1.4580  3.0586
 7695SOL     OW34546   1.551   0.193   1.038 -0.1339  0.5397 -0.3945
 7695SOL    HW134547   1.481   0.128   1.042 -0.2112  0.6118 -0.5909
 7695SOL    HW234548   1.541   0.229   0.950 -0.8356 -0.4333 -0.7222
 7696SOL     OW34549   3.928   1.595   0.620 -0.3149  0.3584 -0.2327
 7696SOL    HW134550   3.983   1.518   0.636 -2.7210 -1.0760  1.0722
 7696SOL    HW234551   3.974   1.656   0.562 -0.5842  1.8899  1.1670
 7697SOL     OW34552   1.875   0.365   5.881  0.6422 -0.2556 -0.2483
 7697SOL    HW134553   1.933   0.303   5.837 -0.0025 -0.7617 -0.3977
 7697SOL    HW234554   1.894   0.437   5.821 -1.5569  0.8358  0.3528
 7698SOL     OW34555   3.027   4.132   5.938  0.7271  0.1316  0.1878
 7698SOL    HW134556   3.054   4.047   5.903  0.7664  0.3237 -0.2596
 7698SOL    HW234557   2.993   4.091   6.017 -2.8445  1.8795 -0.4522
 7699SOL     OW34558   3.493   1.776   7.521 -0.1971 -0.3050 -0.1117
 7699SOL    HW134559   3.585   1.756   7.534 -0.2535 -1.2845 -1.2170
 7699SOL    HW234560   3.462   1.799   7.609 -1.6332  0.6366 -0.8567
 7700SOL     OW34561   3.874   4.384   4.427  0.4809  0.2093  0.4462
 7700SOL    HW134562   3.910   4.386   4.339  0.8387 -0.7044  0.5712
 7700SOL    HW234563   3.843   4.293   4.432 -0.8482  0.7804  2.6543
 7701SOL     OW34564   0.079   4.037   2.958 -0.3197 -0.3091  0.6763
 7701SOL    HW134565   0.024   4.113   2.937 -1.2837 -1.2382 -0.1165
 7701SOL    HW234566   0.009   3.971   2.957  0.3651 -1.0543  2.0212
 7702SOL     OW34567   1.970   1.534   3.221 -0.6051  0.4655 -0.2348
 7702SOL    HW134568   1.875   1.546   3.229 -0.7946 -1.8795  0.7513
 7702SOL    HW234569   1.964   1.449   3.178  0.6039 -0.1799  0.8778
 7703SOL     OW34570   0.032   2.171   7.446 -0.0773 -0.2521 -0.1542
 7703SOL    HW134571   0.104   2.182   7.508 -0.0443 -0.2402 -0.1946
 7703SOL    HW234572   4.696   2.232   7.489  2.0730  3.2977 -2.1624
 7704SOL     OW34573   2.132   2.379  16.818  0.4671  0.2443 -0.1362
 7704SOL    HW134574   2.212   2.387  16.870  1.6367 -1.4466 -1.6895
 7704SOL    HW234575   2.148   2.288  16.791 -2.6311  0.2872 -2.1937
 7705SOL     OW34576   3.341   0.909   8.786  0.2305 -0.2976  0.0171
 7705SOL    HW134577   3.272   0.882   8.726 -0.2981  1.1955 -0.0407
 7705SOL    HW234578   3.421   0.874   8.746 -0.3383 -0.7399 -0.7169
 7706SOL     OW34579   3.415   3.189   3.803  0.1143 -0.0846  0.4828
 7706SOL    HW134580   3.429   3.246   3.728 -0.0964 -1.0398 -0.2713
 7706SOL    HW234581   3.503   3.159   3.824 -0.1666 -0.9450  0.4137
 7707SOL     OW34582   1.783   2.468  13.836  0.7436  0.5797  0.5884
 7707SOL    HW134583   1.724   2.399  13.867  0.9196  0.1753  0.0095
 7707SOL    HW234584   1.780   2.544  13.895  3.7980  1.7415 -0.7613
 7708SOL     OW34585   1.930   2.337  11.743  0.6115  0.4003 -0.5666
 7708SOL    HW134586   1.920   2.290  11.826  0.2824  0.3487 -0.6363
 7708SOL    HW234587   1.991   2.400  11.781  0.7093  2.3825 -3.9888
 7709SOL     OW34588   2.013   2.814   6.369  0.0641 -0.0615 -0.2994
 7709SOL    HW134589   1.942   2.799   6.307  0.6637 -2.2597 -0.4609
 7709SOL    HW234590   1.962   2.817   6.450  1.4735  2.6231  0.4666
 7710SOL     OW34591   1.301   0.712   3.448 -0.1425  0.2675  0.6888
 7710SOL    HW134592   1.266   0.798   3.424 -0.2716  0.4991  1.7263
 7710SOL    HW234593   1.290   0.699   3.542 -0.7672  1.8721  0.8359
 7711SOL     OW34594   4.439   3.863   0.424  0.6568 -0.0932 -0.1486
 7711SOL    HW134595   4.358   3.875   0.375  1.5747 -2.4649 -2.2282
 7711SOL    HW234596   4.444   3.767   0.428  0.8856 -0.0567  0.4557
 7712SOL     OW34597   2.576   0.337   1.071  0.5017 -0.5211  0.8888
 7712SOL    HW134598   2.496   0.297   1.038  0.0426 -0.4466  1.9043
 7712SOL    HW234599   2.550   0.424   1.100 -3.0738 -1.0165 -0.8611
 7713SOL     OW34600   2.857   0.994  16.077  0.2108  0.0071 -0.0239
 7713SOL    HW134601   2.764   1.014  16.086  0.0540 -0.8070  0.1559
 7713SOL    HW234602   2.873   0.999  15.983 -1.8820  1.9330 -0.2757
 7714SOL     OW34603   0.606   4.563   8.572  0.1915 -0.1709  0.1893
 7714SOL    HW134604   0.625   4.607   8.655  1.0579 -0.8574  0.3605
 7714SOL    HW234605   0.675   4.592   8.513 -1.6485 -1.2830 -2.5570
 7715SOL     OW34606   2.981   2.105  12.841 -0.9857 -0.1339 -0.2114
 7715SOL    HW134607   2.985   2.020  12.885 -0.1321 -0.1569 -0.3322
 7715SOL    HW234608   2.917   2.138  12.904  1.3909  0.0053  2.1193
 7716SOL     OW34609   3.297   4.524  16.325  0.3255 -0.9843 -0.2941
 7716SOL    HW134610   3.381   4.567  16.310 -0.6700  0.6990 -0.9525
 7716SOL    HW234611   3.258   4.554  16.243  0.3881  0.8950  0.3621
 7717SOL     OW34612   4.098   0.972   4.250  0.8361 -0.0428 -0.0160
 7717SOL    HW134613   4.168   1.017   4.298  1.2648 -0.7640  0.0368
 7717SOL    HW234614   4.069   0.918   4.323  1.0445 -2.3184 -1.6367
 7718SOL     OW34615   1.164   0.073   7.395 -0.6984  0.1474  0.1328
 7718SOL    HW134616   1.132   0.163   7.392  0.5119  0.5609 -0.4589
 7718SOL    HW234617   1.248   0.088   7.351 -0.7070  1.7942  0.6532
 7719SOL     OW34618   0.481   4.403  11.263  0.2187  0.0032  0.1322
 7719SOL    HW134619   0.557   4.384  11.317  0.8910  0.9629 -0.4840
 7719SOL    HW234620   0.441   4.475  11.311 -1.7469 -1.3730  0.5611
 7720SOL     OW34621   1.093   1.845   7.241 -0.0105 -0.0487 -0.4057
 7720SOL    HW134622   1.118   1.804   7.324 -1.7635 -0.1479  0.0714
 7720SOL    HW234623   1.180   1.884   7.227 -0.6202  1.0417 -1.1570
 7721SOL     OW34624   0.933   0.888   4.116 -0.0403  0.1500  0.2909
 7721SOL    HW134625   0.859   0.844   4.074  0.8913 -1.2881  0.1613
 7721SOL    HW234626   0.910   0.882   4.209  1.5769 -1.1623  0.6047
 7722SOL     OW34627   2.066   2.415   2.161 -0.0935 -0.0302 -0.3567
 7722SOL    HW134628   2.139   2.449   2.110  0.6051 -0.5640  0.2996
 7722SOL    HW234629   2.093   2.417   2.252  2.8317  1.8608 -1.2812
 7723SOL     OW34630   4.538   3.124   0.883 -0.0027 -1.0144  0.0681
 7723SOL    HW134631   4.490   3.173   0.950  0.6556  0.5358 -0.5971
 7723SOL    HW234632   4.515   3.168   0.801 -0.7133 -0.6154  0.4751
 7724SOL     OW34633   1.738   0.890   1.181 -0.1337  0.0913  0.5917
 7724SOL    HW134634   1.686   0.810   1.177  3.2049 -2.0940  0.7937
 7724SOL    HW234635   1.816   0.847   1.218  0.4107  0.3265 -0.2805
 7725SOL     OW34636   2.966   3.564   2.103 -0.1958 -0.2339  0.0832
 7725SOL    HW134637   2.899   3.515   2.152 -0.1811 -1.3679 -1.0040
 7725SOL    HW234638   2.905   3.608   2.043 -0.3572 -0.9622 -0.3028
 7726SOL     OW34639   3.288   0.146  11.089  0.2249  0.2347  0.3772
 7726SOL    HW134640   3.370   0.139  11.139 -0.6893 -0.8695  1.7244
 7726SOL    HW234641   3.240   0.207  11.145 -0.3434 -0.3842  0.5653
 7727SOL     OW34642   3.420   3.772  11.182  0.4104 -0.6053  0.7304
 7727SOL    HW134643   3.406   3.864  11.159 -1.5618 -1.4323 -1.3426
 7727SOL    HW234644   3.357   3.779  11.254 -0.6742 -2.6941 -0.0142
 7728SOL     OW34645   0.414   4.694   1.403  0.6653 -0.2244 -0.0555
 7728SOL    HW134646   0.428   4.681   1.497 -1.3035  0.2519  0.2936
 7728SOL    HW234647   0.496   0.018   1.387 -1.7074  3.7055 -0.4388
 7729SOL     OW34648   2.448   3.732   8.284 -0.1736  0.7592  0.0834
 7729SOL    HW134649   2.522   3.672   8.274 -1.5928 -1.3642  2.2448
 7729SOL    HW234650   2.454   3.741   8.380  0.3865 -1.6875  0.2601
 7730SOL     OW34651   3.886   1.449   7.944 -0.0198  0.9867 -0.2366
 7730SOL    HW134652   3.978   1.464   7.924 -0.2803  0.9298 -1.4486
 7730SOL    HW234653   3.849   1.534   7.921 -0.4653  0.6155 -0.9029
 7731SOL     OW34654   3.029   0.931   7.139 -0.0741  0.1636 -0.8390
 7731SOL    HW134655   3.019   1.015   7.185 -3.1559 -0.4831 -0.3047
 7731SOL    HW234656   3.065   0.888   7.217  1.6923  3.2260  0.0223
 7732SOL     OW34657   2.299   0.479   3.028 -0.0207 -0.1416  0.1062
 7732SOL    HW134658   2.362   0.439   2.968  2.2900  3.2732  0.2192
 7732SOL    HW234659   2.242   0.408   3.058  0.2276  0.2552  1.5202
 7733SOL     OW34660   0.405   2.379   2.256 -0.4419  0.0744  0.0420
 7733SOL    HW134661   0.324   2.419   2.226  0.2143  0.7848 -0.7634
 7733SOL    HW234662   0.420   2.424   2.339 -1.6693 -1.1219  0.9109
 7734SOL     OW34663   1.206   3.638   1.699  0.1155  0.2678  0.1150
 7734SOL    HW134664   1.180   3.552   1.732 -0.5321  0.9876  1.5000
 7734SOL    HW234665   1.275   3.668   1.758  1.3173  0.4943 -1.4060
 7735SOL     OW34666   2.995   4.225   3.200 -0.2802 -0.2405  0.8712
 7735SOL    HW134667   2.904   4.225   3.229 -0.6744  0.9740 -0.4044
 7735SOL    HW234668   2.998   4.136   3.164 -0.9616 -0.5543  1.5905
 7736SOL     OW34669   2.303   1.146   5.650 -0.2457  0.3494 -0.1077
 7736SOL    HW134670   2.365   1.094   5.700  0.0011 -1.1906 -2.0421
 7736SOL    HW234671   2.279   1.212   5.715 -2.6837  1.9082 -2.5738
 7737SOL     OW34672   4.479   2.504   8.517  0.2356  0.7715  0.4606
 7737SOL    HW134673   4.543   2.477   8.583 -0.9666  0.5098  1.5200
 7737SOL    HW234674   4.413   2.435   8.515  0.9738  0.0023  2.4803
 7738SOL     OW34675   3.573   1.190  17.431  0.1927  0.0800 -0.0582
 7738SOL    HW134676   3.640   1.237  17.381 -2.2815  2.2317 -1.3588
 7738SOL    HW234677   3.495   1.204  17.377 -1.2792  0.8380  2.2491
 7739SOL     OW34678   0.110   4.207   2.619 -0.3823 -0.2612  0.3077
 7739SOL    HW134679   0.187   4.260   2.637  0.6963 -1.3351 -1.1722
 7739SOL    HW234680   0.123   4.202   2.524  0.6588 -2.6123  0.5636
 7740SOL     OW34681   3.661   0.393   1.908 -0.1483 -0.4640 -0.1553
 7740SOL    HW134682   3.739   0.448   1.919 -0.0590 -0.8211  0.9822
 7740SOL    HW234683   3.606   0.459   1.867 -0.0467 -0.4343 -0.2464
 7741SOL     OW34684   3.942   1.129   4.092 -0.2628 -0.1731  0.2044
 7741SOL    HW134685   4.013   1.084   4.137 -1.7737 -0.7924  2.0249
 7741SOL    HW234686   3.864   1.073   4.096 -0.9631  0.7100 -1.3852
 7742SOL     OW34687   4.160   3.766   8.716  0.3158  0.2544  0.5463
 7742SOL    HW134688   4.084   3.740   8.664  0.6807  1.8939 -0.8291
 7742SOL    HW234689   4.161   3.707   8.790 -0.3954  0.2289  0.5313
 7743SOL     OW34690   2.445   1.312   4.010 -0.2167  0.3871  0.3306
 7743SOL    HW134691   2.512   1.251   3.978  0.8404  0.1240  3.0854
 7743SOL    HW234692   2.366   1.257   4.004  0.7520 -0.8125 -1.6847
 7744SOL     OW34693   4.441   2.452  13.865  0.1125 -0.3566  0.0984
 7744SOL    HW134694   4.444   2.531  13.811  1.9364 -0.8428 -0.4906
 7744SOL    HW234695   4.508   2.395  13.828  0.8241 -0.6024  1.7639
 7745SOL     OW34696   2.183   3.071   8.919  0.0777  0.1661 -0.2758
 7745SOL    HW134697   2.096   3.103   8.895 -0.0894 -0.6601 -0.7467
 7745SOL    HW234698   2.191   2.986   8.875  0.2601 -0.6819  1.3719
 7746SOL     OW34699   1.247   4.236   6.100 -0.1136 -0.5181  0.7392
 7746SOL    HW134700   1.222   4.289   6.024 -0.6204 -0.5946  0.8497
 7746SOL    HW234701   1.254   4.297   6.173  1.1656  1.5060 -1.0926
 7747SOL     OW34702   3.232   3.463   5.253 -0.0094  0.3827 -0.3278
 7747SOL    HW134703   3.302   3.501   5.307 -1.0898  1.3556  0.3971
 7747SOL    HW234704   3.155   3.502   5.294 -1.8389 -1.6029 -1.8959
 7748SOL     OW34705   4.465   1.045   5.195  0.3940  0.4623 -0.4605
 7748SOL    HW134706   4.454   1.057   5.101 -0.0955 -1.5238 -0.6479
 7748SOL    HW234707   4.467   0.949   5.199  0.3080  0.4367 -0.9913
 7749SOL     OW34708   3.226   3.429   2.727 -0.0361  0.1568  0.0091
 7749SOL    HW134709   3.202   3.344   2.689  3.1788 -0.1349 -1.3875
 7749SOL    HW234710   3.231   3.485   2.650  0.0560  1.0832  0.6927
 7750SOL     OW34711   3.239   1.745   2.805 -0.0378 -0.5850 -0.1104
 7750SOL    HW134712   3.203   1.764   2.718  0.2010 -2.5145 -0.6239
 7750SOL    HW234713   3.284   1.666   2.777 -2.2522 -1.1323 -2.1331
 7751SOL     OW34714   1.576   3.526  17.424 -0.0441  0.8236 -0.1652
 7751SOL    HW134715   1.572   3.516  17.519  2.7312 -1.1768 -0.2535
 7751SOL    HW234716   1.492   3.567  17.404  0.3457  2.1850  0.9501
 7752SOL     OW34717   1.192   2.101   2.964  0.5003  0.1687  0.4519
 7752SOL    HW134718   1.217   2.165   3.031  1.9917 -0.3514  0.3720
 7752SOL    HW234719   1.276   2.099   2.919 -0.4603 -1.1459 -1.2579
 7753SOL     OW34720   2.060   0.743   4.529 -0.6224 -0.1569 -0.4966
 7753SOL    HW134721   2.099   0.694   4.456  1.7308 -0.4189  0.9618
 7753SOL    HW234722   2.097   0.697   4.603 -1.1099 -1.2773 -0.9381
 7754SOL     OW34723   0.608   0.602   4.585 -0.0675 -0.3017 -0.3488
 7754SOL    HW134724   0.514   0.623   4.589  0.0212  0.3512 -1.7546
 7754SOL    HW234725   0.646   0.686   4.612  1.8585 -0.7647 -1.6508
 7755SOL     OW34726   4.121   3.168   1.749 -0.0089 -0.1455 -0.4140
 7755SOL    HW134727   4.123   3.073   1.761 -0.1416  0.0892  1.3809
 7755SOL    HW234728   4.212   3.191   1.731  0.6231 -2.6157 -0.4089
 7756SOL     OW34729   0.626   2.547   7.397 -0.6513 -0.5599 -0.1143
 7756SOL    HW134730   0.710   2.529   7.354 -0.8663 -0.1941 -0.6918
 7756SOL    HW234731   0.642   2.642   7.395 -2.6911 -0.2125 -0.2298
 7757SOL     OW34732   2.558   1.416  15.483 -0.1136 -0.4105 -0.0009
 7757SOL    HW134733   2.484   1.472  15.506 -2.0934 -2.5192 -1.2603
 7757SOL    HW234734   2.524   1.328  15.500  0.3464 -0.8936 -1.5506
 7758SOL     OW34735   0.839   1.160   9.135 -0.1977  0.0086  0.0546
 7758SOL    HW134736   0.828   1.254   9.150 -1.1342 -0.1530  0.3544
 7758SOL    HW234737   0.891   1.129   9.209 -0.7526  0.9198  0.8267
 7759SOL     OW34738   3.678   0.629   8.263  0.1484  0.3526  0.3275
 7759SOL    HW134739   3.686   0.637   8.168 -0.2048 -1.7729  0.1014
 7759SOL    HW234740   3.692   0.534   8.271 -0.5581  0.2570  0.4933
 7760SOL     OW34741   4.310   3.163   4.742  0.7716 -0.4704  0.2194
 7760SOL    HW134742   4.385   3.120   4.782  0.1518  0.2885  2.1876
 7760SOL    HW234743   4.255   3.177   4.819  1.7910  0.8839  0.6790
 7761SOL     OW34744   2.250   0.174   6.118  0.1324 -0.5791  0.1086
 7761SOL    HW134745   2.183   0.242   6.132 -0.4950 -1.6550  2.2641
 7761SOL    HW234746   2.283   0.191   6.030 -2.1230  0.4470 -0.5592
 7762SOL     OW34747   1.106   2.119   9.321 -0.4187  0.3576  0.3599
 7762SOL    HW134748   1.085   2.156   9.406 -1.4061  1.1059 -0.2174
 7762SOL    HW234749   1.197   2.150   9.318 -0.4063  0.3613  0.8659
 7763SOL     OW34750   0.174   4.515   4.456 -0.1163  0.1811  0.4135
 7763SOL    HW134751   0.230   4.592   4.449  0.1445  0.1019  1.7026
 7763SOL    HW234752   0.153   4.504   4.363  3.1245  0.0389 -0.3203
 7764SOL     OW34753   3.360   3.095   3.422 -0.4849  0.0316 -0.0282
 7764SOL    HW134754   3.345   3.014   3.472  1.0907 -1.2669 -1.6730
 7764SOL    HW234755   3.442   3.073   3.379 -1.4830 -0.0612 -1.8539
 7765SOL     OW34756   3.872   2.940   9.886 -0.2083  0.0239 -0.5803
 7765SOL    HW134757   3.874   2.887   9.805 -3.8537  1.9133 -1.8803
 7765SOL    HW234758   3.935   3.008   9.862  2.0877 -1.4293  1.3333
 7766SOL     OW34759   3.064   4.584   2.713  0.1535  0.2420  0.0584
 7766SOL    HW134760   3.028   4.528   2.644  0.7831  0.5722 -0.5465
 7766SOL    HW234761   3.027   4.669   2.689  0.3662  0.6117  1.0341
 7767SOL     OW34762   2.810   3.913   2.371 -0.3603  0.4389 -0.2229
 7767SOL    HW134763   2.845   3.989   2.418  0.3199 -0.3994  0.6392
 7767SOL    HW234764   2.803   3.943   2.281 -2.6775  1.7699  0.4020
 7768SOL     OW34765   1.685   3.546   8.127  0.0260 -0.0559  0.1202
 7768SOL    HW134766   1.674   3.570   8.219 -2.5338 -1.1835  0.0946
 7768SOL    HW234767   1.629   3.469   8.117  1.5095 -1.0943 -0.1575
 7769SOL     OW34768   0.706   2.486   2.639  0.2551  0.2054 -0.0958
 7769SOL    HW134769   0.720   2.452   2.727 -2.2985  0.7769  0.5220
 7769SOL    HW234770   0.738   2.576   2.644 -0.8936  0.5504  0.9543
 7770SOL     OW34771   3.270   2.440   6.445 -0.1924 -0.0924 -0.0172
 7770SOL    HW134772   3.365   2.444   6.461 -0.1614  1.7347 -0.7112
 7770SOL    HW234773   3.264   2.505   6.375  3.4568  0.0008 -0.2480
 7771SOL     OW34774   3.568   0.238   6.705 -0.3024 -0.1295  0.2281
 7771SOL    HW134775   3.597   0.175   6.639 -1.4589  0.4290 -0.8004
 7771SOL    HW234776   3.505   0.293   6.660  1.6914  0.6145 -1.6563
 7772SOL     OW34777   0.902   1.943  14.779 -0.0997 -0.1101 -0.1119
 7772SOL    HW134778   0.848   1.874  14.741 -0.7078  0.6582 -0.6335
 7772SOL    HW234779   0.834   2.003  14.810 -1.3606 -1.8478  0.4348
 7773SOL     OW34780   3.088   0.687   1.958 -0.1533 -0.4242  0.2220
 7773SOL    HW134781   3.064   0.775   1.928 -0.1173 -1.2118 -2.1453
 7773SOL    HW234782   3.023   0.634   1.911  1.2368 -0.1706 -2.0066
 7774SOL     OW34783   3.777   2.469  14.201  0.1728  0.1957  0.7725
 7774SOL    HW134784   3.760   2.375  14.190 -0.2133  0.3479  0.0496
 7774SOL    HW234785   3.866   2.484  14.171  0.5251  0.4229  1.9451
 7775SOL     OW34786   0.687   3.149   7.320  0.0128  0.2744 -0.4808
 7775SOL    HW134787   0.662   3.082   7.384  1.4179 -1.7559 -2.0521
 7775SOL    HW234788   0.597   3.178   7.301  0.4947  2.1151  0.0450
 7776SOL     OW34789   1.884   0.123   6.006  0.1116 -0.3870 -0.6333
 7776SOL    HW134790   1.877   0.218   5.997 -0.6444 -0.5405 -1.6706
 7776SOL    HW234791   1.792   0.096   6.003  0.3272 -1.4203  2.1132
 7777SOL     OW34792   0.487   4.156   7.418  0.1672  0.3733 -0.3826
 7777SOL    HW134793   0.549   4.119   7.355  0.7182  0.5327  0.0728
 7777SOL    HW234794   0.504   4.250   7.424 -1.6911  0.4011  4.5681
 7778SOL     OW34795   2.535   3.156   5.873 -0.2961  0.4218 -0.0451
 7778SOL    HW134796   2.539   3.247   5.843  1.1184  0.4538  0.2407
 7778SOL    HW234797   2.485   3.118   5.800 -0.8823 -2.0215  1.6058
 7779SOL     OW34798   4.290   1.945   0.415 -0.5557 -0.1986  0.0168
 7779SOL    HW134799   4.385   1.944   0.405 -0.5459 -0.4649  0.1305
 7779SOL    HW234800   4.282   1.964   0.508  1.8958  1.0569 -0.0323
 7780SOL     OW34801   2.434   1.454  10.604 -0.1184  0.1292  0.1370
 7780SOL    HW134802   2.471   1.390  10.543 -0.2359 -0.2531  0.4732
 7780SOL    HW234803   2.350   1.418  10.630  0.0776  0.4058  1.1552
 7781SOL     OW34804   0.947   0.653   8.969  0.3951 -0.4079  0.6602
 7781SOL    HW134805   0.915   0.743   8.977  1.4443  0.0824 -0.7843
 7781SOL    HW234806   1.017   0.653   9.035  0.2709 -2.1568  0.7901
 7782SOL     OW34807   1.826   2.445   1.840  0.0091 -0.1955 -0.4146
 7782SOL    HW134808   1.767   2.410   1.908  2.5996 -2.4450  0.6806
 7782SOL    HW234809   1.773   2.453   1.761 -1.7632 -0.6263  0.7363
 7783SOL     OW34810   0.473   1.226   5.672 -0.0345  0.2341 -0.1658
 7783SOL    HW134811   0.409   1.252   5.605 -1.2843 -1.2724  0.4250
 7783SOL    HW234812   0.523   1.157   5.630  0.0572 -0.8943  1.7905
 7784SOL     OW34813   4.537   3.673   2.758 -0.0849  0.2635  0.9250
 7784SOL    HW134814   4.526   3.618   2.680  2.1643 -0.2843  0.9811
 7784SOL    HW234815   4.600   3.625   2.813 -0.1690  0.7063  1.4044
 7785SOL     OW34816   3.693   2.415   1.811 -0.1967  0.9573 -0.2650
 7785SOL    HW134817   3.773   2.385   1.853 -1.4552  0.6608  1.9393
 7785SOL    HW234818   3.622   2.375   1.860 -0.4981 -0.7048 -2.0620
 7786SOL     OW34819   3.597   1.337   5.713 -0.3466  0.5268  0.1804
 7786SOL    HW134820   3.603   1.269   5.646  1.4382  1.1614 -0.3012
 7786SOL    HW234821   3.655   1.403   5.677  0.1977  0.4750  0.9407
 7787SOL     OW34822   4.160   3.145   5.955  0.3158  0.3913 -0.0760
 7787SOL    HW134823   4.223   3.078   5.930 -3.9510 -3.8456  0.4156
 7787SOL    HW234824   4.214   3.224   5.956  0.5050  0.2583 -0.0298
 7788SOL     OW34825   2.332   3.175  17.294  0.0532 -0.0206 -0.7188
 7788SOL    HW134826   2.338   3.261  17.335  0.5137 -0.4051  0.0253
 7788SOL    HW234827   2.249   3.193  17.250 -1.0101 -3.0965 -0.0103
 7789SOL     OW34828   1.043   0.882   5.318  1.3525  0.2195 -0.1849
 7789SOL    HW134829   1.032   0.870   5.224 -0.5265 -1.5127  0.2300
 7789SOL    HW234830   1.100   0.809   5.345 -1.3265 -1.2021  1.7087
 7790SOL     OW34831   1.923   1.770  13.618  0.0046 -0.5659 -0.3510
 7790SOL    HW134832   2.008   1.802  13.589 -0.1442  1.1176  1.0838
 7790SOL    HW234833   1.940   1.686  13.661  0.4740  2.0879  4.5857
 7791SOL     OW34834   0.218   1.268   6.293  0.4371  0.4172  0.4803
 7791SOL    HW134835   0.239   1.290   6.202 -0.4525 -0.0052  0.1759
 7791SOL    HW234836   0.185   1.179   6.280 -1.3394  1.4807 -2.1712
 7792SOL     OW34837   3.720   0.176   9.750  0.1187 -0.1139  0.1246
 7792SOL    HW134838   3.652   0.222   9.701 -0.1876 -0.4274  0.2542
 7792SOL    HW234839   3.775   0.140   9.681 -1.1205 -1.7389 -0.0103
 7793SOL     OW34840   1.191   3.167   3.766  0.0679 -0.6836 -0.0902
 7793SOL    HW134841   1.114   3.144   3.714 -0.7390  0.5033  0.5734
 7793SOL    HW234842   1.209   3.255   3.733 -0.7511 -0.0067  1.2947
 7794SOL     OW34843   2.253   0.146  10.117 -0.3982 -0.3755 -0.3956
 7794SOL    HW134844   2.328   0.089  10.103  0.7664  1.9538 -3.7141
 7794SOL    HW234845   2.252   0.205  10.042  0.8167  2.0678  1.5017
 7795SOL     OW34846   0.685   4.235  17.568 -0.3364 -0.1228 -0.0525
 7795SOL    HW134847   0.736   4.172  17.517  1.5251  1.9552 -0.7617
 7795SOL    HW234848   0.718   4.228  17.657 -0.6316  2.0747  0.2286
 7796SOL     OW34849   4.107   1.524  10.353 -0.0920 -0.1723  0.0590
 7796SOL    HW134850   4.110   1.466  10.277 -2.9498  3.1571 -2.5970
 7796SOL    HW234851   4.129   1.601  10.301  0.3394 -0.7148 -0.5642
 7797SOL     OW34852   2.186   0.006  15.384 -0.3389  0.1538  0.1887
 7797SOL    HW134853   2.171   4.675  15.461  0.8225 -0.0189  0.2845
 7797SOL    HW234854   2.181   4.668  15.311  3.2447 -1.1207  1.0248
 7798SOL     OW34855   1.010   0.357   5.471 -0.1533 -0.3400 -0.4663
 7798SOL    HW134856   0.931   0.306   5.488 -0.4299  0.2117 -0.0592
 7798SOL    HW234857   0.982   0.433   5.421  1.0003  1.3544  1.4359
 7799SOL     OW34858   2.211   2.738   3.744  0.8068  0.3284  1.4434
 7799SOL    HW134859   2.228   2.774   3.657  4.0147  0.2217  2.0470
 7799SOL    HW234860   2.135   2.796   3.755  0.7188  0.9423 -2.2292
 7800SOL     OW34861   2.831   1.934   4.189  0.5057  0.2182 -0.0807
 7800SOL    HW134862   2.813   1.961   4.279 -2.0176  0.3525 -0.6266
 7800SOL    HW234863   2.849   2.011   4.135  1.7681 -0.7901 -1.0929
 7801SOL     OW34864   0.855   4.417   1.848  0.5305  0.1248 -0.4968
 7801SOL    HW134865   0.919   4.386   1.913 -1.0532 -0.3181  0.8539
 7801SOL    HW234866   0.907   4.399   1.769  0.0106  0.3433 -0.8880
 7802SOL     OW34867   0.274   4.718   0.379  0.1233  0.6097  0.4224
 7802SOL    HW134868   0.369   4.717   0.366 -0.2600 -2.1137 -2.1718
 7802SOL    HW234869   0.244   4.630   0.401  1.4296 -0.1298 -0.8447
 7803SOL     OW34870   0.730   4.389  15.088  0.1019 -0.4313 -0.0698
 7803SOL    HW134871   0.716   4.426  15.175 -1.0102 -0.4371 -0.2362
 7803SOL    HW234872   0.781   4.310  15.106  3.2467  1.2325 -1.6286
 7804SOL     OW34873   4.523   1.028   6.898 -0.0176 -0.5512 -0.1910
 7804SOL    HW134874   4.586   0.996   6.834  1.3460 -0.3735  1.0474
 7804SOL    HW234875   4.438   1.049   6.858 -0.5217 -1.4298  0.4010
 7805SOL     OW34876   3.453   1.030  10.842  0.0412  0.1889  0.0242
 7805SOL    HW134877   3.363   1.014  10.816  0.8076 -0.8192 -1.9933
 7805SOL    HW234878   3.482   1.088  10.772  0.6574 -1.6683 -1.2591
 7806SOL     OW34879   3.288   0.689   6.168 -0.0161 -0.6188  0.7098
 7806SOL    HW134880   3.361   0.745   6.192  1.0701 -1.0261 -1.6421
 7806SOL    HW234881   3.333   0.605   6.162 -2.4862 -1.8368 -1.0548
 7807SOL     OW34882   0.797   1.470   3.053  0.1253  0.2653 -0.0335
 7807SOL    HW134883   0.866   1.532   3.029  0.3698 -0.3285 -0.8647
 7807SOL    HW234884   0.794   1.406   2.982 -3.2954  0.1487  0.2259
 7808SOL     OW34885   2.479   4.614   1.289  0.2071 -0.5876 -0.4717
 7808SOL    HW134886   2.494   4.680   1.221 -0.5533 -2.1635 -2.1791
 7808SOL    HW234887   2.397   4.651   1.323  0.6671 -0.1315  0.1184
 7809SOL     OW34888   0.452   2.431   9.160 -0.3746  0.0026 -0.1873
 7809SOL    HW134889   0.393   2.504   9.143 -0.0218  0.1256 -0.8729
 7809SOL    HW234890   0.398   2.363   9.201 -0.3978  0.0807 -0.0851
 7810SOL     OW34891   3.320   4.326   5.384 -0.2811  0.6219 -0.4179
 7810SOL    HW134892   3.297   4.247   5.432  0.2257  0.8719  0.2466
 7810SOL    HW234893   3.246   4.321   5.324  0.6943 -1.5039 -1.4097
 7811SOL     OW34894   4.665   1.567   3.742 -0.0323  0.1343 -0.3231
 7811SOL    HW134895   4.587   1.515   3.763  0.0540 -0.4366 -1.4170
 7811SOL    HW234896   4.695   1.539   3.656  0.0819  0.4757 -0.3929
 7812SOL     OW34897   2.659   2.275   5.965 -0.2694  0.4102 -0.1905
 7812SOL    HW134898   2.599   2.221   5.915 -2.7285  0.0844  3.1263
 7812SOL    HW234899   2.724   2.308   5.902  1.6605  0.3598  1.7622
 7813SOL     OW34900   2.160   1.981   2.364 -0.2094  0.3351  0.4703
 7813SOL    HW134901   2.071   2.009   2.345  0.3120  1.1355 -0.7696
 7813SOL    HW234902   2.181   1.907   2.307  1.8528  0.2191  1.3824
 7814SOL     OW34903   1.075   1.270   8.648 -0.6390  0.0187 -0.6674
 7814SOL    HW134904   1.114   1.286   8.734  0.6787  1.0945 -1.4690
 7814SOL    HW234905   0.992   1.312   8.669 -0.9793 -0.9661 -0.0024
 7815SOL     OW34906   1.420   4.580  12.610  0.2097 -0.5989 -0.1162
 7815SOL    HW134907   1.383   4.563  12.697  0.5878  0.3125  0.2181
 7815SOL    HW234908   1.369   4.657  12.586  0.4887 -0.4711 -0.2939
 7816SOL     OW34909   3.409   2.847   8.263  0.2995 -0.4104 -0.5174
 7816SOL    HW134910   3.432   2.853   8.171  0.8491  0.9281 -0.2993
 7816SOL    HW234911   3.490   2.876   8.307  1.1673 -0.5061 -2.0496
 7817SOL     OW34912   0.213   3.459   6.954 -0.0489 -0.1237 -0.1081
 7817SOL    HW134913   0.210   3.515   7.032 -2.8140  0.0222 -0.3317
 7817SOL    HW234914   0.252   3.380   6.991  0.5375  1.0788  1.8080
 7818SOL     OW34915   1.245   0.975   6.538  0.6533 -0.6925  0.2856
 7818SOL    HW134916   1.167   0.924   6.561 -0.9188  0.9220 -1.4450
 7818SOL    HW234917   1.249   0.959   6.443 -0.6354  2.1621 -0.2402
 7819SOL     OW34918   3.516   4.177   7.793 -0.1489  0.2653 -0.3819
 7819SOL    HW134919   3.595   4.218   7.828 -0.6267  0.3695  0.5498
 7819SOL    HW234920   3.500   4.105   7.854 -2.5125  0.5347 -0.6916
 7820SOL     OW34921   2.683   2.682   4.820  0.0391 -0.5290 -0.3667
 7820SOL    HW134922   2.637   2.756   4.780  0.3984  0.4144  0.9610
 7820SOL    HW234923   2.613   2.618   4.835 -0.5739  0.1468 -0.2935
 7821SOL     OW34924   0.680   4.016   3.112 -1.0092  0.5502 -0.6255
 7821SOL    HW134925   0.616   4.008   3.183 -1.1933 -1.6136 -1.0531
 7821SOL    HW234926   0.628   3.975   3.043  0.2995 -1.3561 -0.4675
 7822SOL     OW34927   2.362   3.754   3.029  0.4665 -0.1765 -0.3296
 7822SOL    HW134928   2.286   3.737   3.085  0.4839 -1.4324 -0.6854
 7822SOL    HW234929   2.415   3.817   3.077 -0.9060 -0.3496  1.4056
 7823SOL     OW34930   3.120   1.672  16.556  0.3425 -0.4206 -0.0552
 7823SOL    HW134931   3.179   1.615  16.507  1.6917  0.8105  0.1383
 7823SOL    HW234932   3.037   1.648  16.514  0.1240  0.6993 -0.2656
 7824SOL     OW34933   0.102   0.549   7.115  0.4278 -0.0267 -0.0825
 7824SOL    HW134934   0.045   0.549   7.039 -0.9497 -2.6335  0.9675
 7824SOL    HW234935   0.153   0.631   7.109  2.4716 -0.9764  4.2692
 7825SOL     OW34936   1.574   0.352  13.059 -0.8622 -0.0538  0.1968
 7825SOL    HW134937   1.577   0.441  13.095 -0.3697  0.3885 -0.9360
 7825SOL    HW234938   1.640   0.368  12.991 -0.4201  1.8488  1.0716
 7826SOL     OW34939   0.960   2.690   8.228  0.3846  0.4745 -0.7702
 7826SOL    HW134940   0.982   2.676   8.320 -1.4212 -0.4284 -0.4853
 7826SOL    HW234941   1.036   2.655   8.180  3.2454  1.0036  3.3340
 7827SOL     OW34942   2.144   2.952  12.063  0.2152 -0.2877  0.0568
 7827SOL    HW134943   2.205   2.959  12.137  0.0841 -1.3362  0.2668
 7827SOL    HW234944   2.063   2.923  12.105  0.1695  2.7725  2.0490
 7828SOL     OW34945   4.699   2.496  12.249  0.1074 -0.5418  0.2884
 7828SOL    HW134946   4.679   2.476  12.341  1.9556 -1.0753  0.5930
 7828SOL    HW234947   4.666   2.585  12.242 -0.7244 -0.9173 -0.5067
 7829SOL     OW34948   4.292   2.108  17.132  0.0511 -0.0610 -0.3842
 7829SOL    HW134949   4.381   2.125  17.100  0.6699  0.2406  1.4823
 7829SOL    HW234950   4.259   2.049  17.064  1.1359 -1.7850  0.5959
 7830SOL     OW34951   3.994   0.481   6.118  0.5411  0.3635 -0.1350
 7830SOL    HW134952   4.031   0.553   6.067 -0.2449  0.4262 -0.6093
 7830SOL    HW234953   3.980   0.520   6.204  0.7500  0.1949 -0.0234
 7831SOL     OW34954   4.521   3.948  10.728  0.6022 -0.0749 -0.9896
 7831SOL    HW134955   4.606   3.973  10.690 -0.4016  1.6079 -2.1134
 7831SOL    HW234956   4.474   4.031  10.729  0.0137 -0.4099 -1.0953
 7832SOL     OW34957   0.101   0.432   0.427 -0.2371 -0.3219  0.2860
 7832SOL    HW134958   0.094   0.524   0.404  0.0893 -1.3246 -3.8120
 7832SOL    HW234959   0.013   0.407   0.399  0.0265  0.2348 -1.0311
 7833SOL     OW34960   4.006   4.407   8.799 -0.0534  0.1441  0.0620
 7833SOL    HW134961   3.995   4.319   8.762  0.7793  0.0486  0.0427
 7833SOL    HW234962   3.975   4.391   8.888  0.3176 -2.9182 -0.3755
 7834SOL     OW34963   2.177   3.160   4.785  0.5476  0.4193  0.1223
 7834SOL    HW134964   2.138   3.127   4.705 -0.2191 -2.7561  1.8283
 7834SOL    HW234965   2.123   3.234   4.814  0.0674  0.5617 -1.1580
 7835SOL     OW34966   2.244   1.422  14.552  0.2089  0.0500  0.5451
 7835SOL    HW134967   2.154   1.391  14.563  0.1521  0.7239  2.0729
 7835SOL    HW234968   2.249   1.506  14.597  1.6815  0.3472 -0.1918
 7836SOL     OW34969   1.631   0.968   2.458  0.0287 -0.2946 -0.2669
 7836SOL    HW134970   1.626   0.968   2.362 -1.3116 -0.0803 -0.1910
 7836SOL    HW234971   1.545   0.936   2.487 -1.3059  0.5642 -3.3223
 7837SOL     OW34972   1.375   2.770   6.540  0.1907  0.3792 -0.8759
 7837SOL    HW134973   1.461   2.792   6.577 -0.7245  1.9040  0.3821
 7837SOL    HW234974   1.377   2.675   6.556  1.5829  0.7452  1.2695
 7838SOL     OW34975   4.033   3.623  10.218 -0.1672 -0.6671  0.0517
 7838SOL    HW134976   3.983   3.590  10.143  2.4130 -0.9911 -1.5180
 7838SOL    HW234977   4.114   3.658  10.181 -1.2900 -1.0086 -2.7715
 7839SOL     OW34978   3.337   3.820   5.703  0.2347  0.0438  0.1082
 7839SOL    HW134979   3.432   3.810   5.706  0.0160 -1.5193  2.2255
 7839SOL    HW234980   3.327   3.912   5.682  2.4713  0.6873  1.9265
 7840SOL     OW34981   2.795   3.865   7.683 -0.2176 -0.1919  0.2939
 7840SOL    HW134982   2.718   3.851   7.628  0.0226  0.0190 -0.0980
 7840SOL    HW234983   2.867   3.832   7.628 -1.3752 -2.7799  0.3482
 7841SOL     OW34984   0.220   4.700   6.353 -0.0494  0.1930  0.0235
 7841SOL    HW134985   0.308   4.663   6.362  0.6204  2.0740  1.1130
 7841SOL    HW234986   0.237   0.063   6.317 -1.2565  0.5301  0.2597
 7842SOL     OW34987   1.330   4.669  13.152 -0.1995 -0.1276  0.4633
 7842SOL    HW134988   1.304   4.646  13.241 -1.6017  0.0841  0.0959
 7842SOL    HW234989   1.298   0.036  13.152 -2.2102 -0.8413 -1.8621
 7843SOL     OW34990   3.111   1.684  15.510  0.1665 -0.2587  0.2210
 7843SOL    HW134991   3.179   1.751  15.503 -2.0378  1.7726 -1.7216
 7843SOL    HW234992   3.052   1.702  15.436 -0.7360  2.7221  1.6618
 7844SOL     OW34993   4.365   3.615   3.182 -0.4151  0.0292  0.3410
 7844SOL    HW134994   4.316   3.535   3.161 -0.5174 -0.5135  2.6460
 7844SOL    HW234995   4.403   3.580   3.262  0.0756 -0.5052 -0.1187
 7845SOL     OW34996   3.322   3.692  13.660  0.4555  0.2025 -0.6783
 7845SOL    HW134997   3.389   3.639  13.617  1.3319 -0.3070  1.3170
 7845SOL    HW234998   3.265   3.618  13.678 -1.3938  1.1657 -2.5604
 7846SOL     OW34999   4.098   2.032  15.070 -0.6549 -0.2686 -0.4116
 7846SOL    HW135000   4.003   2.021  15.067 -0.7378  0.0101  1.2048
 7846SOL    HW235001   4.121   2.119  15.037  0.0548  0.6886  2.5783
 7847SOL     OW35002   4.690   3.821   5.990  0.1884 -0.2584 -0.4409
 7847SOL    HW135003   4.631   3.817   6.065 -0.2213  1.2076 -0.6769
 7847SOL    HW235004   4.640   3.885   5.940  1.2121 -0.1404 -1.2957
 7848SOL     OW35005   4.109   1.857  12.958 -0.1610 -0.9551  0.2359
 7848SOL    HW135006   4.037   1.807  12.996 -0.6547  1.0671  1.9785
 7848SOL    HW235007   4.186   1.841  13.013 -0.2460  0.4325  0.7546
 7849SOL     OW35008   4.590   1.628   6.472 -0.0632  0.0093  0.4961
 7849SOL    HW135009   4.614   1.658   6.560 -0.0518 -1.5952  1.0262
 7849SOL    HW235010   4.657   1.560   6.461 -1.1062 -1.0410  0.6594
 7850SOL     OW35011   1.815   0.880   6.067 -0.4309  0.7488 -0.1216
 7850SOL    HW135012   1.908   0.875   6.093 -0.6195  0.1156  0.4475
 7850SOL    HW235013   1.793   0.961   6.113  2.4790  0.9152  0.9784
 7851SOL     OW35014   2.142   0.272   2.691  0.2990  0.0285  0.2283
 7851SOL    HW135015   2.173   0.353   2.651 -1.6328  1.5861  1.8366
 7851SOL    HW235016   2.067   0.298   2.745 -0.0980 -1.5855  0.4453
 7852SOL     OW35017   2.268   1.221   3.093 -0.3062 -0.1780  0.5085
 7852SOL    HW135018   2.344   1.193   3.042 -0.3497 -2.7680  1.8243
 7852SOL    HW235019   2.236   1.142   3.137 -2.1405  0.2897 -0.0246
 7853SOL     OW35020   4.706   2.672   7.118 -0.2490 -0.1523  0.1563
 7853SOL    HW135021   4.694   2.640   7.029  0.2633  0.9664 -0.3171
 7853SOL    HW235022   0.043   2.605   7.151  2.5317  2.0769 -0.3408
 7854SOL     OW35023   0.960   0.705   4.660 -0.6023 -0.0116  0.3021
 7854SOL    HW135024   0.935   0.671   4.746 -1.1781  0.1761  0.2088
 7854SOL    HW235025   0.946   0.796   4.687  3.5072  0.1774  1.7499
 7855SOL     OW35026   1.437   2.865   2.662 -0.6129  0.0836 -0.0220
 7855SOL    HW135027   1.449   2.929   2.592  0.7074 -1.1696 -0.9269
 7855SOL    HW235028   1.462   2.916   2.740 -0.7764  1.0089 -0.5765
 7856SOL     OW35029   3.785   3.800  17.184  0.0674  0.2074 -0.4875
 7856SOL    HW135030   3.735   3.840  17.256  1.0345 -1.3968  1.0860
 7856SOL    HW235031   3.836   3.874  17.153  0.7657  0.0981  0.3847
 7857SOL     OW35032   0.767   4.713   2.080 -0.0904 -0.1103 -0.1973
 7857SOL    HW135033   0.839   4.652   2.062  0.2130 -0.1758  1.2040
 7857SOL    HW235034   0.819   0.062   2.116  1.0589  0.6656 -3.4110
 7858SOL     OW35035   1.619   3.356   7.309  0.3389  0.2325  0.3508
 7858SOL    HW135036   1.578   3.380   7.393  0.4062  1.4124  0.0437
 7858SOL    HW235037   1.629   3.438   7.260 -1.1321 -0.2103 -0.6777
 7859SOL     OW35038   0.685   2.256  16.631  0.0255  0.7535 -0.5155
 7859SOL    HW135039   0.615   2.280  16.692  1.1878 -2.8990  2.2673
 7859SOL    HW235040   0.757   2.228  16.688 -0.3457 -0.7651 -0.7868
 7860SOL     OW35041   3.928   3.722   5.724 -0.3214  0.1931  0.8326
 7860SOL    HW135042   3.993   3.686   5.664  1.1912  2.1507  1.2856
 7860SOL    HW235043   3.849   3.685   5.685 -1.7534  3.6333  0.4332
 7861SOL     OW35044   4.326   2.381   1.447  0.9531  0.2789  0.1381
 7861SOL    HW135045   4.345   2.316   1.514  2.3765 -0.0516 -0.5785
 7861SOL    HW235046   4.262   2.438   1.489 -0.8169  1.7307 -4.4361
 7862SOL     OW35047   1.085   3.838  17.148 -0.6901  0.3310 -0.8021
 7862SOL    HW135048   1.149   3.830  17.077 -1.3804  1.7107 -1.5604
 7862SOL    HW235049   1.078   3.929  17.177  0.1246  1.0954 -3.0387
 7863SOL     OW35050   1.085   3.104  15.811 -0.0193  0.1006 -0.3155
 7863SOL    HW135051   1.036   3.048  15.751 -0.0576  0.3039 -0.4760
 7863SOL    HW235052   1.154   3.144  15.759 -1.7654  0.6915 -2.1866
 7864SOL     OW35053   2.648   0.230   8.184  0.1801  0.8331  0.3842
 7864SOL    HW135054   2.740   0.215   8.204 -0.1054 -0.5609  0.6441
 7864SOL    HW235055   2.642   0.193   8.096  1.3097  0.6432  0.3844
 7865SOL     OW35056   1.948   2.909   3.320 -0.1467  0.0975  0.1415
 7865SOL    HW135057   1.980   2.978   3.262 -0.3430 -0.2448 -0.3758
 7865SOL    HW235058   1.999   2.917   3.400 -0.8549 -0.0311  0.6073
 7866SOL     OW35059   3.546   1.893  17.396 -0.2216  0.1048  0.1662
 7866SOL    HW135060   3.529   1.819  17.338 -3.7969  0.6789  0.4982
 7866SOL    HW235061   3.460   1.931  17.412  0.1303  0.1659  1.9118
 7867SOL     OW35062   2.250   2.602  15.579  0.0041 -0.8686  0.3549
 7867SOL    HW135063   2.287   2.514  15.586 -0.2896 -1.0622 -0.4925
 7867SOL    HW235064   2.215   2.610  15.668  1.3142  1.0689  0.6924
 7868SOL     OW35065   0.491   2.106  12.743 -0.5120  0.0987 -0.0424
 7868SOL    HW135066   0.491   2.198  12.715  0.7146  0.7379  2.0650
 7868SOL    HW235067   0.408   2.102  12.791  0.0016  0.1997  0.8671
 7869SOL     OW35068   0.098   4.155   2.358  0.1225 -0.2223  0.7494
 7869SOL    HW135069   0.015   4.187   2.323 -0.3158 -1.5212  0.6221
 7869SOL    HW235070   0.152   4.162   2.279 -0.8359 -0.9658  0.0342
 7870SOL     OW35071   1.652   0.391   8.019 -0.3162  0.4929  0.1217
 7870SOL    HW135072   1.563   0.364   7.993  0.4406 -1.9025  0.0207
 7870SOL    HW235073   1.684   0.301   8.024 -2.6743 -0.2972  1.2142
 7871SOL     OW35074   2.177   2.792   7.707  0.1709 -0.1212  0.5647
 7871SOL    HW135075   2.162   2.706   7.666  0.6918 -2.0656  4.4588
 7871SOL    HW235076   2.271   2.788   7.689 -0.1445 -2.4998 -0.5455
 7872SOL     OW35077   1.311   4.456   2.517  0.3688  0.0434  0.4687
 7872SOL    HW135078   1.267   4.372   2.507 -0.1693  0.3422  0.3443
 7872SOL    HW235079   1.395   4.414   2.537  0.2542  0.4571  1.7831
 7873SOL     OW35080   0.995   3.464   4.640 -0.4148  0.1972 -0.1848
 7873SOL    HW135081   1.058   3.415   4.586  2.2357  2.4681  0.8110
 7873SOL    HW235082   0.930   3.395   4.645  1.2202 -1.5463 -2.8356
 7874SOL     OW35083   2.357   3.179   7.266  0.0678 -0.5011  0.1549
 7874SOL    HW135084   2.324   3.089   7.265  1.2617 -0.9191 -2.1589
 7874SOL    HW235085   2.344   3.216   7.178  1.2075 -0.1848  0.1127
 7875SOL     OW35086   0.078   4.583   4.200 -0.6500 -0.3703  0.2429
 7875SOL    HW135087   0.129   4.593   4.120 -1.0015  0.3270  0.1045
 7875SOL    HW235088   0.022   4.508   4.180 -0.7111 -0.7331  1.7417
 7876SOL     OW35089   2.895   0.436   5.454  0.1082 -0.2403  0.2694
 7876SOL    HW135090   2.929   0.349   5.433 -0.6789 -1.7016  5.1527
 7876SOL    HW235091   2.802   0.419   5.441 -0.0553  2.0051 -1.4297
 7877SOL     OW35092   1.933   4.359   5.815 -0.4811 -0.0239  0.2968
 7877SOL    HW135093   2.021   4.330   5.839 -0.4852  0.4296  0.8652
 7877SOL    HW235094   1.946   4.398   5.729 -0.4390 -1.3982 -0.3141
 7878SOL     OW35095   1.744   3.685  11.924 -0.2447  0.3183  0.0520
 7878SOL    HW135096   1.840   3.678  11.919 -0.4085 -0.2864 -2.2354
 7878SOL    HW235097   1.719   3.614  11.866 -0.8899 -0.5363  1.3952
 7879SOL     OW35098   4.250   0.641   8.895  0.0745  0.6377 -0.0513
 7879SOL    HW135099   4.199   0.591   8.958  1.8971 -1.1661 -0.0095
 7879SOL    HW235100   4.207   0.626   8.811 -2.2704 -2.5354  1.7297
 7880SOL     OW35101   1.439   3.327   6.772  1.0167 -0.4273  0.7690
 7880SOL    HW135102   1.447   3.284   6.857 -0.5765 -0.4149  0.9403
 7880SOL    HW235103   1.367   3.390   6.781  2.7502  2.1660 -3.6510
 7881SOL     OW35104   2.441   4.434  12.838 -0.2265  0.4792  0.2067
 7881SOL    HW135105   2.430   4.381  12.759  2.6141  0.3055 -0.0796
 7881SOL    HW235106   2.374   4.500  12.819 -0.0391  0.5614 -0.1766
 7882SOL     OW35107   0.513   3.526   8.673 -0.0361  0.3140  0.0701
 7882SOL    HW135108   0.477   3.440   8.697 -2.4274  1.4517  0.6026
 7882SOL    HW235109   0.587   3.499   8.619  0.5496  0.9552  0.5541
 7883SOL     OW35110   1.194   1.496   4.604  0.4655  0.0758  0.3687
 7883SOL    HW135111   1.183   1.570   4.664  0.8894  0.5867 -0.1833
 7883SOL    HW235112   1.121   1.441   4.632 -0.6290  0.3895 -1.8981
 7884SOL     OW35113   0.065   2.711   3.619  0.1659  0.1802 -0.1630
 7884SOL    HW135114   0.126   2.779   3.591  0.7057 -1.0131 -1.8443
 7884SOL    HW235115   4.715   2.748   3.569 -0.7685 -1.8326 -0.3042
 7885SOL     OW35116   4.131   3.474  10.427  0.0207 -0.5057 -0.3947
 7885SOL    HW135117   4.085   3.503  10.348  1.0373 -0.2634 -0.8913
 7885SOL    HW235118   4.184   3.553  10.421  0.6365 -0.8496  0.6652
 7886SOL     OW35119   4.607   4.575   6.491 -0.2011 -0.3605  0.7004
 7886SOL    HW135120   4.538   4.593   6.555 -1.8522  0.7262 -1.3955
 7886SOL    HW235121   4.659   4.655   6.504  0.5675 -1.0509  1.9082
 7887SOL     OW35122   0.043   3.108   3.013 -0.5150  0.2875  0.4683
 7887SOL    HW135123   0.031   3.026   2.965 -0.2222  0.5342 -0.0156
 7887SOL    HW235124   4.703   3.168   2.975 -0.9321 -0.5251 -0.1031
 7888SOL     OW35125   0.604   0.912  13.996 -0.1321  0.4614 -0.1303
 7888SOL    HW135126   0.656   0.977  14.042 -1.4738  2.0972 -0.9230
 7888SOL    HW235127   0.570   0.869  14.074  0.8572 -0.0000  0.0386
 7889SOL     OW35128   1.170   0.631   1.649 -0.7182  0.5275  0.4270
 7889SOL    HW135129   1.243   0.607   1.593 -1.6457 -1.8708  0.2370
 7889SOL    HW235130   1.206   0.601   1.732  1.8407  1.7034 -0.2719
 7890SOL     OW35131   4.544   4.014   8.905  0.2394 -0.3702 -0.0844
 7890SOL    HW135132   4.634   4.006   8.875  0.1172  0.5024 -0.6916
 7890SOL    HW235133   4.555   4.107   8.925 -1.7001 -0.4968  1.5792
 7891SOL     OW35134   2.077   1.677   5.099  0.4512  0.2681 -0.5941
 7891SOL    HW135135   2.150   1.736   5.082  0.2134  0.8612  0.4712
 7891SOL    HW235136   2.044   1.720   5.178 -2.4812 -0.8652 -1.1976
 7892SOL     OW35137   1.898   0.323  12.103 -0.2066 -0.0938  0.2258
 7892SOL    HW135138   1.945   0.338  12.022  0.5124  0.0357  0.6649
 7892SOL    HW235139   1.959   0.262  12.146  1.7091 -0.4576 -3.0264
 7893SOL     OW35140   2.380   2.911  17.183  0.3635  0.2070  0.3159
 7893SOL    HW135141   2.340   2.986  17.227  0.2743  1.5473 -2.0814
 7893SOL    HW235142   2.456   2.954  17.143  0.5274 -0.3149  0.0702
 7894SOL     OW35143   2.422   1.409   4.397 -0.5840 -0.1306  0.1659
 7894SOL    HW135144   2.369   1.448   4.327 -0.9354  0.8058  0.9629
 7894SOL    HW235145   2.366   1.336   4.425  0.5303 -1.1834 -0.3195
 7895SOL     OW35146   2.493   2.539   4.250 -0.5711  0.2274 -0.0890
 7895SOL    HW135147   2.562   2.498   4.303 -1.5808  0.6788  1.5516
 7895SOL    HW235148   2.470   2.615   4.303 -2.0870 -0.2072 -0.1240
 7896SOL     OW35149   4.035   1.800   8.671 -0.0278  0.0723  0.1447
 7896SOL    HW135150   4.045   1.885   8.712  5.7535  0.6281 -2.3350
 7896SOL    HW235151   4.121   1.770   8.641 -0.9779 -3.7524  1.2306
 7897SOL     OW35152   3.026   0.961   7.542 -0.4465  0.1593 -0.4036
 7897SOL    HW135153   3.071   0.882   7.510 -2.1363 -1.3881  1.0341
 7897SOL    HW235154   3.041   1.004   7.458  2.0593  0.0226 -0.0359
 7898SOL     OW35155   0.211   0.933   5.900 -0.4802 -0.2189  0.3347
 7898SOL    HW135156   0.262   0.873   5.954  0.1253 -1.6664 -1.9026
 7898SOL    HW235157   0.252   1.018   5.920 -1.0734 -0.3332  2.0258
 7899SOL     OW35158   3.500   3.053   4.414 -0.3378 -0.5002 -0.4138
 7899SOL    HW135159   3.458   3.071   4.498  2.3898 -1.5358  1.1617
 7899SOL    HW235160   3.585   3.097   4.413 -0.1670 -0.8076  0.9739
 7900SOL     OW35161   2.475   4.656  16.438  0.2194 -0.6655 -0.0423
 7900SOL    HW135162   2.429   4.632  16.518  0.9901 -0.3959  0.4757
 7900SOL    HW235163   2.550   4.698  16.480  1.2974 -2.1303 -0.4727
 7901SOL     OW35164   0.416   0.231   8.789 -0.3297 -0.4195 -0.2663
 7901SOL    HW135165   0.437   0.150   8.835 -1.2454  0.2807  1.3729
 7901SOL    HW235166   0.482   0.241   8.721 -0.5008  0.6916 -0.2792
 7902SOL     OW35167   4.502   0.339   1.948  0.4403  0.2703  0.2729
 7902SOL    HW135168   4.428   0.400   1.943 -1.0395 -1.4828  0.3084
 7902SOL    HW235169   4.578   0.396   1.944  1.0609 -0.6632 -0.9290
 7903SOL     OW35170   4.210   2.886   8.000  0.1201 -0.1757 -0.3691
 7903SOL    HW135171   4.115   2.892   8.009  0.1205 -0.5462 -0.1326
 7903SOL    HW235172   4.230   2.813   8.059  3.9727 -0.4761 -2.0571
 7904SOL     OW35173   2.403   2.236   0.303 -0.7614 -0.1241 -0.5091
 7904SOL    HW135174   2.451   2.285   0.236  0.9096 -2.0116 -0.6979
 7904SOL    HW235175   2.369   2.158   0.259  0.4427 -0.6376 -0.5305
 7905SOL     OW35176   0.035   4.090   5.834 -0.0689  0.2623 -0.0027
 7905SOL    HW135177   0.096   4.106   5.906  0.9418 -1.4262 -0.4683
 7905SOL    HW235178   0.078   4.025   5.779 -2.2212 -0.9521 -0.2314
 7906SOL     OW35179   3.466   3.574  14.511  0.5248 -0.2698  0.5144
 7906SOL    HW135180   3.482   3.592  14.419  1.2915  1.1818  0.9155
 7906SOL    HW235181   3.461   3.479  14.504  0.3497 -0.2641  0.5640
 7907SOL     OW35182   3.992   3.252  11.137 -0.9729 -0.2620 -0.3790
 7907SOL    HW135183   3.980   3.333  11.088  0.0369 -0.0954 -0.3494
 7907SOL    HW235184   4.086   3.243  11.125 -0.8199 -0.7440  1.1508
 7908SOL     OW35185   3.658   1.871  10.312  0.2345  0.6074  0.5672
 7908SOL    HW135186   3.651   1.829  10.398  1.4861 -1.0046 -0.1198
 7908SOL    HW235187   3.713   1.810  10.262 -2.1777  0.6928 -2.1924
 7909SOL     OW35188   1.163   2.362   2.130  0.0671  0.0255 -0.1724
 7909SOL    HW135189   1.233   2.397   2.185 -2.8041  2.6766  1.7698
 7909SOL    HW235190   1.188   2.402   2.047 -0.0854 -1.0626 -0.7453
 7910SOL     OW35191   4.201   2.771  15.632 -0.6045  0.3558  0.1149
 7910SOL    HW135192   4.231   2.689  15.593  0.0677 -0.0973  1.5783
 7910SOL    HW235193   4.107   2.753  15.643 -0.1689 -0.9978  1.5020
 7911SOL     OW35194   1.571   4.470  13.924 -0.2937 -0.2553 -0.0173
 7911SOL    HW135195   1.657   4.507  13.901 -1.3010  2.8160  1.1629
 7911SOL    HW235196   1.569   4.481  14.019 -1.6950  1.5793 -0.2561
 7912SOL     OW35197   2.343   1.988   0.121  0.6928 -0.3706 -0.4209
 7912SOL    HW135198   2.409   2.042   0.077 -0.4928  2.0239  0.7554
 7912SOL    HW235199   2.346   1.909   0.067 -0.3538 -0.7727  0.1122
 7913SOL     OW35200   1.247   3.070   4.580 -0.1606  0.4655  0.1100
 7913SOL    HW135201   1.210   3.032   4.500 -1.3184 -1.0806  1.3891
 7913SOL    HW235202   1.278   2.997   4.633  2.8033  1.8046  0.2429
 7914SOL     OW35203   4.029   1.151   6.929 -0.3376  0.1379  0.1502
 7914SOL    HW135204   4.029   1.114   7.017  0.3054 -0.6715 -0.2004
 7914SOL    HW235205   3.978   1.082   6.886 -2.2071  1.0240  0.9619
 7915SOL     OW35206   0.527   1.850   4.078  0.1316  0.0496  0.0225
 7915SOL    HW135207   0.436   1.870   4.057  0.2857  0.5554 -0.1500
 7915SOL    HW235208   0.548   1.912   4.148 -1.6481  0.0281  0.5860
 7916SOL     OW35209   1.414   4.330  11.323  0.4540 -0.3235 -0.7647
 7916SOL    HW135210   1.507   4.341  11.303  0.4204 -1.2087 -1.4598
 7916SOL    HW235211   1.382   4.420  11.320  2.5508  0.4100 -0.7523
 7917SOL     OW35212   1.243   3.696  10.088 -1.3192 -0.4969  0.8275
 7917SOL    HW135213   1.210   3.722  10.173  1.7746  1.4943  1.3966
 7917SOL    HW235214   1.169   3.650  10.048 -0.3916 -0.6313 -0.7349
 7918SOL     OW35215   4.586   3.279   2.871 -0.2676  0.1365  0.1974
 7918SOL    HW135216   4.646   3.351   2.852  0.1990  0.1893  1.8711
 7918SOL    HW235217   4.613   3.214   2.806  1.6892 -0.6768  1.8122
 7919SOL     OW35218   0.415   1.691   6.750 -0.1408  0.6149  0.3700
 7919SOL    HW135219   0.470   1.765   6.775 -1.3834  1.0783  1.7342
 7919SOL    HW235220   0.478   1.652   6.690 -0.5618  2.2179 -1.1096
 7920SOL     OW35221   0.662   2.460   4.148  0.5630  0.3927 -0.0267
 7920SOL    HW135222   0.663   2.371   4.112 -0.8905  0.0104  0.8957
 7920SOL    HW235223   0.570   2.485   4.149  0.2844 -0.6217 -0.9725
 7921SOL     OW35224   3.075   2.425   1.199 -0.0518 -0.4594 -0.2464
 7921SOL    HW135225   3.134   2.484   1.248  0.1641 -0.1127 -0.9290
 7921SOL    HW235226   3.139   2.360   1.169  1.0983  1.0974 -1.1785
 7922SOL     OW35227   1.143   2.560   8.075 -0.2534 -0.3755 -0.0725
 7922SOL    HW135228   1.149   2.489   8.011  0.8288 -0.4572  0.1207
 7922SOL    HW235229   1.220   2.609   8.046 -0.9694  0.9559  0.2856
 7923SOL     OW35230   4.238   4.670   4.204  0.2542  0.0010 -0.5190
 7923SOL    HW135231   4.179   4.596   4.186  1.8459 -1.2038 -0.8342
 7923SOL    HW235232   4.325   4.631   4.199  0.1519 -0.5611  1.9722
 7924SOL     OW35233   1.160   1.999  12.104 -0.9408 -0.1784  0.2602
 7924SOL    HW135234   1.137   2.081  12.060  0.9987 -0.1495 -0.6822
 7924SOL    HW235235   1.167   2.030  12.195  1.0751 -1.7664  0.6431
 7925SOL     OW35236   0.254   0.296   0.651  0.3325 -0.1592  0.0205
 7925SOL    HW135237   0.203   0.297   0.569 -0.5737 -0.6316  0.5702
 7925SOL    HW235238   0.182   0.280   0.713 -1.4591 -0.3458 -2.0882
 7926SOL     OW35239   0.182   1.221   2.202  0.3813  0.3715 -0.0935
 7926SOL    HW135240   0.257   1.212   2.143  0.5754  0.6577  0.1079
 7926SOL    HW235241   0.113   1.173   2.156 -0.1739  1.6731 -0.6307
 7927SOL     OW35242   1.848   2.161   3.766  0.1643 -0.2264 -0.2270
 7927SOL    HW135243   1.788   2.231   3.740  0.4444  0.9309  2.2778
 7927SOL    HW235244   1.916   2.173   3.699 -0.0750  0.2019 -0.3962
 7928SOL     OW35245   2.788   0.674   6.264 -0.2168 -0.1737 -0.1534
 7928SOL    HW135246   2.776   0.580   6.248 -0.9274  0.1158 -1.2944
 7928SOL    HW235247   2.883   0.681   6.269  0.0200 -1.9356 -2.3037
 7929SOL     OW35248   2.942   3.095   8.342  0.3601  0.0781  0.0079
 7929SOL    HW135249   3.017   3.127   8.291 -0.8963 -1.4607 -2.7620
 7929SOL    HW235250   2.983   3.016   8.377 -1.4964 -1.3750 -1.1017
 7930SOL     OW35251   1.888   3.318   2.959 -0.0275 -0.1135  0.2113
 7930SOL    HW135252   1.936   3.261   2.898  0.3329 -1.3885  1.7050
 7930SOL    HW235253   1.841   3.364   2.889 -1.8970  0.1044  1.6295
 7931SOL     OW35254   2.674   1.225   3.101  0.2088  0.3266  0.6345
 7931SOL    HW135255   2.613   1.293   3.131 -1.5758 -1.3788  0.8582
 7931SOL    HW235256   2.614   1.161   3.062 -0.5212  0.0979  2.1370
 7932SOL     OW35257   1.710   3.997   3.037 -0.3349  0.5474 -0.0740
 7932SOL    HW135258   1.750   3.915   3.063 -1.7635  0.1256  0.7784
 7932SOL    HW235259   1.784   4.058   3.035 -0.4599  0.7023  0.0678
 7933SOL     OW35260   1.349   1.335   5.963  0.3074  0.0106  0.1852
 7933SOL    HW135261   1.283   1.359   5.899  0.4267  1.8576  0.7554
 7933SOL    HW235262   1.416   1.403   5.958 -0.0505  0.4423  1.1486
 7934SOL     OW35263   4.385   2.080   3.967 -0.3724  0.5231 -1.1615
 7934SOL    HW135264   4.351   2.106   3.881 -0.0381  2.4556 -0.7130
 7934SOL    HW235265   4.311   2.111   4.021 -0.6966  0.4667 -1.5724
 7935SOL     OW35266   1.495   4.122   8.013 -0.0991  0.2073 -0.6109
 7935SOL    HW135267   1.587   4.114   8.040 -0.8877  0.8518  2.3419
 7935SOL    HW235268   1.472   4.043   7.964  2.8343 -0.7734 -0.3917
 7936SOL     OW35269   3.095   2.445   3.297  0.1030 -0.2756 -0.5758
 7936SOL    HW135270   3.098   2.533   3.335 -0.9685 -0.1415 -0.7858
 7936SOL    HW235271   3.074   2.460   3.204  0.4860 -2.0277 -0.9360
 7937SOL     OW35272   3.473   2.101   9.171 -0.5463  0.0826  0.2578
 7937SOL    HW135273   3.480   2.026   9.229 -0.9515 -0.1149  0.0507
 7937SOL    HW235274   3.564   2.123   9.153 -0.9589  1.1499 -0.5659
 7938SOL     OW35275   2.750   0.056   1.130  0.3515  0.5247 -0.3288
 7938SOL    HW135276   2.716   0.000   1.061  0.8361 -2.0643  1.5211
 7938SOL    HW235277   2.692   0.129   1.108  1.0653  1.1181 -0.2470
 7939SOL     OW35278   0.880   4.348  16.473  0.0513  0.4459 -0.3861
 7939SOL    HW135279   0.891   4.442  16.485 -2.2580  0.5495  0.8108
 7939SOL    HW235280   0.800   4.348  16.421 -0.1477  0.3459 -0.0784
 7940SOL     OW35281   0.568   4.691   6.431  0.2302  0.2032  0.0129
 7940SOL    HW135282   0.599   4.694   6.522  0.4738  0.2076 -0.0686
 7940SOL    HW235283   0.654   4.676   6.391 -1.2085 -0.9214 -2.6480
 7941SOL     OW35284   1.327   1.883   1.600  0.1948 -0.1880  0.2853
 7941SOL    HW135285   1.253   1.825   1.581  0.0570  0.9693 -2.7666
 7941SOL    HW235286   1.373   1.836   1.669  2.8685  1.6943 -0.2395
 7942SOL     OW35287   4.461   3.762  15.988  0.3099 -0.1181  0.4852
 7942SOL    HW135288   4.417   3.678  15.999  0.0157  0.1606  1.4466
 7942SOL    HW235289   4.384   3.816  15.974  0.1225 -1.1509 -2.4660
 7943SOL     OW35290   1.115   2.715   5.212  0.4539  0.4202 -0.2478
 7943SOL    HW135291   1.187   2.773   5.188 -1.2577  2.3884 -0.6201
 7943SOL    HW235292   1.060   2.713   5.133  0.9283  0.5421 -0.5844
 7944SOL     OW35293   3.972   3.885  14.517  0.1396  0.1845 -0.2541
 7944SOL    HW135294   3.887   3.842  14.508 -1.1959  2.4017  1.7997
 7944SOL    HW235295   3.976   3.917  14.607  0.9010 -0.3261 -0.0982
 7945SOL     OW35296   1.027   0.465   5.119 -0.1054  0.4787  0.4587
 7945SOL    HW135297   1.105   0.495   5.073  1.0540  0.3968  2.3609
 7945SOL    HW235298   1.058   0.378   5.145 -2.1616 -0.1665  0.7549
 7946SOL     OW35299   1.966   1.546  14.819  0.3530  0.1772  0.0887
 7946SOL    HW135300   1.953   1.557  14.725  1.4766  3.8426  0.3667
 7946SOL    HW235301   2.002   1.634  14.833 -1.8332  0.9349  1.0726
 7947SOL     OW35302   3.472   4.373   6.682 -0.2378 -0.1499  0.0930
 7947SOL    HW135303   3.446   4.323   6.605  1.5211  0.0994 -0.6761
 7947SOL    HW235304   3.524   4.305   6.725  1.5402  1.5837  0.7119
 7948SOL     OW35305   3.955   4.640   6.025 -0.7128 -0.3081 -0.2889
 7948SOL    HW135306   3.925   4.550   6.031 -0.4266 -0.5804 -3.2624
 7948SOL    HW235307   4.011   4.651   6.102  0.1677  0.2422 -1.0051
 7949SOL     OW35308   0.216   1.390   8.316  0.1516  0.1252  0.0869
 7949SOL    HW135309   0.147   1.367   8.254 -0.0785  1.3880 -0.1299
 7949SOL    HW235310   0.288   1.405   8.255 -1.1836 -3.1550 -2.3099
 7950SOL     OW35311   0.394   2.781  12.963  0.2200  0.3383 -0.2850
 7950SOL    HW135312   0.332   2.850  12.984 -0.2981 -0.1630 -0.1647
 7950SOL    HW235313   0.472   2.835  12.949 -0.5531  1.3003 -0.8521
 7951SOL     OW35314   0.939   3.542   3.074 -0.5544 -0.5226 -0.0731
 7951SOL    HW135315   0.869   3.522   3.012  0.5477 -1.8900 -0.8634
 7951SOL    HW235316   0.988   3.602   3.018  0.5216 -1.2659  0.0729
 7952SOL     OW35317   0.355   0.411  10.082  0.3067 -0.1017  0.4768
 7952SOL    HW135318   0.291   0.340  10.085  0.3182 -0.1184  0.3549
 7952SOL    HW235319   0.329   0.436  10.170 -2.9184 -2.0612  0.0832
 7953SOL     OW35320   0.296   3.969   3.185 -0.5313 -0.2514  0.4200
 7953SOL    HW135321   0.333   3.886   3.155  0.7704  0.7426 -0.7429
 7953SOL    HW235322   0.232   4.001   3.120 -0.7639  0.1518  0.8492
 7954SOL     OW35323   2.290   4.052   4.932 -0.2577  0.0598 -0.8631
 7954SOL    HW135324   2.224   4.029   4.998  1.3844  0.5056  0.9046
 7954SOL    HW235325   2.274   4.146   4.928 -1.5208 -0.0350  1.5412
 7955SOL     OW35326   4.413   0.659   3.350  1.0712 -0.5888 -0.0906
 7955SOL    HW135327   4.379   0.639   3.438 -1.2782  1.6015 -0.4849
 7955SOL    HW235328   4.353   0.611   3.293  0.5838 -0.5520  0.3919
 7956SOL     OW35329   1.658   0.934   4.546  0.7796 -0.1304  0.2085
 7956SOL    HW135330   1.742   0.972   4.574  0.0498  2.9649 -1.8739
 7956SOL    HW235331   1.651   0.948   4.452 -0.6618 -1.9852  0.0392
 7957SOL     OW35332   0.905   2.474   9.212  0.5313  0.5245  0.7614
 7957SOL    HW135333   0.961   2.511   9.280  2.4516 -1.5891  0.3270
 7957SOL    HW235334   0.971   2.428   9.160  1.0193  0.1015  1.7444
 7958SOL     OW35335   0.164   2.395  12.907  0.0690 -0.1135  0.4536
 7958SOL    HW135336   0.222   2.430  12.974  0.0170  0.2162  0.3282
 7958SOL    HW235337   0.143   2.478  12.864 -1.6391 -0.1151  1.2826
 7959SOL     OW35338   2.164   1.562   7.294 -0.2815  0.5890  0.0549
 7959SOL    HW135339   2.226   1.520   7.354  1.3584  0.3039 -1.8687
 7959SOL    HW235340   2.180   1.514   7.213 -0.3547  0.1977  0.2715
 7960SOL     OW35341   1.103   1.172   7.026  0.7313 -0.0794  0.1726
 7960SOL    HW135342   1.138   1.244   7.080  0.8019  0.5344 -0.6932
 7960SOL    HW235343   1.044   1.126   7.085 -2.5981  3.5723 -0.3197
 7961SOL     OW35344   2.068   1.618  15.882 -0.2144 -0.1484 -0.2568
 7961SOL    HW135345   2.011   1.687  15.847  0.9075  0.4734 -0.8262
 7961SOL    HW235346   2.126   1.677  15.929 -0.5978 -1.7561  2.2379
 7962SOL     OW35347   3.025   1.661   4.356 -0.2778  0.1037 -0.2843
 7962SOL    HW135348   2.981   1.728   4.408  0.6166  0.1993  0.3684
 7962SOL    HW235349   3.097   1.644   4.418 -0.3596 -1.6827 -0.6834
 7963SOL     OW35350   4.412   3.351  16.221 -0.2473  0.5993  0.1090
 7963SOL    HW135351   4.503   3.381  16.232 -0.1725 -0.1091  1.4017
 7963SOL    HW235352   4.422   3.281  16.286 -1.7299 -1.2313 -1.6183
 7964SOL     OW35353   4.399   1.289   3.529  0.0558  0.2010  0.5305
 7964SOL    HW135354   4.313   1.296   3.488  0.7041  0.6563 -0.7653
 7964SOL    HW235355   4.450   1.287   3.448  0.4766  0.0182  0.7968
 7965SOL     OW35356   1.803   2.308   5.222 -0.5117 -0.2659  0.5079
 7965SOL    HW135357   1.850   2.309   5.138 -0.0101  2.6738  0.8284
 7965SOL    HW235358   1.838   2.231   5.266  0.5987 -0.2310 -0.3044
 7966SOL     OW35359   3.249   4.005   3.410 -0.3461  0.3113 -0.1684
 7966SOL    HW135360   3.166   3.978   3.450  0.6915 -1.1548  0.9874
 7966SOL    HW235361   3.313   3.945   3.448  0.2533  0.7630 -0.4697
 7967SOL     OW35362   4.704   2.733   6.850  0.1508 -0.1563 -0.1290
 7967SOL    HW135363   0.028   2.808   6.814 -1.7968 -0.0709 -2.4970
 7967SOL    HW235364   4.648   2.717   6.774  0.1900 -0.0738 -0.1753
 7968SOL     OW35365   1.469   0.041  10.873 -0.0529 -0.1339 -0.1282
 7968SOL    HW135366   1.433   4.679  10.897  3.0237 -1.6976 -1.1468
 7968SOL    HW235367   1.417   0.094  10.933  0.3655  0.8230 -0.5998
 7969SOL     OW35368   3.969   3.061   2.020  0.3406  0.1729 -0.0086
 7969SOL    HW135369   3.883   3.065   1.978 -0.0347  2.0368  0.9476
 7969SOL    HW235370   4.032   3.071   1.948  0.9068 -0.3925  0.4043
 7970SOL     OW35371   3.616   1.288   0.870  0.2555  0.5908  0.3695
 7970SOL    HW135372   3.702   1.322   0.845  0.9075 -0.4884  1.1733
 7970SOL    HW235373   3.563   1.368   0.866  1.9774  1.7615  0.9224
 7971SOL     OW35374   3.936   1.858   7.141  0.1944  0.8833 -0.3122
 7971SOL    HW135375   3.991   1.870   7.064 -1.1010 -0.5413 -1.4681
 7971SOL    HW235376   3.944   1.764   7.155  0.3362  1.0673  0.8170
 7972SOL     OW35377   2.241   4.074  15.029  0.2784 -0.0742 -0.3075
 7972SOL    HW135378   2.194   4.024  14.961  0.7712  0.7559 -1.2583
 7972SOL    HW235379   2.193   4.051  15.108  1.3503 -0.1509  0.3201
 7973SOL     OW35380   0.976   0.065   1.517 -0.0192 -0.0655 -0.1769
 7973SOL    HW135381   1.012   4.702   1.537 -3.3588 -1.3714  0.2571
 7973SOL    HW235382   1.010   0.071   1.428 -1.7294  4.2130 -0.5162
 7974SOL     OW35383   3.246   1.821   8.498  0.2510  0.3845 -0.2747
 7974SOL    HW135384   3.231   1.739   8.450 -3.2352 -0.0763  1.5937
 7974SOL    HW235385   3.259   1.784   8.585  0.3329  3.8508  1.1598
 7975SOL     OW35386   1.781   0.443   1.986 -0.1167  0.2080 -0.3125
 7975SOL    HW135387   1.788   0.498   1.908  0.9566  0.5345  0.0150
 7975SOL    HW235388   1.871   0.445   2.017  0.1862  1.6013 -1.3040
 7976SOL     OW35389   2.323   4.281   5.655  0.3533  0.2296  0.2924
 7976SOL    HW135390   2.280   4.257   5.737  0.8957 -2.7222 -0.3010
 7976SOL    HW235391   2.390   4.336   5.697  2.0888 -2.3799  0.9591
 7977SOL     OW35392   1.310   0.968   9.267 -0.0410  0.0303 -0.2159
 7977SOL    HW135393   1.386   1.013   9.304 -0.3568  1.2403 -1.0298
 7977SOL    HW235394   1.329   0.875   9.280 -3.1221 -0.5590  0.0886
 7978SOL     OW35395   4.143   0.833   0.662  0.3446  0.2789 -0.0115
 7978SOL    HW135396   4.164   0.926   0.649  0.6637  0.0744 -0.9391
 7978SOL    HW235397   4.175   0.831   0.752  0.7089  0.2948 -0.1437
 7979SOL     OW35398   4.656   4.021   7.003  0.1925  0.4759  0.2754
 7979SOL    HW135399   4.704   4.028   7.086  1.1704 -0.8922 -0.1823
 7979SOL    HW235400   4.617   4.109   6.997 -1.1632 -0.1258  0.3749
 7980SOL     OW35401   2.751   0.146   1.814 -0.1805 -0.2006 -0.2094
 7980SOL    HW135402   2.704   0.228   1.831 -0.2359 -0.5083  1.1212
 7980SOL    HW235403   2.832   0.179   1.775  0.2541 -0.3160  0.5829
 7981SOL     OW35404   0.553   4.621   8.202 -0.9288  0.0138  0.2448
 7981SOL    HW135405   0.590   4.709   8.195 -2.6859  0.8126  0.8742
 7981SOL    HW235406   0.629   4.568   8.181 -1.9640 -2.2797  2.3013
 7982SOL     OW35407   3.892   4.300   1.394  0.3601 -0.3217 -0.5395
 7982SOL    HW135408   3.972   4.265   1.355  0.6599 -1.6147  1.2139
 7982SOL    HW235409   3.875   4.372   1.335  2.7051  1.1154  0.5239
 7983SOL     OW35410   1.266   0.762   1.025 -0.4275  0.1360 -0.3016
 7983SOL    HW135411   1.280   0.682   1.076  3.8760  2.1747  1.6048
 7983SOL    HW235412   1.346   0.766   0.973 -0.4784  0.5988 -0.3428
 7984SOL     OW35413   0.770   1.621  11.151 -0.2739  0.2902  0.4401
 7984SOL    HW135414   0.772   1.552  11.218  0.8445  0.5165  0.6392
 7984SOL    HW235415   0.782   1.569  11.072 -0.1424  3.0131 -1.3176
 7985SOL     OW35416   4.024   1.710   2.815  0.3758  0.0751  0.2081
 7985SOL    HW135417   3.987   1.768   2.882 -0.8913 -0.5239  0.0245
 7985SOL    HW235418   4.003   1.771   2.744  0.0186 -1.7337 -1.2225
 7986SOL     OW35419   1.930   0.871  15.858  0.5297 -0.3727  0.2033
 7986SOL    HW135420   2.009   0.917  15.885  0.9629 -0.6020 -0.6872
 7986SOL    HW235421   1.942   0.778  15.872 -3.2941 -1.1574 -1.4787
 7987SOL     OW35422   2.747   3.042   6.969 -0.1497  0.0859 -0.1306
 7987SOL    HW135423   2.700   3.006   7.044  0.8578 -1.5627 -0.2821
 7987SOL    HW235424   2.814   2.978   6.944 -1.6209 -1.6952  0.5661
 7988SOL     OW35425   0.740   0.449   3.956  0.8258  0.4310  0.4093
 7988SOL    HW135426   0.770   0.376   4.010  0.8246 -1.2223 -1.8457
 7988SOL    HW235427   0.645   0.439   3.958  0.6050  1.9448 -3.5935
 7989SOL     OW35428   2.416   1.030   3.493  0.4369 -0.4820  0.2883
 7989SOL    HW135429   2.474   1.106   3.503  1.6549 -1.1951 -1.3750
 7989SOL    HW235430   2.419   1.012   3.399  0.9129  1.6350 -0.1081
 7990SOL     OW35431   2.311   0.091   9.731  0.2094  0.0493 -0.2499
 7990SOL    HW135432   2.261   0.034   9.672  0.0330  0.0653 -0.1149
 7990SOL    HW235433   2.341   0.023   9.791 -0.1014  0.9936  0.9498
 7991SOL     OW35434   4.126   2.260   5.826  0.0381  0.1728  0.0267
 7991SOL    HW135435   4.158   2.350   5.833 -1.1694  0.6608 -0.6977
 7991SOL    HW235436   4.090   2.282   5.740  1.9045  1.9015 -0.3008
 7992SOL     OW35437   1.988   4.198   6.559  0.1389  0.0562  0.3819
 7992SOL    HW135438   1.952   4.241   6.637 -0.2317 -1.7685  1.2025
 7992SOL    HW235439   1.998   4.277   6.506  1.3780 -0.3854 -0.0598
 7993SOL     OW35440   3.648   3.183  13.588  0.6299 -0.5502 -0.1048
 7993SOL    HW135441   3.632   3.139  13.672 -2.5484  1.9620  0.6170
 7993SOL    HW235442   3.620   3.109  13.534 -0.4307 -0.4944  0.3509
 7994SOL     OW35443   2.335   2.531   3.232  0.0605  0.1692 -0.1168
 7994SOL    HW135444   2.252   2.539   3.279  1.7041 -0.6476  2.8760
 7994SOL    HW235445   2.309   2.511   3.142  0.1072 -0.0591 -0.0795
 7995SOL     OW35446   1.360   2.199   4.835 -0.5894 -0.5310 -0.3187
 7995SOL    HW135447   1.437   2.183   4.889  0.1892  0.0193 -1.2632
 7995SOL    HW235448   1.354   2.294   4.840 -0.6642 -0.5809  0.5152
 7996SOL     OW35449   3.748   1.433   0.448 -0.9386 -0.0481  0.2419
 7996SOL    HW135450   3.839   1.405   0.436 -0.4795  1.1705  0.9697
 7996SOL    HW235451   3.760   1.497   0.518  0.7585 -1.6280  1.4055
 7997SOL     OW35452   2.530   0.938  13.950 -0.6095  0.3721 -0.7448
 7997SOL    HW135453   2.604   0.879  13.961 -1.0287 -0.3261 -1.7198
 7997SOL    HW235454   2.476   0.901  13.880 -0.1973  1.3532 -1.5723
 7998SOL     OW35455   3.152   3.994  14.423 -0.0138  0.2101 -0.5405
 7998SOL    HW135456   3.143   3.960  14.334 -2.2575 -1.2031  0.2211
 7998SOL    HW235457   3.222   4.055  14.397  0.2645  0.2852  0.4132
 7999SOL     OW35458   3.964   3.574   8.595 -0.1018 -0.3161  0.2615
 7999SOL    HW135459   3.969   3.510   8.666  1.1152  1.7163  2.0064
 7999SOL    HW235460   3.874   3.606   8.588 -0.3948 -0.3454  3.9398
 8000SOL     OW35461   0.541   4.053   2.041 -0.1707  0.7646  0.3776
 8000SOL    HW135462   0.451   4.064   2.071 -0.3898 -2.2835  0.8288
 8000SOL    HW235463   0.521   4.035   1.949  0.2137  0.9892  0.2519
 8001SOL     OW35464   3.522   1.562   6.985  0.2189 -0.2010 -0.1440
 8001SOL    HW135465   3.446   1.545   7.041  1.7605 -1.9687  1.3916
 8001SOL    HW235466   3.562   1.637   7.027 -0.0721 -0.6186  0.8832
 8002SOL     OW35467   3.304   3.759  16.702  0.3083 -0.4905 -0.5387
 8002SOL    HW135468   3.375   3.821  16.717 -0.9928  0.1440  3.0950
 8002SOL    HW235469   3.302   3.750  16.607  0.0891  0.7861 -0.6670
 8003SOL     OW35470   3.038   1.699  10.215  0.3525 -0.6176 -0.4782
 8003SOL    HW135471   3.064   1.698  10.307 -0.3352  4.8628 -0.2367
 8003SOL    HW235472   3.052   1.790  10.189  2.3152 -0.2357  1.8589
 8004SOL     OW35473   2.338   1.825   9.023 -0.5260 -0.1016 -0.5099
 8004SOL    HW135474   2.324   1.737   9.058 -2.7360  0.8382  0.9589
 8004SOL    HW235475   2.249   1.856   9.006 -0.5692  0.7103  1.1869
 8005SOL     OW35476   0.804   4.355   4.364 -0.2859 -0.5455  0.5900
 8005SOL    HW135477   0.710   4.338   4.357 -0.8007  1.9742  1.2626
 8005SOL    HW235478   0.845   4.268   4.363  1.5117  0.3356 -1.8463
 8006SOL     OW35479   1.991   0.845  14.642  0.2752 -0.1184  0.0746
 8006SOL    HW135480   2.070   0.797  14.617 -0.1800  0.8089 -3.0698
 8006SOL    HW235481   2.002   0.829  14.736  1.1288 -0.0182 -0.0049
 8007SOL     OW35482   2.569   3.091   5.364 -0.1473 -0.2779  0.0288
 8007SOL    HW135483   2.536   3.045   5.287 -0.7295 -1.9028  1.2585
 8007SOL    HW235484   2.643   3.037   5.390 -0.1499  0.0960  0.7915
 8008SOL     OW35485   1.113   0.725   2.515  0.5688  0.0564  0.9565
 8008SOL    HW135486   1.106   0.672   2.436 -1.0934 -0.8170  1.6964
 8008SOL    HW235487   1.125   0.649   2.572 -0.8498 -0.4738  0.5248
 8009SOL     OW35488   1.118   3.941   3.218 -0.0998 -0.0319  0.3415
 8009SOL    HW135489   1.191   3.881   3.202  0.2396  0.3840  0.3408
 8009SOL    HW235490   1.115   3.945   3.314 -0.3171  1.3804  0.2757
 8010SOL     OW35491   0.596   1.431   2.462 -0.4390  0.3899 -0.0769
 8010SOL    HW135492   0.682   1.429   2.420 -0.8768  0.6732 -0.9803
 8010SOL    HW235493   0.608   1.428   2.557 -0.2254 -1.3423 -0.1691
 8011SOL     OW35494   3.807   2.167   7.336  0.2609 -0.4716 -0.0233
 8011SOL    HW135495   3.773   2.140   7.251  0.6281  0.0047 -0.3264
 8011SOL    HW235496   3.826   2.083   7.378 -1.8457 -0.0707  1.7704
 8012SOL     OW35497   1.887   1.127   3.356 -0.0015  0.1200  0.2021
 8012SOL    HW135498   1.852   1.184   3.288  0.7661  0.3884  0.0345
 8012SOL    HW235499   1.961   1.172   3.396 -0.6705  1.4452 -0.0614
 8013SOL     OW35500   2.309   3.874   7.636  0.0115  0.5351  0.1322
 8013SOL    HW135501   2.399   3.859   7.607  0.4760  0.9906  1.3332
 8013SOL    HW235502   2.259   3.824   7.571  1.4004  0.5316 -0.9496
 8014SOL     OW35503   4.526   4.630  10.075 -0.3046  0.4687  0.0338
 8014SOL    HW135504   4.582   4.554  10.064  1.1527  1.2983  1.7374
 8014SOL    HW235505   4.572   4.670  10.148 -1.6276  1.2731  0.4411
 8015SOL     OW35506   3.111   4.340   8.097 -0.1660  0.3961 -0.0395
 8015SOL    HW135507   3.029   4.372   8.060  0.3343 -0.3710 -1.8555
 8015SOL    HW235508   3.077   4.312   8.182  0.7961 -0.4643  0.0655
 8016SOL     OW35509   1.361   3.026   5.312 -0.3671  0.4845 -0.1076
 8016SOL    HW135510   1.303   3.009   5.386 -0.6686  0.7254 -0.2913
 8016SOL    HW235511   1.320   2.966   5.250  0.0013  1.1701 -1.0019
 8017SOL     OW35512   0.300   1.652   9.495  0.0833  0.5703  0.4004
 8017SOL    HW135513   0.358   1.705   9.441 -2.0350 -0.0683 -2.4735
 8017SOL    HW235514   0.330   1.565   9.467 -2.3123  0.2391 -1.0821
 8018SOL     OW35515   1.603   2.267   4.496 -0.6326  0.1693  0.3843
 8018SOL    HW135516   1.677   2.246   4.554  0.3416 -0.4826 -1.0963
 8018SOL    HW235517   1.591   2.358   4.523  1.0393  0.1409  1.2572
 8019SOL     OW35518   3.824   1.180   7.393 -0.0859 -0.6786 -0.4447
 8019SOL    HW135519   3.894   1.207   7.334  0.9834  1.9835  2.0083
 8019SOL    HW235520   3.746   1.224   7.357  0.8798  1.0003 -0.5154
 8020SOL     OW35521   1.264   1.826   3.651 -0.0332 -0.3084 -0.2375
 8020SOL    HW135522   1.198   1.857   3.588 -0.8770  1.0214  1.3099
 8020SOL    HW235523   1.212   1.763   3.701  0.7832  0.8716  2.0820
 8021SOL     OW35524   0.668   2.445   2.022 -0.0630  0.5133  0.1406
 8021SOL    HW135525   0.698   2.355   2.010 -1.0279  0.3104 -0.7222
 8021SOL    HW235526   0.590   2.435   2.076 -0.6932  1.0579 -0.6803
 8022SOL     OW35527   2.770   4.035   2.129  0.7107 -0.2146  0.2285
 8022SOL    HW135528   2.714   4.080   2.192 -0.8348 -0.0861 -1.2306
 8022SOL    HW235529   2.838   4.098   2.102 -2.7709  2.6419 -1.8646
 8023SOL     OW35530   0.579   3.889   3.346  0.3621 -0.4773 -0.3656
 8023SOL    HW135531   0.669   3.856   3.340  0.1922 -0.5882 -2.2682
 8023SOL    HW235532   0.529   3.809   3.327 -2.0867  0.9277  0.2502
 8024SOL     OW35533   4.331   2.012   4.332 -0.6701  0.0181  0.0102
 8024SOL    HW135534   4.391   1.999   4.406  0.1665  2.1888 -0.2768
 8024SOL    HW235535   4.358   2.100   4.305 -1.1339  0.8237  2.1591
 8025SOL     OW35536   0.128   2.185   3.009  0.3603 -0.0516 -0.1870
 8025SOL    HW135537   0.191   2.148   3.072  0.9003 -0.5863 -1.0418
 8025SOL    HW235538   0.114   2.112   2.949 -0.4190  1.3218 -1.6441
 8026SOL     OW35539   0.440   1.216  14.352 -0.1937 -0.0457 -0.0756
 8026SOL    HW135540   0.496   1.139  14.362 -0.9214 -0.7475 -1.4636
 8026SOL    HW235541   0.467   1.266  14.430 -0.8918  0.7801 -0.3752
 8027SOL     OW35542   1.413   3.833   3.456 -0.1216 -0.2743 -0.3379
 8027SOL    HW135543   1.419   3.924   3.428  2.3331 -0.0776  0.8595
 8027SOL    HW235544   1.408   3.791   3.370 -1.5236  0.1654 -0.4783
 8028SOL     OW35545   2.287   0.274  17.340  0.6439 -0.2395 -0.0501
 8028SOL    HW135546   2.358   0.241  17.396  0.2080  1.1563  1.3426
 8028SOL    HW235547   2.324   0.360  17.320 -1.0213  0.7822  1.2007
 8029SOL     OW35548   1.651   2.307  15.406  0.5902  0.0866  0.1440
 8029SOL    HW135549   1.722   2.246  15.428 -0.5888 -0.8390  1.3710
 8029SOL    HW235550   1.647   2.301  15.311 -1.6497 -0.2740  0.2614
 8030SOL     OW35551   2.967   3.762  15.295  0.1574 -0.2057 -0.0745
 8030SOL    HW135552   2.912   3.809  15.232 -0.7226 -0.5883  0.4097
 8030SOL    HW235553   3.021   3.831  15.335  0.5446 -0.2969 -0.4309
 8031SOL     OW35554   1.622   0.294  12.075  0.7188 -0.3924 -0.1699
 8031SOL    HW135555   1.707   0.336  12.088  0.9406 -0.4957 -1.2930
 8031SOL    HW235556   1.637   0.201  12.090 -1.3361 -0.4187  1.7261
 8032SOL     OW35557   2.744   0.153  12.345  0.0975  0.4191 -0.2093
 8032SOL    HW135558   2.738   0.095  12.421  0.3753 -0.6256 -0.9933
 8032SOL    HW235559   2.753   0.085  12.278  0.1771 -1.7059  1.9629
 8033SOL     OW35560   1.925   3.593   3.497  0.1237 -0.4138  0.0311
 8033SOL    HW135561   2.009   3.629   3.468  1.1611 -1.6481  1.5270
 8033SOL    HW235562   1.906   3.648   3.572  2.4744  0.8536 -0.3373
 8034SOL     OW35563   0.866   3.212   7.051 -0.0758  0.2724 -0.0977
 8034SOL    HW135564   0.820   3.272   7.109  0.8310  0.8833 -0.0140
 8034SOL    HW235565   0.786   3.172   7.017  1.5031 -2.8402 -0.2211
 8035SOL     OW35566   3.117   3.633   6.979 -0.3768  0.1522  0.0542
 8035SOL    HW135567   3.112   3.701   7.046 -0.4589  0.0651  0.1379
 8035SOL    HW235568   3.208   3.609   6.996 -0.0555 -0.5500 -2.6326
 8036SOL     OW35569   2.225   1.055   4.208  0.1664  0.2644  0.0977
 8036SOL    HW135570   2.309   1.082   4.246  1.3501 -1.0975 -1.5844
 8036SOL    HW235571   2.263   1.002   4.139 -1.9108 -0.7663 -0.2248
 8037SOL     OW35572   1.768   4.167   5.113 -0.4055  0.2660  0.3553
 8037SOL    HW135573   1.803   4.095   5.059  0.1503  1.1967 -0.5281
 8037SOL    HW235574   1.712   4.218   5.055  0.6480 -1.8070 -2.5223
 8038SOL     OW35575   4.065   0.226   2.808  0.0535 -0.3674 -0.2667
 8038SOL    HW135576   4.089   0.208   2.718 -0.5047  1.6398 -0.8232
 8038SOL    HW235577   4.097   0.149   2.855 -0.9334  0.5337  1.9176
 8039SOL     OW35578   0.180   4.555   1.362  1.1096 -1.1677  0.0284
 8039SOL    HW135579   0.251   4.619   1.368  0.4014 -0.4511  0.7483
 8039SOL    HW235580   0.216   4.486   1.417 -1.1123 -0.8312  1.9413
 8040SOL     OW35581   4.319   3.916   6.887 -0.0703 -0.0508  0.8058
 8040SOL    HW135582   4.411   3.928   6.862 -0.0145  1.2496  1.6369
 8040SOL    HW235583   4.281   3.957   6.809  0.4281 -3.5350 -1.2631
 8041SOL     OW35584   0.631   2.225   8.046  0.3527 -0.5578 -0.2372
 8041SOL    HW135585   0.577   2.298   8.017  0.0207 -0.2208  1.2298
 8041SOL    HW235586   0.663   2.197   7.960  0.8722 -0.3811 -0.0997
 8042SOL     OW35587   3.759   0.337   4.506  0.4910 -0.6448  0.5066
 8042SOL    HW135588   3.786   0.426   4.483 -0.5100 -0.1946  1.0666
 8042SOL    HW235589   3.773   0.347   4.600 -1.5447 -0.9224  0.8235
 8043SOL     OW35590   3.835   2.314   5.108 -0.2111  0.7280  0.1765
 8043SOL    HW135591   3.760   2.366   5.081 -1.4823 -0.6080  1.1305
 8043SOL    HW235592   3.813   2.323   5.200  3.3902  0.3234  1.0631
 8044SOL     OW35593   3.419   1.808  17.655  0.3389 -0.0447 -0.1556
 8044SOL    HW135594   3.465   1.861  17.590  0.9311 -1.0083 -0.5211
 8044SOL    HW235595   3.493   1.755  17.684 -0.0628 -1.7260 -2.1918
 8045SOL     OW35596   4.607   0.184  10.007  0.2391  1.1079  0.0980
 8045SOL    HW135597   4.661   0.141   9.941  1.8833  1.5307  1.1371
 8045SOL    HW235598   4.556   0.106  10.029  0.1185  0.9744 -0.6696
 8046SOL     OW35599   1.501   1.591   8.197  0.1987  0.0079  0.1892
 8046SOL    HW135600   1.573   1.566   8.254 -0.9836 -0.5536  1.4186
 8046SOL    HW235601   1.468   1.503   8.178  0.9809 -0.4489  0.9476
 8047SOL     OW35602   1.522   4.432  14.204  0.2585  0.1108  0.6014
 8047SOL    HW135603   1.431   4.460  14.211  0.3306  0.4204  0.2996
 8047SOL    HW235604   1.546   4.435  14.297  0.2707 -0.8397  0.6349
 8048SOL     OW35605   4.499   1.511   8.247 -0.6093 -0.9314 -0.3733
 8048SOL    HW135606   4.488   1.555   8.331 -1.7555 -0.4144 -0.7860
 8048SOL    HW235607   4.420   1.543   8.203  0.9522  3.0121 -0.2220
 8049SOL     OW35608   2.905   2.312   9.089  0.2231 -0.0701 -0.2302
 8049SOL    HW135609   2.953   2.355   9.160 -2.3293  1.4322  0.5830
 8049SOL    HW235610   2.927   2.368   9.015  0.0220  0.8036  0.3659
 8050SOL     OW35611   3.138   3.905   9.992 -0.2839  0.2585 -0.2187
 8050SOL    HW135612   3.059   3.862  10.024  1.4170 -1.9997  0.8779
 8050SOL    HW235613   3.205   3.849  10.030  2.2676  1.8529 -2.3607
 8051SOL     OW35614   3.265   0.512   4.613  0.2631  0.2434  0.1949
 8051SOL    HW135615   3.188   0.560   4.643  0.2790  0.6593 -0.4331
 8051SOL    HW235616   3.268   0.436   4.672 -1.2685 -0.6123 -0.8342
 8052SOL     OW35617   2.765   0.652  16.775 -0.2541 -0.0740  0.0544
 8052SOL    HW135618   2.819   0.668  16.697  1.9569 -0.2224  1.5386
 8052SOL    HW235619   2.834   0.657  16.842 -0.2477  1.2604 -0.0566
 8053SOL     OW35620   2.340   4.586   3.568  0.2008 -0.5118 -0.2072
 8053SOL    HW135621   2.379   4.540   3.493  1.5150  2.3820 -1.3113
 8053SOL    HW235622   2.263   4.630   3.532 -1.5127 -1.8942  1.8024
 8054SOL     OW35623   0.028   1.285  13.821  0.1560 -0.2917  0.1016
 8054SOL    HW135624   0.001   1.211  13.767 -0.4766  0.4360 -0.5844
 8054SOL    HW235625   4.663   1.319  13.833  0.8339  1.2623  0.6809
 8055SOL     OW35626   2.057   3.573   0.605 -0.4835  0.1172  0.0517
 8055SOL    HW135627   2.023   3.505   0.546  2.6828 -0.1850 -1.4151
 8055SOL    HW235628   2.100   3.623   0.535 -0.7877 -0.2631 -0.4093
 8056SOL     OW35629   1.447   2.512   8.991  0.0283 -0.0906 -0.4050
 8056SOL    HW135630   1.374   2.554   9.038  0.4508  0.2110 -0.0229
 8056SOL    HW235631   1.416   2.516   8.901  1.7001 -0.2013 -0.9815
 8057SOL     OW35632   0.603   2.997   3.478 -0.1523  0.2453 -0.1979
 8057SOL    HW135633   0.542   3.055   3.432 -0.1324 -1.4089 -2.3188
 8057SOL    HW235634   0.562   2.914   3.454 -1.2360  0.7168  0.0043
 8058SOL     OW35635   1.247   3.390   3.619 -0.2607 -0.7332 -0.1108
 8058SOL    HW135636   1.304   3.367   3.545  0.1428 -2.0725  0.6100
 8058SOL    HW235637   1.293   3.472   3.638 -1.2530 -0.5064  1.3026
 8059SOL     OW35638   2.775   1.316   7.507  0.0599 -0.2990  0.3637
 8059SOL    HW135639   2.866   1.306   7.535  0.4566  1.4654 -0.2555
 8059SOL    HW235640   2.745   1.405   7.525 -1.4981 -0.2123 -2.6220
 8060SOL     OW35641   4.471   0.219   5.003 -0.3543  0.2288 -0.2770
 8060SOL    HW135642   4.558   0.205   4.967  0.0474  0.5807  0.5394
 8060SOL    HW235643   4.442   0.132   4.976  0.6624  0.4651 -2.1003
 8061SOL     OW35644   1.120   3.991   8.955 -0.6963  0.2228 -0.0699
 8061SOL    HW135645   1.177   3.933   8.905  0.4167  0.0212  1.4445
 8061SOL    HW235646   1.168   4.002   9.037  2.2671 -0.0814 -1.7702
 8062SOL     OW35647   3.991   4.630  12.130 -0.1306 -0.4564  0.1004
 8062SOL    HW135648   4.019   4.601  12.043  2.5112 -0.1183  0.8506
 8062SOL    HW235649   3.974   4.552  12.183  0.6312 -0.2759  0.6079
 8063SOL     OW35650   1.034   2.915   0.394 -0.0119 -0.1019 -0.2005
 8063SOL    HW135651   0.996   2.930   0.480 -0.9115 -1.7859 -0.3069
 8063SOL    HW235652   0.956   2.883   0.349  0.5882 -1.6203 -0.1766
 8064SOL     OW35653   2.556   3.749   6.301  0.0168  0.0152  0.0676
 8064SOL    HW135654   2.643   3.726   6.269 -0.4280 -1.0049 -0.4293
 8064SOL    HW235655   2.568   3.766   6.394  2.9142 -0.7592 -0.1786
 8065SOL     OW35656   1.179   2.372   7.899  0.1333 -0.0756  0.0758
 8065SOL    HW135657   1.239   2.342   7.831 -0.8282 -3.2966  0.6746
 8065SOL    HW235658   1.131   2.291   7.913  0.9699 -0.5021  0.4794
 8066SOL     OW35659   0.853   1.315   7.107  0.0447  0.2850  0.7751
 8066SOL    HW135660   0.761   1.296   7.120  0.4800 -2.8953 -0.7985
 8066SOL    HW235661   0.866   1.277   7.020 -0.5145  1.7941  0.0356
 8067SOL     OW35662   3.175   0.411   7.899  0.5176 -0.6047  0.4191
 8067SOL    HW135663   3.110   0.381   7.835 -0.3532  0.8252  0.6369
 8067SOL    HW235664   3.182   0.328   7.945 -0.0260 -2.0826 -2.1275
 8068SOL     OW35665   1.861   1.985   6.216 -0.0403 -0.1736  0.5563
 8068SOL    HW135666   1.832   1.996   6.125 -0.3194 -1.7665  0.4556
 8068SOL    HW235667   1.914   2.064   6.227  0.5779 -0.4215 -0.5611
 8069SOL     OW35668   2.205   2.349   5.936 -0.1620  0.0066 -0.0296
 8069SOL    HW135669   2.197   2.440   5.907  1.5115  0.2341  0.2035
 8069SOL    HW235670   2.178   2.310   5.853  0.9483 -0.0180 -0.3835
 8070SOL     OW35671   1.277   1.409   7.059  0.0003  0.1699 -0.3592
 8070SOL    HW135672   1.207   1.451   7.008  0.4684 -0.9093 -1.8941
 8070SOL    HW235673   1.344   1.464   7.018  1.3915 -1.3472 -0.1158
 8071SOL     OW35674   1.801   1.673  14.044  0.1490  0.2661 -0.4456
 8071SOL    HW135675   1.867   1.630  13.991 -1.8120 -1.0858 -1.7943
 8071SOL    HW235676   1.775   1.745  13.986 -3.4372  2.3443  3.7677
 8072SOL     OW35677   2.833   3.370  13.101 -0.0255 -0.1290  0.1603
 8072SOL    HW135678   2.842   3.389  13.008  0.9673 -1.2343  0.0252
 8072SOL    HW235679   2.785   3.441  13.144  1.1793  0.4121  0.6268
 8073SOL     OW35680   3.421   3.025  14.314  0.0165  0.4769  0.1147
 8073SOL    HW135681   3.357   3.036  14.244  0.7722 -0.8130 -0.7858
 8073SOL    HW235682   3.450   2.934  14.309  1.7040  1.0863 -1.3632
 8074SOL     OW35683   2.378   2.143   5.212 -0.3703 -0.8314 -0.6585
 8074SOL    HW135684   2.416   2.062   5.180  1.1349 -0.4899  0.3098
 8074SOL    HW235685   2.370   2.129   5.306 -1.5268  0.2428 -0.5977
 8075SOL     OW35686   3.237   3.352  14.251 -0.6405 -0.0345 -0.2879
 8075SOL    HW135687   3.219   3.265  14.217  0.2559  0.5616 -2.2942
 8075SOL    HW235688   3.173   3.398  14.196  0.2819  0.5176 -0.9072
 8076SOL     OW35689   4.568   2.859   7.488 -0.1738  0.0626 -0.0671
 8076SOL    HW135690   4.574   2.771   7.450  1.0859 -0.5824  1.6397
 8076SOL    HW235691   4.473   2.861   7.500 -0.3942 -1.9321 -1.4690
 8077SOL     OW35692   3.955   3.995  14.275 -0.6896 -0.2102 -0.5259
 8077SOL    HW135693   3.878   4.014  14.329  0.3302 -0.5611  1.0463
 8077SOL    HW235694   4.010   3.948  14.337  0.1619 -1.0225 -1.9111
 8078SOL     OW35695   4.157   2.539   2.869 -0.8318  0.3301  0.4123
 8078SOL    HW135696   4.081   2.511   2.921 -0.1343 -0.4622  1.0128
 8078SOL    HW235697   4.129   2.624   2.836 -2.7781 -1.0920 -1.5593
 8079SOL     OW35698   1.870   1.555   8.606  0.6811 -0.3539  0.0658
 8079SOL    HW135699   1.831   1.588   8.525  0.0045 -0.8630  0.1848
 8079SOL    HW235700   1.932   1.491   8.570  0.4323 -0.6489  0.1624
 8080SOL     OW35701   1.527   0.702   8.553 -0.0538 -0.4657 -0.4792
 8080SOL    HW135702   1.515   0.607   8.541  2.1769 -0.6963 -0.9102
 8080SOL    HW235703   1.513   0.705   8.647  1.8344 -3.1727 -0.0864
 8081SOL     OW35704   1.305   1.469   4.890  0.0350 -0.2285  0.4054
 8081SOL    HW135705   1.260   1.398   4.843  0.5298 -0.0749 -0.3046
 8081SOL    HW235706   1.390   1.461   4.847 -1.1911 -1.4983 -1.8097
 8082SOL     OW35707   0.382   3.587   5.456  0.1277  0.2468  0.2797
 8082SOL    HW135708   0.436   3.665   5.464  1.7342 -0.8989  0.6348
 8082SOL    HW235709   0.312   3.622   5.401 -0.0051 -2.6600 -1.4326
 8083SOL     OW35710   0.557   1.636   8.033 -0.8022  0.1828 -0.7064
 8083SOL    HW135711   0.652   1.645   8.045 -0.6559 -1.7528 -0.3801
 8083SOL    HW235712   0.558   1.641   7.937 -0.9998  0.1987 -0.7071
 8084SOL     OW35713   4.152   2.922   3.707 -0.0825  0.3934 -0.0737
 8084SOL    HW135714   4.083   2.988   3.703 -1.4500 -0.8375  2.8334
 8084SOL    HW235715   4.193   2.960   3.629  0.3117 -0.0669 -0.0926
 8085SOL     OW35716   2.227   2.761  12.907  0.3613  0.2274 -0.1945
 8085SOL    HW135717   2.174   2.812  12.846  3.2769  1.9054 -1.3438
 8085SOL    HW235718   2.282   2.827  12.948 -0.7706 -0.0592  1.7711
 8086SOL     OW35719   1.051   1.570   3.678  0.0500  0.3687 -0.4153
 8086SOL    HW135720   1.024   1.516   3.603  0.5254 -0.5334  0.0687
 8086SOL    HW235721   0.966   1.608   3.702 -0.1023  0.1060 -0.5354
 8087SOL     OW35722   1.564   3.282   3.990  0.0377  0.3255 -0.5412
 8087SOL    HW135723   1.597   3.370   4.006  1.6941 -0.6946  1.7136
 8087SOL    HW235724   1.535   3.282   3.899  0.0363 -0.4467 -0.5467
 8088SOL     OW35725   0.308   4.551   8.714  0.0754  0.2586  0.1447
 8088SOL    HW135726   0.232   4.585   8.761  0.9352  0.4318  1.4121
 8088SOL    HW235727   0.278   4.530   8.625 -0.2831 -1.2753  0.6288
 8089SOL     OW35728   0.814   2.620  12.703  0.0381  0.2871  0.2466
 8089SOL    HW135729   0.768   2.545  12.666  2.6783 -0.4638 -1.4531
 8089SOL    HW235730   0.897   2.609  12.658  0.7145 -1.7747  2.0288
 8090SOL     OW35731   3.755   1.255  17.650  0.5207  0.7965  0.2617
 8090SOL    HW135732   3.829   1.301  17.612 -0.0015  1.2811 -0.1728
 8090SOL    HW235733   3.693   1.241  17.578  1.0205 -3.8755  0.7241
 8091SOL     OW35734   4.369   0.131   3.175  0.1667 -0.1494 -0.7216
 8091SOL    HW135735   4.301   0.160   3.236  0.4866  1.2618 -1.0330
 8091SOL    HW235736   4.451   0.163   3.213 -0.6329 -0.4929  1.3263
 8092SOL     OW35737   4.530   1.563   7.323 -0.0869 -0.6265 -0.4382
 8092SOL    HW135738   4.578   1.608   7.254 -1.2987  0.9837 -0.2316
 8092SOL    HW235739   4.550   1.611   7.404 -3.0669  0.2774 -0.2254
 8093SOL     OW35740   4.082   4.577   7.603  0.4478  0.5744 -0.2100
 8093SOL    HW135741   4.153   4.613   7.656 -1.0408  0.7470  1.6511
 8093SOL    HW235742   4.016   4.539   7.661  0.1558 -0.1206 -0.9910
 8094SOL     OW35743   3.716   0.109   5.742  0.5757  0.1235  0.4924
 8094SOL    HW135744   3.630   0.151   5.741  0.5669  0.1775  3.6999
 8094SOL    HW235745   3.769   0.176   5.785 -2.6173  2.8881  0.1427
 8095SOL     OW35746   0.964   0.635   3.097 -0.6720 -0.4485 -0.0379
 8095SOL    HW135747   0.997   0.622   3.186  1.6746 -0.7461 -0.9675
 8095SOL    HW235748   0.903   0.708   3.113 -0.9493 -1.3841  3.2933
 8096SOL     OW35749   4.681   3.020   5.841 -0.3366  0.2423  0.0320
 8096SOL    HW135750   0.012   2.956   5.887  0.8396  0.0169 -1.7123
 8096SOL    HW235751   4.595   3.010   5.882  0.7824 -2.2555  1.7791
 8097SOL     OW35752   2.623   3.656   7.331 -0.0288  0.3595  0.4674
 8097SOL    HW135753   2.661   3.570   7.352  1.8591  0.5101 -2.4028
 8097SOL    HW235754   2.550   3.625   7.277  0.1602  1.8865 -0.6563
 8098SOL     OW35755   1.695   2.692  13.999 -0.2492  0.0475 -0.3137
 8098SOL    HW135756   1.648   2.770  13.969 -0.8969  0.7119  2.4422
 8098SOL    HW235757   1.649   2.679  14.081 -0.9847  0.0689 -0.7208
 8099SOL     OW35758   2.217   4.013   2.896  0.2552  0.3425  0.1960
 8099SOL    HW135759   2.242   3.957   2.970  0.4219  2.1074  1.4894
 8099SOL    HW235760   2.299   4.025   2.849  0.6441 -0.7378  0.5967
 8100SOL     OW35761   1.934   0.034  12.557 -0.8838  0.2314  0.4991
 8100SOL    HW135762   1.841   0.042  12.578 -1.4144 -0.4163 -1.5928
 8100SOL    HW235763   1.972   0.053  12.643 -1.4627 -2.8137  1.4265
 8101SOL     OW35764   3.141   0.301  11.224  0.0891  0.8098  0.4165
 8101SOL    HW135765   3.145   0.328  11.316 -0.7549  1.2416  0.3281
 8101SOL    HW235766   3.048   0.298  11.203 -0.2361  0.2708  1.9231
 8102SOL     OW35767   1.547   1.358   2.418 -0.5574  0.0211  0.2956
 8102SOL    HW135768   1.639   1.376   2.395 -0.5380  0.0057  0.3611
 8102SOL    HW235769   1.534   1.427   2.484  0.5177  0.3565  0.1652
 8103SOL     OW35770   0.921   3.552   6.977 -1.0163 -0.4507  0.5147
 8103SOL    HW135771   1.010   3.559   7.011  0.6612  0.7293 -4.1408
 8103SOL    HW235772   0.870   3.556   7.058 -2.1626  1.5410 -0.2967
 8104SOL     OW35773   1.576   2.651   0.150  0.2383  0.6801 -0.3673
 8104SOL    HW135774   1.636   2.595   0.199 -2.0259  0.5989  2.2938
 8104SOL    HW235775   1.539   2.707   0.219  3.9146  2.4001  0.2491
 8105SOL     OW35776   3.745   3.148  11.196 -0.0410 -0.2539  0.6615
 8105SOL    HW135777   3.702   3.233  11.210 -0.0891  0.3540 -3.3677
 8105SOL    HW235778   3.838   3.171  11.197  0.1530 -1.1360  2.3559
 8106SOL     OW35779   1.853   3.041   1.170  0.2771 -0.4686 -0.1719
 8106SOL    HW135780   1.825   3.042   1.262  0.4208 -0.6618 -0.1250
 8106SOL    HW235781   1.871   2.949   1.149  0.4521  0.1508 -2.6922
 8107SOL     OW35782   3.553   0.121   1.653  0.1127  0.1772 -0.3543
 8107SOL    HW135783   3.590   0.045   1.607 -1.0039 -0.6002  0.0092
 8107SOL    HW235784   3.627   0.182   1.651 -0.2656  0.6521  0.3259
 8108SOL     OW35785   2.097   0.664   1.749 -0.0418  0.0692 -0.1947
 8108SOL    HW135786   2.139   0.744   1.779  1.4185 -0.9714  0.5494
 8108SOL    HW235787   2.146   0.657   1.667  0.6706 -1.7212  0.3818
 8109SOL     OW35788   0.158   2.484   9.359 -0.2873 -0.4139  0.2665
 8109SOL    HW135789   0.079   2.431   9.364 -0.6602  0.1038 -0.0405
 8109SOL    HW235790   0.220   2.414   9.341  0.3521  0.9441 -2.8037
 8110SOL     OW35791   4.658   2.828   4.678  0.6613  0.1777  0.0292
 8110SOL    HW135792   0.013   2.862   4.634  0.1412  0.6298 -0.5419
 8110SOL    HW235793   4.682   2.838   4.771  0.7698 -0.0220  0.0225
 8111SOL     OW35794   2.522   0.021   3.408 -0.4039 -0.0854 -0.3383
 8111SOL    HW135795   2.521   0.070   3.491 -2.1001 -3.1543  1.4492
 8111SOL    HW235796   2.609   4.705   3.407 -1.0175 -1.3812 -2.6528
 8112SOL     OW35797   3.893   4.402   1.648  0.2244 -0.0659  0.2092
 8112SOL    HW135798   3.964   4.342   1.669  0.6131  1.2601  2.6014
 8112SOL    HW235799   3.865   4.369   1.562 -1.7911  1.2489  0.3563
 8113SOL     OW35800   0.961   1.866   4.399  0.1106  0.0572  0.3855
 8113SOL    HW135801   0.878   1.840   4.438 -0.6912 -0.1783 -1.4787
 8113SOL    HW235802   0.965   1.805   4.325 -0.2235  2.2916 -1.5121
 8114SOL     OW35803   1.564   3.979   9.738  0.3241  0.2157 -0.0773
 8114SOL    HW135804   1.647   3.999   9.782  1.2658 -2.3373 -0.6687
 8114SOL    HW235805   1.518   3.923   9.801  1.8478 -1.2922 -0.3116
 8115SOL     OW35806   0.176   0.231  10.478 -0.3955  0.1013 -0.3721
 8115SOL    HW135807   0.177   0.148  10.431  0.4125 -0.6145  0.8884
 8115SOL    HW235808   0.248   0.235  10.541 -1.8495 -0.2971  1.3157
 8116SOL     OW35809   4.216   2.406  15.218  0.2774 -0.0811  0.3682
 8116SOL    HW135810   4.309   2.426  15.233  0.2986 -1.4334  2.0229
 8116SOL    HW235811   4.166   2.478  15.255 -0.5950 -0.6590  0.3194
 8117SOL     OW35812   1.703   2.543  15.697 -0.3608  0.6540  0.2711
 8117SOL    HW135813   1.671   2.486  15.627  0.8046  1.7405 -1.1478
 8117SOL    HW235814   1.795   2.551  15.673 -0.6714  0.4667 -1.0044
 8118SOL     OW35815   4.334   1.527   6.505 -0.0203 -0.0496 -0.0184
 8118SOL    HW135816   4.339   1.618   6.535  0.4203  0.7193 -2.4880
 8118SOL    HW235817   4.425   1.518   6.477  0.9534  1.5550  2.6530
 8119SOL     OW35818   3.350   1.796   4.672 -0.1125  0.0986  0.2568
 8119SOL    HW135819   3.328   1.889   4.678 -1.3413 -0.1615 -0.3008
 8119SOL    HW235820   3.443   1.806   4.651 -0.8168  2.1913 -1.8371
 8120SOL     OW35821   3.636   0.313   3.462 -0.1511  0.0456  1.0025
 8120SOL    HW135822   3.614   0.248   3.395  1.6352  1.1619 -0.6838
 8120SOL    HW235823   3.706   0.260   3.500  1.1679  2.1744  1.5404
 8121SOL     OW35824   0.578   1.383   6.743 -0.1298  0.5116 -0.1744
 8121SOL    HW135825   0.498   1.412   6.699 -0.9714  0.5084  1.3489
 8121SOL    HW235826   0.627   1.465   6.746  0.8940 -0.2215  2.6727
 8122SOL     OW35827   2.525   3.688   5.556  0.1349 -0.0602  0.3473
 8122SOL    HW135828   2.476   3.738   5.491 -0.0430 -1.6308 -0.7272
 8122SOL    HW235829   2.525   3.742   5.635 -1.5464 -0.3600  0.5430
 8123SOL     OW35830   1.945   3.871   8.178 -0.3736  0.3087 -0.1092
 8123SOL    HW135831   1.992   3.816   8.242 -0.1064  0.5155 -0.1254
 8123SOL    HW235832   2.019   3.928   8.155  1.4876 -2.5109 -1.1429
 8124SOL     OW35833   4.415   4.479   2.087 -0.1648 -0.2921  0.9335
 8124SOL    HW135834   4.456   4.459   2.003  0.4588  0.3138  1.0942
 8124SOL    HW235835   4.465   4.557   2.110 -0.3582  0.2362 -0.4709
 8125SOL     OW35836   2.509   3.121   0.865  0.1263  0.0925  0.1311
 8125SOL    HW135837   2.435   3.161   0.912  0.1920  2.3989 -1.7641
 8125SOL    HW235838   2.522   3.186   0.796  0.9073  1.0060  1.1466
 8126SOL     OW35839   0.778   1.857   8.226  0.1458  0.0013  0.2505
 8126SOL    HW135840   0.700   1.872   8.280 -0.7134 -0.3074 -0.9038
 8126SOL    HW235841   0.785   1.763   8.242  0.2807 -0.0784 -0.3081
 8127SOL     OW35842   1.830   1.287   8.858  0.2063 -0.3467  0.1895
 8127SOL    HW135843   1.907   1.235   8.837  0.5800 -0.3425  1.5482
 8127SOL    HW235844   1.763   1.230   8.819 -0.2545 -0.7849  1.6243
 8128SOL     OW35845   0.768   1.791   8.904 -0.2581 -0.2590  0.7587
 8128SOL    HW135846   0.729   1.837   8.830  1.5614  0.6085  0.3301
 8128SOL    HW235847   0.699   1.768   8.965  0.4097 -1.8334  0.9057
 8129SOL     OW35848   1.618   4.542   7.816 -0.7092 -0.6032 -0.4805
 8129SOL    HW135849   1.560   4.508   7.884 -1.3872 -1.0928 -1.3011
 8129SOL    HW235850   1.704   4.509   7.841 -0.5190  0.5275  0.3481
 8130SOL     OW35851   2.146   2.557   5.133  0.1582 -0.2532 -0.0271
 8130SOL    HW135852   2.117   2.599   5.215  1.2165 -2.0995  1.2997
 8130SOL    HW235853   2.234   2.529   5.159  0.6162 -0.7057 -2.0993
 8131SOL     OW35854   0.558   0.155   9.889 -0.1789 -0.1088 -0.5620
 8131SOL    HW135855   0.535   0.194   9.805  1.9529 -0.3098 -1.2505
 8131SOL    HW235856   0.473   0.113   9.902 -0.2201  0.6939  1.7373
 8132SOL     OW35857   4.619   0.909   2.592  0.3382  0.1229  0.3957
 8132SOL    HW135858   4.568   0.966   2.649 -0.1335 -0.5379  0.6353
 8132SOL    HW235859   4.676   0.972   2.548 -0.3376 -0.0708 -0.7733
 8133SOL     OW35860   1.599   1.150   8.805  0.0873  0.0380 -0.4780
 8133SOL    HW135861   1.574   1.193   8.886 -0.7554  0.0913 -0.7649
 8133SOL    HW235862   1.511   1.145   8.766 -0.2844  2.8259  0.0346
 8134SOL     OW35863   0.131   3.496   0.756  0.3032  0.1601  0.1451
 8134SOL    HW135864   0.094   3.423   0.708  2.7018 -1.0390  0.1132
 8134SOL    HW235865   0.128   3.459   0.845  0.3404  0.8113  0.4217
 8135SOL     OW35866   0.892   0.768   4.393  0.5272 -0.4873 -0.1159
 8135SOL    HW135867   0.917   0.757   4.484 -1.0393  0.2708  0.3861
 8135SOL    HW235868   0.978   0.760   4.351  0.3324 -2.9785 -0.0581
 8136SOL     OW35869   1.882   1.253   7.326 -0.1194 -0.4045 -0.0648
 8136SOL    HW135870   1.789   1.231   7.341 -0.3013 -1.6236 -3.0145
 8136SOL    HW235871   1.873   1.348   7.321 -1.1818 -0.5021 -0.1452
 8137SOL     OW35872   4.035   4.518  10.250 -0.5043  0.2172 -0.0415
 8137SOL    HW135873   3.997   4.472  10.176 -3.1362 -1.0510  2.0839
 8137SOL    HW235874   4.044   4.610  10.226 -3.3186  0.3261 -0.6243
 8138SOL     OW35875   0.279   2.584  13.120 -0.4290 -0.3532 -0.2674
 8138SOL    HW135876   0.332   2.580  13.200  0.1629 -1.0107 -0.6997
 8138SOL    HW235877   0.334   2.646  13.072  0.5880  0.1172  1.4903
 8139SOL     OW35878   2.794   3.168   7.833  0.1704 -0.8660 -0.2455
 8139SOL    HW135879   2.758   3.235   7.891  1.8656  0.4273 -0.6860
 8139SOL    HW235880   2.747   3.190   7.753  1.0837  2.3539  0.0889
 8140SOL     OW35881   1.027   1.322  12.799 -0.0773  0.5684  0.0762
 8140SOL    HW135882   0.977   1.404  12.793  0.6357  1.0471  0.7172
 8140SOL    HW235883   0.970   1.274  12.738  1.7054 -1.9464  0.3899
 8141SOL     OW35884   0.529   0.733   3.180  0.6500  0.2529 -0.0310
 8141SOL    HW135885   0.450   0.714   3.130  0.7607  1.5527 -0.6906
 8141SOL    HW235886   0.561   0.808   3.130 -1.3136 -0.4742 -2.3702
 8142SOL     OW35887   1.655   3.689   8.623  0.3077  0.5577 -0.4413
 8142SOL    HW135888   1.691   3.614   8.669  0.7568  1.0518  0.0144
 8142SOL    HW235889   1.689   3.764   8.672  0.2858  0.1689  0.1632
 8143SOL     OW35890   0.925   3.942   4.143  0.1334  0.0484  0.1012
 8143SOL    HW135891   0.853   3.918   4.084 -0.5323  0.3077  0.7964
 8143SOL    HW235892   0.899   3.890   4.219  0.8825 -0.7587 -0.1996
 8144SOL     OW35893   2.187   4.462   8.278 -0.3265  0.1844 -0.4733
 8144SOL    HW135894   2.273   4.502   8.262  0.4005 -0.5781  1.6148
 8144SOL    HW235895   2.191   4.395   8.210  0.3003  0.9172 -1.1703
 8145SOL     OW35896   4.637   1.332   2.734 -0.6347 -0.5373 -0.0116
 8145SOL    HW135897   4.671   1.398   2.673 -1.4009  0.5976  0.7894
 8145SOL    HW235898   4.552   1.304   2.700 -0.1870  1.3724 -2.6338
 8146SOL     OW35899   0.403   3.276  11.127 -0.3758 -0.2938  0.7008
 8146SOL    HW135900   0.497   3.261  11.133 -0.4712 -1.1492  0.0401
 8146SOL    HW235901   0.413   3.358  11.080  0.3176 -0.8633 -0.1575
 8147SOL     OW35902   3.539   2.937   5.406 -0.5673 -0.6380  0.0228
 8147SOL    HW135903   3.598   2.877   5.360  0.3551  2.5927 -3.0612
 8147SOL    HW235904   3.483   2.968   5.334 -2.4179  1.0940  2.2351
 8148SOL     OW35905   1.046   2.930   4.764 -0.3773 -0.2213 -0.4610
 8148SOL    HW135906   0.957   2.933   4.729 -0.6106 -1.7561 -0.0164
 8148SOL    HW235907   1.092   2.996   4.712 -0.5272  1.1966  1.2265
 8149SOL     OW35908   0.860   4.118  14.979  0.2465 -0.4540  0.5196
 8149SOL    HW135909   0.955   4.107  14.982  0.4961  1.7619  1.0495
 8149SOL    HW235910   0.841   4.109  14.886  0.3112 -2.0910  0.6679
 8150SOL     OW35911   3.170   3.137   1.654  0.3146  0.0388  0.4158
 8150SOL    HW135912   3.185   3.151   1.748 -0.6342 -1.3630  0.7858
 8150SOL    HW235913   3.240   3.071   1.653 -0.3504 -0.6082 -1.8236
 8151SOL     OW35914   2.147   3.733  15.194 -0.1054 -0.4059  0.1356
 8151SOL    HW135915   2.086   3.803  15.168  1.7773  0.5237 -1.6759
 8151SOL    HW235916   2.098   3.657  15.162  0.1440 -0.4025 -0.2473
 8152SOL     OW35917   0.342   3.131   7.537 -1.0077  0.1962  0.2004
 8152SOL    HW135918   0.386   3.159   7.617  1.0835 -1.4258 -0.3618
 8152SOL    HW235919   0.373   3.041   7.524  1.7117  0.8693  1.9878
 8153SOL     OW35920   1.397   0.700   2.800 -0.5776  0.5084  0.0451
 8153SOL    HW135921   1.399   0.732   2.710  3.6309  2.2646  0.7663
 8153SOL    HW235922   1.435   0.613   2.792  0.3783  0.7753  1.5973
 8154SOL     OW35923   1.261   1.079   1.537  0.1542  0.5935 -0.5950
 8154SOL    HW135924   1.303   1.154   1.578  0.2297  0.5515 -0.5962
 8154SOL    HW235925   1.328   1.016   1.565 -0.2256  0.1405 -0.6954
 8155SOL     OW35926   0.295   4.071  10.263 -0.1940  0.3992  0.5963
 8155SOL    HW135927   0.385   4.101  10.271 -0.1914  0.4797  0.2857
 8155SOL    HW235928   0.268   4.106  10.348  0.5430 -0.6959  1.2801
 8156SOL     OW35929   3.165   2.924   8.669 -0.0948 -0.3637 -0.6909
 8156SOL    HW135930   3.216   2.996   8.633  0.6826 -0.1055  0.9710
 8156SOL    HW235931   3.084   2.972   8.685 -0.3968 -1.5505  1.3753
 8157SOL     OW35932   3.216   3.812   7.647  0.4370 -0.8003  0.3133
 8157SOL    HW135933   3.288   3.816   7.710 -1.7854  1.6727  2.6682
 8157SOL    HW235934   3.225   3.723   7.613  0.2503 -0.1419 -1.4443
 8158SOL     OW35935   1.046   0.264  15.127 -0.4195  0.1130  0.0523
 8158SOL    HW135936   1.057   0.327  15.055 -1.2465  0.1276 -0.0663
 8158SOL    HW235937   1.078   0.312  15.203  1.5252 -0.3050 -0.5070
 8159SOL     OW35938   2.544   2.798  13.833 -0.3802  0.3533  0.3340
 8159SOL    HW135939   2.606   2.819  13.902  1.3329  1.3634 -1.5291
 8159SOL    HW235940   2.601   2.757  13.768  0.3575  0.3884  0.9527
 8160SOL     OW35941   4.236   4.505   5.331  0.5683  0.4457 -0.2763
 8160SOL    HW135942   4.168   4.438   5.342  0.0057  1.0970  0.2291
 8160SOL    HW235943   4.181   4.579   5.307 -0.4814 -1.1499 -2.7369
 8161SOL     OW35944   2.493   2.235   6.249 -0.1667 -0.6521  0.3078
 8161SOL    HW135945   2.429   2.301   6.277  0.8431  0.3740  0.1717
 8161SOL    HW235946   2.461   2.225   6.159  0.4306 -0.5821  0.0876
 8162SOL     OW35947   1.489   3.031   1.592 -0.5915  0.1826 -0.1355
 8162SOL    HW135948   1.417   3.049   1.652 -0.1769  0.4016  0.3012
 8162SOL    HW235949   1.533   3.116   1.588 -0.4904  0.1381  0.0606
 8163SOL     OW35950   0.169   2.013  10.531 -0.4439 -0.1712 -0.5088
 8163SOL    HW135951   0.248   1.961  10.519 -1.2922 -1.6756  0.4059
 8163SOL    HW235952   0.120   1.956  10.590 -1.2966 -1.8604 -2.8706
 8164SOL     OW35953   0.442   0.140  16.877  0.4671 -0.2323  0.3078
 8164SOL    HW135954   0.484   0.157  16.960  0.2858 -0.5028  0.4557
 8164SOL    HW235955   0.474   0.221  16.837 -0.9278  1.0589  1.7830
 8165SOL     OW35956   3.863   3.534   3.160  0.5229  0.0102  0.0303
 8165SOL    HW135957   3.918   3.607   3.190 -0.3735 -0.4863  2.9044
 8165SOL    HW235958   3.917   3.496   3.091  1.5263  0.1929  0.7204
 8166SOL     OW35959   2.415   3.539   9.417  0.0142 -0.2082  0.0510
 8166SOL    HW135960   2.347   3.476   9.440 -0.5289 -0.1509 -1.4337
 8166SOL    HW235961   2.460   3.489   9.349 -1.5436 -1.0837 -0.3413
 8167SOL     OW35962   1.145   3.277   9.293  0.1734  0.1497 -1.2310
 8167SOL    HW135963   1.097   3.271   9.210 -0.2122  1.5775 -1.1149
 8167SOL    HW235964   1.233   3.284   9.256  0.0332  1.1214 -1.3767
 8168SOL     OW35965   1.287   3.923   2.342 -0.3258 -0.2410 -0.2452
 8168SOL    HW135966   1.340   3.999   2.316  0.1243 -0.4837 -0.0498
 8168SOL    HW235967   1.344   3.851   2.314 -3.1532 -3.1199  1.4601
 8169SOL     OW35968   3.657   4.540   4.376  0.3958 -0.6948  0.1564
 8169SOL    HW135969   3.718   4.475   4.413  0.8928 -0.9105 -1.0305
 8169SOL    HW235970   3.678   4.611   4.437  0.0163 -0.7010  0.2891
 8170SOL     OW35971   4.546   2.617  13.383 -0.4140 -0.1064  0.0696
 8170SOL    HW135972   4.514   2.624  13.293  1.5913  1.7178 -0.4945
 8170SOL    HW235973   4.514   2.529  13.402 -0.2000 -0.0650  0.6270
 8171SOL     OW35974   4.716   0.074   8.754 -0.2034  0.2835  0.1291
 8171SOL    HW135975   0.018   0.166   8.741  0.9490 -0.1965 -1.0744
 8171SOL    HW235976   0.012   0.041   8.666 -2.6865  0.2031 -0.3885
 8172SOL     OW35977   4.409   0.011   6.313  0.0455  0.2195 -0.6991
 8172SOL    HW135978   4.496   0.010   6.273  0.5369 -0.9239  0.4017
 8172SOL    HW235979   4.424   0.103   6.336 -2.1765  0.0162  1.5555
 8173SOL     OW35980   0.502   0.335  15.161  0.2457 -0.0639 -0.3731
 8173SOL    HW135981   0.595   0.330  15.182 -0.0925  1.1788  1.3815
 8173SOL    HW235982   0.497   0.357  15.068  2.8220 -0.9910 -0.7371
 8174SOL     OW35983   1.885   0.594  15.952 -0.3495 -0.1808  0.8920
 8174SOL    HW135984   1.892   0.500  15.935  2.7304  0.3352 -0.6636
 8174SOL    HW235985   1.875   0.582  16.046  3.5269 -0.0467  1.3002
 8175SOL     OW35986   3.856   1.816   8.042 -0.0326  0.0685  0.3341
 8175SOL    HW135987   3.910   1.808   8.121  1.0616 -1.2968 -0.5691
 8175SOL    HW235988   3.787   1.879   8.065  0.3407  1.5273 -2.5518
 8176SOL     OW35989   1.513   0.352   3.409 -0.7582  0.1270  0.4347
 8176SOL    HW135990   1.485   0.405   3.484  1.9525  0.6033  1.1206
 8176SOL    HW235991   1.483   0.415   3.343 -1.9627 -0.2733  0.6202
 8177SOL     OW35992   2.503   1.289  12.255  0.0553  0.1735 -0.2595
 8177SOL    HW135993   2.573   1.284  12.321 -0.1836 -2.4535 -0.2111
 8177SOL    HW235994   2.554   1.303  12.176 -0.4965  0.5449 -0.5494
 8178SOL     OW35995   1.879   1.603   7.549 -0.9510  0.0481 -0.0092
 8178SOL    HW135996   1.840   1.670   7.604  0.9252  0.5139  0.7493
 8178SOL    HW235997   1.880   1.517   7.592 -0.5174  0.1850  0.2488
 8179SOL     OW35998   0.377   3.323  16.119  0.5188  0.1700  0.3836
 8179SOL    HW135999   0.366   3.399  16.062  2.3201 -0.5416 -0.9283
 8179SOL    HW236000   0.330   3.258  16.067  1.4106 -0.9545  0.9944
 8180SOL     OW36001   4.370   2.884   8.699  0.0244 -0.0311  0.3449
 8180SOL    HW136002   4.367   2.959   8.759 -0.3046  0.7014 -0.5910
 8180SOL    HW236003   4.279   2.853   8.707  0.4629 -1.7723 -1.5639
 8181SOL     OW36004   4.594   3.058   2.728 -0.0117 -0.2684 -0.4585
 8181SOL    HW136005   4.513   3.007   2.720  0.0592 -0.4305 -0.1429
 8181SOL    HW236006   4.634   2.988   2.778  0.0801  0.8235  0.9994
 8182SOL     OW36007   2.872   2.042   6.992 -0.5168  0.0742 -0.2508
 8182SOL    HW136008   2.909   2.044   6.904  0.0937 -0.5983 -0.0063
 8182SOL    HW236009   2.831   1.956   7.001 -2.7227  1.2539  0.9581
 8183SOL     OW36010   1.803   0.919   9.149  0.2896  0.3848 -0.0577
 8183SOL    HW136011   1.893   0.945   9.131  0.0381  1.1925 -0.1664
 8183SOL    HW236012   1.760   1.004   9.151 -0.5824 -0.0495 -0.6128
 8184SOL     OW36013   2.627   3.563   3.560 -0.0057  0.6968  0.5089
 8184SOL    HW136014   2.587   3.650   3.552  0.6772  0.7128 -2.4577
 8184SOL    HW236015   2.679   3.559   3.480  0.3032  1.3262  0.6791
 8185SOL     OW36016   0.905   0.493   5.981 -0.0243 -0.1272  0.1041
 8185SOL    HW136017   0.820   0.495   5.936  0.1312  1.2175 -0.1348
 8185SOL    HW236018   0.969   0.492   5.910 -0.1002  0.3387  0.0265
 8186SOL     OW36019   0.961   0.692  16.141  0.0019 -0.6541  0.1907
 8186SOL    HW136020   0.960   0.652  16.054 -1.8500 -0.6010  0.2013
 8186SOL    HW236021   0.870   0.696  16.170 -0.4486  0.2845 -1.3577
 8187SOL     OW36022   0.299   0.511  15.850  0.0362 -0.6079 -0.3384
 8187SOL    HW136023   0.303   0.501  15.755  1.8097 -0.3104 -0.3072
 8187SOL    HW236024   0.392   0.506  15.872 -0.0319  1.4224  0.4163
 8188SOL     OW36025   1.725   4.658   8.867  0.4064 -0.1870 -0.3214
 8188SOL    HW136026   1.693   4.707   8.943 -0.2845  0.8962 -1.3286
 8188SOL    HW236027   1.821   4.663   8.863  0.5393 -2.5207 -0.2004
 8189SOL     OW36028   1.272   1.702   6.036 -0.3092 -0.2756  0.5769
 8189SOL    HW136029   1.367   1.703   6.047 -0.3525 -1.8943  1.0683
 8189SOL    HW236030   1.239   1.749   6.112 -1.6013 -0.8619  0.3732
 8190SOL     OW36031   0.295   0.119   1.740  0.4383 -0.2977  0.4823
 8190SOL    HW136032   0.357   0.184   1.708 -0.4270  0.0062 -0.5682
 8190SOL    HW236033   0.219   0.169   1.771 -1.0395 -2.7422  0.8607
 8191SOL     OW36034   0.945   4.144   3.886 -0.2798  0.3993  0.2808
 8191SOL    HW136035   0.892   4.222   3.898  0.9291  1.3163 -0.4074
 8191SOL    HW236036   0.926   4.100   3.969  0.6299 -2.1269 -0.8336
 8192SOL     OW36037   3.607   0.930   7.174 -0.2597 -0.0599 -0.0514
 8192SOL    HW136038   3.642   1.002   7.121 -2.4074  1.4004  0.5271
 8192SOL    HW236039   3.673   0.905   7.238 -1.3178 -0.6121  0.8165
 8193SOL     OW36040   3.696   3.332   5.182 -0.1731 -0.2182 -0.0730
 8193SOL    HW136041   3.702   3.257   5.242  3.7370  1.1606  1.2717
 8193SOL    HW236042   3.642   3.397   5.229  0.7677 -0.7245  1.7128
 8194SOL     OW36043   0.797   4.177   7.980 -0.0917  0.4658 -0.0445
 8194SOL    HW136044   0.887   4.185   8.013  0.1100  0.0411 -0.4906
 8194SOL    HW236045   0.801   4.090   7.940  1.0035  0.4157  0.1774
 8195SOL     OW36046   2.018   3.546   0.866  0.6829  0.8988  0.3631
 8195SOL    HW136047   2.032   3.549   0.771  2.6770  1.9477  0.6886
 8195SOL    HW236048   2.055   3.462   0.893  0.8871 -0.0315 -2.8501
 8196SOL     OW36049   3.806   0.655   2.590 -0.1280  0.2640 -0.2952
 8196SOL    HW136050   3.899   0.659   2.567 -0.1635 -0.9548 -0.6760
 8196SOL    HW236051   3.823   0.633   2.682 -1.4975 -2.0816 -0.5854
 8197SOL     OW36052   4.345   0.831   2.200  0.3573 -0.0064  0.3305
 8197SOL    HW136053   4.376   0.741   2.193  3.4575  0.7802  3.7852
 8197SOL    HW236054   4.282   0.829   2.128 -0.5927  0.5450  1.1458
 8198SOL     OW36055   4.508   2.487   5.054  0.3445  0.3039 -0.7590
 8198SOL    HW136056   4.522   2.580   5.035 -0.0976  0.7586  1.1199
 8198SOL    HW236057   4.417   2.499   5.084  0.1831  1.9622 -1.9068
 8199SOL     OW36058   1.309   2.942   3.187  0.2210 -0.2904 -0.3588
 8199SOL    HW136059   1.283   2.862   3.232  2.2193  0.4299  2.0673
 8199SOL    HW236060   1.253   2.936   3.109  0.6883 -2.2293 -0.5453
 8200SOL     OW36061   3.747   0.435  15.858  0.2494 -0.7528 -0.2567
 8200SOL    HW136062   3.757   0.498  15.786 -0.9759 -0.9476 -0.6057
 8200SOL    HW236063   3.727   0.488  15.936  0.4335  0.0893 -0.7785
 8201SOL     OW36064   4.606   1.246   3.335 -0.4984 -0.6372  0.2476
 8201SOL    HW136065   4.616   1.195   3.255 -3.6260 -2.2258  0.8379
 8201SOL    HW236066   4.686   1.297   3.329 -1.9569  1.7079  0.8978
 8202SOL     OW36067   1.479   3.573   2.775 -0.4393  0.4542  0.0767
 8202SOL    HW136068   1.430   3.498   2.743 -0.6045  1.2466 -1.5499
 8202SOL    HW236069   1.405   3.633   2.787  0.1638  1.1599  0.2895
 8203SOL     OW36070   2.900   3.753  10.055  0.0131 -0.0851 -0.0665
 8203SOL    HW136071   2.815   3.795  10.051  0.5867  1.2270  1.2770
 8203SOL    HW236072   2.904   3.709   9.970  2.4938 -1.0574  0.5412
 8204SOL     OW36073   4.077   3.440   3.750  0.3390  0.4421 -0.3737
 8204SOL    HW136074   4.006   3.419   3.690  0.9535  0.9280 -1.2628
 8204SOL    HW236075   4.139   3.483   3.692  0.4551 -1.3816 -1.5731
 8205SOL     OW36076   3.397   0.956   7.481 -0.1576  0.1795  0.4879
 8205SOL    HW136077   3.395   0.867   7.447 -2.5720 -0.4213  2.2308
 8205SOL    HW236078   3.414   0.999   7.397  0.6549  0.1200  0.6194
 8206SOL     OW36079   4.627   4.244  12.018  0.0999 -0.1112  0.2773
 8206SOL    HW136080   4.611   4.333  12.051 -3.3170  0.3299 -2.5929
 8206SOL    HW236081   4.722   4.246  12.007 -0.2076  0.5698 -2.2353
 8207SOL     OW36082   2.529   1.078   6.534 -0.1093  0.0993 -0.0943
 8207SOL    HW136083   2.467   1.138   6.574 -1.5729 -1.8609  0.5821
 8207SOL    HW236084   2.510   0.993   6.573  0.3035 -0.0190 -0.1454
 8208SOL     OW36085   4.663   3.702   7.375 -0.7446  0.0782  0.2048
 8208SOL    HW136086   4.588   3.743   7.418 -0.4053  3.3724 -2.3201
 8208SOL    HW236087   4.649   3.609   7.391 -2.0840  0.2057 -0.2205
 8209SOL     OW36088   3.886   0.053  14.349 -0.2131 -0.1205 -0.1686
 8209SOL    HW136089   3.913   4.692  14.385  0.9864  1.1934  2.0529
 8209SOL    HW236090   3.793   0.032  14.347  0.1381 -1.8698  1.7240
 8210SOL     OW36091   4.081   2.452   2.116  0.1201 -0.2219  0.2867
 8210SOL    HW136092   4.006   2.498   2.152  0.0435  1.5029 -2.0767
 8210SOL    HW236093   4.037   2.413   2.041 -0.3257  1.0103 -0.0904
 8211SOL     OW36094   2.351   3.595  16.850  0.1560  0.1811 -0.3627
 8211SOL    HW136095   2.443   3.583  16.828  1.1958  2.2389  2.9105
 8211SOL    HW236096   2.343   3.686  16.824  2.0992  0.4534  0.0526
 8212SOL     OW36097   2.549   3.812  16.702 -0.5377 -0.2026 -0.3261
 8212SOL    HW136098   2.457   3.834  16.717  0.4551  2.1325  2.4217
 8212SOL    HW236099   2.596   3.893  16.682  0.4056 -0.2890  1.5556
 8213SOL     OW36100   1.124   1.518   3.218 -0.4646 -0.1154  0.2991
 8213SOL    HW136101   1.078   1.555   3.143 -0.6284 -1.1699 -0.1215
 8213SOL    HW236102   1.144   1.601   3.262 -3.6903  0.8835 -0.0855
 8214SOL     OW36103   2.245   1.271   6.319 -0.0055 -0.3311 -0.1685
 8214SOL    HW136104   2.193   1.232   6.249  0.2137  3.0960 -2.2550
 8214SOL    HW236105   2.178   1.332   6.351  1.0088  0.8608 -0.2944
 8215SOL     OW36106   4.606   3.684   4.508  0.7244 -0.5278  0.5906
 8215SOL    HW136107   4.672   3.745   4.476  0.6178 -0.5516  0.3277
 8215SOL    HW236108   4.541   3.738   4.553  1.6671  0.6360  0.5505
 8216SOL     OW36109   1.942   0.089   1.823  0.2208 -0.1527  0.2414
 8216SOL    HW136110   1.978   0.022   1.766  3.7701  2.3566 -0.4455
 8216SOL    HW236111   1.881   0.126   1.759  0.6495  1.2956  0.6611
 8217SOL     OW36112   3.925   2.496   3.010  0.0684 -0.3613 -0.4934
 8217SOL    HW136113   3.925   2.411   3.054  1.1405 -0.5937 -0.9445
 8217SOL    HW236114   3.848   2.488   2.955  1.2590 -1.5722 -1.9956
 8218SOL     OW36115   4.217   3.396  16.045 -0.3697  0.2035 -0.3587
 8218SOL    HW136116   4.281   3.392  16.116  0.6987 -1.6863 -1.4091
 8218SOL    HW236117   4.253   3.323  15.994 -0.5754  0.6293 -1.1162
 8219SOL     OW36118   4.155   3.337   4.009  0.1743 -0.6833  0.0099
 8219SOL    HW136119   4.220   3.268   3.990  0.3069 -0.3063 -0.9006
 8219SOL    HW236120   4.123   3.361   3.922 -0.2935 -2.9505 -0.4517
 8220SOL     OW36121   4.529   4.668   1.573  0.6831 -0.9587  0.1885
 8220SOL    HW136122   4.520   0.033   1.537  0.0820 -1.3351 -0.5849
 8220SOL    HW236123   4.548   4.680   1.666 -1.8672 -0.7072  0.6706
 8221SOL     OW36124   0.094   1.107   9.970  0.0766 -1.0191 -0.1886
 8221SOL    HW136125   0.155   1.116  10.043  2.3062 -1.2211 -2.0373
 8221SOL    HW236126   0.010   1.091  10.014  0.3650  1.2413  1.1458
 8222SOL     OW36127   0.504   0.323   8.048  0.1565 -0.2868  0.6423
 8222SOL    HW136128   0.417   0.298   8.078 -0.9147  1.4677 -0.9677
 8222SOL    HW236129   0.484   0.328   7.954  0.6712  1.9089  0.6418
 8223SOL     OW36130   0.312   0.893   0.727 -0.8860  0.1081 -0.1231
 8223SOL    HW136131   0.287   0.829   0.794  0.0321  2.5304  2.5206
 8223SOL    HW236132   0.228   0.927   0.697 -1.3609  0.1107  1.2008
 8224SOL     OW36133   1.023   0.373   0.012 -0.4665  0.4166  1.1767
 8224SOL    HW136134   0.978   0.311   0.069 -1.8538  1.3540  1.0893
 8224SOL    HW236135   0.962   0.382  17.633  0.5175 -0.0801  0.2956
 8225SOL     OW36136   1.647   2.226   7.758  0.1864  0.0235  0.1913
 8225SOL    HW136137   1.648   2.163   7.830 -0.9596 -0.1651  0.0445
 8225SOL    HW236138   1.728   2.273   7.775 -0.8418  1.8817 -0.0119
 8226SOL     OW36139   0.182   3.835  15.387 -0.1621  0.1420 -0.4314
 8226SOL    HW136140   0.173   3.912  15.330 -1.1741  0.5549  0.2927
 8226SOL    HW236141   0.275   3.824  15.366 -0.0334 -1.5076  1.0387
 8227SOL     OW36142   0.966   1.577   7.734 -0.5299  0.4248 -0.2361
 8227SOL    HW136143   0.964   1.496   7.785 -2.2414  0.7799  0.2354
 8227SOL    HW236144   0.944   1.633   7.808 -0.6753  0.8652 -0.6170
 8228SOL     OW36145   0.690   4.422   9.034 -0.3492  0.1678 -0.0923
 8228SOL    HW136146   0.640   4.352   8.992  0.6553 -1.2176  1.0234
 8228SOL    HW236147   0.756   4.365   9.075 -1.4838 -1.1895 -0.1570
 8229SOL     OW36148   2.918   3.258  13.890  0.4127 -0.1417 -0.4871
 8229SOL    HW136149   3.003   3.226  13.920  1.2124  1.5473 -0.9473
 8229SOL    HW236150   2.861   3.244  13.966  0.5437  0.2269 -0.3248
 8230SOL     OW36151   1.105   3.676   9.639 -0.0355 -0.3673 -0.0673
 8230SOL    HW136152   1.106   3.607   9.573 -0.7337  0.8721 -1.3845
 8230SOL    HW236153   1.021   3.721   9.635 -0.0506 -0.2751  1.2778
 8231SOL     OW36154   3.512   3.192   8.659  0.0132 -0.5041  0.5491
 8231SOL    HW136155   3.483   3.228   8.743 -0.1559 -1.6854  1.0012
 8231SOL    HW236156   3.586   3.249   8.638  0.1045 -1.4798 -1.7544
 8232SOL     OW36157   1.719   4.092   3.868  0.2076 -0.1138  0.4009
 8232SOL    HW136158   1.630   4.125   3.865  0.5620  0.7593 -0.2574
 8232SOL    HW236159   1.738   4.130   3.782  2.3222  0.2953  1.0601
 8233SOL     OW36160   3.165   0.675   2.204 -0.2713 -0.1551 -0.1510
 8233SOL    HW136161   3.138   0.678   2.112 -2.7906  0.9596  0.6065
 8233SOL    HW236162   3.257   0.651   2.204  0.1176  1.3475  0.0011
 8234SOL     OW36163   4.668   3.901  12.037  0.1222  0.7119  0.5713
 8234SOL    HW136164   0.022   3.923  11.984 -1.4055 -1.7252 -2.6605
 8234SOL    HW236165   4.616   3.862  11.966  0.8994 -0.8632  0.8499
 8235SOL     OW36166   1.724   2.625   2.398 -0.3345 -0.3447 -0.2654
 8235SOL    HW136167   1.652   2.581   2.444  0.7029 -0.3795  1.3439
 8235SOL    HW236168   1.666   2.694   2.365 -1.5266 -1.2700 -0.0892
 8236SOL     OW36169   1.359   3.605   5.505  0.1639  0.0566  0.0933
 8236SOL    HW136170   1.356   3.542   5.433 -1.5194  0.0909  0.1131
 8236SOL    HW236171   1.291   3.567   5.562 -0.0426 -2.0651 -1.5369
 8237SOL     OW36172   1.333   3.174   0.651 -0.1592 -0.1667  0.3656
 8237SOL    HW136173   1.335   3.254   0.599  1.5952  0.2332  1.0335
 8237SOL    HW236174   1.428   3.170   0.666  0.1964  0.4761 -1.6626
 8238SOL     OW36175   3.138   2.437   7.916  0.0693 -0.2893  0.2393
 8238SOL    HW136176   3.189   2.491   7.856 -0.5355  0.9092  0.8178
 8238SOL    HW236177   3.051   2.475   7.904  1.7014  3.4500  0.3745
 8239SOL     OW36178   4.589   4.546   4.480  0.6990  0.0726  0.0328
 8239SOL    HW136179   4.674   4.503   4.486 -0.4204 -2.3681 -1.4405
 8239SOL    HW236180   4.600   4.637   4.507 -0.8806  0.8021 -1.7752
 8240SOL     OW36181   0.811   0.932   3.479  0.4326  0.6349 -0.1935
 8240SOL    HW136182   0.732   0.888   3.512  1.5151  0.7658  2.6222
 8240SOL    HW236183   0.881   0.903   3.538  1.2816  0.4276 -1.3246
 8241SOL     OW36184   1.536   1.809   4.220  0.0089  0.8177  0.6220
 8241SOL    HW136185   1.477   1.734   4.208  2.3164 -0.9534  0.3831
 8241SOL    HW236186   1.528   1.831   4.313 -1.2213  0.7798  0.5233
 8242SOL     OW36187   0.557   4.239   4.066 -0.1853 -0.7919  0.0129
 8242SOL    HW136188   0.478   4.291   4.082  0.9817  1.1411 -0.6126
 8242SOL    HW236189   0.537   4.165   4.124 -1.9417 -0.8265 -0.6354
 8243SOL     OW36190   3.942   0.170  12.022  0.5821  0.2820 -0.0442
 8243SOL    HW136191   3.880   0.210  12.082  0.1691  1.6370 -1.3810
 8243SOL    HW236192   3.980   0.099  12.074 -0.1313 -1.7304 -2.2355
 8244SOL     OW36193   2.773   2.491   3.863  0.1936  0.7820 -0.1810
 8244SOL    HW136194   2.718   2.424   3.821  1.9677 -1.2029  0.6831
 8244SOL    HW236195   2.703   2.536   3.909  0.1063 -0.3431  0.7713
 8245SOL     OW36196   2.315   1.596   2.072  0.1984 -0.0789 -0.0201
 8245SOL    HW136197   2.319   1.609   1.977 -0.2604  3.0959  0.4131
 8245SOL    HW236198   2.232   1.555   2.097  0.2796 -1.2812 -1.7536
 8246SOL     OW36199   2.465   3.118  13.918  0.2077  0.0023  0.0042
 8246SOL    HW136200   2.371   3.099  13.918 -0.3707  2.7969 -1.1652
 8246SOL    HW236201   2.498   3.064  13.846 -0.8992 -0.9264  0.1894
 8247SOL     OW36202   2.271   1.148  12.174 -0.1188  0.0665 -0.2040
 8247SOL    HW136203   2.350   1.201  12.187 -3.1284  5.4145 -3.9819
 8247SOL    HW236204   2.316   1.073  12.136  0.8185  0.8563 -0.6687
 8248SOL     OW36205   4.008   3.381   7.745  0.2816 -0.4234  0.1535
 8248SOL    HW136206   3.944   3.327   7.792 -1.9053 -0.4656 -2.8489
 8248SOL    HW236207   4.082   3.392   7.805 -0.2487 -2.1372  1.1349
 8249SOL     OW36208   1.466   3.319   3.426  0.5355  0.2754 -0.1006
 8249SOL    HW136209   1.551   3.363   3.417  0.3801  0.9317  1.4771
 8249SOL    HW236210   1.481   3.235   3.382 -0.6062 -0.2531  0.5102
 8250SOL     OW36211   2.965   2.433  11.975 -0.4610 -0.4856  0.1927
 8250SOL    HW136212   3.056   2.406  11.966  0.0459  1.2689  0.1117
 8250SOL    HW236213   2.927   2.349  11.998 -3.3048  1.0297  1.0866
 8251SOL     OW36214   1.478   0.562   5.315 -0.6511 -0.1056  0.0382
 8251SOL    HW136215   1.502   0.503   5.243  1.3423 -1.1668  1.5710
 8251SOL    HW236216   1.527   0.644   5.302 -0.2572 -0.7432 -2.4826
 8252SOL     OW36217   0.053   1.991   8.444  0.4665 -0.5947  0.1671
 8252SOL    HW136218   0.145   2.019   8.438  0.3342 -0.3371 -0.6580
 8252SOL    HW236219   0.040   1.989   8.539  0.8292 -0.0189  0.2307
 8253SOL     OW36220   3.972   3.530   6.150  0.2198  0.8918  0.1624
 8253SOL    HW136221   3.904   3.473   6.113 -0.3562  1.4611  0.3434
 8253SOL    HW236222   3.925   3.613   6.140  0.0806  0.6646 -1.1049
 8254SOL     OW36223   1.998   3.106   5.553 -0.5309  0.3700  0.2584
 8254SOL    HW136224   2.057   3.146   5.617 -2.2660 -0.7769  2.5645
 8254SOL    HW236225   1.944   3.182   5.532  0.9421  1.2185 -0.4822
 8255SOL     OW36226   3.943   3.095   9.598 -0.4757  0.1831 -0.1112
 8255SOL    HW136227   3.995   3.132   9.670  0.7347  1.7587 -1.8172
 8255SOL    HW236228   3.974   3.004   9.598  0.1822  0.4123  0.0190
 8256SOL     OW36229   0.525   0.646  15.627  0.1654 -0.1372  0.2189
 8256SOL    HW136230   0.578   0.566  15.622 -0.4089 -0.5650  1.1191
 8256SOL    HW236231   0.571   0.695  15.558  1.5690 -1.5656  0.1294
 8257SOL     OW36232   4.582   4.464  16.536  0.0037 -0.2677 -0.4506
 8257SOL    HW136233   4.573   4.505  16.450 -2.1533  1.3564  0.5519
 8257SOL    HW236234   4.570   4.537  16.596 -0.2902 -0.4870 -0.2399
 8258SOL     OW36235   1.577   3.070   4.602  0.0084  0.0690  0.1207
 8258SOL    HW136236   1.623   3.093   4.682  2.7531 -0.3675 -1.3421
 8258SOL    HW236237   1.518   3.003   4.637  2.3622 -1.2851  1.4941
 8259SOL     OW36238   3.988   4.722   1.253  0.8587  0.0450  0.5410
 8259SOL    HW136239   4.011   0.072   1.311 -0.6203  2.2496 -1.6528
 8259SOL    HW236240   3.893   4.721   1.265  0.5219  0.7108 -2.1910
 8260SOL     OW36241   0.618   1.572   8.741 -0.2147  0.0420  0.2724
 8260SOL    HW136242   0.576   1.562   8.826  1.4263  0.2130  1.0926
 8260SOL    HW236243   0.679   1.645   8.750  1.0754 -1.1749  1.3543
 8261SOL     OW36244   2.551   4.114  15.655 -0.2895  0.2245  0.7505
 8261SOL    HW136245   2.612   4.163  15.600 -2.3923  2.1652  0.1548
 8261SOL    HW236246   2.471   4.161  15.631 -1.6177 -2.7282 -0.7059
 8262SOL     OW36247   2.593   0.886   2.196  0.7387 -0.3053  0.5707
 8262SOL    HW136248   2.687   0.868   2.202  1.3260  2.3194 -0.8648
 8262SOL    HW236249   2.571   0.945   2.124 -1.9135 -1.9427  0.0322
 8263SOL     OW36250   1.496   0.074   4.276 -0.0820 -0.0701 -0.4288
 8263SOL    HW136251   1.486   0.147   4.214 -1.3583 -0.5083 -0.7398
 8263SOL    HW236252   1.588   0.079   4.302  0.2987  0.2317 -1.8427
 8264SOL     OW36253   0.058   0.113   4.317  0.3169 -0.1168  0.2234
 8264SOL    HW136254   0.040   0.144   4.405 -2.6777 -2.5916  0.4682
 8264SOL    HW236255   0.116   0.039   4.334 -0.0687 -0.2638  0.8932
 8265SOL     OW36256   3.931   3.018   2.567  0.2875 -0.0010  1.0569
 8265SOL    HW136257   3.933   3.084   2.498 -1.8403 -0.0092  0.9960
 8265SOL    HW236258   3.985   2.952   2.523 -0.0446  0.1992  0.3462
 8266SOL     OW36259   3.255   3.193   6.252 -0.1803  0.7513 -0.2217
 8266SOL    HW136260   3.236   3.110   6.208  0.6787 -0.0616  0.9100
 8266SOL    HW236261   3.270   3.156   6.339 -1.3583 -1.2080 -0.8579
 8267SOL     OW36262   0.541   4.450   1.106  0.2188  0.2972  0.0783
 8267SOL    HW136263   0.546   4.369   1.054 -1.6545 -0.1007  0.5480
 8267SOL    HW236264   0.448   4.448   1.127  0.3498  0.8753  0.7185
 8268SOL     OW36265   3.296   3.429   6.787 -0.3793  0.7677 -0.0949
 8268SOL    HW136266   3.341   3.459   6.709  0.4835  2.0611  0.8967
 8268SOL    HW236267   3.359   3.456   6.854  0.7367 -1.6485 -0.1684
 8269SOL     OW36268   4.357   2.517   2.048  0.0806  0.0552  0.1747
 8269SOL    HW136269   4.264   2.531   2.061 -0.1600  0.1311 -1.5765
 8269SOL    HW236270   4.370   2.497   1.955  1.4951 -2.6941  0.9466
 8270SOL     OW36271   0.562   4.270  14.404 -0.2134  0.3295 -0.2234
 8270SOL    HW136272   0.581   4.187  14.447 -0.0946  1.3644  1.7117
 8270SOL    HW236273   0.576   4.242  14.313  1.0087  1.7815 -0.4941
 8271SOL     OW36274   1.360   1.747   2.042  1.4916  0.1862 -0.4532
 8271SOL    HW136275   1.376   1.698   1.961 -0.8067  0.1829 -0.8932
 8271SOL    HW236276   1.425   1.815   2.023  1.3322  0.4260 -0.1337
 8272SOL     OW36277   4.304   4.394   1.743  0.0720 -0.2230 -0.5799
 8272SOL    HW136278   4.383   4.415   1.792  0.3241 -0.6208 -0.8208
 8272SOL    HW236279   4.339   4.412   1.656  0.9860  0.8255  0.0115
 8273SOL     OW36280   3.346   0.720   2.658  0.0289  0.4912 -0.6495
 8273SOL    HW136281   3.416   0.776   2.626  1.5342 -1.5030 -0.8421
 8273SOL    HW236282   3.384   0.633   2.644 -1.0012  0.2010 -1.6740
 8274SOL     OW36283   2.676   3.847   4.477 -0.0806 -0.5204  0.2684
 8274SOL    HW136284   2.629   3.926   4.501  1.7742  0.7686 -0.3802
 8274SOL    HW236285   2.765   3.851   4.511  0.5904 -1.2324 -1.3790
 8275SOL     OW36286   2.818   4.589   5.633 -0.2255 -0.0038  0.5931
 8275SOL    HW136287   2.896   4.538   5.610  0.0623 -0.0789  1.7451
 8275SOL    HW236288   2.820   4.589   5.729 -3.6261  0.3280  0.6519
 8276SOL     OW36289   2.257   2.954   1.499  0.2732  0.0013  0.0051
 8276SOL    HW136290   2.238   3.032   1.551 -0.0352 -0.8984  1.2297
 8276SOL    HW236291   2.308   2.987   1.425  0.7991 -1.3670 -0.2448
 8277SOL     OW36292   1.945   2.066  17.328 -0.2961 -0.4316 -0.6148
 8277SOL    HW136293   1.988   1.991  17.368 -2.3951 -1.4023 -0.1905
 8277SOL    HW236294   1.864   2.023  17.300 -0.2123  1.3768 -3.6378
 8278SOL     OW36295   0.664   4.483   5.532 -0.2357  0.2379 -0.0836
 8278SOL    HW136296   0.629   4.570   5.510 -1.1748  0.4000  2.0835
 8278SOL    HW236297   0.623   4.470   5.617 -2.1319 -0.9093 -1.1845
 8279SOL     OW36298   0.744   4.499   5.000  0.1257  0.2908  0.6070
 8279SOL    HW136299   0.678   4.541   4.945 -0.2833 -0.2726  0.6660
 8279SOL    HW236300   0.727   4.409   4.973 -1.1164  0.7473 -0.1280
 8280SOL     OW36301   3.955   1.265  14.501 -0.0361  0.2493  0.3661
 8280SOL    HW136302   3.905   1.189  14.472 -0.5541  0.4408  0.7553
 8280SOL    HW236303   3.889   1.331  14.522  0.6636  0.6115  1.3942
 8281SOL     OW36304   1.371   4.093  16.280 -0.3796  0.6895  0.3497
 8281SOL    HW136305   1.376   4.143  16.199 -0.0790  3.1231  1.8768
 8281SOL    HW236306   1.276   4.078  16.283 -0.3744  0.3871 -1.0080
 8282SOL     OW36307   1.665   2.150  16.845  0.4147  0.2026 -0.1371
 8282SOL    HW136308   1.671   2.228  16.791 -2.1464 -0.4004 -1.3132
 8282SOL    HW236309   1.723   2.160  16.920 -1.5284 -1.1757  1.5471
 8283SOL     OW36310   3.763   2.397   3.398  0.5810  0.0167 -0.2981
 8283SOL    HW136311   3.768   2.306   3.426 -1.9954  0.5802  1.9707
 8283SOL    HW236312   3.678   2.424   3.432  1.0810  1.0529  0.1579
 8284SOL     OW36313   4.060   2.700   5.176 -0.5497 -0.3012 -0.5996
 8284SOL    HW136314   3.973   2.719   5.140 -0.9348  0.1363  0.5440
 8284SOL    HW236315   4.105   2.784   5.178 -1.8501  0.3213  3.2147
 8285SOL     OW36316   0.543   4.547   2.473 -0.5571 -0.1737 -0.3029
 8285SOL    HW136317   0.580   4.466   2.507 -1.3898 -1.1185 -1.6412
 8285SOL    HW236318   0.605   4.611   2.507 -1.1088  0.6850 -0.9076
 8286SOL     OW36319   1.756   2.226   9.072 -0.2528 -0.5117 -0.3402
 8286SOL    HW136320   1.716   2.143   9.099 -1.2692 -0.0344 -0.3673
 8286SOL    HW236321   1.834   2.193   9.027 -1.2854 -0.1585 -2.4142
 8287SOL     OW36322   1.411   4.112  11.550 -0.3438 -0.1872  0.1892
 8287SOL    HW136323   1.452   4.063  11.622 -2.4133 -0.6009  1.0852
 8287SOL    HW236324   1.403   4.047  11.481 -1.7214 -0.0830  0.2556
 8288SOL     OW36325   3.215   1.753   2.525 -0.6496  0.3112  0.1904
 8288SOL    HW136326   3.166   1.785   2.449  0.5457  0.6270 -0.4406
 8288SOL    HW236327   3.243   1.666   2.498 -1.0065  0.7362 -1.5285
 8289SOL     OW36328   2.639   1.955   0.681  0.6201  0.0356  0.1893
 8289SOL    HW136329   2.593   2.023   0.632 -1.0174 -0.0876  1.5539
 8289SOL    HW236330   2.590   1.877   0.656 -0.3747  0.2191  1.5975
 8290SOL     OW36331   0.132   2.171  11.944 -0.2183 -0.2185  0.2444
 8290SOL    HW136332   0.112   2.234  11.875  0.3637  2.3088  2.3779
 8290SOL    HW236333   0.062   2.186  12.007  0.1651  2.1334  0.1069
 8291SOL     OW36334   4.057   3.075   7.715 -0.2180  0.2160 -0.0705
 8291SOL    HW136335   4.052   3.001   7.654  0.4876  0.5576 -0.5433
 8291SOL    HW236336   4.056   3.147   7.652 -3.0913 -0.4837 -0.8065
 8292SOL     OW36337   3.827   2.809  17.272  0.0412  0.3542  0.1877
 8292SOL    HW136338   3.822   2.729  17.323  0.9169  1.6728  2.3274
 8292SOL    HW236339   3.782   2.871  17.329  0.0563 -0.6448  1.2848
 8293SOL     OW36340   0.805   3.045   4.598 -0.5097 -0.2468  0.1298
 8293SOL    HW136341   0.780   3.129   4.560  1.2369 -1.4483 -3.8036
 8293SOL    HW236342   0.781   2.987   4.525  0.9833  1.3503 -1.6601
 8294SOL     OW36343   0.178   0.361   2.312 -0.5449  0.4614  0.4135
 8294SOL    HW136344   0.171   0.446   2.269 -0.9994  0.0780 -0.2623
 8294SOL    HW236345   0.183   0.391   2.403  1.0418 -1.3563  0.9234
 8295SOL     OW36346   1.981   1.953   9.188  0.1811  0.1235  0.2770
 8295SOL    HW136347   1.931   1.916   9.115 -1.4172 -0.1915  1.5524
 8295SOL    HW236348   2.037   1.879   9.211  1.7341  0.8793 -1.0447
 8296SOL     OW36349   2.416   2.200  12.872 -0.0552 -0.2761 -0.2609
 8296SOL    HW136350   2.502   2.236  12.848 -0.9526  1.7709 -0.3843
 8296SOL    HW236351   2.450   2.132  12.931 -0.6722 -1.8521 -1.7140
 8297SOL     OW36352   0.389   3.158   5.287  0.3033 -0.6161  0.6682
 8297SOL    HW136353   0.337   3.152   5.367  0.6068  3.9629  1.2041
 8297SOL    HW236354   0.424   3.071   5.272  2.8957  0.2503  1.7975
 8298SOL     OW36355   4.642   1.866   6.691 -0.5192 -0.0645  0.6112
 8298SOL    HW136356   4.692   1.907   6.761 -0.7263  1.3919 -0.0886
 8298SOL    HW236357   4.642   1.936   6.626 -1.7006  0.3297  1.0312
 8299SOL     OW36358   3.046   2.518  11.067 -0.1697  0.0136 -0.0714
 8299SOL    HW136359   3.038   2.613  11.071  1.3205  0.1942 -1.5874
 8299SOL    HW236360   3.067   2.518  10.973 -1.2715 -0.2158 -0.3286
 8300SOL     OW36361   0.365   3.540   9.220  0.0321 -0.3006  0.3358
 8300SOL    HW136362   0.401   3.529   9.132 -2.5958 -0.5783 -0.7285
 8300SOL    HW236363   0.444   3.505   9.261 -0.0893  0.9310  1.6104
 8301SOL     OW36364   1.423   2.100  15.905 -0.1569  0.1071 -0.1474
 8301SOL    HW136365   1.502   2.130  15.950  0.0000 -2.2550  1.1827
 8301SOL    HW236366   1.351   2.128  15.962  0.3138  2.1871 -0.5885
 8302SOL     OW36367   1.372   3.351  17.023  0.3785  0.5547 -0.2971
 8302SOL    HW136368   1.395   3.433  16.979 -3.3269  1.0239 -1.3261
 8302SOL    HW236369   1.350   3.389  17.108 -1.5832  0.3623 -0.7234
 8303SOL     OW36370   3.463   0.967   4.003 -0.0854 -0.0411 -0.0483
 8303SOL    HW136371   3.470   0.915   3.923 -0.4208 -1.8503  1.0772
 8303SOL    HW236372   3.472   0.894   4.065 -0.6261 -1.5699 -1.7707
 8304SOL     OW36373   3.350   1.646   6.754 -0.2524 -0.5864  0.6234
 8304SOL    HW136374   3.422   1.593   6.788 -1.1995 -0.0385  3.5207
 8304SOL    HW236375   3.275   1.590   6.733 -0.1186 -0.3609 -0.4346
 8305SOL     OW36376   1.246   3.023  10.245 -0.1214 -0.1773  0.5109
 8305SOL    HW136377   1.153   3.040  10.234 -0.2737  0.3153  2.5659
 8305SOL    HW236378   1.277   3.045  10.157  0.8385  0.3600  0.9771
 8306SOL     OW36379   3.074   0.606   3.629 -0.0212 -0.0463 -0.3608
 8306SOL    HW136380   3.000   0.574   3.682  1.8321 -0.6667  1.8373
 8306SOL    HW236381   3.024   0.590   3.549 -0.4703 -0.7437  0.0595
 8307SOL     OW36382   4.113   2.898   4.875  0.2061 -0.3304  0.4963
 8307SOL    HW136383   4.060   2.820   4.888 -1.2396  0.4556 -0.6097
 8307SOL    HW236384   4.089   2.926   4.787  3.5049  0.9262 -0.0084
 8308SOL     OW36385   2.474   2.864   3.239  0.2820 -0.3439 -0.3024
 8308SOL    HW136386   2.514   2.778   3.224  0.2143 -0.2346 -1.1146
 8308SOL    HW236387   2.431   2.888   3.157 -1.0986  1.3625  0.9207
 8309SOL     OW36388   1.461   1.914  10.020  0.0153  0.1309  0.3773
 8309SOL    HW136389   1.480   1.864   9.941 -1.3212  0.4581 -0.1431
 8309SOL    HW236390   1.378   1.878  10.052  0.9765 -1.1621  1.4318
 8310SOL     OW36391   0.992   0.439   3.871 -0.1438 -0.5365 -0.1193
 8310SOL    HW136392   1.023   0.455   3.960  0.1325 -2.1756  0.0877
 8310SOL    HW236393   0.897   0.436   3.879 -0.3276  0.6032 -1.8452
 8311SOL     OW36394   2.706   4.181  16.062  0.2822 -0.9803  0.3484
 8311SOL    HW136395   2.743   4.268  16.048 -0.3362 -0.8297 -0.3325
 8311SOL    HW236396   2.617   4.211  16.082  0.4392  0.2897 -0.8754
 8312SOL     OW36397   3.461   3.773  15.739 -0.0415  0.2301 -0.1180
 8312SOL    HW136398   3.441   3.726  15.658 -2.8187  1.7061 -0.2774
 8312SOL    HW236399   3.529   3.829  15.700  0.4227 -0.4996 -0.3551
 8313SOL     OW36400   1.227   3.331   7.906 -0.2449  0.5389 -0.0041
 8313SOL    HW136401   1.214   3.379   7.988  1.2623  1.0685 -0.0722
 8313SOL    HW236402   1.321   3.338   7.893 -0.1034 -0.7631  0.3402
 8314SOL     OW36403   0.216   2.877   6.186  0.1484 -0.1957  0.1435
 8314SOL    HW136404   0.252   2.950   6.237  0.1514  0.3167 -0.5930
 8314SOL    HW236405   0.140   2.859   6.242  0.8362  0.5663  1.3168
 8315SOL     OW36406   1.847   4.286   3.310  0.0896  0.2330 -0.1264
 8315SOL    HW136407   1.752   4.286   3.297 -0.1198  3.3009  1.6053
 8315SOL    HW236408   1.860   4.193   3.329 -0.4620  0.3281  0.7036
 8316SOL     OW36409   2.867   0.919   5.125 -0.2954  0.1090 -0.8935
 8316SOL    HW136410   2.824   1.002   5.149  1.8219  0.8494  0.3408
 8316SOL    HW236411   2.799   0.857   5.149 -0.7050  0.8682 -0.0653
 8317SOL     OW36412   2.112   1.875   2.865 -0.1181  0.4565  0.6458
 8317SOL    HW136413   2.148   1.917   2.787 -2.3265 -1.7835 -1.5920
 8317SOL    HW236414   2.175   1.803   2.869 -2.0565 -1.3961 -1.7582
 8318SOL     OW36415   1.202   4.586   3.310  0.2915 -0.4282  0.2735
 8318SOL    HW136416   1.241   4.565   3.225  0.3923 -1.4542  0.5664
 8318SOL    HW236417   1.280   4.618   3.356  0.1403 -1.5817  1.3382
 8319SOL     OW36418   0.082   1.441   3.020  1.0618  0.0035 -0.3779
 8319SOL    HW136419   0.159   1.497   3.026  1.5051 -0.7173  0.4956
 8319SOL    HW236420   0.021   1.507   2.984 -0.5434 -0.0263  2.3374
 8320SOL     OW36421   2.621   4.349   8.180  0.2079  0.0898  0.0034
 8320SOL    HW136422   2.559   4.276   8.174  1.0103 -0.6464  0.7416
 8320SOL    HW236423   2.644   4.352   8.273  0.1861 -0.5049  0.0261
 8321SOL     OW36424   0.888   1.607  13.065  0.2857  0.6038 -0.0059
 8321SOL    HW136425   0.930   1.521  13.072 -2.6049 -0.8370 -0.4635
 8321SOL    HW236426   0.922   1.655  13.141  0.6420  0.2522  0.0563
 8322SOL     OW36427   1.962   2.394   0.891 -0.5642 -0.2564  0.2131
 8322SOL    HW136428   1.884   2.340   0.906  0.6565 -2.0421  0.2021
 8322SOL    HW236429   1.939   2.439   0.809  0.6674 -1.0139 -0.5451
 8323SOL     OW36430   3.555   0.735  16.662  0.2725  0.1066  0.0779
 8323SOL    HW136431   3.634   0.751  16.713  0.8765 -2.1999 -0.1228
 8323SOL    HW236432   3.593   0.760  16.577  0.2777 -0.0403  0.0366
 8324SOL     OW36433   0.745   0.727   4.011  0.0670  0.2059 -0.0185
 8324SOL    HW136434   0.657   0.738   4.048  0.5140  0.9657  0.8323
 8324SOL    HW236435   0.753   0.632   4.006  3.2498  0.4006  1.5194
 8325SOL     OW36436   3.693   0.675   7.943  0.0189  0.0518  0.2507
 8325SOL    HW136437   3.668   0.766   7.955 -0.2610  0.0929 -0.6285
 8325SOL    HW236438   3.617   0.640   7.896  0.6504 -0.3808 -0.4507
 8326SOL     OW36439   1.418   1.787   6.286  0.6103 -0.0973  0.0077
 8326SOL    HW136440   1.506   1.803   6.320  1.4078 -0.0222 -2.0994
 8326SOL    HW236441   1.399   1.869   6.241 -0.5933  0.6587  1.8623
 8327SOL     OW36442   1.737   3.590   6.398  0.5203  0.0771 -0.1901
 8327SOL    HW136443   1.712   3.498   6.388  0.6230  0.1427 -1.0609
 8327SOL    HW236444   1.828   3.578   6.423  0.4524 -1.5624 -0.6805
 8328SOL     OW36445   2.051   3.586   6.513  0.1080 -0.0119  0.0464
 8328SOL    HW136446   2.146   3.581   6.529  0.1641  2.0873  0.2817
 8328SOL    HW236447   2.030   3.660   6.569  0.6785 -1.0654  1.6556
 8329SOL     OW36448   4.294   0.490   0.212  0.4895 -0.9448 -0.2618
 8329SOL    HW136449   4.242   0.566   0.241  1.5891 -1.1177  2.1112
 8329SOL    HW236450   4.247   0.415   0.247  1.2883 -0.0916  2.6235
 8330SOL     OW36451   3.754   2.094  10.150 -0.1992  0.2145 -0.2424
 8330SOL    HW136452   3.709   2.034  10.091 -0.9948  0.6845 -0.1134
 8330SOL    HW236453   3.734   2.052  10.234 -0.9901 -0.7731 -0.9305
 8331SOL     OW36454   3.358   3.303   9.145 -0.1874  0.8599  0.1194
 8331SOL    HW136455   3.432   3.254   9.180 -0.3099  0.6168  0.0387
 8331SOL    HW236456   3.350   3.270   9.055  0.9529  1.5762 -0.2473
 8332SOL     OW36457   2.765   3.783   9.755 -0.1315 -0.1484  0.0298
 8332SOL    HW136458   2.842   3.828   9.721 -0.4037 -1.0185 -1.7330
 8332SOL    HW236459   2.796   3.696   9.781 -0.6081 -0.6268 -0.9953
 8333SOL     OW36460   2.260   3.568  10.365  0.1456  0.0704  0.0148
 8333SOL    HW136461   2.202   3.578  10.290  2.4779 -0.3377 -1.8543
 8333SOL    HW236462   2.261   3.657  10.398  0.4324 -0.3693  1.2061
 8334SOL     OW36463   0.437   2.428   5.289 -0.4360 -0.8852  0.1511
 8334SOL    HW136464   0.386   2.398   5.214  3.3303 -4.0451 -1.1567
 8334SOL    HW236465   0.450   2.348   5.340  1.2816  0.1482  1.3000
 8335SOL     OW36466   2.713   2.990   4.243  0.0471 -0.4780  0.1610
 8335SOL    HW136467   2.703   3.051   4.170  0.5512  0.9296  1.2816
 8335SOL    HW236468   2.807   2.972   4.244 -0.0139 -0.8916 -0.8723
 8336SOL     OW36469   4.014   4.433   4.759 -0.1812  0.0932  0.2887
 8336SOL    HW136470   3.918   4.428   4.752 -0.3340 -0.4752  2.8406
 8336SOL    HW236471   4.034   4.424   4.666 -0.3545 -1.8381  0.4244
 8337SOL     OW36472   1.256   4.201   3.346  0.1703 -0.5537 -0.3408
 8337SOL    HW136473   1.161   4.199   3.338  0.0868  1.8861  0.1706
 8337SOL    HW236474   1.252   4.260   3.421 -2.3179  0.1921 -1.0558
 8338SOL     OW36475   4.207   1.554   5.834  0.5716 -0.2497  0.3958
 8338SOL    HW136476   4.221   1.618   5.904 -0.9765  0.1611  0.3330
 8338SOL    HW236477   4.260   1.483   5.872  0.3277 -1.7356 -2.0452
 8339SOL     OW36478   1.745   2.185   2.608  0.6265 -0.2494  0.0231
 8339SOL    HW136479   1.810   2.223   2.667 -0.4161 -0.0667  1.0572
 8339SOL    HW236480   1.761   2.093   2.626 -0.2843 -0.5653 -0.7663
 8340SOL     OW36481   0.102   4.551   9.802 -0.2945  0.2151  0.4527
 8340SOL    HW136482   0.148   4.490   9.746 -0.8663 -1.6193  1.9574
 8340SOL    HW236483   0.013   4.531   9.773 -0.2135 -1.2379  1.1949
 8341SOL     OW36484   1.243   2.215  14.770  0.9796  0.2152 -0.1324
 8341SOL    HW136485   1.248   2.125  14.801  1.6427  0.8811  1.7212
 8341SOL    HW236486   1.150   2.225  14.750  1.5774 -0.0311 -3.0077
 8342SOL     OW36487   0.788   3.518  12.972  0.4565 -0.7685 -0.5746
 8342SOL    HW136488   0.741   3.444  12.935 -1.2042  0.9546 -1.8981
 8342SOL    HW236489   0.870   3.476  12.999 -2.2105 -3.5142  3.1960
 8343SOL     OW36490   3.482   2.100   6.087  0.1645 -0.4433  0.4077
 8343SOL    HW136491   3.549   2.126   6.150 -0.2679  1.4390  0.0977
 8343SOL    HW236492   3.409   2.067   6.140 -0.7855  0.6465 -0.2174
 8344SOL     OW36493   4.667   3.586   8.103  0.0275  0.5752  0.1813
 8344SOL    HW136494   4.650   3.626   8.018  1.0891  0.4642 -0.0845
 8344SOL    HW236495   4.651   3.653   8.169  3.4665  0.4767  1.1210
 8345SOL     OW36496   2.794   0.528  13.184 -0.1162  0.1358 -0.0201
 8345SOL    HW136497   2.850   0.599  13.154  0.9379 -0.4564  0.5572
 8345SOL    HW236498   2.801   0.541  13.278  0.2539  1.2817 -0.2082
 8346SOL     OW36499   1.626   3.748   3.847  0.5082 -0.1233 -0.2341
 8346SOL    HW136500   1.614   3.670   3.793 -1.7042  0.9663 -1.2862
 8346SOL    HW236501   1.585   3.818   3.797  1.0605  2.4424  2.8851
 8347SOL     OW36502   3.568   4.212   0.000 -0.2057 -0.1023 -0.3246
 8347SOL    HW136503   3.515   4.135   0.022  0.3467 -0.2618  0.4475
 8347SOL    HW236504   3.626   4.224   0.075  0.2552  0.5326 -0.7896
 8348SOL     OW36505   2.124   2.195   5.429  0.4190  0.1274  0.2390
 8348SOL    HW136506   2.047   2.191   5.373 -0.3320  0.4021  1.2645
 8348SOL    HW236507   2.189   2.225   5.365 -1.3806  1.5284 -0.9109
 8349SOL     OW36508   0.517   4.029  15.037  0.3585  0.2967  0.3025
 8349SOL    HW136509   0.588   3.977  14.998  1.0080  1.2821  0.1805
 8349SOL    HW236510   0.555   4.047  15.123  1.5157 -1.6798  0.2056
 8350SOL     OW36511   4.520   4.527   6.039 -0.5178  0.3268  0.2930
 8350SOL    HW136512   4.428   4.515   6.066 -0.3350  1.8172  1.5415
 8350SOL    HW236513   4.556   4.563   6.119  1.2826  2.5086 -1.5048
 8351SOL     OW36514   0.071   3.835   8.215  0.4148  0.1303  0.4348
 8351SOL    HW136515   0.034   3.868   8.296  0.1908 -0.1505  0.4479
 8351SOL    HW236516   0.162   3.815   8.235  1.3300  4.0723  0.1211
 8352SOL     OW36517   0.726   1.732  17.105 -0.9319  0.0571  0.3332
 8352SOL    HW136518   0.715   1.815  17.058 -0.5853  0.5950  1.1908
 8352SOL    HW236519   0.811   1.702  17.074 -1.2295  2.6500 -2.9017
 8353SOL     OW36520   0.308   0.213  10.736 -0.5257 -0.0849  0.0975
 8353SOL    HW136521   0.244   0.230  10.805  0.9263  1.6365  1.0152
 8353SOL    HW236522   0.360   0.293  10.743 -2.3685  0.9710  1.7480
 8354SOL     OW36523   3.977   2.849  12.853  0.3903  0.2098  0.5157
 8354SOL    HW136524   3.908   2.902  12.814 -0.2987  0.0143  1.4496
 8354SOL    HW236525   3.922   2.781  12.893  1.8411 -1.6954 -0.7305
 8355SOL     OW36526   0.521   2.114   1.461  0.1884  0.1363 -0.1560
 8355SOL    HW136527   0.560   2.134   1.547  0.2015  1.8908 -0.5677
 8355SOL    HW236528   0.553   2.179   1.398 -1.4009  0.6784 -0.4023
 8356SOL     OW36529   4.631   2.369   7.598  0.8212  0.2069  0.5786
 8356SOL    HW136530   4.665   2.314   7.669 -1.3091 -1.3264  0.4237
 8356SOL    HW236531   4.585   2.434   7.652 -0.3678 -1.0240  1.0629
 8357SOL     OW36532   4.570   4.242   6.868  0.6598 -0.2285  0.1106
 8357SOL    HW136533   4.491   4.289   6.841  0.3826 -1.4746 -1.2673
 8357SOL    HW236534   4.622   4.250   6.788 -1.0956 -0.1738 -1.0330
 8358SOL     OW36535   2.400   4.713  10.517 -0.3085  0.3491  0.0030
 8358SOL    HW136536   2.308   4.704  10.541  0.0462  0.1769  1.3356
 8358SOL    HW236537   2.403   0.063  10.456  0.8301  0.5962  0.3584
 8359SOL     OW36538   0.323   3.573   6.107  0.0582 -0.0542 -0.2748
 8359SOL    HW136539   0.288   3.488   6.134  2.5703 -0.8395  0.5600
 8359SOL    HW236540   0.415   3.546   6.099  0.2843  0.2403  1.2996
 8360SOL     OW36541   2.493   0.278   8.765 -0.4483  0.3255  0.2569
 8360SOL    HW136542   2.565   0.281   8.701  1.1954 -0.6059  2.0662
 8360SOL    HW236543   2.548   0.260   8.841 -0.6134  1.0442  0.5452
 8361SOL     OW36544   4.292   3.711   2.138 -0.3602 -0.0005  0.0321
 8361SOL    HW136545   4.224   3.676   2.196  1.3402 -0.7803  1.5548
 8361SOL    HW236546   4.375   3.674   2.167  0.1908  2.5957  1.7940
 8362SOL     OW36547   4.018   3.902  16.561  0.3532  0.0273 -0.0917
 8362SOL    HW136548   4.079   3.940  16.497 -2.5014 -1.1008 -3.4187
 8362SOL    HW236549   3.943   3.961  16.567  0.3499 -0.0938  0.9823
 8363SOL     OW36550   4.040   1.537   9.939  0.1702  0.0317  0.1826
 8363SOL    HW136551   4.106   1.550   9.870  0.7235  2.3285  1.1511
 8363SOL    HW236552   4.068   1.609   9.995  2.6650 -1.5146  0.9225
 8364SOL     OW36553   4.571   2.157  10.778  0.2273  0.0544 -0.0092
 8364SOL    HW136554   4.601   2.193  10.695 -0.7141  1.9390  0.4775
 8364SOL    HW236555   4.647   2.165  10.836  0.5572  0.4218 -0.4976
 8365SOL     OW36556   3.008   2.149  13.770 -0.0163  0.2813  0.1794
 8365SOL    HW136557   2.959   2.073  13.739 -2.8277  1.3277  2.0946
 8365SOL    HW236558   3.093   2.131  13.728 -0.6145 -0.1720 -0.8326
 8366SOL     OW36559   3.902   4.177   6.531 -0.3386  0.1319  0.1141
 8366SOL    HW136560   3.907   4.124   6.611 -0.3731  1.3380  0.9181
 8366SOL    HW236561   3.970   4.138   6.476  0.5478 -0.5260  1.6791
 8367SOL     OW36562   0.995   3.184  16.057 -0.1149  0.3629  0.3996
 8367SOL    HW136563   0.928   3.162  15.993  2.6517 -1.6174 -1.7943
 8367SOL    HW236564   1.068   3.159  16.001  0.2466 -0.8513  1.4252
 8368SOL     OW36565   4.510   3.100   6.833  0.0054  0.1724 -0.4737
 8368SOL    HW136566   4.423   3.125   6.800  0.5928  1.9009 -0.7366
 8368SOL    HW236567   4.526   3.183   6.879 -0.5608 -0.0928  0.2015
 8369SOL     OW36568   0.814   3.246   0.851  0.0632 -0.0893 -0.3758
 8369SOL    HW136569   0.908   3.227   0.854 -0.3934 -2.1143  1.2200
 8369SOL    HW236570   0.818   3.319   0.913 -3.7121 -1.9428  2.0784
 8370SOL     OW36571   1.573   4.478  14.493 -0.3641 -0.4221 -0.5000
 8370SOL    HW136572   1.557   4.386  14.514 -1.5854 -0.0388  0.2610
 8370SOL    HW236573   1.664   4.458  14.468  1.0143  1.5649  3.0683
 8371SOL     OW36574   4.036   1.316   5.341 -0.4993  0.5928 -0.3810
 8371SOL    HW136575   4.111   1.299   5.284 -1.2021 -1.2415 -0.7615
 8371SOL    HW236576   4.035   1.412   5.335  1.7567  0.6833  0.7137
 8372SOL     OW36577   2.147   0.627   6.548  0.3467 -0.1964 -0.4400
 8372SOL    HW136578   2.196   0.549   6.521  1.0353  0.8802 -2.3245
 8372SOL    HW236579   2.203   0.661   6.618  0.4611 -2.9062  0.7902
 8373SOL     OW36580   3.107   0.777  10.129  0.5311 -0.5036  0.0105
 8373SOL    HW136581   3.202   0.770  10.124  0.3530 -1.6503 -1.6613
 8373SOL    HW236582   3.087   0.683  10.132  0.6717 -0.5232  0.2870
 8374SOL     OW36583   0.446   0.464  14.894  0.5584  0.2924 -0.2982
 8374SOL    HW136584   0.427   0.554  14.919  1.9375  0.5368 -0.1111
 8374SOL    HW236585   0.390   0.455  14.817  0.7750 -0.5569 -0.3621
 8375SOL     OW36586   2.438   2.711   1.845  0.0844  0.2840  0.0477
 8375SOL    HW136587   2.494   2.646   1.803 -0.1510  0.5648 -0.7017
 8375SOL    HW236588   2.484   2.731   1.927 -1.5874  1.9179  0.5763
 8376SOL     OW36589   2.772   3.029   0.767 -0.3257 -0.8994  0.1956
 8376SOL    HW136590   2.702   3.095   0.768 -0.1820 -0.7665  1.1079
 8376SOL    HW236591   2.851   3.083   0.762 -0.4667 -0.5929  1.3036
 8377SOL     OW36592   1.010   0.042  10.422 -0.3279 -0.8825  0.2050
 8377SOL    HW136593   1.101   0.049  10.449 -0.4123 -0.8345  0.4822
 8377SOL    HW236594   1.007   0.052  10.327  1.6827 -0.1967  0.2194
 8378SOL     OW36595   4.555   0.603  15.893  0.0468  0.5580 -0.0550
 8378SOL    HW136596   4.605   0.521  15.886  0.9492  1.0822  0.2730
 8378SOL    HW236597   4.555   0.623  15.799 -1.7533 -1.0427 -0.4091
 8379SOL     OW36598   3.240   1.143   4.096 -0.2903  0.6982  0.6829
 8379SOL    HW136599   3.315   1.086   4.079  0.6232  1.0409  3.4756
 8379SOL    HW236600   3.182   1.133   4.021  0.4841 -2.0283  0.4529
 8380SOL     OW36601   3.183   0.214   9.463 -0.0692 -0.1941 -0.0586
 8380SOL    HW136602   3.122   0.187   9.395  0.9449 -0.5933 -0.8096
 8380SOL    HW236603   3.240   0.271   9.412 -1.4973  1.0380 -0.2642
 8381SOL     OW36604   1.515   3.250   5.481  0.1985  0.0136 -0.7790
 8381SOL    HW136605   1.479   3.263   5.568  1.8403 -0.7803  0.0254
 8381SOL    HW236606   1.472   3.166   5.466  1.4074 -0.9024  0.8802
 8382SOL     OW36607   0.540   0.977   1.819  0.3033 -0.3040 -0.8157
 8382SOL    HW136608   0.528   0.906   1.882  2.3845 -0.2629 -0.3823
 8382SOL    HW236609   0.456   1.022   1.810 -0.7677 -1.8035  1.4872
 8383SOL     OW36610   4.272   3.640   2.773 -0.0099  0.0036 -0.2534
 8383SOL    HW136611   4.281   3.555   2.816 -1.1508 -0.4699 -0.9384
 8383SOL    HW236612   4.366   3.661   2.769  0.5080 -2.4925 -1.8286
 8384SOL     OW36613   2.311   0.299   9.907 -0.0346  0.0446 -0.5168
 8384SOL    HW136614   2.381   0.358   9.878  1.0377 -1.2795 -0.6112
 8384SOL    HW236615   2.312   0.223   9.850 -1.2544  0.7867 -1.5388
 8385SOL     OW36616   2.177   0.330   5.252 -0.2985  0.1613 -0.1452
 8385SOL    HW136617   2.106   0.381   5.214  0.6333  2.2959  0.9968
 8385SOL    HW236618   2.153   0.250   5.205  2.2248 -1.5898  1.4978
 8386SOL     OW36619   1.970   1.111   7.645 -0.8181 -0.1108  0.1352
 8386SOL    HW136620   2.040   1.085   7.705 -0.0291 -1.1678 -1.2438
 8386SOL    HW236621   1.927   1.025   7.639  0.0344 -0.3947 -1.7829
 8387SOL     OW36622   3.963   1.930   5.174 -0.8164 -0.5497  0.0977
 8387SOL    HW136623   3.965   1.948   5.080 -0.0313 -0.3951  0.1414
 8387SOL    HW236624   3.876   1.892   5.185 -1.1426 -0.3489 -1.7665
 8388SOL     OW36625   1.618   0.831   5.370 -0.1453  0.5766 -0.1041
 8388SOL    HW136626   1.540   0.863   5.416 -2.1524 -0.4776 -2.7788
 8388SOL    HW236627   1.660   0.915   5.354 -0.8234  1.5785  3.3757
 8389SOL     OW36628   2.364   3.675   2.764 -0.4808  0.1353  0.1829
 8389SOL    HW136629   2.330   3.760   2.737  0.8829  0.4635 -0.5099
 8389SOL    HW236630   2.386   3.694   2.856 -0.1659 -0.4253  0.2188
 8390SOL     OW36631   3.937   0.499  15.198 -0.6548 -0.3829  0.3774
 8390SOL    HW136632   3.969   0.522  15.286  2.5230 -1.5680 -0.4942
 8390SOL    HW236633   3.842   0.502  15.214 -0.7408  0.1793 -0.2389
 8391SOL     OW36634   3.186   1.430   5.691  0.0334  0.1129 -0.1143
 8391SOL    HW136635   3.277   1.450   5.670 -0.2113  0.0638 -1.2064
 8391SOL    HW236636   3.199   1.416   5.785  1.3913  2.9895  0.1231
 8392SOL     OW36637   0.574   3.155   7.007 -0.3725 -0.7854 -0.5832
 8392SOL    HW136638   0.535   3.174   7.093  0.9047 -3.8384  0.6588
 8392SOL    HW236639   0.533   3.071   6.985 -0.4856 -0.3114 -2.2228
 8393SOL     OW36640   2.625   1.225   9.570 -0.4454 -0.0392  0.0711
 8393SOL    HW136641   2.539   1.233   9.530 -0.3707  1.8863  0.2922
 8393SOL    HW236642   2.686   1.283   9.524 -1.4605  0.7743 -0.2305
 8394SOL     OW36643   0.825   2.290   5.341 -0.1416  0.0559  0.2107
 8394SOL    HW136644   0.915   2.296   5.373  0.9323 -1.9197 -2.4399
 8394SOL    HW236645   0.799   2.382   5.351 -1.3713 -0.1388 -1.1055
 8395SOL     OW36646   2.505   0.503  13.166 -0.0239 -0.4095 -0.1094
 8395SOL    HW136647   2.518   0.512  13.261  0.5183  0.4347 -0.2653
 8395SOL    HW236648   2.590   0.469  13.140  1.2433  1.0174  2.1389
 8396SOL     OW36649   0.875   3.860   0.162 -0.1218 -0.3524  0.0396
 8396SOL    HW136650   0.875   3.955   0.148 -0.0859 -0.2214  0.9120
 8396SOL    HW236651   0.815   3.823   0.097 -0.9382 -2.7865  2.1741
 8397SOL     OW36652   3.134   1.988   3.542  0.0492 -0.3761 -0.2192
 8397SOL    HW136653   3.060   1.951   3.494 -0.6928 -1.5496  1.8251
 8397SOL    HW236654   3.150   2.066   3.489 -2.4874  0.4328  0.2185
 8398SOL     OW36655   2.333   1.385  14.283  0.1433  0.4200  0.5130
 8398SOL    HW136656   2.359   1.477  14.274  0.4506  0.1907 -0.9082
 8398SOL    HW236657   2.301   1.386  14.374  0.8520 -3.1259  0.7875
 8399SOL     OW36658   1.370   1.537  15.859 -0.0686 -0.3256  0.2326
 8399SOL    HW136659   1.388   1.617  15.908  0.0623  0.8417 -1.7369
 8399SOL    HW236660   1.398   1.467  15.918 -0.2066 -1.7480 -1.3928
 8400SOL     OW36661   4.670   2.185   1.874 -0.6436 -0.2312  0.3229
 8400SOL    HW136662   4.602   2.225   1.928 -0.2542  0.0769  0.5824
 8400SOL    HW236663   4.658   2.232   1.791 -0.7198  1.5795  1.3547
 8401SOL     OW36664   1.433   3.122   4.215 -0.2485  0.0460 -0.2271
 8401SOL    HW136665   1.374   3.175   4.161  2.4604  0.7253 -2.5022
 8401SOL    HW236666   1.469   3.186   4.277 -2.4312 -0.3340  1.4382
 8402SOL     OW36667   2.229   3.969   6.854 -0.3644  0.1883 -0.5570
 8402SOL    HW136668   2.319   3.979   6.825 -0.1007  0.1262  0.2454
 8402SOL    HW236669   2.209   4.061   6.871 -0.6088 -0.3321  2.0826
 8403SOL     OW36670   3.255   1.777   8.779  0.0855 -0.1226  0.3671
 8403SOL    HW136671   3.241   1.869   8.758  0.4984 -0.2507 -0.4437
 8403SOL    HW236672   3.347   1.785   8.804  0.2136  0.2521 -0.2402
 8404SOL     OW36673   0.305   0.632  12.411  0.0110  0.2531  0.5258
 8404SOL    HW136674   0.238   0.688  12.449 -1.0572 -1.5672  1.3402
 8404SOL    HW236675   0.273   0.543  12.423  1.5019 -0.3097  0.4200
 8405SOL     OW36676   4.224   1.984   2.435  0.5196  0.0877 -0.5166
 8405SOL    HW136677   4.293   1.996   2.370  2.1670  1.1142  1.4204
 8405SOL    HW236678   4.283   1.994   2.510 -0.1229 -0.8192  0.1264
 8406SOL     OW36679   2.027   4.653   4.164 -0.3354 -0.5464 -0.2583
 8406SOL    HW136680   1.991   4.568   4.189 -1.2736 -0.8088 -2.5163
 8406SOL    HW236681   1.983   4.672   4.081 -3.4377 -1.4990  1.1605
 8407SOL     OW36682   3.656   2.894   3.602 -0.4921  0.5647  0.2185
 8407SOL    HW136683   3.654   2.950   3.679  1.1883  0.0936  0.6049
 8407SOL    HW236684   3.685   2.959   3.538 -2.3187  0.2967 -0.8942
 8408SOL     OW36685   0.181   1.710   9.731  0.0913  0.1587 -0.3796
 8408SOL    HW136686   0.236   1.709   9.653  1.2320  0.7239  0.4212
 8408SOL    HW236687   0.243   1.678   9.797  0.7104  0.8279 -0.6389
 8409SOL     OW36688   3.973   2.750  10.112 -0.3152  0.3971 -0.1013
 8409SOL    HW136689   3.888   2.716  10.139  0.3065 -2.3643 -1.5995
 8409SOL    HW236690   3.949   2.798  10.033  1.6963  1.1291 -0.2754
 8410SOL     OW36691   4.334   2.154   5.604  0.6785  0.0121  0.1545
 8410SOL    HW136692   4.304   2.233   5.560 -1.7358  0.7351  3.1871
 8410SOL    HW236693   4.339   2.174   5.697 -1.6156  0.1047  0.2353
 8411SOL     OW36694   3.936   3.161  17.561  0.2688 -0.3628 -0.2901
 8411SOL    HW136695   3.887   3.202  17.489 -0.2390  1.4801  1.1133
 8411SOL    HW236696   3.928   3.222  17.634  8.1026  0.0224  0.1774
 8412SOL     OW36697   1.274   2.055   0.603 -0.4001 -0.0563 -0.4614
 8412SOL    HW136698   1.361   2.082   0.631 -0.9065 -1.3527  2.3407
 8412SOL    HW236699   1.283   2.013   0.517 -0.2771  1.1781 -1.0605
 8413SOL     OW36700   3.499   0.764   5.333 -0.1471 -0.0381  1.0345
 8413SOL    HW136701   3.432   0.737   5.271 -0.5469 -0.3032  1.5787
 8413SOL    HW236702   3.528   0.851   5.306 -1.3780  0.1599  0.3530
 8414SOL     OW36703   0.747   2.832   5.551  0.0814 -0.4957  0.4026
 8414SOL    HW136704   0.801   2.819   5.473  0.5982  0.8189  0.5395
 8414SOL    HW236705   0.666   2.794   5.517  0.7542  0.2100 -2.0037
 8415SOL     OW36706   1.737   2.240   2.961 -0.1440  0.5646 -0.3660
 8415SOL    HW136707   1.748   2.152   2.924 -0.0272 -0.5901  2.4782
 8415SOL    HW236708   1.660   2.271   2.912 -1.3464  2.0035  2.4086
 8416SOL     OW36709   0.218   0.782   7.074  1.3892 -0.2383 -0.0005
 8416SOL    HW136710   0.312   0.780   7.090  1.2528 -3.0616  0.4327
 8416SOL    HW236711   0.203   0.827   6.990 -0.9959  1.2599  1.2143
 8417SOL     OW36712   4.687   1.102   5.399  0.0758 -0.2063  0.4577
 8417SOL    HW136713   0.020   1.034   5.360  2.5274  1.3683  1.2948
 8417SOL    HW236714   4.632   1.125   5.324  1.2008  0.2915 -0.2116
 8418SOL     OW36715   3.205   0.001  16.094 -0.3442  0.2124 -0.6878
 8418SOL    HW136716   3.252   0.039  16.168  0.8593 -1.9756 -0.3336
 8418SOL    HW236717   3.251   0.044  16.021  1.3879 -2.0106 -0.8993
 8419SOL     OW36718   1.907   4.048  10.511 -0.5473 -0.0962 -0.2633
 8419SOL    HW136719   1.986   4.033  10.458  0.5305  1.0913  1.0089
 8419SOL    HW236720   1.953   4.077  10.590 -0.6361  0.0834 -0.2762
 8420SOL     OW36721   2.815   0.918   3.256  0.6258 -0.5199 -0.4724
 8420SOL    HW136722   2.832   0.897   3.164  1.9411  3.3849 -1.1280
 8420SOL    HW236723   2.724   0.949   3.250  0.0940 -1.2278  4.0012
 8421SOL     OW36724   1.617   1.438   3.618  0.3599  0.3462 -0.1209
 8421SOL    HW136725   1.639   1.346   3.607  0.0136  0.4324 -1.4609
 8421SOL    HW236726   1.523   1.449   3.636  0.1656  2.0015 -2.1738
 8422SOL     OW36727   0.752   1.526   0.023  0.4503  0.2319 -1.1741
 8422SOL    HW136728   0.765   1.620   0.032  0.5620  0.4553 -3.6388
 8422SOL    HW236729   0.844   1.498   0.029  1.0857  2.2978 -1.1904
 8423SOL     OW36730   2.809   3.700   6.241  0.1249  0.0747  0.0680
 8423SOL    HW136731   2.791   3.618   6.195 -1.0803  1.5793 -2.1463
 8423SOL    HW236732   2.903   3.710   6.224 -0.1992  0.7295 -1.3636
 8424SOL     OW36733   0.916   2.668   6.406  0.0122 -0.3288  0.0685
 8424SOL    HW136734   0.837   2.615   6.390 -1.8195  1.9352  1.6237
 8424SOL    HW236735   0.956   2.639   6.489 -2.3009 -0.8439  1.0164
 8425SOL     OW36736   0.463   2.669   2.914  0.5517  1.1043  0.5798
 8425SOL    HW136737   0.530   2.600   2.906  0.5491  1.3899 -1.9853
 8425SOL    HW236738   0.428   2.650   3.001 -1.0931  3.1161  0.3464
 8426SOL     OW36739   2.734   1.929  12.839 -0.0131  0.4271 -0.0949
 8426SOL    HW136740   2.660   1.969  12.884  0.4753 -1.3726  2.2827
 8426SOL    HW236741   2.741   1.978  12.757 -0.4180  0.8716  0.1380
 8427SOL     OW36742   2.868   0.523   3.756  0.2767 -0.5065  1.0676
 8427SOL    HW136743   2.895   0.439   3.792 -0.7216 -1.0749  0.4903
 8427SOL    HW236744   2.827   0.563   3.832 -0.0993  2.6379 -0.7952
 8428SOL     OW36745   3.822   3.926   8.606  0.1875  0.1628 -0.0835
 8428SOL    HW136746   3.842   3.907   8.698  0.3697  1.4064  0.1304
 8428SOL    HW236747   3.755   3.866   8.572 -0.1425  0.2924  0.3354
 8429SOL     OW36748   1.523   3.311   4.487 -0.6590  0.1512  0.5390
 8429SOL    HW136749   1.535   3.355   4.571  0.3709  0.3752  0.2861
 8429SOL    HW236750   1.555   3.225   4.514 -1.1323 -0.1066  0.2748
 8430SOL     OW36751   0.969   2.696   2.800  0.1132 -0.3283 -0.2942
 8430SOL    HW136752   1.041   2.745   2.760 -0.8581  2.7152  1.6908
 8430SOL    HW236753   0.895   2.735   2.753 -0.4469 -0.9616  0.0640
 8431SOL     OW36754   0.452   1.132   5.946  0.6172  0.2172 -0.1849
 8431SOL    HW136755   0.441   1.214   5.995  0.6049 -0.5701  1.1497
 8431SOL    HW236756   0.454   1.155   5.853  0.0601  0.6404 -0.0941
 8432SOL     OW36757   1.668   0.895   2.194 -0.3381  0.4880 -0.2661
 8432SOL    HW136758   1.603   0.828   2.172 -1.9680  1.7031  0.8499
 8432SOL    HW236759   1.747   0.849   2.166 -1.8038 -0.1932 -3.1908
 8433SOL     OW36760   2.878   2.602  12.189  0.1804  0.3476 -0.2742
 8433SOL    HW136761   2.835   2.532  12.238 -0.4394  0.3979 -0.7570
 8433SOL    HW236762   2.910   2.552  12.114 -1.2441 -0.7907 -0.1198
 8434SOL     OW36763   4.469   1.350  12.969  0.5040 -0.2761 -0.2479
 8434SOL    HW136764   4.535   1.419  12.963 -1.0433  1.2117 -0.1291
 8434SOL    HW236765   4.522   1.273  12.946 -0.8728 -1.0559 -0.8117
 8435SOL     OW36766   0.306   0.783   6.230 -0.2573 -0.4783  0.2702
 8435SOL    HW136767   0.268   0.871   6.231 -1.2628 -0.9229  2.5416
 8435SOL    HW236768   0.398   0.798   6.210 -1.3709  2.7633 -2.3922
 8436SOL     OW36769   4.265   1.102  12.562  0.0303 -0.4590 -0.2452
 8436SOL    HW136770   4.299   1.178  12.515  0.6945 -0.0630  0.8822
 8436SOL    HW236771   4.311   1.037  12.509 -2.5663 -2.4073 -0.1233
 8437SOL     OW36772   0.018   1.039   9.166  0.3961 -0.4545 -0.4600
 8437SOL    HW136773   4.689   0.965   9.196  0.1434  0.0717  0.4058
 8437SOL    HW236774   0.028   1.074   9.255  0.9230 -1.5012 -0.1142
 8438SOL     OW36775   3.394   1.926  10.308 -0.3100  0.6672 -0.5265
 8438SOL    HW136776   3.488   1.906  10.308 -0.6617 -0.9993 -0.2666
 8438SOL    HW236777   3.393   1.955  10.217 -0.4242  0.8465 -0.4668
 8439SOL     OW36778   2.384   0.535  14.343 -0.3783  0.2931  0.3420
 8439SOL    HW136779   2.308   0.535  14.284 -1.1375 -0.6088  1.3279
 8439SOL    HW236780   2.440   0.504  14.272  0.3736  1.0888  0.5880
 8440SOL     OW36781   4.722   0.918   0.601 -0.2254 -0.4018 -0.1831
 8440SOL    HW136782   4.699   1.003   0.562  1.9440  1.2201  2.0883
 8440SOL    HW236783   0.040   0.882   0.522  0.7221  0.2280  0.0192
 8441SOL     OW36784   0.605   2.588  10.920 -0.4963 -0.0431  0.5612
 8441SOL    HW136785   0.637   2.662  10.867 -1.9091 -0.5128 -0.9479
 8441SOL    HW236786   0.558   2.529  10.860 -2.5430  0.3459  1.7937
 8442SOL     OW36787   3.674   0.217  17.605  0.0536  0.3206 -0.1366
 8442SOL    HW136788   3.622   0.233  17.684 -1.5131 -0.9694 -0.9166
 8442SOL    HW236789   3.727   0.296  17.600  0.3017  0.1850  0.3560
 8443SOL     OW36790   1.149   3.653   7.130 -0.2782 -0.9111 -0.5165
 8443SOL    HW136791   1.147   3.711   7.206 -1.9419  0.6581 -1.7525
 8443SOL    HW236792   1.187   3.718   7.071 -1.9899  1.2483  0.7539
 8444SOL     OW36793   0.152   2.684   2.943 -0.4211  0.4544  0.4132
 8444SOL    HW136794   0.145   2.592   2.919 -0.0821  0.3218  0.8306
 8444SOL    HW236795   0.203   2.667   3.022  0.3809 -0.8405 -0.3931
 8445SOL     OW36796   0.683   3.194   6.440 -0.4121 -0.1639 -0.0990
 8445SOL    HW136797   0.651   3.269   6.490  1.6366  0.3644  0.4145
 8445SOL    HW236798   0.731   3.157   6.514  0.3229  1.0678  0.0367
 8446SOL     OW36799   1.493   4.083   5.202  0.1277  0.0311  0.4141
 8446SOL    HW136800   1.399   4.069   5.196  0.2765 -1.2639  1.1265
 8446SOL    HW236801   1.506   4.029   5.280  1.0415 -2.1963 -1.2864
 8447SOL     OW36802   3.397   0.561   8.157  0.4682  0.2082  0.0850
 8447SOL    HW136803   3.435   0.512   8.084 -1.5942  1.4242 -1.7803
 8447SOL    HW236804   3.395   0.487   8.218 -1.3199  1.5809  1.7009
 8448SOL     OW36805   1.239   1.942   9.511  0.1345 -0.0136  0.0010
 8448SOL    HW136806   1.175   1.923   9.581 -0.1364  1.0064  0.0302
 8448SOL    HW236807   1.315   1.970   9.562  0.1486 -3.8505  2.1102
 8449SOL     OW36808   1.428   3.340   6.044 -0.1790  0.1767 -0.0929
 8449SOL    HW136809   1.411   3.311   6.134 -1.7742  1.3161 -0.0233
 8449SOL    HW236810   1.515   3.373   6.064 -0.2133  0.2991 -0.1454
 8450SOL     OW36811   4.532   2.481   3.180  0.0923  0.0692 -0.0312
 8450SOL    HW136812   4.454   2.446   3.137 -1.8475  1.6233  2.2658
 8450SOL    HW236813   4.568   2.393   3.190 -1.7289 -0.7512 -0.7291
 8451SOL     OW36814   1.363   1.531   6.427 -0.1659 -0.5027 -0.3535
 8451SOL    HW136815   1.291   1.477   6.394 -1.2759  2.1014 -2.1723
 8451SOL    HW236816   1.369   1.604   6.366  0.1066  1.2862  1.8172
 8452SOL     OW36817   1.837   2.785   5.592 -0.1753  0.2259  0.2227
 8452SOL    HW136818   1.743   2.768   5.590  0.0177 -0.7800 -0.2572
 8452SOL    HW236819   1.849   2.802   5.498 -0.2598  0.6682  0.2900
 8453SOL     OW36820   4.208   2.168  11.296  0.6953 -0.4905  0.3567
 8453SOL    HW136821   4.221   2.214  11.213  3.2958 -0.5635  0.7333
 8453SOL    HW236822   4.134   2.217  11.332  2.5695  1.4788  1.4961
 8454SOL     OW36823   0.864   2.933   5.783 -0.7480 -0.0757 -0.2220
 8454SOL    HW136824   0.824   2.889   5.707 -2.0504  1.5434 -0.4756
 8454SOL    HW236825   0.932   2.985   5.739 -0.6589 -1.2190 -1.4624
 8455SOL     OW36826   0.730   3.068   8.631  0.1543  0.0167  0.1712
 8455SOL    HW136827   0.775   3.002   8.577  1.9405  0.2285  1.4233
 8455SOL    HW236828   0.687   3.117   8.561  1.7393  1.4305  0.1677
 8456SOL     OW36829   0.967   2.233   8.204 -0.0618 -0.2381 -0.4539
 8456SOL    HW136830   0.922   2.214   8.122  0.0240 -1.4688 -0.2156
 8456SOL    HW236831   0.967   2.142   8.232  0.2079  0.0068  0.3475
 8457SOL     OW36832   0.915   1.866  10.816 -0.3567  0.1011 -0.2134
 8457SOL    HW136833   0.934   1.877  10.723  2.4693 -0.3587  0.2883
 8457SOL    HW236834   0.883   1.955  10.834 -1.0880 -0.0082 -0.9865
 8458SOL     OW36835   0.761   3.140   8.006  0.4034  0.1720  0.1124
 8458SOL    HW136836   0.844   3.105   8.040  0.3754  1.6819  1.7368
 8458SOL    HW236837   0.796   3.222   7.971  3.5227 -1.2575 -0.1729
 8459SOL     OW36838   1.788   4.295  17.315 -0.6314 -0.2090 -0.1419
 8459SOL    HW136839   1.789   4.339  17.400 -3.3236 -3.8054  1.7450
 8459SOL    HW236840   1.853   4.343  17.264  0.4872 -0.1922  1.3103
 8460SOL     OW36841   2.033   4.412  15.764 -0.0306 -0.6462  0.2027
 8460SOL    HW136842   1.951   4.432  15.717  1.9877  1.0828 -2.5748
 8460SOL    HW236843   2.015   4.443  15.853 -1.5660  2.4344 -1.1757
 8461SOL     OW36844   1.866   4.532   2.075  0.1939 -0.4594  0.5050
 8461SOL    HW136845   1.819   4.450   2.060  1.6854 -0.8829 -1.9908
 8461SOL    HW236846   1.922   4.503   2.147  0.6308 -1.8385 -0.3926
 8462SOL     OW36847   0.294   4.140   1.963  0.2987 -0.3902 -0.2163
 8462SOL    HW136848   0.213   4.170   2.005  0.7724 -2.3132  2.0910
 8462SOL    HW236849   0.352   4.215   1.976  0.4452 -0.2717 -1.5825
 8463SOL     OW36850   0.137   2.289   6.832 -0.5665 -0.5190 -0.2021
 8463SOL    HW136851   0.187   2.210   6.812 -0.2415 -0.5559  0.7998
 8463SOL    HW236852   0.185   2.329   6.905 -0.7350  1.2630 -1.0618
 8464SOL     OW36853   3.937   3.035   0.626  0.4778 -0.2009  0.0566
 8464SOL    HW136854   3.894   2.963   0.671 -0.4789 -1.0895 -2.2733
 8464SOL    HW236855   4.017   2.987   0.603  0.7014 -0.3734  1.2215
 8465SOL     OW36856   1.786   3.274   5.391  0.0577 -0.1133 -0.4092
 8465SOL    HW136857   1.703   3.320   5.405 -0.0050 -0.1095 -0.7902
 8465SOL    HW236858   1.750   3.186   5.399  1.2158 -0.5910 -0.5180
 8466SOL     OW36859   2.944   0.022   9.970  0.3041 -0.0190 -0.1415
 8466SOL    HW136860   3.027   4.698   9.972  0.3218  0.1150  1.5917
 8466SOL    HW236861   2.916   0.026   9.878 -0.3816  1.2737  0.1113
 8467SOL     OW36862   1.821   2.064   1.995  0.3162  0.3352  0.0099
 8467SOL    HW136863   1.798   2.053   1.903 -1.3913  0.4477  0.4133
 8467SOL    HW236864   1.917   2.064   1.992  0.3399  0.0462  0.8159
 8468SOL     OW36865   0.858   2.715   4.020  0.0686  0.5991  0.2974
 8468SOL    HW136866   0.784   2.684   3.968 -0.7931  0.4368  1.6110
 8468SOL    HW236867   0.924   2.732   3.953  1.4624  1.0567  1.7847
 8469SOL     OW36868   1.085   3.206   8.724 -0.5496  0.7417  0.2547
 8469SOL    HW136869   1.088   3.275   8.658  1.8006  1.0605  0.6716
 8469SOL    HW236870   1.175   3.172   8.721 -0.6924  0.3120  0.9290
 8470SOL     OW36871   3.959   2.514   0.560  0.8364  0.5340 -0.0535
 8470SOL    HW136872   3.888   2.454   0.583 -1.3677  3.3356  0.4220
 8470SOL    HW236873   3.978   2.485   0.471  0.2924  1.4590 -0.4700
 8471SOL     OW36874   4.092   4.583  16.061 -0.3216  0.2292 -0.0195
 8471SOL    HW136875   4.055   4.669  16.043  1.8534  1.0068 -0.8824
 8471SOL    HW236876   4.104   4.600  16.154  1.2876  1.1978 -0.3952
 8472SOL     OW36877   0.651   0.885   4.509 -0.4919 -0.4230  0.0689
 8472SOL    HW136878   0.720   0.838   4.463 -0.7342  0.0039 -0.7268
 8472SOL    HW236879   0.684   0.974   4.521  0.2066 -0.5900 -0.6162
 8473SOL     OW36880   3.720   3.412   0.103  0.3553 -0.2997  0.5437
 8473SOL    HW136881   3.669   3.448   0.031  0.3464  1.1773  1.2822
 8473SOL    HW236882   3.808   3.423   0.067  0.0528  1.2533  0.2722
 8474SOL     OW36883   1.217   1.083  13.140  0.4609 -0.2963 -0.2288
 8474SOL    HW136884   1.175   1.142  13.078  1.2669  0.0322 -0.4563
 8474SOL    HW236885   1.149   1.075  13.207 -0.0170 -0.1136 -0.6911
 8475SOL     OW36886   2.464   2.050  12.143  0.0283 -0.8285  0.1853
 8475SOL    HW136887   2.386   2.008  12.178 -0.4371  0.0111  0.1402
 8475SOL    HW236888   2.451   2.022  12.052 -1.1469  1.4242 -0.3196
 8476SOL     OW36889   1.361   3.003   4.858 -0.4037  0.1294 -0.3995
 8476SOL    HW136890   1.440   3.046   4.891  0.1528 -0.8519 -0.4388
 8476SOL    HW236891   1.294   3.059   4.898  0.3538 -0.3601  1.5740
 8477SOL     OW36892   1.378   4.648   6.097 -0.3177  0.4496  0.3386
 8477SOL    HW136893   1.297   4.700   6.102 -0.1496  0.6672  0.8005
 8477SOL    HW236894   1.376   4.620   6.006  3.6207  1.1878  0.0396
 8478SOL     OW36895   4.447   2.755   8.445  0.0284  0.1609  0.3685
 8478SOL    HW136896   4.441   2.780   8.538  0.5197  0.3585  0.3425
 8478SOL    HW236897   4.445   2.661   8.464  1.5612 -0.2325 -1.4944
 8479SOL     OW36898   1.827   2.990   7.464  0.1436  0.2465  0.1411
 8479SOL    HW136899   1.819   2.917   7.404  0.5697  0.3801 -0.0759
 8479SOL    HW236900   1.849   2.949   7.548  2.2170 -3.0699 -2.0532
 8480SOL     OW36901   1.060   2.371   1.389  0.6436 -0.4359 -0.0451
 8480SOL    HW136902   1.058   2.340   1.299 -2.7123 -2.3472  0.6658
 8480SOL    HW236903   0.983   2.326   1.425 -0.9073  0.1063 -2.6525
 8481SOL     OW36904   2.829   3.775   8.203  0.5276  0.2079 -0.1542
 8481SOL    HW136905   2.819   3.780   8.108  0.1501  1.5873 -0.0413
 8481SOL    HW236906   2.799   3.864   8.223 -1.0872 -0.3932  0.1616
 8482SOL     OW36907   2.464   0.024   1.046 -0.1698  0.6397 -0.2723
 8482SOL    HW136908   2.407   0.098   1.024  0.9756  1.4321 -0.5271
 8482SOL    HW236909   2.480   4.703   0.963 -1.5107 -0.9016  0.2862
 8483SOL     OW36910   4.427   2.952   4.247  0.0776 -0.0460 -0.2737
 8483SOL    HW136911   4.462   2.975   4.333  2.5225  1.1265 -1.5923
 8483SOL    HW236912   4.507   2.918   4.206  0.3224  1.0503 -0.7074
 8484SOL     OW36913   3.880   4.665   1.831 -0.0821  0.0386 -0.5658
 8484SOL    HW136914   3.954   4.630   1.880  0.5405  0.4885 -1.1846
 8484SOL    HW236915   3.884   0.035   1.855  2.5292 -0.0136 -0.7722
 8485SOL     OW36916   1.356   2.243   0.041 -0.3051 -0.1157 -0.1625
 8485SOL    HW136917   1.441   2.265   0.077 -1.2783  0.8777  1.5340
 8485SOL    HW236918   1.331   2.327   0.003  1.1832 -0.4758 -1.9162
 8486SOL     OW36919   2.403   2.828   2.223  0.0401 -0.3396  0.0982
 8486SOL    HW136920   2.310   2.809   2.214  0.1929 -1.0042 -0.0565
 8486SOL    HW236921   2.421   2.887   2.297  1.0305  0.7702 -1.0282
 8487SOL     OW36922   0.254   4.277   6.362 -0.4085 -0.6397  0.4847
 8487SOL    HW136923   0.342   4.242   6.372  0.3431  0.5332 -2.3880
 8487SOL    HW236924   0.254   4.352   6.421  0.2593 -2.0625  2.3089
 8488SOL     OW36925   2.283   3.589   0.816 -0.3540 -0.3913 -0.1420
 8488SOL    HW136926   2.223   3.655   0.781  0.1624 -0.9845 -2.1354
 8488SOL    HW236927   2.360   3.643   0.836 -1.7293  1.7815 -0.6807
 8489SOL     OW36928   0.056   1.533   6.257 -0.6140 -0.3500 -0.6407
 8489SOL    HW136929   0.137   1.547   6.306 -1.3567  1.4420  0.0631
 8489SOL    HW236930   0.103   1.552   6.175 -0.2185  0.3605 -0.2571
 8490SOL     OW36931   0.715   2.968   4.835  0.4822  0.2187  0.3345
 8490SOL    HW136932   0.704   3.050   4.883  0.0565  1.7744 -2.4582
 8490SOL    HW236933   0.752   3.002   4.753 -3.0338  1.8258 -0.5904
 8491SOL     OW36934   1.326   2.104  16.825  0.1921  0.0013 -0.5132
 8491SOL    HW136935   1.325   2.184  16.877  0.5321 -0.2844 -0.0607
 8491SOL    HW236936   1.416   2.074  16.838  0.5892  0.3030 -2.5490
 8492SOL     OW36937   0.584   0.666  10.197 -0.1158 -0.2294 -0.3420
 8492SOL    HW136938   0.610   0.629  10.113 -0.4782  0.1940 -0.6369
 8492SOL    HW236939   0.496   0.631  10.211  0.0001 -0.8175 -1.0515
 8493SOL     OW36940   0.989   1.600  14.905  0.0988  0.0205 -0.6251
 8493SOL    HW136941   0.967   1.646  14.987  1.0350  2.3692 -1.6727
 8493SOL    HW236942   1.047   1.528  14.926 -1.2398 -0.8800 -0.0369
 8494SOL     OW36943   0.739   4.710   2.568  0.5371 -0.5868 -0.2212
 8494SOL    HW136944   0.781   0.057   2.519 -1.4731  1.4984  1.0527
 8494SOL    HW236945   0.717   0.036   2.647 -0.1371  1.4210 -1.6555
 8495SOL     OW36946   0.026   4.453   2.275 -0.0586 -0.2519  0.3200
 8495SOL    HW136947   0.027   4.547   2.256  1.0788 -0.4475 -0.5977
 8495SOL    HW236948   0.113   4.448   2.315 -0.3668 -0.5237  0.9438
 8496SOL     OW36949   4.191   4.206  13.064  0.3715  0.0205 -0.1496
 8496SOL    HW136950   4.266   4.262  13.044  0.6440 -0.8957 -1.6650
 8496SOL    HW236951   4.176   4.176  12.974  0.3007 -0.8767  0.1667
 8497SOL     OW36952   0.085   2.265  17.401 -0.4532  0.0651  0.0345
 8497SOL    HW136953   0.156   2.230  17.453  0.5656  0.5647 -1.0256
 8497SOL    HW236954   0.097   2.359  17.414  3.0116 -0.6026  1.4198
 8498SOL     OW36955   3.287   2.120  15.275  0.3246 -0.2184  0.0323
 8498SOL    HW136956   3.241   2.192  15.319  0.1921 -0.7176  0.7011
 8498SOL    HW236957   3.360   2.118  15.337 -0.8327  1.8406  1.4747
 8499SOL     OW36958   3.153   1.733  15.869 -0.2224  0.2136  0.4269
 8499SOL    HW136959   3.094   1.760  15.939 -1.3355  0.0572 -0.4444
 8499SOL    HW236960   3.227   1.794  15.867 -0.7155  0.7399 -1.7341
 8500SOL     OW36961   1.801   2.286   5.592 -0.0748 -0.6448  0.1562
 8500SOL    HW136962   1.769   2.359   5.645  1.9334  0.1028  0.3292
 8500SOL    HW236963   1.728   2.269   5.532  1.5235 -0.8340 -1.7319
 8501SOL     OW36964   2.205   2.371   3.628 -0.2742  0.2269 -0.4327
 8501SOL    HW136965   2.262   2.306   3.587  0.2666 -0.2668  1.1144
 8501SOL    HW236966   2.255   2.445   3.662  0.7082  0.5492 -2.6328
 8502SOL     OW36967   0.033   1.253   5.781  0.2216  0.3651  0.1632
 8502SOL    HW136968   0.008   1.278   5.870 -3.5434 -3.0882  0.0948
 8502SOL    HW236969   4.718   1.166   5.773  0.5464  0.0793  1.8327
 8503SOL     OW36970   3.690   0.673   0.030  0.3142 -0.2521 -0.4262
 8503SOL    HW136971   3.607   0.714   0.053  0.1431 -0.5971 -0.4366
 8503SOL    HW236972   3.694   0.678  17.629  0.3945  0.9688 -0.3635
 8504SOL     OW36973   3.881   4.098  10.019  0.1720 -0.1271  0.1559
 8504SOL    HW136974   3.840   4.033  10.076 -1.1443 -0.5294 -1.2551
 8504SOL    HW236975   3.973   4.092  10.044  0.4442  1.6409 -0.3512
 8505SOL     OW36976   0.113   4.615   0.732  0.5219 -0.3718  0.0981
 8505SOL    HW136977   0.166   4.541   0.760  1.8467  1.1188  1.5961
 8505SOL    HW236978   0.090   4.657   0.816 -2.3193  0.7692 -1.2445
 8506SOL     OW36979   2.910   2.245   1.088  0.9875 -0.0054  0.2032
 8506SOL    HW136980   2.953   2.317   1.135 -0.7987 -0.1122  1.9859
 8506SOL    HW236981   2.978   2.179   1.100 -0.1074 -1.4260 -1.3682
 8507SOL     OW36982   3.826   1.642   8.660  0.3222 -1.2596 -0.3991
 8507SOL    HW136983   3.760   1.708   8.683  1.4091 -0.0839 -0.6457
 8507SOL    HW236984   3.908   1.692   8.658  0.0852 -0.8540  0.0443
 8508SOL     OW36985   4.252   1.807   8.151  0.0901 -0.2161  0.5525
 8508SOL    HW136986   4.228   1.714   8.154 -1.0377  0.1121  1.5703
 8508SOL    HW236987   4.275   1.831   8.241  2.5960 -2.1866  0.4363
 8509SOL     OW36988   2.214   0.997   2.232 -0.2071  0.5795 -0.0992
 8509SOL    HW136989   2.250   0.916   2.267  0.1031  2.1009  3.1522
 8509SOL    HW236990   2.155   0.959   2.166 -0.6346  0.3755  0.3929
 8510SOL     OW36991   2.429   2.132   5.506 -0.2383  0.3707 -0.2265
 8510SOL    HW136992   2.378   2.077   5.565  0.3517  1.1288  0.9989
 8510SOL    HW236993   2.511   2.153   5.552 -1.6467  2.4061  1.3479
 8511SOL     OW36994   0.318   1.142   7.065 -0.4976  0.7561  0.6589
 8511SOL    HW136995   0.283   1.108   7.147 -1.3928 -1.8009 -0.7671
 8511SOL    HW236996   0.236   1.174   7.027 -1.4039 -0.9018  1.2090
 8512SOL     OW36997   0.922   2.534   4.229  0.5335 -0.1254  0.6092
 8512SOL    HW136998   0.846   2.490   4.191  0.7072 -0.2346  0.3874
 8512SOL    HW236999   0.930   2.610   4.171 -1.1034 -0.9015 -0.6399
 8513SOL     OW37000   2.914   1.646   8.281  0.5343 -0.5566  0.2193
 8513SOL    HW137001   2.894   1.610   8.368  0.5830 -2.8009 -0.6996
 8513SOL    HW237002   2.958   1.726   8.309  0.0488 -1.8291  4.6442
 8514SOL     OW37003   4.295   3.423   7.604 -0.1511  0.0276  0.3208
 8514SOL    HW137004   4.250   3.458   7.681  1.2196 -1.7430  1.9341
 8514SOL    HW237005   4.343   3.504   7.591 -0.6255  0.4372  1.1099
 8515SOL     OW37006   1.034   1.129  13.340 -0.5177  0.6632  0.0633
 8515SOL    HW137007   1.030   1.178  13.423 -2.5947 -1.3978  1.1791
 8515SOL    HW237008   0.952   1.153  13.296 -1.9481 -1.7039  1.4194
 8516SOL     OW37009   2.011   4.104   4.110  0.3293  0.1160  0.5833
 8516SOL    HW137010   2.021   4.131   4.201  0.0429 -4.0118  1.8617
 8516SOL    HW237011   1.920   4.077   4.114 -0.7990  3.6045 -1.5517
 8517SOL     OW37012   1.020   3.247   8.297 -0.5261  0.9800  0.6474
 8517SOL    HW137013   1.048   3.168   8.252  1.9903  0.2171  3.5297
 8517SOL    HW237014   1.006   3.204   8.381 -1.3861  0.5231  0.2677
 8518SOL     OW37015   4.717   0.521   7.999 -0.1321 -0.4949  0.2893
 8518SOL    HW137016   0.016   0.600   8.048  2.4984 -0.4948 -0.8907
 8518SOL    HW237017   4.713   0.561   7.912 -1.6009  2.5213  1.7453
 8519SOL     OW37018   0.864   0.954   9.462  0.0374 -0.0097  0.1458
 8519SOL    HW137019   0.917   1.014   9.409  4.4071 -2.8885  1.2709
 8519SOL    HW237020   0.824   0.907   9.389  0.8487  1.5076 -1.2620
 8520SOL     OW37021   3.073   4.718  10.793  0.3280 -0.1100  0.4949
 8520SOL    HW137022   3.149   0.025  10.743  0.6564 -0.5617  0.7181
 8520SOL    HW237023   3.033   4.667  10.723 -0.3620 -0.0113  0.8164
 8521SOL     OW37024   4.026   1.104   2.773  0.2427  0.1773 -0.0868
 8521SOL    HW137025   4.075   1.060   2.703  2.1818  0.7198  0.9361
 8521SOL    HW237026   3.956   1.040   2.786  0.2110 -0.2803 -2.4320
 8522SOL     OW37027   4.002   4.205  17.003  0.3876 -0.0180  0.0879
 8522SOL    HW137028   4.008   4.223  17.097  4.5760 -0.9190 -0.0328
 8522SOL    HW237029   4.092   4.198  16.974  0.8856 -0.6556  1.7992
 8523SOL     OW37030   3.097   2.668   2.325  0.2644 -0.1603  0.6284
 8523SOL    HW137031   3.152   2.637   2.253  0.8025  3.3248 -0.4568
 8523SOL    HW237032   3.043   2.735   2.283  1.0811 -1.8725 -3.1162
 8524SOL     OW37033   0.370   0.672  12.148  0.3655  0.1545  0.2566
 8524SOL    HW137034   0.378   0.649  12.240 -0.7352 -1.4572 -0.0447
 8524SOL    HW237035   0.451   0.720  12.128 -0.1209  1.2077  0.8383
 8525SOL     OW37036   2.165   3.894   5.762 -0.0098  0.2055  0.1145
 8525SOL    HW137037   2.110   3.901   5.840 -0.9528 -4.7946 -0.1040
 8525SOL    HW237038   2.162   3.979   5.718 -0.9673  0.1483  0.0713
 8526SOL     OW37039   1.683   3.245   0.016 -0.2046 -0.1622 -0.9771
 8526SOL    HW137040   1.725   3.247  17.625  0.0549 -2.2925 -0.8825
 8526SOL    HW237041   1.691   3.155   0.047  2.1492  0.8635  1.3402
 8527SOL     OW37042   1.775   0.058  14.880 -0.1430 -0.9155 -0.8565
 8527SOL    HW137043   1.764   4.705  14.936  0.5590 -1.0401 -0.8841
 8527SOL    HW237044   1.865   0.086  14.898  0.5056 -0.9486 -4.0818
 8528SOL     OW37045   1.750   3.684   8.369 -0.2845  0.0492  0.0846
 8528SOL    HW137046   1.722   3.696   8.459 -0.2049 -2.0128  0.3843
 8528SOL    HW237047   1.844   3.693   8.356 -0.4829  1.6384 -0.1594
 8529SOL     OW37048   0.430   1.164   8.196  0.2498  0.1846 -0.3409
 8529SOL    HW137049   0.501   1.118   8.151 -0.0012 -0.7796  0.2532
 8529SOL    HW237050   0.359   1.108   8.227  0.2955 -0.2062 -0.9531
 8530SOL     OW37051   4.445   1.469  10.793  0.5535 -0.3288  0.3887
 8530SOL    HW137052   4.384   1.514  10.852  1.5615 -1.4787  2.3138
 8530SOL    HW237053   4.529   1.512  10.809  0.8194 -0.7926  0.2346
 8531SOL     OW37054   1.679   2.528   8.359 -0.3162 -0.2369  0.0208
 8531SOL    HW137055   1.653   2.610   8.401  1.9229  0.1775  0.6247
 8531SOL    HW237056   1.608   2.522   8.295  0.0517  3.6709 -0.7061
 8532SOL     OW37057   4.023   4.246   8.193 -0.2404 -0.2262 -0.1596
 8532SOL    HW137058   3.974   4.213   8.269  0.3579 -2.0729 -0.5769
 8532SOL    HW237059   4.100   4.189   8.190  0.0029 -0.0127  1.9842
 8533SOL     OW37060   0.654   3.878   6.827 -0.1790 -0.5831  0.0031
 8533SOL    HW137061   0.595   3.906   6.757  0.7509 -0.2133 -0.6182
 8533SOL    HW237062   0.730   3.849   6.778 -1.3564 -1.7976 -1.0999
 8534SOL     OW37063   0.010   1.626  14.209 -0.5380 -0.2955  0.2501
 8534SOL    HW137064   0.001   1.603  14.116 -1.9837 -2.3620  0.9247
 8534SOL    HW237065   0.098   1.665  14.210 -0.1094 -1.2535  0.4028
 8535SOL     OW37066   2.071   1.210  13.593 -0.1953  0.0296 -0.4315
 8535SOL    HW137067   2.100   1.300  13.582  1.6785 -0.6264 -0.7958
 8535SOL    HW237068   2.136   1.185  13.659 -0.6119  1.2017  0.4160
 8536SOL     OW37069   0.457   4.168   5.297 -0.0984  0.5771 -0.2183
 8536SOL    HW137070   0.388   4.202   5.355  0.0439  0.6368 -0.0841
 8536SOL    HW237071   0.509   4.118   5.360 -0.3950  2.1170  1.2726
 8537SOL     OW37072   3.249   3.304   7.134 -0.6861 -0.0877  1.0354
 8537SOL    HW137073   3.205   3.311   7.049  0.3613  0.0392  0.5014
 8537SOL    HW237074   3.213   3.225   7.174 -1.9597 -0.2574 -0.4196
 8538SOL     OW37075   3.015   1.844   2.368 -0.1903  0.1494 -0.5574
 8538SOL    HW137076   2.955   1.917   2.357 -0.5440  0.1590  1.4777
 8538SOL    HW237077   3.022   1.806   2.280 -0.5393  0.2379 -0.6205
 8539SOL     OW37078   3.412   2.243   4.053  0.3513  0.3183  0.3392
 8539SOL    HW137079   3.420   2.199   4.138  3.5623 -0.5840 -0.4512
 8539SOL    HW237080   3.334   2.203   4.013  0.4188  0.0653  0.4575
 8540SOL     OW37081   3.925   1.548   0.246  0.1607  0.2552  0.4596
 8540SOL    HW137082   3.833   1.522   0.250  1.1014 -3.4330 -2.4120
 8540SOL    HW237083   3.945   1.571   0.337 -0.1398 -1.1968  0.9071
 8541SOL     OW37084   3.475   2.670   0.026 -0.7702  0.1905  0.3159
 8541SOL    HW137085   3.421   2.596   0.053  0.7282 -1.1501 -0.3600
 8541SOL    HW237086   3.512   2.697   0.110  0.9234 -0.0464 -0.3661
 8542SOL     OW37087   0.220   0.682   4.205 -0.4881  0.1283  0.1922
 8542SOL    HW137088   0.195   0.592   4.186  0.6502  0.3506 -2.3786
 8542SOL    HW237089   0.138   0.704   4.249 -0.6242  1.0682 -0.5394
 8543SOL     OW37090   1.005   2.382   5.575 -0.2398  0.3506 -0.2729
 8543SOL    HW137091   0.926   2.378   5.629 -0.3282 -1.0611 -0.5002
 8543SOL    HW237092   1.075   2.369   5.638 -0.2206 -0.9859 -0.5680
 8544SOL     OW37093   3.700   4.600   8.393  0.1260 -0.2217 -1.1530
 8544SOL    HW137094   3.769   4.581   8.458 -1.2822 -1.0844  0.0943
 8544SOL    HW237095   3.623   4.606   8.450  0.6712 -0.9509 -0.3394
 8545SOL     OW37096   1.376   0.122   5.185 -0.0042 -0.4414  0.1423
 8545SOL    HW137097   1.319   0.162   5.251 -0.5734 -0.1332 -0.5283
 8545SOL    HW237098   1.426   0.058   5.235  0.6447 -2.2473 -2.8051
 8546SOL     OW37099   2.365   1.049  14.126 -0.6169 -0.1571 -0.1039
 8546SOL    HW137100   2.438   1.036  14.066 -0.1672  2.2122 -0.0995
 8546SOL    HW237101   2.382   0.981  14.191 -2.4311  0.8313  1.4170
 8547SOL     OW37102   4.541   1.702   5.755  0.0346  0.0759  0.6086
 8547SOL    HW137103   4.565   1.683   5.664  1.3279 -1.5331  1.2758
 8547SOL    HW237104   4.448   1.683   5.745  0.5843 -1.2046 -2.2169
 8548SOL     OW37105   1.711   0.123   7.692 -0.5431 -0.6647 -0.6378
 8548SOL    HW137106   1.734   0.035   7.664  1.3321 -0.0097 -1.1890
 8548SOL    HW237107   1.738   0.176   7.617 -2.5566  0.3330 -0.6605
 8549SOL     OW37108   1.017   1.272   3.701  0.4027 -0.3068  0.2116
 8549SOL    HW137109   0.991   1.326   3.776  2.1037  0.5178  0.1969
 8549SOL    HW237110   0.974   1.322   3.632  0.3874 -1.1288 -0.3687
 8550SOL     OW37111   0.873   1.099   0.941  0.1247  0.0320 -0.0173
 8550SOL    HW137112   0.806   1.074   1.004 -1.6637  2.9897 -0.7786
 8550SOL    HW237113   0.924   1.020   0.924  2.6309  1.7066 -0.4253
 8551SOL     OW37114   2.795   4.057   5.636  0.0858  0.6132 -0.2498
 8551SOL    HW137115   2.701   4.039   5.626  0.9776 -3.7625 -0.8667
 8551SOL    HW237116   2.793   4.145   5.672  1.8380  0.6050 -0.1303
 8552SOL     OW37117   3.005   3.638   0.041 -0.1273  0.3521 -0.4596
 8552SOL    HW137118   3.031   3.561   0.092 -1.3762 -1.2968 -2.3360
 8552SOL    HW237119   3.078   3.641  17.673  1.3784 -0.2933  1.2458
 8553SOL     OW37120   4.605   3.532   7.761 -0.2570 -0.3739 -0.2049
 8553SOL    HW137121   4.530   3.576   7.722  0.6133  0.2966 -1.1034
 8553SOL    HW237122   4.600   3.447   7.718 -1.9545  0.3635 -1.4757
 8554SOL     OW37123   2.885   1.785   3.685  0.5357  0.4814  0.1294
 8554SOL    HW137124   2.857   1.696   3.665 -1.3166  0.9967  0.4545
 8554SOL    HW237125   2.973   1.757   3.713  0.4188  0.1085  0.1284
 8555SOL     OW37126   1.266   0.635  12.601  0.1607  0.3982 -0.0422
 8555SOL    HW137127   1.217   0.695  12.544 -0.0189 -0.6583 -1.0046
 8555SOL    HW237128   1.257   0.549  12.560 -3.2977  1.3593 -1.2883
 8556SOL     OW37129   2.458   0.278  16.389 -0.3556 -0.2019  0.2940
 8556SOL    HW137130   2.531   0.338  16.372 -0.6041 -0.1524 -0.5817
 8556SOL    HW237131   2.501   0.194  16.370 -0.0309 -0.7177  3.1957
 8557SOL     OW37132   3.972   1.319   6.091  0.0020  0.0848 -0.4981
 8557SOL    HW137133   3.879   1.340   6.086 -0.1004 -0.0673  0.8943
 8557SOL    HW237134   3.989   1.278   6.006  0.1646 -0.6900 -0.0970
 8558SOL     OW37135   1.988   0.164   5.117  0.9062 -0.0510 -0.3609
 8558SOL    HW137136   1.988   0.070   5.137 -0.4141 -0.3850 -1.9953
 8558SOL    HW237137   1.938   0.173   5.037 -1.5654 -1.2197  1.0459
 8559SOL     OW37138   3.531   3.330   5.002  0.4773  0.4842 -0.2416
 8559SOL    HW137139   3.577   3.399   4.954 -1.0668  0.9651 -0.9985
 8559SOL    HW237140   3.603   3.301   5.059  0.6350  0.6208 -0.3720
 8560SOL     OW37141   2.437   0.026   4.706 -0.0517  0.3565  0.3073
 8560SOL    HW137142   2.494   0.086   4.658  0.8134 -1.6996 -1.2524
 8560SOL    HW237143   2.445   4.665   4.662 -1.7898  0.5130 -0.3323
 8561SOL     OW37144   3.019   3.917  10.730  0.0704  0.1639 -0.1036
 8561SOL    HW137145   2.930   3.951  10.736 -1.0609 -2.7947 -0.3689
 8561SOL    HW237146   3.036   3.896  10.822  2.4000  1.6916 -0.1666
 8562SOL     OW37147   2.805   0.033   2.383  0.1601  0.2569  0.0248
 8562SOL    HW137148   2.877   0.006   2.327  0.3834 -0.0134  0.4494
 8562SOL    HW237149   2.747   4.682   2.398  0.7546 -0.0664  0.7215
 8563SOL     OW37150   2.556   4.304  11.370  0.3077 -0.0454  0.3993
 8563SOL    HW137151   2.532   4.211  11.381 -2.4886  0.7762  1.4572
 8563SOL    HW237152   2.632   4.314  11.427  0.1959  2.5048  0.0779
 8564SOL     OW37153   2.855   0.016  11.814 -0.4643  0.0470  0.2132
 8564SOL    HW137154   2.936   0.067  11.807 -2.4375  3.2694  0.7908
 8564SOL    HW237155   2.793   0.085  11.790  0.8302  0.7511 -1.1130
 8565SOL     OW37156   0.127   4.572   4.869 -0.6955 -0.2970 -0.5852
 8565SOL    HW137157   0.149   4.662   4.844 -1.5069 -0.3292 -1.3792
 8565SOL    HW237158   0.188   4.527   4.811 -2.1041 -1.4712 -1.1419
 8566SOL     OW37159   0.010   4.640   7.853 -0.3768 -0.2654 -0.2075
 8566SOL    HW137160   0.079   4.610   7.793  0.5211 -2.0555  1.7484
 8566SOL    HW237161   4.659   4.649   7.793  0.2182  0.2954 -0.8713
 8567SOL     OW37162   3.451   2.582   8.068 -0.6600 -0.3737 -0.1013
 8567SOL    HW137163   3.356   2.570   8.070 -0.6412 -0.0253  2.2302
 8567SOL    HW237164   3.466   2.661   8.016 -0.2237  0.1341  0.8045
 8568SOL     OW37165   3.718   4.398   3.922  0.0263 -0.0104  0.2211
 8568SOL    HW137166   3.626   4.413   3.900 -0.7175 -0.3611  3.0044
 8568SOL    HW237167   3.754   4.384   3.835  0.9905 -1.4939  0.8557
 8569SOL     OW37168   0.128   4.046   8.888 -0.1727 -0.9144 -0.5481
 8569SOL    HW137169   0.156   4.125   8.841 -1.1703  0.1208  0.5697
 8569SOL    HW237170   0.202   3.994   8.858  0.6474  0.7448 -1.3857
 8570SOL     OW37171   3.330   0.754  11.048  0.2864  0.5722 -0.4321
 8570SOL    HW137172   3.351   0.734  11.140  1.0520  0.9337 -0.5274
 8570SOL    HW237173   3.419   0.771  11.018  0.2445 -1.2376 -1.5962
 8571SOL     OW37174   4.120   0.488   5.604  0.4990 -0.5786  0.4013
 8571SOL    HW137175   4.144   0.579   5.621  1.7450 -0.9512  0.6676
 8571SOL    HW237176   4.045   0.471   5.660  1.0713 -0.7284  1.1236
 8572SOL     OW37177   2.284   3.617   4.236 -0.1075  0.3335  0.6467
 8572SOL    HW137178   2.310   3.686   4.298 -0.4788 -0.0438  1.2272
 8572SOL    HW237179   2.201   3.659   4.212  0.3400  0.7637 -0.1448
 8573SOL     OW37180   1.714   1.983   9.959  0.2616  0.4381 -0.0077
 8573SOL    HW137181   1.774   2.011  10.028  0.6503  2.8908 -1.3602
 8573SOL    HW237182   1.633   1.954  10.000 -0.9635  1.1449 -1.9565
 8574SOL     OW37183   4.616   0.395  12.946 -0.8961 -0.4738 -0.4112
 8574SOL    HW137184   4.531   0.353  12.962  0.2562 -2.7061 -0.1871
 8574SOL    HW237185   4.642   0.371  12.857 -1.8801 -3.1624  0.0440
 8575SOL     OW37186   1.278   0.035   1.474 -0.1439 -0.2231 -0.0639
 8575SOL    HW137187   1.215   0.063   1.408  2.9356  3.1066 -1.5859
 8575SOL    HW237188   1.242   4.675   1.506  1.7333 -0.8594  0.4314
 8576SOL     OW37189   1.422   2.888   7.709 -0.2600 -0.3424 -0.5272
 8576SOL    HW137190   1.332   2.869   7.685  0.4422 -1.8060 -2.0177
 8576SOL    HW237191   1.430   2.977   7.676 -1.2064 -0.4221 -0.9785
 8577SOL     OW37192   0.233   2.189   3.663 -0.0674 -0.2652 -0.5010
 8577SOL    HW137193   0.202   2.269   3.620 -0.1939 -1.0303 -1.8283
 8577SOL    HW237194   0.167   2.184   3.733  0.6657 -1.0859  0.1354
 8578SOL     OW37195   0.200   3.361   4.021  0.1973  0.4638  0.1176
 8578SOL    HW137196   0.265   3.427   4.044  1.2821  0.0768 -1.8514
 8578SOL    HW237197   0.169   3.327   4.105 -0.3473  0.3060 -0.1483
 8579SOL     OW37198   3.306   4.322  16.897  0.5734  0.5189  0.1844
 8579SOL    HW137199   3.234   4.267  16.926  0.9715 -0.8392 -1.4260
 8579SOL    HW237200   3.305   4.384  16.970 -3.5846  1.6121 -0.8319
 8580SOL     OW37201   3.789   0.465   4.744  0.2203  0.4012  0.2250
 8580SOL    HW137202   3.774   0.558   4.732  1.4485  0.7648  1.5590
 8580SOL    HW237203   3.724   0.439   4.809 -0.2473 -0.2973 -0.5222
 8581SOL     OW37204   3.904   1.212   9.530 -0.5353 -0.2992  0.6712
 8581SOL    HW137205   3.913   1.307   9.533  2.2156 -0.5724  1.0876
 8581SOL    HW237206   3.873   1.193   9.618  0.6918 -1.7174  0.8021
 8582SOL     OW37207   3.553   1.200   3.898  0.2656  0.1079 -0.1719
 8582SOL    HW137208   3.523   1.121   3.943 -2.6551 -0.6301 -3.4342
 8582SOL    HW237209   3.589   1.254   3.969 -0.9168  1.5132 -0.6678
 8583SOL     OW37210   3.670   2.778   7.516 -0.4234  0.3862  0.5119
 8583SOL    HW137211   3.624   2.850   7.473  0.6777 -0.0736 -1.4467
 8583SOL    HW237212   3.704   2.825   7.591 -1.5029  2.3218 -0.2131
 8584SOL     OW37213   3.336   0.082  15.877  0.6207  0.2129  1.3881
 8584SOL    HW137214   3.393   0.060  15.803 -0.3233  1.2617  0.3682
 8584SOL    HW237215   3.315   0.170  15.848  0.3894  0.3896  2.0884
 8585SOL     OW37216   3.928   3.749  16.789 -0.0679  0.1382  0.1128
 8585SOL    HW137217   3.908   3.659  16.763 -2.4546  0.9161 -0.7462
 8585SOL    HW237218   3.944   3.795  16.707  1.1997 -2.0480 -0.8629
 8586SOL     OW37219   3.962   1.069   5.403  0.6664 -0.2430 -0.1571
 8586SOL    HW137220   4.000   1.150   5.370  1.0797  0.1766  1.3692
 8586SOL    HW237221   4.030   1.004   5.387  0.1186  0.0347 -3.5720
 8587SOL     OW37222   4.432   3.674   7.616  0.0480 -0.4566  0.1214
 8587SOL    HW137223   4.344   3.708   7.608  0.1831 -0.0244  0.4968
 8587SOL    HW237224   4.488   3.752   7.611  1.5636 -1.7492 -3.4365
 8588SOL     OW37225   0.410   4.176   2.350  0.0698  0.0226 -0.5612
 8588SOL    HW137226   0.360   4.094   2.350  1.6038 -0.9158  0.6946
 8588SOL    HW237227   0.374   4.247   2.403  0.0824 -1.2311  1.1428
 8589SOL     OW37228   0.336   2.289   7.799 -0.3397  0.2064  0.2430
 8589SOL    HW137229   0.292   2.334   7.871  0.3961  3.4436 -1.3588
 8589SOL    HW237230   0.308   2.199   7.817 -0.1830  0.0808 -0.1510
 8590SOL     OW37231   3.751   0.383  12.454  0.4957 -0.7794 -0.7193
 8590SOL    HW137232   3.697   0.453  12.491  1.5493  0.1192 -0.9026
 8590SOL    HW237233   3.800   0.352  12.530 -1.0590  2.7519  1.7261
 8591SOL     OW37234   4.650   2.932   8.643  0.1294 -0.1300 -0.1934
 8591SOL    HW137235   4.574   2.883   8.674 -0.3452  0.9661  0.3501
 8591SOL    HW237236   4.606   2.981   8.574  1.5092  2.5576  0.8300
 8592SOL     OW37237   1.575   0.402   5.113 -0.1973  0.4774  0.0710
 8592SOL    HW137238   1.664   0.436   5.109 -0.2532  0.4376 -1.3702
 8592SOL    HW237239   1.585   0.320   5.162 -1.0539  0.0747 -0.4316
 8593SOL     OW37240   1.610   2.905   8.694  0.6514  0.0473  0.1471
 8593SOL    HW137241   1.623   2.943   8.606  0.1046  0.9708  0.4621
 8593SOL    HW237242   1.557   2.977   8.730  0.9982 -0.2807  1.2945
 8594SOL     OW37243   0.649   3.960   4.977  0.2228 -0.5162  0.2433
 8594SOL    HW137244   0.731   3.966   5.026  0.2169 -0.3688  0.2354
 8594SOL    HW237245   0.598   3.933   5.054  1.3137  0.7698  1.4313
 8595SOL     OW37246   1.928   3.012   2.400 -0.7103  0.0431 -0.1245
 8595SOL    HW137247   2.016   2.983   2.377 -0.1537  0.8421  0.9954
 8595SOL    HW237248   1.943   3.089   2.455  0.6391 -0.6486  0.4806
 8596SOL     OW37249   0.524   0.122   4.936  0.2750 -0.6083  0.4190
 8596SOL    HW137250   0.473   0.178   4.877 -0.0845 -2.0742 -0.6746
 8596SOL    HW237251   0.469   0.043   4.940 -0.9751  0.3827  2.8234
 8597SOL     OW37252   1.171   1.395   7.653 -0.2179 -0.0599  0.3888
 8597SOL    HW137253   1.139   1.364   7.738  0.1595 -0.6980  0.2906
 8597SOL    HW237254   1.127   1.480   7.663 -0.2292  0.0158 -0.3515
 8598SOL     OW37255   3.076   3.044  16.034  0.3622 -0.3215 -0.1128
 8598SOL    HW137256   3.170   3.029  16.025  0.8358  2.7237 -0.2262
 8598SOL    HW237257   3.082   3.109  16.103  2.0864 -0.8812  0.2628
 8599SOL     OW37258   2.276   3.587   0.120 -0.1619 -0.0324  0.2331
 8599SOL    HW137259   2.351   3.528   0.124 -0.5402 -0.2841  2.9707
 8599SOL    HW237260   2.237   3.543   0.044 -0.6014 -0.6094  0.8027
 8600SOL     OW37261   3.302   4.127  16.710  0.0360  0.0246 -0.1459
 8600SOL    HW137262   3.307   4.170  16.625  0.2784 -1.3689 -0.8417
 8600SOL    HW237263   3.304   4.206  16.764  1.7948 -0.6067  0.6929
 8601SOL     OW37264   0.440   4.446   8.393 -0.1330  0.4005  0.3186
 8601SOL    HW137265   0.483   4.456   8.478  1.0433 -0.6457 -0.1442
 8601SOL    HW237266   0.499   4.497   8.338  1.3731  0.0094  1.5572
 8602SOL     OW37267   1.850   1.468   2.484 -0.5844  0.6688 -0.3865
 8602SOL    HW137268   1.878   1.463   2.393  0.7530 -1.3918  0.1337
 8602SOL    HW237269   1.892   1.389   2.519  0.0516  0.0044 -2.6356
 8603SOL     OW37270   0.674   0.415   7.683  0.1691  0.2088  1.1908
 8603SOL    HW137271   0.751   0.373   7.722 -0.1719  0.7047  2.3822
 8603SOL    HW237272   0.687   0.502   7.719 -1.4833  0.9366  0.0458
 8604SOL     OW37273   2.876   3.902  15.881  0.4225 -0.6151 -0.6860
 8604SOL    HW137274   2.963   3.897  15.920  0.7963 -0.9276 -1.5543
 8604SOL    HW237275   2.884   3.994  15.855 -1.1098 -1.7927 -5.3219
 8605SOL     OW37276   3.856   0.680   4.126  0.1159  0.4733 -0.7157
 8605SOL    HW137277   3.808   0.731   4.061  0.2751 -1.2810 -2.2065
 8605SOL    HW237278   3.941   0.681   4.081  1.1835 -1.6967  1.2608
 8606SOL     OW37279   1.153   3.077   1.003 -0.0772 -0.2868  0.0696
 8606SOL    HW137280   1.149   2.995   0.955 -1.1693  1.0545 -2.1413
 8606SOL    HW237281   1.247   3.097   0.997  0.0727 -1.1322 -0.2988
 8607SOL     OW37282   1.966   0.785   1.233  0.4141  0.1791  0.4164
 8607SOL    HW137283   2.054   0.806   1.202  0.1703  0.6087  0.0216
 8607SOL    HW237284   1.967   0.689   1.229 -0.0601  0.1310  1.3215
 8608SOL     OW37285   0.970   1.606   8.806  0.6128 -0.0548 -0.1809
 8608SOL    HW137286   1.038   1.649   8.755  0.2813  0.5423 -0.1241
 8608SOL    HW237287   0.918   1.681   8.834 -1.5215 -1.2619 -0.9012
 8609SOL     OW37288   4.346   1.023   2.427  0.2586 -0.4706  0.4041
 8609SOL    HW137289   4.261   0.989   2.455 -0.6307  1.8784  0.5690
 8609SOL    HW237290   4.359   0.981   2.342  1.6900  0.4765  0.1628
 8610SOL     OW37291   2.933   3.907  11.012 -0.2205  0.2052  0.8946
 8610SOL    HW137292   3.022   3.927  11.040  0.1420  0.2472 -0.2635
 8610SOL    HW237293   2.887   3.985  10.981 -1.5326 -0.6570  0.6704
 8611SOL     OW37294   2.946   1.192   6.730  0.3663 -0.0354 -0.3327
 8611SOL    HW137295   3.000   1.147   6.795 -1.6036  0.4278  1.6241
 8611SOL    HW237296   2.901   1.128   6.675  1.3283 -0.1146 -1.0367
 8612SOL     OW37297   0.274   2.338  17.632  0.0585 -0.0709 -0.0292
 8612SOL    HW137298   0.348   2.398  17.631  0.7860 -0.9764 -0.9873
 8612SOL    HW237299   0.241   2.352   0.026 -3.6644 -0.2642 -1.3724
 8613SOL     OW37300   1.825   1.037   7.985  0.2523 -0.1022 -0.2162
 8613SOL    HW137301   1.911   1.037   7.943  0.2443  2.2129 -0.2414
 8613SOL    HW237302   1.835   1.110   8.045 -2.2781 -0.5543  0.7607
 8614SOL     OW37303   1.870   2.801   7.270  0.2418  0.3737  0.3892
 8614SOL    HW137304   1.952   2.755   7.287 -0.0983 -0.8181 -1.2428
 8614SOL    HW237305   1.838   2.728   7.218 -1.0634  1.5649 -0.4619
 8615SOL     OW37306   2.002   0.189   5.700 -1.0389 -0.3364  0.0094
 8615SOL    HW137307   2.024   0.107   5.656 -2.7026 -0.0411 -1.3672
 8615SOL    HW237308   2.076   0.241   5.668 -2.6972  1.8012 -0.3517
 8616SOL     OW37309   2.231   0.984   3.673  0.0802 -0.2684  0.6560
 8616SOL    HW137310   2.251   0.892   3.658  0.3143 -0.5109  2.4211
 8616SOL    HW237311   2.287   1.020   3.604  0.8978  0.1557  1.5438
 8617SOL     OW37312   3.455   2.101   3.485  0.0307  0.1595 -0.4236
 8617SOL    HW137313   3.431   2.134   3.399 -0.5448 -0.4490 -0.4947
 8617SOL    HW237314   3.391   2.143   3.544  0.1924  1.6024 -1.2855
 8618SOL     OW37315   3.917   3.997   5.976 -0.0173  0.5689  0.0382
 8618SOL    HW137316   3.895   3.987   5.883 -1.0778 -1.7094  0.5355
 8618SOL    HW237317   3.932   4.091   5.979  0.4550  0.5348 -1.0208
 8619SOL     OW37318   3.558   1.937   7.302  0.1643  0.0445 -0.2128
 8619SOL    HW137319   3.548   1.875   7.374  0.2873 -0.4855 -0.6582
 8619SOL    HW237320   3.576   1.886   7.223 -1.4122 -2.0807  0.8049
 8620SOL     OW37321   2.752   3.622   1.921  0.2671 -0.0322 -0.2669
 8620SOL    HW137322   2.671   3.666   1.945  1.1215  2.1309 -1.3553
 8620SOL    HW237323   2.769   3.649   1.831  0.6359  3.2678  0.8196
 8621SOL     OW37324   4.291   2.442  13.260 -0.0292  0.1062 -0.1891
 8621SOL    HW137325   4.340   2.417  13.338 -0.1231 -1.3307 -0.6027
 8621SOL    HW237326   4.285   2.358  13.215  0.8213 -1.8750  3.4483
 8622SOL     OW37327   2.945   1.957  17.115 -0.3427  0.3434 -0.5993
 8622SOL    HW137328   2.895   1.890  17.161 -0.9318 -0.4671 -2.4232
 8622SOL    HW237329   2.937   1.929  17.023 -0.5835 -1.5735  0.0090
 8623SOL     OW37330   3.764   1.186   9.796 -0.8481  0.0223  0.2271
 8623SOL    HW137331   3.770   1.234   9.878 -1.9885 -1.3359  1.0897
 8623SOL    HW237332   3.673   1.199   9.772 -1.5845 -1.0382  2.5064
 8624SOL     OW37333   3.862   4.149   6.912  0.4790  0.2288 -0.0869
 8624SOL    HW137334   3.946   4.106   6.927  0.0409 -0.8199 -0.6217
 8624SOL    HW237335   3.883   4.239   6.936  2.5190 -0.4718  0.7392
 8625SOL     OW37336   3.724   1.618   2.909 -0.1607 -0.2028 -0.5695
 8625SOL    HW137337   3.686   1.606   2.822 -1.4404 -0.3327  0.0066
 8625SOL    HW237338   3.808   1.574   2.898 -0.4443 -0.4791 -1.6315
 8626SOL     OW37339   2.292   4.499   5.930 -0.0110 -0.2960 -0.2872
 8626SOL    HW137340   2.202   4.526   5.949  0.9232  1.6337  1.3323
 8626SOL    HW237341   2.293   4.416   5.977 -0.0066  0.5496  1.1934
 8627SOL     OW37342   0.344   1.202   9.784  0.0917  0.2825 -0.0164
 8627SOL    HW137343   0.363   1.147   9.708 -2.4567 -3.1352  1.8227
 8627SOL    HW237344   0.252   1.183   9.803  0.2124  0.4989  0.7765
 8628SOL     OW37345   4.538   0.330   6.868 -0.1557 -0.0007 -0.0039
 8628SOL    HW137346   4.579   0.247   6.845  0.5739 -0.3122  2.3591
 8628SOL    HW237347   4.618   0.383   6.869  0.7113 -1.3609  1.9372
 8629SOL     OW37348   4.510   1.080   4.052  0.0343 -0.0447 -0.7557
 8629SOL    HW137349   4.456   1.159   4.053 -0.9926 -0.7618  0.9527
 8629SOL    HW237350   4.447   1.018   4.015 -0.5339 -0.6677  1.2489
 8630SOL     OW37351   2.082   4.570  16.772 -0.3509  0.0491 -0.2107
 8630SOL    HW137352   2.048   4.481  16.765 -0.0285 -0.0291 -0.8091
 8630SOL    HW237353   2.000   4.615  16.791 -1.4590 -1.7994 -0.5283
 8631SOL     OW37354   4.556   1.030   2.213  0.4131  0.6850  0.4396
 8631SOL    HW137355   4.579   1.039   2.120  0.4324  3.7203  0.7276
 8631SOL    HW237356   4.497   0.955   2.220  0.4398  0.2680 -3.5313
 8632SOL     OW37357   2.577   1.699   7.604  0.1534  0.4747 -0.0461
 8632SOL    HW137358   2.517   1.665   7.671  0.7140  1.2556  0.8536
 8632SOL    HW237359   2.647   1.635   7.616 -0.4341 -0.0271  0.6866
 8633SOL     OW37360   2.256   2.533   0.090  0.1867  0.0172 -0.2566
 8633SOL    HW137361   2.236   2.535   0.184 -2.2350  1.5478 -0.7875
 8633SOL    HW237362   2.188   2.474   0.059  0.3098  0.4114 -1.2671
 8634SOL     OW37363   2.015   2.228   3.319  0.5940  0.6691 -0.5008
 8634SOL    HW137364   2.072   2.210   3.244  0.5905  1.3445 -0.6620
 8634SOL    HW237365   1.969   2.295   3.267 -0.7240  0.5937  0.5814
 8635SOL     OW37366   2.370   4.378   2.628 -0.5139  0.3532 -0.0726
 8635SOL    HW137367   2.400   4.458   2.671 -1.2603  1.6363 -1.9090
 8635SOL    HW237368   2.344   4.333   2.708 -0.1588  1.8930  0.9169
 8636SOL     OW37369   2.847   0.182   5.711 -0.4721 -0.0844 -0.2237
 8636SOL    HW137370   2.938   0.189   5.738 -0.0783 -0.7299 -1.3664
 8636SOL    HW237371   2.852   0.170   5.616 -1.1424  2.8414 -0.6165
 8637SOL     OW37372   1.475   1.335   8.247 -0.4081 -0.5857  0.3911
 8637SOL    HW137373   1.380   1.323   8.252 -0.5939  1.9902  3.1836
 8637SOL    HW237374   1.500   1.257   8.297  1.8408 -0.1485 -0.0555
 8638SOL     OW37375   0.122   1.205   7.662 -0.4916  0.4686 -0.2159
 8638SOL    HW137376   0.111   1.115   7.632  0.5253 -0.5052  2.3183
 8638SOL    HW237377   0.204   1.226   7.617  0.5065 -0.7242  1.0694
 8639SOL     OW37378   3.486   1.240   2.707  0.6930 -0.1905 -0.2774
 8639SOL    HW137379   3.424   1.168   2.721  1.5730 -0.9745 -0.4083
 8639SOL    HW237380   3.550   1.203   2.648 -1.9147 -1.5579 -2.2585
 8640SOL     OW37381   2.378   2.778   4.377  0.5482 -0.3842  0.1854
 8640SOL    HW137382   2.322   2.806   4.305  0.4933 -3.7180 -1.0497
 8640SOL    HW237383   2.431   2.858   4.373  0.7638 -0.6578 -2.5326
 8641SOL     OW37384   1.398   2.279   3.586 -0.2189 -0.0295 -0.9598
 8641SOL    HW137385   1.423   2.188   3.568 -0.1680 -0.3682  0.7925
 8641SOL    HW237386   1.374   2.315   3.500  0.4106 -1.8375 -1.8861
 8642SOL     OW37387   3.115   1.279  11.254 -0.1313 -0.3189 -0.2774
 8642SOL    HW137388   3.029   1.276  11.296 -0.5376  0.2935 -1.0708
 8642SOL    HW237389   3.099   1.357  11.201 -2.8981  0.3298  1.5047
 8643SOL     OW37390   4.603   0.237   0.456 -0.8303 -0.0267 -0.0575
 8643SOL    HW137391   4.606   0.224   0.362  3.6328  1.0716 -0.0803
 8643SOL    HW237392   4.679   0.189   0.489 -0.4843  0.7283  0.2560
 8644SOL     OW37393   0.549   2.454   7.122 -0.1774  0.1701 -0.1282
 8644SOL    HW137394   0.607   2.484   7.193  0.9994 -0.8902 -0.6310
 8644SOL    HW237395   0.577   2.514   7.053  2.2821  0.5296  1.1891
 8645SOL     OW37396   2.421   0.028   6.630  0.2084  0.6902  0.1895
 8645SOL    HW137397   2.447   0.105   6.580  5.6550 -1.5738 -0.4589
 8645SOL    HW237398   2.494   4.692   6.611 -0.8651 -1.1110  1.7006
 8646SOL     OW37399   1.049   0.220   4.549 -0.1879  0.5906  0.6273
 8646SOL    HW137400   1.004   0.221   4.633 -1.5145  0.9613 -0.0968
 8646SOL    HW237401   1.127   0.167   4.568 -0.7247  0.1830  1.7252
 8647SOL     OW37402   1.892   1.643  16.937 -0.0966  0.1693 -0.0288
 8647SOL    HW137403   1.948   1.581  16.890 -1.9967  1.3861 -3.9411
 8647SOL    HW237404   1.851   1.587  17.003 -0.4755 -0.7399 -1.0262
 8648SOL     OW37405   3.363   4.610   5.956 -0.4256  0.2544 -0.0827
 8648SOL    HW137406   3.278   4.641   5.988  0.0241  2.2561 -0.8299
 8648SOL    HW237407   3.390   4.686   5.904 -1.7320  1.8162  1.5174
 8649SOL     OW37408   3.860   4.304   3.710 -0.0308 -0.3533  0.3652
 8649SOL    HW137409   3.941   4.265   3.745 -0.6524  0.5108  2.7839
 8649SOL    HW237410   3.888   4.349   3.631  1.1111 -0.3045  0.7905
 8650SOL     OW37411   3.756   0.136   8.618 -0.1603 -0.0093 -0.0504
 8650SOL    HW137412   3.673   0.094   8.592 -0.5884  0.1256  1.1000
 8650SOL    HW237413   3.730   0.225   8.595 -2.9711 -0.9328 -0.5038
 8651SOL     OW37414   3.622   0.185   6.069  0.4598  0.8817 -0.0621
 8651SOL    HW137415   3.676   0.237   6.009  0.2973  1.1372  0.0132
 8651SOL    HW237416   3.615   0.250   6.138  1.5450 -0.1068  0.9777
 8652SOL     OW37417   2.521   0.384   2.584 -0.6748 -0.1933  0.0988
 8652SOL    HW137418   2.435   0.362   2.549 -1.3983  1.1850  1.0352
 8652SOL    HW237419   2.540   0.475   2.561 -1.7726  0.0885  0.3124
 8653SOL     OW37420   2.302   4.336  14.934  0.5718  0.6365  0.1468
 8653SOL    HW137421   2.264   4.269  14.991  0.8135  0.3455 -0.0336
 8653SOL    HW237422   2.359   4.279  14.882 -1.3460  0.6333 -1.9690
 8654SOL     OW37423   0.136   1.658   1.892  0.1762  0.3062  0.2171
 8654SOL    HW137424   0.132   1.582   1.951  0.4081  0.4362  0.4006
 8654SOL    HW237425   0.229   1.658   1.871  0.2774  2.3068  0.6934
 8655SOL     OW37426   0.341   3.654   6.529  1.0038  0.4124 -0.0571
 8655SOL    HW137427   0.300   3.599   6.462  0.6082 -0.8402  1.2174
 8655SOL    HW237428   0.271   3.625   6.587  1.7005 -0.1616  0.5052
 8656SOL     OW37429   0.073   0.699   2.705  0.1999  0.3618 -0.6716
 8656SOL    HW137430   0.042   0.784   2.676 -0.6421  0.0812 -0.5996
 8656SOL    HW237431   0.158   0.725   2.741 -0.5440  1.3421  0.3593
 8657SOL     OW37432   4.466   4.519   4.214 -0.2059  0.0190 -0.1553
 8657SOL    HW137433   4.456   4.427   4.191  0.3781  0.3633 -1.7681
 8657SOL    HW237434   4.476   4.511   4.309 -1.0430 -1.4940 -0.1923
 8658SOL     OW37435   3.743   4.408   4.761 -0.0094  0.7136  0.1663
 8658SOL    HW137436   3.676   4.381   4.698  0.2650 -1.4434  0.7723
 8658SOL    HW237437   3.703   4.396   4.847 -0.0726 -1.6662 -0.1962
 8659SOL     OW37438   3.395   0.414   3.538 -0.6901 -0.4263 -0.1891
 8659SOL    HW137439   3.466   0.378   3.485 -0.4301 -1.7185  1.0365
 8659SOL    HW237440   3.419   0.365   3.616  0.4039  0.6558  0.1414
 8660SOL     OW37441   1.315   2.566  12.579 -0.0948  0.3786  0.2127
 8660SOL    HW137442   1.329   2.516  12.499 -1.8452 -1.5033  1.0884
 8660SOL    HW237443   1.395   2.540  12.625 -1.5816 -2.1751  1.3449
 8661SOL     OW37444   1.771   1.003   3.798 -0.2053 -0.2557  0.5079
 8661SOL    HW137445   1.865   1.007   3.816 -0.7135  1.1975  2.9124
 8661SOL    HW237446   1.772   0.944   3.723  0.4264  1.3452 -0.7443
 8662SOL     OW37447   3.964   2.864  11.161  0.1779 -0.0977  0.0775
 8662SOL    HW137448   3.951   2.839  11.069  2.2539 -0.7384 -0.0479
 8662SOL    HW237449   3.906   2.803  11.205  0.6928 -0.7817 -0.1942
 8663SOL     OW37450   4.280   1.407   4.612 -0.0932 -0.1782 -0.2136
 8663SOL    HW137451   4.222   1.371   4.679 -0.3797 -3.3440 -2.1551
 8663SOL    HW237452   4.212   1.470   4.587 -2.0462 -1.5641  1.6095
 8664SOL     OW37453   0.053   0.314   8.648 -0.1486 -0.6122 -0.1818
 8664SOL    HW137454   0.075   0.404   8.672 -1.4851  0.3083 -2.3891
 8664SOL    HW237455   0.116   0.299   8.578 -0.1762 -1.9851  0.0858
 8665SOL     OW37456   0.173   3.220  17.258 -0.0226 -0.8288  0.3622
 8665SOL    HW137457   0.100   3.252  17.311 -1.9857 -0.9955 -2.2222
 8665SOL    HW237458   0.239   3.193  17.322  2.6305  2.5312 -0.9612
 8666SOL     OW37459   3.607   2.390   9.008 -0.0221 -0.1727  0.1227
 8666SOL    HW137460   3.530   2.412   9.061  0.7832 -0.4358  1.3955
 8666SOL    HW237461   3.650   2.317   9.054 -0.4030  0.2885  1.2129
 8667SOL     OW37462   2.083   3.240  11.108 -0.5081  0.0106  0.0933
 8667SOL    HW137463   2.081   3.333  11.082  0.6391  0.1997  0.6473
 8667SOL    HW237464   2.095   3.261  11.201 -0.0401  2.9835 -0.6358
 8668SOL     OW37465   1.555   4.044   6.928 -0.0578 -0.3246 -0.3093
 8668SOL    HW137466   1.528   3.971   6.984  1.2820 -1.7615 -1.5423
 8668SOL    HW237467   1.507   4.110   6.978  1.6664 -1.2027  2.5038
 8669SOL     OW37468   0.843   0.542   4.861 -0.1453  0.3102 -0.2906
 8669SOL    HW137469   0.782   0.610   4.890  0.2395  0.0146  1.1779
 8669SOL    HW237470   0.876   0.507   4.943 -0.8980  0.6216  0.1485
 8670SOL     OW37471   1.243   3.253   4.057  0.5885 -0.1547 -0.6687
 8670SOL    HW137472   1.235   3.195   3.982  1.8668 -1.1693 -0.0259
 8670SOL    HW237473   1.238   3.341   4.021  0.6540 -0.7029 -1.9924
 8671SOL     OW37474   1.412   3.059   2.486 -0.0895 -0.1293 -0.4127
 8671SOL    HW137475   1.343   3.114   2.524 -0.6172 -0.1054 -1.4049
 8671SOL    HW237476   1.362   3.028   2.410  0.2568  1.3003 -1.2335
 8672SOL     OW37477   4.395   4.392   6.756 -1.1418  0.4755  0.0577
 8672SOL    HW137478   4.380   4.439   6.674 -0.5467  1.2154  0.3750
 8672SOL    HW237479   4.363   4.439   6.832  0.5909  2.5479 -0.4824
 8673SOL     OW37480   2.991   4.045   3.577 -0.0812  0.5901 -0.8488
 8673SOL    HW137481   3.014   3.997   3.656  0.1957  0.3708 -1.0653
 8673SOL    HW237482   2.910   4.091   3.600 -1.0898 -1.4735 -0.3080
 8674SOL     OW37483   1.583   4.308   8.551  0.0961 -0.1825  0.0728
 8674SOL    HW137484   1.612   4.341   8.637 -0.0863 -0.1008  0.1012
 8674SOL    HW237485   1.497   4.349   8.550 -1.1833 -2.8596  0.5483
 8675SOL     OW37486   2.776   4.610   2.885 -0.4081  0.1643  0.2161
 8675SOL    HW137487   2.856   4.573   2.921 -0.1852 -0.6715 -1.1516
 8675SOL    HW237488   2.822   4.692   2.867 -1.8246  0.5209 -1.7088
 8676SOL     OW37489   3.336   3.989  10.624 -0.6898 -0.3086  0.2347
 8676SOL    HW137490   3.287   4.068  10.645 -0.0842  0.4968 -1.3897
 8676SOL    HW237491   3.338   3.937  10.705  1.9334 -0.7839 -0.1471
 8677SOL     OW37492   2.187   0.821  14.896 -0.1594 -0.1368 -0.8671
 8677SOL    HW137493   2.141   0.780  14.969 -0.0231 -1.0321 -1.2931
 8677SOL    HW237494   2.269   0.773  14.890 -0.3222 -0.2352 -2.2935
 8678SOL     OW37495   3.720   0.119   2.667  0.8480 -0.5620  0.0569
 8678SOL    HW137496   3.630   0.149   2.653  0.3722 -0.6002  3.0618
 8678SOL    HW237497   3.760   0.141   2.583 -0.7230 -0.5474 -0.6933
 8679SOL     OW37498   2.487   1.991   7.933  0.4052 -0.2586  0.3475
 8679SOL    HW137499   2.461   1.987   8.025 -0.6101  0.1281  0.0760
 8679SOL    HW237500   2.513   1.902   7.911  1.2652  0.4198 -1.3985
 8680SOL     OW37501   1.599   3.913  16.770 -0.2001  0.0740  0.4235
 8680SOL    HW137502   1.689   3.907  16.802 -0.0673 -0.1414  0.0107
 8680SOL    HW237503   1.620   3.918  16.676 -1.1619  1.4016  0.2657
 8681SOL     OW37504   1.524   4.145   6.084  0.5906 -0.2914 -0.3112
 8681SOL    HW137505   1.436   4.174   6.059  0.7327 -1.3055 -2.0161
 8681SOL    HW237506   1.577   4.188   6.018  1.2576 -1.5117 -0.5785
 8682SOL     OW37507   2.041   0.874   8.898  0.0701 -0.6092  0.0189
 8682SOL    HW137508   1.945   0.875   8.890  0.0442 -0.1162  0.3822
 8682SOL    HW237509   2.066   0.782   8.911  2.1806 -0.3724 -2.4037
 8683SOL     OW37510   0.164   0.222   5.445 -0.6850  0.3141 -0.2365
 8683SOL    HW137511   0.107   0.258   5.377 -1.0663  2.3227  1.1466
 8683SOL    HW237512   0.181   0.305   5.489  1.4945  0.6304 -1.6384
 8684SOL     OW37513   3.006   3.911  13.810  0.2835  0.2834 -0.2833
 8684SOL    HW137514   3.059   3.885  13.734  0.0904  0.0543 -0.3385
 8684SOL    HW237515   3.040   3.852  13.877  1.7264 -0.2420 -1.4661
 8685SOL     OW37516   0.798   4.407  11.036  0.3062  0.0000  0.0585
 8685SOL    HW137517   0.861   4.358  11.089  0.5851  0.5160  0.2069
 8685SOL    HW237518   0.802   4.351  10.958  1.6332  1.7579 -1.1377
 8686SOL     OW37519   2.494   0.770  16.848 -0.4153  0.0051  0.0579
 8686SOL    HW137520   2.574   0.764  16.796  0.0405 -0.4765  0.8092
 8686SOL    HW237521   2.437   0.825  16.795  2.0569  0.6274 -1.9400
 8687SOL     OW37522   1.963   1.361   6.744  0.1419  0.0893 -0.3545
 8687SOL    HW137523   2.012   1.336   6.823  2.0378 -0.8248 -1.8246
 8687SOL    HW237524   1.876   1.327   6.765  0.5681 -0.8895 -0.1525
 8688SOL     OW37525   2.017   2.944  12.756 -0.3804 -0.6341 -0.1608
 8688SOL    HW137526   1.991   2.904  12.673  0.4116  0.9990 -1.2133
 8688SOL    HW237527   1.929   2.976  12.777 -0.0805  2.0678 -2.9922
 8689SOL     OW37528   1.818   2.062  12.781  0.0479 -0.2662  0.0938
 8689SOL    HW137529   1.882   2.069  12.852  1.4371 -0.2943 -1.1652
 8689SOL    HW237530   1.870   2.011  12.720  1.5520  0.4272  0.8063
 8690SOL     OW37531   2.034   4.439   7.493 -0.1765  0.0091 -0.5117
 8690SOL    HW137532   2.007   4.517   7.444 -3.1359 -1.2957 -0.9369
 8690SOL    HW237533   2.053   4.376   7.423 -0.8053 -1.2468  0.4476
 8691SOL     OW37534   1.991   0.945  16.249  0.4707 -0.2959 -0.1263
 8691SOL    HW137535   1.991   0.862  16.201 -0.4799  0.8468 -2.1320
 8691SOL    HW237536   2.048   0.994  16.189 -1.4740  0.3091 -1.4801
 8692SOL     OW37537   3.332   2.424   6.964  0.2751  0.0564  0.2847
 8692SOL    HW137538   3.237   2.420   6.950  0.1792 -0.0762  1.0026
 8692SOL    HW237539   3.363   2.461   6.881 -1.4425 -1.5744 -1.0901
 8693SOL     OW37540   4.347   2.905   5.629  0.3714  0.2559  0.2966
 8693SOL    HW137541   4.432   2.872   5.599  0.2520  0.9852 -0.8242
 8693SOL    HW237542   4.296   2.824   5.618 -0.6335  0.7120  1.5550
 8694SOL     OW37543   3.483   2.673   7.115  0.1235  0.4602 -0.0571
 8694SOL    HW137544   3.516   2.639   7.198 -1.5094  2.2552  1.3332
 8694SOL    HW237545   3.436   2.592   7.093  0.5772 -0.1015  1.0337
 8695SOL     OW37546   1.525   2.197   8.389  0.0928 -0.3217  0.1079
 8695SOL    HW137547   1.539   2.287   8.361  0.2109 -0.5001 -0.4044
 8695SOL    HW237548   1.447   2.168   8.341  1.1461 -1.1361 -1.1122
 8696SOL     OW37549   4.366   0.756   8.234 -0.2868  0.0359 -0.0331
 8696SOL    HW137550   4.415   0.787   8.158  0.3679 -1.6130 -0.2947
 8696SOL    HW237551   4.278   0.759   8.197 -0.5140 -1.0943  0.4310
 8697SOL     OW37552   2.605   0.691   3.044 -0.2357  0.4054  0.0039
 8697SOL    HW137553   2.567   0.727   3.124  1.2456 -1.5122  1.5518
 8697SOL    HW237554   2.593   0.597   3.057  0.2061  0.4630  0.8259
 8698SOL     OW37555   1.756   2.452   5.798  0.1786 -0.2542 -0.2991
 8698SOL    HW137556   1.748   2.392   5.872  3.8630 -1.9946 -1.2917
 8698SOL    HW237557   1.723   2.533   5.835 -0.3451 -0.3418 -0.5611
 8699SOL     OW37558   4.415   1.640   5.235 -0.6445  0.4200 -0.3520
 8699SOL    HW137559   4.381   1.656   5.146  1.4028 -0.4199 -1.2805
 8699SOL    HW237560   4.338   1.636   5.290 -0.4101 -0.3573 -0.0939
 8700SOL     OW37561   0.263   3.921   2.410  0.1460  0.0257 -0.1092
 8700SOL    HW137562   0.174   3.954   2.417  0.6730  0.8295  2.6206
 8700SOL    HW237563   0.270   3.858   2.482 -3.4846  0.7564  0.8637
 8701SOL     OW37564   3.786   4.044  16.630 -0.1708  0.4916  0.0361
 8701SOL    HW137565   3.695   4.018  16.648  0.2595 -0.2416  1.1444
 8701SOL    HW237566   3.799   4.084  16.716 -0.0458  2.6921 -1.0079
 8702SOL     OW37567   3.629   2.939   6.584 -0.2474 -0.1827 -0.2339
 8702SOL    HW137568   3.666   2.880   6.518  2.3741  2.0982 -0.7968
 8702SOL    HW237569   3.694   3.008   6.589  1.0979 -1.5576  1.0908
 8703SOL     OW37570   2.677   4.572   8.435 -0.2518  0.3423 -0.1530
 8703SOL    HW137571   2.629   4.638   8.385  1.4735  0.5883 -1.4719
 8703SOL    HW237572   2.653   4.584   8.527  2.3903  2.1175  0.2962
 8704SOL     OW37573   4.311   1.620   3.631 -0.3964  0.2965  0.0471
 8704SOL    HW137574   4.399   1.611   3.595  0.2073 -1.7185  2.0912
 8704SOL    HW237575   4.265   1.562   3.570  0.8989 -1.7202  1.0145
 8705SOL     OW37576   1.720   0.880  14.602  0.4815  0.1296 -0.0846
 8705SOL    HW137577   1.711   0.950  14.666  1.1184  0.5633 -0.4705
 8705SOL    HW237578   1.806   0.846  14.628 -0.6299 -1.6687  1.3310
 8706SOL     OW37579   2.468   2.048   2.728 -0.0658 -0.1977 -0.1757
 8706SOL    HW137580   2.551   2.010   2.757 -0.2237 -2.4340 -2.5911
 8706SOL    HW237581   2.494   2.078   2.640  0.9445 -1.1493 -0.2112
 8707SOL     OW37582   3.694   2.388   3.824 -0.5671  0.4288 -0.6431
 8707SOL    HW137583   3.611   2.400   3.870 -0.4343 -2.7517  0.4207
 8707SOL    HW237584   3.690   2.470   3.774 -1.5144 -0.6873 -2.3774
 8708SOL     OW37585   2.738   4.316   8.649  0.0219 -0.2586  0.2363
 8708SOL    HW137586   2.729   4.312   8.745 -2.1860  0.4447  0.0575
 8708SOL    HW237587   2.833   4.328   8.651 -0.1902  1.5924 -1.0023
 8709SOL     OW37588   4.585   4.538   9.661 -0.0376  0.3407  0.2056
 8709SOL    HW137589   4.538   4.491   9.592  1.7648 -1.0378 -0.0923
 8709SOL    HW237590   4.537   4.620   9.672  1.0054  1.0761 -0.6317
 8710SOL     OW37591   0.038   0.033   0.510 -0.0164  0.1613 -0.2953
 8710SOL    HW137592   0.122   0.049   0.468  0.6721 -0.8572  0.7011
 8710SOL    HW237593   0.068   4.709   0.587 -1.0448 -0.9774 -0.5922
 8711SOL     OW37594   3.502   1.889  11.542 -0.0263 -0.2463 -0.0562
 8711SOL    HW137595   3.511   1.883  11.637  0.8887 -0.0333 -0.1279
 8711SOL    HW237596   3.534   1.803  11.516  0.7298  0.4210 -1.3842
 8712SOL     OW37597   0.415   2.235   1.774 -0.5272  0.0933  0.0637
 8712SOL    HW137598   0.508   2.231   1.796 -0.8267  0.5779  1.3967
 8712SOL    HW237599   0.382   2.174   1.840 -0.0994 -1.3482 -1.0467
 8713SOL     OW37600   0.070   1.985   8.719  0.5167 -0.4172 -0.2670
 8713SOL    HW137601   4.698   1.982   8.728  0.4113 -1.5585 -1.8082
 8713SOL    HW237602   0.089   2.024   8.804 -2.5770  1.3028 -0.3561
 8714SOL     OW37603   3.481   2.117   7.787 -0.7938 -0.2276  0.1617
 8714SOL    HW137604   3.465   2.121   7.693 -0.2057  2.7417  0.2160
 8714SOL    HW237605   3.560   2.172   7.783 -1.9522  1.2915 -1.5465
 8715SOL     OW37606   0.023   1.820  13.692 -0.4587  0.3605  0.5901
 8715SOL    HW137607   0.030   1.855  13.603  1.3199 -1.5223 -0.0148
 8715SOL    HW237608   4.662   1.854  13.721 -2.1697 -3.4897  0.2741
 8716SOL     OW37609   3.571   4.291  13.085 -0.2667  0.5465  0.0012
 8716SOL    HW137610   3.514   4.339  13.145 -2.8185 -1.2831 -0.9191
 8716SOL    HW237611   3.650   4.329  13.122  0.2256 -2.5815  2.1695
 8717SOL     OW37612   1.855   1.328   4.785 -0.7204 -0.0796  0.0369
 8717SOL    HW137613   1.938   1.331   4.833  0.2153 -1.5757 -1.4614
 8717SOL    HW237614   1.825   1.419   4.791  1.6266  0.7316 -0.1276
 8718SOL     OW37615   4.453   4.536   3.930 -0.3048  0.0430 -0.1004
 8718SOL    HW137616   4.425   4.545   4.021  2.3041  1.9912  0.5035
 8718SOL    HW237617   4.389   4.585   3.878 -2.2727 -1.7736  0.6044
 8719SOL     OW37618   1.471   0.741   8.818  0.1474  0.2838 -0.1297
 8719SOL    HW137619   1.509   0.728   8.905 -0.6174 -0.6595  0.0642
 8719SOL    HW237620   1.381   0.757   8.848  0.1463  0.4165 -0.2026
 8720SOL     OW37621   0.273   0.533   9.200  0.0979 -0.2483 -0.5614
 8720SOL    HW137622   0.302   0.504   9.114  1.8416  1.6365 -0.6010
 8720SOL    HW237623   0.290   0.627   9.199  0.8722 -0.3731  0.6382
 8721SOL     OW37624   0.528   2.984   8.763 -0.0803 -0.4567 -0.3182
 8721SOL    HW137625   0.604   3.020   8.716 -0.0445  0.0734  0.1474
 8721SOL    HW237626   0.561   2.895   8.772 -1.0034 -0.7463  0.1304
 8722SOL     OW37627   2.456   4.478   5.319 -0.0289  0.4711 -0.3896
 8722SOL    HW137628   2.428   4.386   5.318 -3.4758  1.5109 -0.8137
 8722SOL    HW237629   2.507   4.493   5.399 -2.4618  1.1117  1.0448
 8723SOL     OW37630   4.540   1.134  11.986  0.1783 -0.4459 -0.0216
 8723SOL    HW137631   4.512   1.102  11.901  1.1398  0.4691 -0.6843
 8723SOL    HW237632   4.460   1.162  12.031  0.5104  1.6289 -0.7279
 8724SOL     OW37633   2.696   3.606  13.239  0.4985  0.0794  0.1482
 8724SOL    HW137634   2.736   3.688  13.267 -0.0416  0.6957 -0.9240
 8724SOL    HW237635   2.614   3.606  13.289  1.2758  0.3988  1.4313
 8725SOL     OW37636   2.907   3.176   2.046 -0.0535  0.2788 -0.0338
 8725SOL    HW137637   2.873   3.106   1.991  2.6228 -1.1964  0.2336
 8725SOL    HW237638   2.999   3.171   2.022 -0.1893 -0.0619 -0.4928
 8726SOL     OW37639   2.947   2.833   2.198  0.0161 -0.4427 -0.4526
 8726SOL    HW137640   2.951   2.836   2.102 -0.5901  0.4582 -0.4561
 8726SOL    HW237641   2.879   2.893   2.228  2.2162  1.3783  0.8647
 8727SOL     OW37642   1.581   2.098   5.722  1.0130 -0.1430 -0.4652
 8727SOL    HW137643   1.549   2.132   5.639  1.4544  2.9557  0.6432
 8727SOL    HW237644   1.557   2.006   5.714 -0.0893  0.2090 -1.0955
 8728SOL     OW37645   1.869   4.672   6.852 -0.5365 -0.5055 -0.0381
 8728SOL    HW137646   1.802   4.716   6.904  0.3554 -1.8537  2.2732
 8728SOL    HW237647   1.854   4.710   6.765  0.8034  0.9604  0.3693
 8729SOL     OW37648   1.966   2.345   2.669 -0.2615 -0.0639  0.0436
 8729SOL    HW137649   1.973   2.329   2.574  2.6107  0.2471  0.2058
 8729SOL    HW237650   1.933   2.434   2.676  0.7877  0.3260  0.0024
 8730SOL     OW37651   1.456   3.001  16.614  0.2908  0.8931  0.0815
 8730SOL    HW137652   1.377   3.051  16.637 -0.0345  0.5431 -0.2842
 8730SOL    HW237653   1.514   3.021  16.688  1.2722  2.4141 -1.1024
 8731SOL     OW37654   0.988   4.633   8.738 -1.1187 -0.0041  0.3947
 8731SOL    HW137655   1.062   4.620   8.798 -2.3659 -3.3288  1.2337
 8731SOL    HW237656   0.971   0.003   8.749  2.3208  0.5352  1.3152
 8732SOL     OW37657   0.620   3.194   6.173 -0.1738  0.2046  0.3806
 8732SOL    HW137658   0.652   3.213   6.262  0.7746  0.6437 -0.0574
 8732SOL    HW237659   0.696   3.140   6.153 -1.9924 -0.9449 -3.3853
 8733SOL     OW37660   1.300   3.664   6.480 -0.1053  0.2942 -0.2015
 8733SOL    HW137661   1.317   3.570   6.472  0.8094  0.2450  2.4215
 8733SOL    HW237662   1.369   3.692   6.419  0.3222  1.4124  0.7884
 8734SOL     OW37663   3.043   4.136  10.519 -0.0776 -0.3440  0.2028
 8734SOL    HW137664   3.057   4.052  10.564 -0.0981  0.4525  1.6899
 8734SOL    HW237665   3.005   4.194  10.584 -0.3072  0.8902 -1.0369
 8735SOL     OW37666   0.121   0.319   8.113 -0.3267  0.4602  0.2306
 8735SOL    HW137667   0.095   0.405   8.078  1.4734  0.3132 -1.4465
 8735SOL    HW237668   0.040   0.289   8.154  0.1323 -0.7341  0.2585
 8736SOL     OW37669   0.187   4.120   9.619  0.1818  0.1248 -0.0906
 8736SOL    HW137670   0.173   4.028   9.640 -2.8819  0.4499 -0.6997
 8736SOL    HW237671   0.257   4.135   9.683  0.1451  0.9238 -0.2384
 8737SOL     OW37672   4.431   0.051   1.215  0.5819  0.3019  0.5266
 8737SOL    HW137673   4.455   0.104   1.290 -1.3149  0.2863  1.1519
 8737SOL    HW237674   4.503   4.712   1.219  0.0658 -0.2651  0.8921
 8738SOL     OW37675   2.611   3.417  15.920  0.5166 -0.2776 -0.2409
 8738SOL    HW137676   2.694   3.371  15.905  0.8851  0.3567 -0.1567
 8738SOL    HW237677   2.550   3.352  15.954  0.5685 -1.0524 -1.6092
 8739SOL     OW37678   0.090   4.467   1.905  0.1344  0.2694  0.2985
 8739SOL    HW137679   0.126   4.396   1.852 -0.1452  1.4522 -1.4472
 8739SOL    HW237680   0.168   4.473   1.961  0.6807 -1.8868 -0.2084
 8740SOL     OW37681   1.111   0.056   8.120  0.4015 -0.4064 -0.0168
 8740SOL    HW137682   1.188   0.064   8.063  0.1628  0.2506 -0.2433
 8740SOL    HW237683   1.115   0.146   8.151  0.3567 -0.2112 -0.5700
 8741SOL     OW37684   3.589   0.969  17.645 -0.0568 -0.3367  0.2253
 8741SOL    HW137685   3.594   0.930  17.558  2.1140  2.9084 -1.1117
 8741SOL    HW237686   3.529   1.044  17.639  0.6435  0.2256  0.2356
 8742SOL     OW37687   0.188   0.332   3.146 -0.3898  0.3042 -0.3356
 8742SOL    HW137688   0.227   0.419   3.150 -2.9921  1.4257  0.4221
 8742SOL    HW237689   0.139   0.334   3.064 -0.0368  1.1148 -0.5263
 8743SOL     OW37690   1.800   1.646   2.694 -0.4304 -0.4303 -0.1301
 8743SOL    HW137691   1.818   1.608   2.608 -0.4182  1.0781 -0.8019
 8743SOL    HW237692   1.873   1.612   2.745  0.1691  0.6813 -0.2374
 8744SOL     OW37693   2.065   2.099   8.012  0.2315  0.7616  0.0786
 8744SOL    HW137694   1.977   2.134   8.020  0.0323  0.6190 -1.6534
 8744SOL    HW237695   2.085   2.076   8.103 -1.5863 -0.1674  0.2414
 8745SOL     OW37696   0.056   2.366   3.936 -1.2559 -0.4141 -0.2936
 8745SOL    HW137697   4.710   2.419   3.975  0.3303  1.2567  0.1935
 8745SOL    HW237698   0.061   2.398   3.846  1.3547  1.4371  0.5077
 8746SOL     OW37699   4.584   2.079  15.464  0.1734  0.3275 -0.4431
 8746SOL    HW137700   4.665   2.042  15.427 -0.2223 -2.8456  1.8865
 8746SOL    HW237701   4.622   2.134  15.533  1.0982 -0.5376 -0.2668
 8747SOL     OW37702   1.549   1.874   0.601 -0.2083  0.0837  0.0486
 8747SOL    HW137703   1.641   1.889   0.579  0.3397 -0.3477  2.0815
 8747SOL    HW237704   1.532   1.947   0.661 -0.2295  2.4495 -2.8205
 8748SOL     OW37705   2.303   4.286   2.870 -0.7265 -0.0793 -0.3323
 8748SOL    HW137706   2.275   4.212   2.923  0.7199  1.3319  2.4407
 8748SOL    HW237707   2.388   4.301   2.913  0.0593 -1.3538 -1.4389
 8749SOL     OW37708   2.183   2.694   1.751  0.2790 -0.3991  0.3080
 8749SOL    HW137709   2.240   2.676   1.676 -0.9511  1.7807 -1.1582
 8749SOL    HW237710   2.257   2.722   1.803  1.3413 -1.9068 -0.3931
 8750SOL     OW37711   4.374   1.553   2.541 -0.3163 -0.7579  0.0558
 8750SOL    HW137712   4.380   1.579   2.633  0.8384 -0.0440 -0.2232
 8750SOL    HW237713   4.283   1.574   2.519 -0.0327  0.8662  0.3975
 8751SOL     OW37714   2.025   4.700   9.763 -0.2536 -0.3339 -0.0426
 8751SOL    HW137715   2.095   4.635   9.772 -1.7844 -2.0962 -0.9352
 8751SOL    HW237716   1.978   4.648   9.699  1.6171  0.3956 -2.0212
 8752SOL     OW37717   1.478   3.931   0.524  0.2755  0.3520  0.0680
 8752SOL    HW137718   1.523   4.000   0.572  0.2522  0.5530 -0.1957
 8752SOL    HW237719   1.389   3.934   0.558 -0.1348 -0.9233 -0.9026
 8753SOL     OW37720   3.253   4.624   7.687  0.2576 -0.0379 -0.6463
 8753SOL    HW137721   3.163   4.654   7.695  1.1602  1.8881  2.4939
 8753SOL    HW237722   3.235   4.562   7.617  1.0781 -0.0160 -0.8750
 8754SOL     OW37723   1.638   3.665   4.679  0.2202 -0.0389  0.0408
 8754SOL    HW137724   1.669   3.748   4.644  0.5479  0.8689  2.5116
 8754SOL    HW237725   1.643   3.611   4.600  0.4303 -0.5079  0.3684
 8755SOL     OW37726   1.102   0.090   1.262 -0.4688  0.0916  0.3807
 8755SOL    HW137727   1.028   0.136   1.223 -0.0759 -0.2919 -0.8441
 8755SOL    HW237728   1.106   0.015   1.202  2.4058  0.3101  0.2804
 8756SOL     OW37729   3.336   3.437   3.248 -0.1772  0.9862  0.9463
 8756SOL    HW137730   3.352   3.514   3.193 -1.4987  1.2527  0.9350
 8756SOL    HW237731   3.404   3.445   3.314 -1.4863 -1.1594  2.5713
 8757SOL     OW37732   1.725   0.224   2.122  0.1427 -0.2037 -0.6601
 8757SOL    HW137733   1.752   0.186   2.038  0.7907 -2.4567  0.5739
 8757SOL    HW237734   1.733   0.318   2.105  0.4973  0.2246  1.8547
 8758SOL     OW37735   0.289   3.729   3.555 -0.3008  0.1277  0.0347
 8758SOL    HW137736   0.311   3.642   3.525 -1.3652 -0.4055  0.7766
 8758SOL    HW237737   0.293   3.721   3.651  1.5280  1.5202  0.0811
 8759SOL     OW37738   2.557   1.528   4.173 -0.6539 -0.2548 -0.0223
 8759SOL    HW137739   2.552   1.535   4.268  1.4347 -0.0471  0.0833
 8759SOL    HW237740   2.585   1.437   4.160  0.0963 -0.5625  3.8502
 8760SOL     OW37741   1.993   4.243   7.281  0.3849 -0.0321  0.3659
 8760SOL    HW137742   1.921   4.290   7.239  0.1694 -1.3549 -0.7335
 8760SOL    HW237743   2.060   4.246   7.213 -0.7906  0.1073 -0.7867
 8761SOL     OW37744   2.294   3.554  15.406  0.6455 -0.1212 -0.5940
 8761SOL    HW137745   2.225   3.488  15.403  1.0880 -0.7023  1.8128
 8761SOL    HW237746   2.372   3.501  15.420  0.3582  0.1163  1.9928
 8762SOL     OW37747   2.836   3.388  13.671  0.3614 -0.0470 -0.2378
 8762SOL    HW137748   2.904   3.350  13.615  1.2406  1.4059 -0.1719
 8762SOL    HW237749   2.860   3.352  13.756  2.3339 -0.7129 -1.0747
 8763SOL     OW37750   1.233   1.558  16.175 -0.2286 -0.1421 -0.2250
 8763SOL    HW137751   1.301   1.618  16.207 -0.8945  0.1537  0.6400
 8763SOL    HW237752   1.207   1.599  16.092 -0.2951  0.2587 -0.0057
 8764SOL     OW37753   1.435   2.308  15.572  0.2795 -0.2264 -0.0275
 8764SOL    HW137754   1.375   2.300  15.499  0.7709  1.3993 -0.5976
 8764SOL    HW237755   1.520   2.307  15.528  1.4382 -1.7468  2.1826
 8765SOL     OW37756   0.501   2.844   3.898  0.4424  0.4221  0.0724
 8765SOL    HW137757   0.573   2.784   3.918  0.7657  1.9172  3.3343
 8765SOL    HW237758   0.432   2.795   3.854 -1.0800  1.7857  0.9619
 8766SOL     OW37759   4.551   0.803   1.026  0.3165 -0.6944  0.1611
 8766SOL    HW137760   4.548   0.884   1.076 -2.1615  0.1883 -1.4120
 8766SOL    HW237761   4.525   0.753   1.103  1.8330 -2.2231 -0.3167
 8767SOL     OW37762   2.079   0.954   3.894  0.5669  0.6066  0.2645
 8767SOL    HW137763   2.127   0.986   3.818  0.2593  2.1996  0.7521
 8767SOL    HW237764   2.158   0.920   3.937  0.5959 -0.4487 -0.6205
 8768SOL     OW37765   1.171   4.340   7.884  0.0990 -0.8792 -0.4589
 8768SOL    HW137766   1.191   4.317   7.975  0.7121 -0.2156 -0.4207
 8768SOL    HW237767   1.248   4.392   7.861 -0.3322 -0.4556 -0.9520
 8769SOL     OW37768   2.281   0.922  15.824  0.2114 -0.0696  0.3083
 8769SOL    HW137769   2.241   0.977  15.756 -2.2825 -1.0800  0.9889
 8769SOL    HW237770   2.345   0.869  15.776 -0.4817 -0.3898 -0.2622
 8770SOL     OW37771   4.539   1.900   5.176  0.2080  0.1169  0.0119
 8770SOL    HW137772   4.522   1.944   5.259  0.0551  2.5986 -1.3403
 8770SOL    HW237773   4.483   1.823   5.184 -1.7213  1.7378  2.0576
 8771SOL     OW37774   1.222   0.526   1.893 -0.2583 -0.6851 -0.1767
 8771SOL    HW137775   1.237   0.596   1.956  0.2257 -0.9480  0.0004
 8771SOL    HW237776   1.307   0.484   1.906 -0.0407  0.4066  1.8687
 8772SOL     OW37777   2.387   2.417   5.136 -0.5636 -0.4892 -0.5741
 8772SOL    HW137778   2.410   2.461   5.218 -3.9691  1.4430 -0.6885
 8772SOL    HW237779   2.380   2.323   5.149  1.4932 -0.7054 -0.8929
 8773SOL     OW37780   3.711   0.496   6.616  0.1078 -0.0544 -0.5427
 8773SOL    HW137781   3.739   0.449   6.694  0.1249  1.0395  0.1090
 8773SOL    HW237782   3.720   0.586   6.646  0.8217  1.3109 -4.8076
 8774SOL     OW37783   1.142   0.030   5.833  0.3372  0.0468  0.4229
 8774SOL    HW137784   1.154   0.111   5.783  1.6417  0.5707  1.5645
 8774SOL    HW237785   1.099   4.712   5.759 -0.4384 -1.6369  1.8236
 8775SOL     OW37786   2.748   4.582   5.900  0.1296  0.1462 -0.2739
 8775SOL    HW137787   2.677   4.576   5.963  0.4956 -0.5923  0.0769
 8775SOL    HW237788   2.826   4.578   5.956 -0.0359  0.6446 -0.0139
 8776SOL     OW37789   1.112   1.732   1.589  0.0836  0.5537 -0.4872
 8776SOL    HW137790   1.104   1.642   1.559  0.3944  0.5100 -0.4370
 8776SOL    HW237791   1.020   1.757   1.594  0.1612  0.3635  1.7210
 8777SOL     OW37792   4.376   1.262   9.545 -0.1933 -0.1997  0.2180
 8777SOL    HW137793   4.431   1.320   9.598  0.9316 -1.9173  0.8882
 8777SOL    HW237794   4.332   1.322   9.484 -0.7846  0.2071  1.0456
 8778SOL     OW37795   4.059   4.059   7.261 -0.3363 -0.3241  0.4542
 8778SOL    HW137796   4.058   4.068   7.166 -2.1272 -0.2415  0.4750
 8778SOL    HW237797   4.098   3.973   7.278  0.0359  0.2123  2.3986
 8779SOL     OW37798   1.368   2.554   5.813  0.3662  0.6035  0.1890
 8779SOL    HW137799   1.336   2.621   5.874  0.8325  2.1309 -1.2222
 8779SOL    HW237800   1.423   2.608   5.755 -0.2146  0.1847 -0.7537
 8780SOL     OW37801   2.774   0.275   3.338 -0.0068  0.2124  0.3480
 8780SOL    HW137802   2.791   0.232   3.422 -0.0214  0.8150  0.6600
 8780SOL    HW237803   2.780   0.197   3.283 -1.6088  0.0906  0.3279
 8781SOL     OW37804   4.674   1.647  14.472  0.3625  0.1750 -0.1980
 8781SOL    HW137805   4.721   1.725  14.503  1.2546 -0.7100  0.7000
 8781SOL    HW237806   4.699   1.634  14.380 -1.8139 -0.4413 -0.7062
 8782SOL     OW37807   4.588   0.824   6.195 -0.3194  0.2212 -0.0309
 8782SOL    HW137808   4.591   0.906   6.145  0.5995 -0.4690 -1.1018
 8782SOL    HW237809   4.585   0.762   6.123  1.0052 -2.3922  2.1729
 8783SOL     OW37810   4.362   4.272   6.301 -0.0301  0.1289 -0.4722
 8783SOL    HW137811   4.296   4.301   6.364 -0.6246  1.2585 -1.6195
 8783SOL    HW237812   4.329   4.316   6.223  1.8436 -1.3291 -2.0784
 8784SOL     OW37813   0.462   1.734   2.666  0.3327 -0.2575 -0.2100
 8784SOL    HW137814   0.552   1.766   2.664 -0.9269  3.4701  1.8151
 8784SOL    HW237815   0.467   1.641   2.687  2.9687 -0.0059  0.2829
 8785SOL     OW37816   0.327   0.572   5.234  0.0705 -0.4089  0.8200
 8785SOL    HW137817   0.318   0.553   5.140  1.2295 -0.0216  0.6330
 8785SOL    HW237818   0.298   0.488   5.269  1.6944 -1.5684 -0.5865
 8786SOL     OW37819   0.930   0.355   9.023 -0.3207 -0.0059  0.3168
 8786SOL    HW137820   0.921   0.439   8.977  0.9031  0.6393  1.2549
 8786SOL    HW237821   0.848   0.353   9.071 -1.6281  1.0008 -1.8498
 8787SOL     OW37822   0.538   1.485  10.151  0.1540 -0.0783 -0.3523
 8787SOL    HW137823   0.495   1.410  10.110 -1.0451  0.7559 -0.6449
 8787SOL    HW237824   0.622   1.453  10.181  1.2911  1.4692 -1.8617
 8788SOL     OW37825   4.278   1.885   3.146 -0.3262 -0.3759 -0.3665
 8788SOL    HW137826   4.358   1.906   3.097  0.5877 -0.9005  0.8937
 8788SOL    HW237827   4.257   1.969   3.186  3.5199  0.7024 -0.5758
 8789SOL     OW37828   0.172   0.050   8.061 -0.3717  0.2000 -0.2402
 8789SOL    HW137829   0.157   0.145   8.063 -1.0336  0.1433 -3.6201
 8789SOL    HW237830   0.104   0.028   7.998 -0.7677 -1.0625  0.6306
 8790SOL     OW37831   0.856   0.172   0.118 -0.5596  0.2835  0.0344
 8790SOL    HW137832   0.787   0.109   0.098 -1.0403  0.7632  0.1886
 8790SOL    HW237833   0.927   0.111   0.138 -1.3642 -0.6973 -0.0827
 8791SOL     OW37834   2.034   1.085  14.853 -0.0420 -0.8741  0.0504
 8791SOL    HW137835   2.106   1.076  14.790 -0.6693  1.0090 -0.9528
 8791SOL    HW237836   2.025   0.997  14.888  2.1782 -1.0329  0.2330
 8792SOL     OW37837   4.492   1.291   2.034 -0.0960  0.1622  0.1164
 8792SOL    HW137838   4.453   1.371   1.998  1.6556  0.4942 -1.0381
 8792SOL    HW237839   4.478   1.297   2.128 -1.6507  1.0103 -0.1688
 8793SOL     OW37840   0.227   1.418   2.656  0.1165 -0.2463 -0.1578
 8793SOL    HW137841   0.163   1.347   2.650  1.6322 -1.7688  1.5497
 8793SOL    HW237842   0.197   1.472   2.583 -0.1719  1.6227  1.3368
 8794SOL     OW37843   2.715   0.906   2.959  0.6076  0.1135 -0.1243
 8794SOL    HW137844   2.683   0.919   2.869 -0.6151  1.3371  0.4838
 8794SOL    HW237845   2.670   0.824   2.976  1.1070 -0.5154 -1.8078
 8795SOL     OW37846   0.753   4.592   5.957  0.0516  0.2899  0.3395
 8795SOL    HW137847   0.723   4.656   6.021 -3.3833  0.7888 -1.7721
 8795SOL    HW237848   0.848   4.597   5.953  0.1657 -1.2813  1.1472
 8796SOL     OW37849   3.546   2.147   4.719  0.3073 -0.0744  0.3206
 8796SOL    HW137850   3.585   2.132   4.633 -0.5380 -0.3180 -0.0238
 8796SOL    HW237851   3.517   2.239   4.719  0.3224 -0.0622 -1.8663
 8797SOL     OW37852   0.416   3.222   7.250  0.5309  0.1311 -0.2257
 8797SOL    HW137853   0.397   3.205   7.343 -0.4109  2.1544 -0.0257
 8797SOL    HW237854   0.412   3.317   7.261 -1.4164  0.1753 -1.3834
 8798SOL     OW37855   4.705   1.928   5.792 -0.2292  0.3604  0.4953
 8798SOL    HW137856   4.641   1.862   5.766  1.9898 -1.4884 -0.2612
 8798SOL    HW237857   4.656   2.010   5.792 -0.6246  0.1397  2.8391
 8799SOL     OW37858   3.791   1.163   8.297 -0.0002  0.1028 -0.0763
 8799SOL    HW137859   3.803   1.178   8.203  2.9154  2.1643  0.5776
 8799SOL    HW237860   3.789   1.068   8.303 -1.5629  0.2240  1.0613
 8800SOL     OW37861   2.870   2.260   0.823 -0.3009 -0.0708  0.4069
 8800SOL    HW137862   2.776   2.246   0.821 -0.3745  0.7375 -1.6923
 8800SOL    HW237863   2.881   2.260   0.918  0.9900  0.0575  0.2651
 8801SOL     OW37864   3.759   1.710   6.644  0.0553 -0.5170 -0.1596
 8801SOL    HW137865   3.752   1.620   6.675 -1.6095  0.0075  0.9729
 8801SOL    HW237866   3.825   1.695   6.576 -2.5362 -1.7970 -2.3910
 8802SOL     OW37867   1.121   0.875   7.998 -0.2347  0.3518  0.3327
 8802SOL    HW137868   1.060   0.801   7.999  1.3410 -0.9629  0.4638
 8802SOL    HW237869   1.107   0.895   8.091  1.6871 -2.4758  1.2395
 8803SOL     OW37870   4.234   1.110   2.103 -0.1488  0.1042  0.2323
 8803SOL    HW137871   4.322   1.105   2.067 -0.7956 -3.4451 -0.8113
 8803SOL    HW237872   4.195   1.050   2.040  0.9303 -2.0218  1.5957
 8804SOL     OW37873   4.656   1.513  15.152  0.0178 -0.0818 -0.8057
 8804SOL    HW137874   4.615   1.509  15.065  0.4513 -0.2260 -1.0035
 8804SOL    HW237875   0.014   1.554  15.122 -0.3090  1.0609 -0.1423
 8805SOL     OW37876   1.765   0.303   9.360 -0.0598  0.3214 -0.1421
 8805SOL    HW137877   1.682   0.272   9.397 -1.2591  2.0851 -1.3687
 8805SOL    HW237878   1.819   0.312   9.438 -1.6520 -1.1651  1.1316
 8806SOL     OW37879   0.546   0.370   6.315  0.0980 -0.2513  0.7720
 8806SOL    HW137880   0.627   0.320   6.309 -1.8705 -3.3155 -0.6372
 8806SOL    HW237881   0.547   0.404   6.404 -0.4670 -0.0687  0.7077
 8807SOL     OW37882   1.354   1.162   7.207  0.3402  0.0352  0.2580
 8807SOL    HW137883   1.364   1.240   7.152 -2.7530  1.2454  1.4215
 8807SOL    HW237884   1.328   1.193   7.294 -1.7767  0.0548 -0.3880
 8808SOL     OW37885   3.311   1.363  13.015  0.0556  0.7112 -0.7442
 8808SOL    HW137886   3.332   1.351  12.922 -1.1004  0.2342 -0.9316
 8808SOL    HW237887   3.217   1.381  13.016  0.0588  0.9744 -3.0973
 8809SOL     OW37888   3.656   1.895   9.997 -0.4648  0.3010 -0.0158
 8809SOL    HW137889   3.721   1.830  10.019 -0.0591  0.4930 -0.6410
 8809SOL    HW237890   3.695   1.928   9.916 -1.0401  1.2114  0.0714
 8810SOL     OW37891   3.980   2.474   5.650 -0.1138  0.1433 -0.4782
 8810SOL    HW137892   3.980   2.549   5.590 -2.8052  0.9479  0.5567
 8810SOL    HW237893   3.923   2.413   5.603  2.1980 -0.0023 -3.1367
 8811SOL     OW37894   4.691   0.567   6.851  0.1474 -0.4985 -0.0326
 8811SOL    HW137895   4.602   0.601   6.853 -0.0478 -0.9441 -0.9841
 8811SOL    HW237896   0.024   0.640   6.826 -0.3926  0.6478  2.1591
 8812SOL     OW37897   4.312   4.276   3.589  0.1109 -0.9674 -0.3433
 8812SOL    HW137898   4.249   4.209   3.563 -1.2099 -0.3753  1.3104
 8812SOL    HW237899   4.354   4.231   3.662  0.3134 -0.3000 -0.0458
 8813SOL     OW37900   2.427   2.029   8.201 -0.4283  0.0753  0.5356
 8813SOL    HW137901   2.345   2.060   8.241 -1.0018 -0.7666  0.0128
 8813SOL    HW237902   2.420   1.934   8.207  0.0920 -0.0144 -0.3335
 8814SOL     OW37903   1.057   1.642   5.145  0.8748 -0.0310 -0.2888
 8814SOL    HW137904   1.103   1.563   5.174  1.4884  0.5612  0.3570
 8814SOL    HW237905   0.976   1.628   5.195 -0.2204  1.8076 -1.5457
 8815SOL     OW37906   2.310   0.831   4.007  0.2383 -0.7268  0.2429
 8815SOL    HW137907   2.289   0.752   3.957 -0.0827  0.7788 -1.9895
 8815SOL    HW237908   2.334   0.788   4.089 -0.9055 -2.1835 -0.1815
 8816SOL     OW37909   0.483   1.156   3.657  0.3621  0.5290  0.0089
 8816SOL    HW137910   0.535   1.076   3.664  0.0563  0.4132  1.0283
 8816SOL    HW237911   0.417   1.140   3.589  0.1165  1.0883  0.1139
 8817SOL     OW37912   3.519   1.539  16.190  0.1837 -0.6024  0.7812
 8817SOL    HW137913   3.493   1.631  16.194 -0.4959 -0.7092 -1.1458
 8817SOL    HW237914   3.614   1.538  16.192  0.1825 -0.6247  0.8432
 8818SOL     OW37915   4.449   2.257  16.567 -0.4805  0.1119  0.5872
 8818SOL    HW137916   4.381   2.232  16.505 -0.9602 -1.1838  1.6256
 8818SOL    HW237917   4.443   2.193  16.638 -2.1034  0.1234  0.4461
 8819SOL     OW37918   0.946   2.012   3.776 -0.2904 -0.2858  0.0985
 8819SOL    HW137919   0.853   2.000   3.798 -0.3390 -0.1632 -0.0441
 8819SOL    HW237920   0.965   2.089   3.830  0.3161 -0.5920  0.3264
 8820SOL     OW37921   3.221   4.612   8.160  0.4096 -0.2130 -0.1626
 8820SOL    HW137922   3.221   4.520   8.187 -2.9064 -1.5053 -4.5619
 8820SOL    HW237923   3.148   4.599   8.099 -1.6813 -2.4158  2.7773
 8821SOL     OW37924   2.473   1.396   7.940  0.1353  0.1218 -0.6117
 8821SOL    HW137925   2.462   1.313   7.987  0.3467  0.4121 -0.0477
 8821SOL    HW237926   2.549   1.430   7.987  0.3891 -4.3307  2.2077
 8822SOL     OW37927   1.511   0.704   4.992  0.5042  0.4449 -0.0921
 8822SOL    HW137928   1.516   0.730   4.901  1.7170  0.8090  0.0770
 8822SOL    HW237929   1.463   0.777   5.030 -0.6238 -1.1403  1.5637
 8823SOL     OW37930   3.473   3.884  14.511 -0.9822 -0.2567  0.0658
 8823SOL    HW137931   3.507   3.949  14.573 -0.4656 -0.0027 -0.4803
 8823SOL    HW237932   3.435   3.943  14.446 -0.6875  0.7793  0.8212
 8824SOL     OW37933   1.453   4.446   3.891 -0.1175 -0.0786  0.3696
 8824SOL    HW137934   1.361   4.445   3.916 -0.2849 -1.7484 -0.3311
 8824SOL    HW237935   1.489   4.417   3.975  2.1492  1.2322 -0.1335
 8825SOL     OW37936   0.875   2.416   6.904  0.1681  0.4115  0.3240
 8825SOL    HW137937   0.917   2.484   6.852 -1.5492  0.9676 -0.3256
 8825SOL    HW237938   0.801   2.401   6.845 -0.6742  2.1670  0.9497
 8826SOL     OW37939   0.727   1.885   5.236 -0.0547 -0.2951 -0.3422
 8826SOL    HW137940   0.765   1.820   5.296 -2.0992 -1.2450 -0.0777
 8826SOL    HW237941   0.675   1.831   5.176 -0.9603  0.4624 -0.2294
 8827SOL     OW37942   2.242   4.351  11.479  0.0186 -0.1133 -0.2758
 8827SOL    HW137943   2.231   4.272  11.427 -0.3973 -0.0829 -0.2345
 8827SOL    HW237944   2.276   4.412  11.414  0.4831  0.7082  0.7455
 8828SOL     OW37945   3.973   3.614   9.185  0.2901 -0.9962  0.6893
 8828SOL    HW137946   3.894   3.562   9.196 -1.5712  1.5238 -0.6417
 8828SOL    HW237947   3.998   3.622   9.277 -2.1556 -2.7714  1.4973
 8829SOL     OW37948   1.705   0.524  13.321 -0.4858  0.8505  0.3463
 8829SOL    HW137949   1.633   0.513  13.383 -0.6386 -0.9929 -0.1758
 8829SOL    HW237950   1.667   0.606  13.288 -1.0732  0.1360 -0.7382
 8830SOL     OW37951   2.673   2.301  15.338  0.4047  0.5784 -0.2074
 8830SOL    HW137952   2.673   2.335  15.428  0.3602  1.4816 -0.5513
 8830SOL    HW237953   2.761   2.265  15.334  1.0266  1.7943  2.4749
 8831SOL     OW37954   0.460   1.449   9.641 -0.4606  0.5154 -0.2485
 8831SOL    HW137955   0.418   1.401   9.569 -0.7380  0.6562 -0.1797
 8831SOL    HW237956   0.416   1.402   9.712  1.0851  0.4517  0.6671
 8832SOL     OW37957   0.347   0.704   2.982 -0.2382  0.0193 -0.0432
 8832SOL    HW137958   0.339   0.787   2.936 -0.5016  0.0852  0.1217
 8832SOL    HW237959   0.257   0.682   3.006  0.2725 -0.8083  1.1210
 8833SOL     OW37960   2.639   4.311  13.617  0.0477 -0.4334 -0.0295
 8833SOL    HW137961   2.591   4.252  13.559  0.4308 -1.5287  0.7602
 8833SOL    HW237962   2.701   4.249  13.656  0.0722 -1.4652 -1.7230
 8834SOL     OW37963   0.152   3.191   4.749  0.2260 -0.4225  0.3741
 8834SOL    HW137964   0.066   3.150   4.751  0.3474 -0.7476 -1.2770
 8834SOL    HW237965   0.130   3.278   4.783 -0.5527 -0.5300  0.1547
 8835SOL     OW37966   0.316   2.850   6.861 -0.0950  0.0994  0.1817
 8835SOL    HW137967   0.386   2.875   6.800 -0.3463  0.3723 -0.0000
 8835SOL    HW237968   0.267   2.932   6.850 -3.3530 -1.8771 -0.2708
 8836SOL     OW37969   4.017   4.218   1.092  0.4053  0.5077  0.1245
 8836SOL    HW137970   4.046   4.309   1.095 -0.6000  0.8645 -0.7809
 8836SOL    HW237971   4.071   4.181   1.162  0.2770  0.7741  0.3635
 8837SOL     OW37972   2.342   2.955   4.933  0.2240  0.0185 -0.1003
 8837SOL    HW137973   2.276   3.000   4.882  0.1323  0.3374  0.2946
 8837SOL    HW237974   2.313   2.865   4.919  0.0288 -0.1080  1.0795
 8838SOL     OW37975   1.382   2.944  10.457 -0.4481 -0.5674 -0.1303
 8838SOL    HW137976   1.304   2.944  10.513 -0.2307 -0.4167  0.1677
 8838SOL    HW237977   1.348   2.964  10.370 -2.4225 -0.9804  0.5427
 8839SOL     OW37978   3.857   1.746   1.910 -0.6023  0.1355 -0.5708
 8839SOL    HW137979   3.783   1.704   1.868 -0.4029  0.9287 -1.7049
 8839SOL    HW237980   3.842   1.834   1.876 -0.9760 -1.0254 -3.3339
 8840SOL     OW37981   3.717   4.098   1.408  0.1633 -0.5206 -0.3840
 8840SOL    HW137982   3.740   4.047   1.486 -0.3667 -0.2080 -0.0224
 8840SOL    HW237983   3.781   4.169   1.419 -1.8736  1.3685 -0.5804
 8841SOL     OW37984   4.122   4.093   3.544 -0.0380 -0.2151  1.0024
 8841SOL    HW137985   4.059   4.111   3.475  1.3133  0.4109 -0.0716
 8841SOL    HW237986   4.177   4.026   3.503 -0.4898 -0.4207  0.7408
 8842SOL     OW37987   4.640   0.591  11.190  0.6278 -0.4663  0.1231
 8842SOL    HW137988   0.003   0.551  11.184  1.1782  0.7255 -0.0410
 8842SOL    HW237989   4.641   0.659  11.122  0.0298 -0.3597  0.2127
 8843SOL     OW37990   0.655   2.427   4.900  0.5789 -0.7100  0.3122
 8843SOL    HW137991   0.606   2.509   4.900  0.3681 -0.8258  2.9778
 8843SOL    HW237992   0.747   2.450   4.912  0.9951 -0.5220 -3.2647
 8844SOL     OW37993   3.799   2.286   5.877  0.1504 -0.1398  0.1040
 8844SOL    HW137994   3.821   2.240   5.958  1.0045 -1.8699 -1.1067
 8844SOL    HW237995   3.885   2.307   5.840  0.5633 -0.9254  0.6319
 8845SOL     OW37996   2.881   2.605   5.930  0.0883 -0.4197 -0.1597
 8845SOL    HW137997   2.922   2.588   6.015  1.8087 -1.4997 -1.2036
 8845SOL    HW237998   2.805   2.660   5.949 -0.5138 -0.5308 -2.2667
 8846SOL     OW37999   3.445   2.033  13.924 -0.4701  0.9312 -0.4542
 8846SOL    HW138000   3.526   2.040  13.974 -0.7858  2.4613 -0.1737
 8846SOL    HW238001   3.418   1.963  13.983  3.6882 -0.7925 -0.6102
 8847SOL     OW38002   0.405   1.833  12.745  0.0950  0.1861 -0.2070
 8847SOL    HW138003   0.470   1.814  12.677 -1.3336  0.3427 -1.6291
 8847SOL    HW238004   0.419   1.925  12.764  1.2290 -0.2279  0.9669
 8848SOL     OW38005   2.301   0.729   3.648  0.2166 -0.1345 -0.0150
 8848SOL    HW138006   2.339   0.701   3.731  2.6624 -0.6422 -1.3227
 8848SOL    HW238007   2.306   0.647   3.598 -1.4448  0.3009 -0.8927
 8849SOL     OW38008   4.521   3.592  10.214  0.1706 -0.0742  0.4216
 8849SOL    HW138009   4.564   3.595  10.129 -0.4832 -0.6080  0.0732
 8849SOL    HW238010   4.432   3.601  10.181  0.8418  3.8204 -0.3013
 8850SOL     OW38011   2.542   1.974   3.313 -0.3494  0.5809 -0.7479
 8850SOL    HW138012   2.576   1.920   3.385  0.3119  0.5358 -1.1014
 8850SOL    HW238013   2.589   2.057   3.329 -2.5010  1.6790 -0.1020
 8851SOL     OW38014   3.077   0.607  11.008 -0.0371  0.5793 -0.3705
 8851SOL    HW138015   3.045   0.631  10.921  1.4634 -2.8939 -1.8364
 8851SOL    HW238016   3.148   0.669  11.025  1.4780 -0.8338 -1.5322
 8852SOL     OW38017   1.469   4.628   3.376  0.5045 -0.5423 -0.3921
 8852SOL    HW138018   1.543   4.653   3.321 -0.3133  1.6500 -0.4634
 8852SOL    HW238019   1.500   4.655   3.463 -0.3186 -2.0131  0.3660
 8853SOL     OW38020   3.460   0.612   7.691 -0.0169 -0.2665  0.0317
 8853SOL    HW138021   3.458   0.700   7.730  1.5953 -0.4805  0.6046
 8853SOL    HW238022   3.516   0.624   7.614 -0.4441  2.5251  0.1554
 8854SOL     OW38023   0.488   0.651  12.606  0.3431 -0.2610 -0.2255
 8854SOL    HW138024   0.516   0.560  12.601  0.3174 -0.2797 -0.0341
 8854SOL    HW238025   0.435   0.646  12.526 -1.7503 -1.1700  1.2062
 8855SOL     OW38026   3.846   0.116  10.390 -0.0643  0.3158  0.2942
 8855SOL    HW138027   3.901   0.109  10.312  2.2349  0.5361  1.8854
 8855SOL    HW238028   3.832   0.025  10.416 -1.1444  0.1757 -0.7893
 8856SOL     OW38029   4.193   0.447  10.788  0.5694 -0.6877 -0.0784
 8856SOL    HW138030   4.247   0.462  10.711 -1.9327  0.0579 -1.7072
 8856SOL    HW238031   4.159   0.537  10.796 -0.2236 -1.0743  0.9746
 8857SOL     OW38032   1.799   2.514   1.139 -0.3709 -0.2035  0.5648
 8857SOL    HW138033   1.717   2.536   1.095  0.4730  0.4844 -0.6510
 8857SOL    HW238034   1.806   2.589   1.198 -0.0110  1.9915 -2.3128
 8858SOL     OW38035   0.767   4.142   8.649  0.1822 -0.4463 -0.4781
 8858SOL    HW138036   0.833   4.128   8.716  0.0103 -0.2685 -0.2694
 8858SOL    HW238037   0.710   4.210   8.686  2.1033  1.2427 -0.6489
 8859SOL     OW38038   1.305   1.443   0.623  0.1424  0.3596  0.4772
 8859SOL    HW138039   1.393   1.476   0.602 -0.1237  0.8098  0.0538
 8859SOL    HW238040   1.249   1.519   0.605 -1.4383 -0.4980  1.7598
 8860SOL     OW38041   4.288   1.971   7.657  0.0783  0.3186 -0.1225
 8860SOL    HW138042   4.302   2.037   7.725 -1.1593  2.1376 -1.6375
 8860SOL    HW238043   4.371   1.924   7.664 -0.5396 -0.9930 -1.6881
 8861SOL     OW38044   1.497   0.928   7.187 -0.4938 -0.6051 -0.1948
 8861SOL    HW138045   1.524   0.903   7.099 -0.8097  0.1572 -0.5084
 8861SOL    HW238046   1.433   0.998   7.176 -0.3062 -0.4580 -0.3480
 8862SOL     OW38047   0.813   2.720  13.988 -0.7569  0.4853  0.9361
 8862SOL    HW138048   0.852   2.635  14.010 -1.0113  0.4565  1.2737
 8862SOL    HW238049   0.892   2.768  14.012 -1.4437  2.5092 -0.8752
 8863SOL     OW38050   0.074   0.251  10.904  0.6438  0.0994 -0.8211
 8863SOL    HW138051   0.075   0.178  10.966  0.4062  0.3672 -0.4985
 8863SOL    HW238052   0.004   0.218  10.848 -1.5209  1.0643  1.2896
 8864SOL     OW38053   0.076   1.770   7.866  0.1487 -0.5207  0.4030
 8864SOL    HW138054   4.719   1.756   7.915  1.9005 -2.7127  2.6331
 8864SOL    HW238055   0.126   1.692   7.891 -2.0877 -1.8600  0.6582
 8865SOL     OW38056   2.766   3.705   6.849 -0.5476 -0.0069  0.6735
 8865SOL    HW138057   2.825   3.685   6.776 -0.8911 -1.2367  0.7259
 8865SOL    HW238058   2.799   3.634   6.903  1.0755 -0.3219 -0.7296
 8866SOL     OW38059   2.312   1.054   8.679 -0.0902  0.3175  0.1962
 8866SOL    HW138060   2.378   0.987   8.663 -0.9044 -1.2009  3.0767
 8866SOL    HW238061   2.367   1.123   8.715  0.3384 -0.2421  0.6071
 8867SOL     OW38062   1.328   1.992   3.894  0.7170 -0.2029  0.0108
 8867SOL    HW138063   1.287   1.999   3.808  0.7193  0.2022  0.0432
 8867SOL    HW238064   1.414   2.027   3.874 -0.1152  1.8009 -0.1147
 8868SOL     OW38065   2.863   0.774   0.605 -0.1464 -0.3700 -0.5431
 8868SOL    HW138066   2.851   0.805   0.695 -2.4898 -0.1519 -0.9109
 8868SOL    HW238067   2.829   0.686   0.623 -1.6054  0.7369  2.2057
 8869SOL     OW38068   2.447   2.179   3.548 -0.2407 -0.3476  0.3769
 8869SOL    HW138069   2.452   2.229   3.466 -0.0093 -0.4445  0.3322
 8869SOL    HW238070   2.519   2.117   3.540  1.8087  1.8857  1.4009
 8870SOL     OW38071   2.843   2.742  14.717  0.2116  0.8936  0.6786
 8870SOL    HW138072   2.827   2.805  14.646  1.3525 -0.9784 -1.2327
 8870SOL    HW238073   2.760   2.703  14.746  0.2994  2.4297  3.0414
 8871SOL     OW38074   3.098   0.408   8.276  0.5171  0.3596 -0.0196
 8871SOL    HW138075   3.193   0.402   8.271  0.6998  1.3710  2.0981
 8871SOL    HW238076   3.091   0.437   8.367  2.0573 -0.2119  0.2706
 8872SOL     OW38077   3.196   4.267   5.101 -0.2854 -0.3278  0.2703
 8872SOL    HW138078   3.190   4.363   5.098 -0.5379 -0.3658 -0.3936
 8872SOL    HW238079   3.105   4.247   5.082  0.1529 -2.6926  0.7250
 8873SOL     OW38080   1.679   3.534   3.679 -0.3962  0.0609  0.3731
 8873SOL    HW138081   1.630   3.452   3.677  0.5075 -0.5353  1.8756
 8873SOL    HW238082   1.711   3.538   3.589  1.6653 -0.8925  1.0576
 8874SOL     OW38083   1.669   1.266  14.590  0.0709 -0.2253 -0.0928
 8874SOL    HW138084   1.590   1.293  14.637  1.7067  1.6629  1.5294
 8874SOL    HW238085   1.685   1.179  14.625  0.2402 -0.4189 -0.6443
 8875SOL     OW38086   1.833   0.697  14.387  0.0294  0.2377  0.2489
 8875SOL    HW138087   1.778   0.768  14.420  2.0837  0.7335  2.5734
 8875SOL    HW238088   1.759   0.637  14.374 -0.4958  1.1092 -0.8275
 8876SOL     OW38089   1.422   1.756  16.255 -0.0794  0.6614  0.3675
 8876SOL    HW138090   1.512   1.726  16.249 -0.0268  0.4599  2.0456
 8876SOL    HW238091   1.427   1.850  16.268 -0.4400  0.7695 -0.2958
 8877SOL     OW38092   1.130   1.933   7.942 -0.3588 -0.4259  0.2578
 8877SOL    HW138093   1.129   2.026   7.921 -0.3991 -1.0044 -2.2786
 8877SOL    HW238094   1.198   1.918   7.876 -0.9448 -1.1577 -0.1785
 8878SOL     OW38095   4.527   4.125   2.008 -0.3710  0.2653 -0.0305
 8878SOL    HW138096   4.468   4.069   2.058 -0.7026 -0.9818 -1.8424
 8878SOL    HW238097   4.478   4.126   1.926 -0.5675  0.5057  0.0926
 8879SOL     OW38098   2.008   1.337   9.377 -0.2059  0.0442  0.0254
 8879SOL    HW138099   1.939   1.282   9.340  0.9163  0.3891 -2.5708
 8879SOL    HW238100   2.069   1.339   9.303 -0.7140 -3.7358 -0.5290
 8880SOL     OW38101   3.840   2.041   6.531 -0.3874 -0.4941 -0.1979
 8880SOL    HW138102   3.910   1.982   6.559 -0.1827 -0.6787 -1.1194
 8880SOL    HW238103   3.896   2.087   6.469 -0.2789  3.1676  2.6378
 8881SOL     OW38104   0.140   2.368   8.553 -0.7068 -0.2073  0.8655
 8881SOL    HW138105   0.187   2.450   8.537  0.1485 -0.5828  1.4030
 8881SOL    HW238106   0.200   2.302   8.515 -2.2652  0.4888 -2.7815
 8882SOL     OW38107   2.989   0.308   2.088  0.3250  0.7139 -0.1186
 8882SOL    HW138108   3.023   0.219   2.073 -2.4109 -0.3921  0.2423
 8882SOL    HW238109   3.055   0.354   2.037 -0.3305  2.5622  0.7153
 8883SOL     OW38110   0.004   0.916   4.636  0.4267  0.0722  0.3342
 8883SOL    HW138111   0.032   0.826   4.653  0.7133  0.3859  1.5105
 8883SOL    HW238112   4.634   0.904   4.619  0.6766  1.3677 -2.0114
 8884SOL     OW38113   1.070   3.587   9.890  0.0513  0.4130 -0.2072
 8884SOL    HW138114   1.103   3.628   9.810 -2.4517 -0.6445 -1.7705
 8884SOL    HW238115   0.978   3.613   9.892 -0.1962 -0.7675  2.6856
 8885SOL     OW38116   3.964   3.775   2.523  0.4578 -0.2346 -0.4888
 8885SOL    HW138117   3.913   3.856   2.521  1.4868  0.4009 -0.7759
 8885SOL    HW238118   4.004   3.778   2.437  1.5148  0.0750  0.0125
 8886SOL     OW38119   4.360   0.937  17.245 -0.2615  0.9315 -0.3568
 8886SOL    HW138120   4.439   0.909  17.291  0.0359 -0.4825 -1.7075
 8886SOL    HW238121   4.399   0.998  17.182  2.4783  0.2668  0.7088
 8887SOL     OW38122   2.673   1.290   5.715 -0.2968 -0.2411 -0.1899
 8887SOL    HW138123   2.620   1.316   5.639 -0.6340 -1.1365 -0.2649
 8887SOL    HW238124   2.764   1.310   5.694 -0.9735  1.5578 -1.4423
 8888SOL     OW38125   3.432   3.289   0.525 -0.1285 -0.1241 -0.1711
 8888SOL    HW138126   3.447   3.205   0.482  0.7862  0.7279 -1.5467
 8888SOL    HW238127   3.498   3.340   0.478 -1.1773 -1.7780 -3.3844
 8889SOL     OW38128   0.973   2.189  14.682 -0.2433 -0.0572  0.0684
 8889SOL    HW138129   0.955   2.099  14.709  0.3390 -0.2326 -0.1322
 8889SOL    HW238130   0.923   2.187  14.600  2.4526 -1.4217 -1.5168
 8890SOL     OW38131   3.515   1.508   3.216  0.3688  0.0581 -0.0032
 8890SOL    HW138132   3.434   1.529   3.262 -0.9216  0.2354 -2.3440
 8890SOL    HW238133   3.483   1.479   3.130  0.0491  1.9037 -0.5025
 8891SOL     OW38134   4.147   3.589  12.645 -0.0303 -0.1220  0.1380
 8891SOL    HW138135   4.114   3.581  12.556  2.4955 -0.5909 -0.7713
 8891SOL    HW238136   4.070   3.588  12.702 -0.7603 -0.3461 -0.8590
 8892SOL     OW38137   3.149   3.090   1.933  0.0340  0.4692 -0.1331
 8892SOL    HW138138   3.241   3.087   1.956 -0.2114  0.3293  0.8102
 8892SOL    HW238139   3.128   2.997   1.943  0.8999  0.3696  0.6607
 8893SOL     OW38140   1.846   1.909   2.747  0.4787  0.0088 -0.1048
 8893SOL    HW138141   1.930   1.876   2.778  0.4559  0.2566  0.2286
 8893SOL    HW238142   1.791   1.831   2.740 -1.3651  1.3860 -0.9161
 8894SOL     OW38143   2.999   4.706   7.725  0.5994 -0.1400 -0.3380
 8894SOL    HW138144   2.979   4.702   7.819  3.0541  1.0819  0.2235
 8894SOL    HW238145   2.948   4.629   7.698 -2.0825  1.1382  1.0639
 8895SOL     OW38146   2.629   3.631   2.731  0.0880 -0.3168  0.5927
 8895SOL    HW138147   2.613   3.556   2.673 -0.3892 -0.3167  0.7272
 8895SOL    HW238148   2.540   3.655   2.755 -0.7245 -2.3442 -0.3515
 8896SOL     OW38149   4.394   2.946   1.114 -0.0185 -0.2005  0.7305
 8896SOL    HW138150   4.464   2.883   1.095  0.3224  0.0242  1.2584
 8896SOL    HW238151   4.382   2.992   1.031 -0.0977  1.1009  1.4726
 8897SOL     OW38152   2.176   4.011   0.658 -0.0902  0.5938 -0.2653
 8897SOL    HW138153   2.149   3.923   0.686  0.5884  0.6757  0.6441
 8897SOL    HW238154   2.097   4.064   0.658 -0.4507  0.0279  2.5720
 8898SOL     OW38155   0.284   1.980   4.448 -0.2043 -0.2931 -0.1645
 8898SOL    HW138156   0.196   1.986   4.484 -0.2518  1.8539 -0.6224
 8898SOL    HW238157   0.280   1.962   4.354 -1.5068 -2.0632  0.2312
 8899SOL     OW38158   2.095   1.700   2.594  0.4255  0.4191  0.7142
 8899SOL    HW138159   2.138   1.785   2.592 -1.0897  1.1576 -0.5995
 8899SOL    HW238160   2.102   1.698   2.498  1.2620 -1.4785  0.8032
 8900SOL     OW38161   3.309   4.676   6.417 -0.0822  0.5720  0.6118
 8900SOL    HW138162   3.226   4.633   6.396  0.1553  0.8717 -0.9675
 8900SOL    HW238163   3.313   4.688   6.512 -1.1385 -0.5443  0.8020
 8901SOL     OW38164   2.336   0.379  12.985 -0.4178  0.5143 -0.6967
 8901SOL    HW138165   2.396   0.437  13.031 -1.1362  0.4992  0.2633
 8901SOL    HW238166   2.245   0.398  13.011 -0.4506 -1.0691  0.3628
 8902SOL     OW38167   3.214   2.663  17.275  0.3087  0.0574  0.0774
 8902SOL    HW138168   3.282   2.726  17.299 -0.0277  0.3283  0.3136
 8902SOL    HW238169   3.139   2.715  17.248  1.0019  0.5897 -0.8291
 8903SOL     OW38170   2.221   0.322   8.188 -0.3119  0.4908  0.1643
 8903SOL    HW138171   2.297   0.358   8.234  0.2190 -1.3194  0.6881
 8903SOL    HW238172   2.252   0.232   8.188 -0.9523  0.2759  0.3440
 8904SOL     OW38173   1.083   2.312   9.079  0.9510  0.2851 -0.0384
 8904SOL    HW138174   1.177   2.321   9.093  0.8871  0.3438  0.3527
 8904SOL    HW238175   1.073   2.352   8.993  1.2718 -0.8502 -0.6063
 8905SOL     OW38176   0.736   3.263   4.893  0.4452  0.0142  0.3058
 8905SOL    HW138177   0.688   3.344   4.910  1.0199 -0.1198  2.6621
 8905SOL    HW238178   0.764   3.267   4.802  1.0116 -2.3836  0.3752
 8906SOL     OW38179   2.519   0.332   2.876  0.5732 -0.5867 -0.4622
 8906SOL    HW138180   2.488   0.344   2.786  1.9560 -1.8908 -1.1327
 8906SOL    HW238181   2.607   0.370   2.874 -0.8545  2.8581  2.6021
 8907SOL     OW38182   3.972   2.221   5.472 -0.2408  0.4274  0.5226
 8907SOL    HW138183   3.942   2.131   5.488  1.6888 -0.0477  1.5400
 8907SOL    HW238184   3.894   2.268   5.443 -0.6019  0.9565  2.3527
 8908SOL     OW38185   4.209   4.498   2.403 -0.3063  0.0414 -0.1917
 8908SOL    HW138186   4.212   4.507   2.498  4.4856 -4.1781  0.0426
 8908SOL    HW238187   4.302   4.476   2.398 -0.3772 -0.1040 -0.8551
 8909SOL     OW38188   2.991   0.491   6.678 -0.2188 -0.4115 -0.5906
 8909SOL    HW138189   3.079   0.460   6.700 -0.9925 -2.0614  0.1561
 8909SOL    HW238190   2.992   0.561   6.743  2.3475 -1.4542  0.4933
 8910SOL     OW38191   0.968   4.597   4.334  0.2028  0.1464 -0.1993
 8910SOL    HW138192   1.044   4.573   4.387  0.5159 -0.3076 -0.8645
 8910SOL    HW238193   0.918   4.515   4.336 -1.1145  0.8706 -2.7370
 8911SOL     OW38194   1.034   2.838  16.822 -0.6328  0.3763 -0.5566
 8911SOL    HW138195   1.059   2.885  16.742 -0.2581 -0.8455 -1.1521
 8911SOL    HW238196   1.072   2.751  16.812 -0.8569  0.4538 -2.2143
 8912SOL     OW38197   4.157   2.460   6.268 -0.2873 -0.0928 -0.5529
 8912SOL    HW138198   4.180   2.374   6.301 -0.2307  0.0928 -0.1029
 8912SOL    HW238199   4.236   2.508   6.292  0.3648 -2.8964  2.7772
 8913SOL     OW38200   0.583   0.836   2.800  0.1692  0.1784 -0.4313
 8913SOL    HW138201   0.488   0.843   2.800  0.2615  1.5115 -1.9669
 8913SOL    HW238202   0.596   0.775   2.727  2.6402  0.9716 -0.6799
 8914SOL     OW38203   2.007   3.709  11.397 -0.0951 -0.1393  0.3482
 8914SOL    HW138204   2.047   3.773  11.456 -0.2290  1.5512 -1.4038
 8914SOL    HW238205   1.915   3.735  11.396  0.1819  0.7986 -1.0529
 8915SOL     OW38206   1.211   3.174   2.262 -0.0330  0.8272  0.1099
 8915SOL    HW138207   1.116   3.168   2.251  0.2142 -0.5047 -1.3002
 8915SOL    HW238208   1.235   3.142   2.176  0.0980  1.5496 -0.1252
 8916SOL     OW38209   1.716   0.509   9.182 -0.2203  0.0359 -0.2629
 8916SOL    HW138210   1.782   0.457   9.227 -2.1652 -2.7437 -0.6275
 8916SOL    HW238211   1.655   0.442   9.151  1.2563 -1.9226  1.1177
 8917SOL     OW38212   3.482   0.169   4.500  0.2260 -0.0487  0.1706
 8917SOL    HW138213   3.405   0.148   4.446 -1.6025  0.5061  2.5813
 8917SOL    HW238214   3.508   0.250   4.456 -0.3014 -0.3652 -0.7320
 8918SOL     OW38215   1.264   1.284   7.409  0.6617 -0.2150 -0.2961
 8918SOL    HW138216   1.271   1.340   7.487 -0.8959  2.2853 -1.9351
 8918SOL    HW238217   1.235   1.204   7.453 -1.3586  0.4027 -0.5000
 8919SOL     OW38218   2.213   0.896   5.014 -0.1924  0.3008 -0.0418
 8919SOL    HW138219   2.165   0.965   5.061 -0.1198  0.0956  0.3299
 8919SOL    HW238220   2.158   0.900   4.935  0.2713  3.8317 -0.1715
 8920SOL     OW38221   2.985   2.176  16.832 -0.3019  0.2301  0.0440
 8920SOL    HW138222   2.992   2.081  16.842 -0.6773  0.4198  2.1032
 8920SOL    HW238223   3.018   2.182  16.742  2.0682 -2.7136  0.7115
 8921SOL     OW38224   3.424   0.889   3.238 -0.1043  0.1539 -0.6117
 8921SOL    HW138225   3.473   0.957   3.285 -0.7857 -0.9715  1.7084
 8921SOL    HW238226   3.339   0.903   3.280  1.8041  2.1935  2.6499
 8922SOL     OW38227   1.125   0.868   8.523  0.0447  0.0356  0.1469
 8922SOL    HW138228   1.058   0.904   8.581 -1.4373 -2.3648 -0.0439
 8922SOL    HW238229   1.204   0.912   8.553  1.6661 -2.0966 -0.9573
 8923SOL     OW38230   1.365   4.543   7.242  0.0076 -0.2524 -0.4012
 8923SOL    HW138231   1.287   4.581   7.203 -1.3133 -2.0812  0.4997
 8923SOL    HW238232   1.333   4.477   7.303  0.0615  1.2050  1.2031
 8924SOL     OW38233   0.311   0.846   2.681 -0.4220  0.7584 -0.0722
 8924SOL    HW138234   0.239   0.904   2.657 -0.2456  1.0703  0.1490
 8924SOL    HW238235   0.339   0.815   2.595 -1.7259 -1.1028  0.1704
 8925SOL     OW38236   2.799   0.026  14.970  0.3622 -0.2640 -0.3891
 8925SOL    HW138237   2.830   4.659  14.961 -0.5613 -0.4890 -1.3293
 8925SOL    HW238238   2.759   0.028  14.883  0.5594  1.1897 -0.4504
 8926SOL     OW38239   3.781   2.856   4.464  0.6649  0.8347  0.1091
 8926SOL    HW138240   3.709   2.826   4.409  0.9492  0.2026  0.0890
 8926SOL    HW238241   3.826   2.912   4.400 -0.6947  2.2645  0.4202
 8927SOL     OW38242   4.043   0.616   0.544  0.4330 -0.1977 -0.2019
 8927SOL    HW138243   3.954   0.650   0.551 -0.0742 -1.6613  0.3318
 8927SOL    HW238244   4.084   0.699   0.570 -1.0091 -0.7261  3.7305
 8928SOL     OW38245   4.713   3.066   3.666 -0.3425 -0.1650 -0.4272
 8928SOL    HW138246   4.685   3.098   3.752  0.0168 -2.0435  0.3823
 8928SOL    HW238247   4.642   3.001   3.663 -2.4185  2.0957 -0.3515
 8929SOL     OW38248   4.138   3.247   4.966 -0.1058 -0.2632 -0.1693
 8929SOL    HW138249   4.055   3.199   4.971  0.0533 -0.6607 -1.4593
 8929SOL    HW238250   4.159   3.230   5.058  0.7849 -1.9963 -0.7013
 8930SOL     OW38251   0.703   1.313   4.334 -0.1178  0.9680  0.7003
 8930SOL    HW138252   0.663   1.325   4.248  0.8473 -1.2675 -0.0675
 8930SOL    HW238253   0.626   1.341   4.383 -1.6847 -0.2080 -1.1105
 8931SOL     OW38254   4.391   1.923  15.371  0.0155 -0.1254 -0.3583
 8931SOL    HW138255   4.460   1.861  15.347  2.0168  2.0579 -0.1677
 8931SOL    HW238256   4.443   2.001  15.388 -0.4767  0.4111 -1.3144
 8932SOL     OW38257   3.236   2.628   2.087  0.5187 -0.2240  0.0729
 8932SOL    HW138258   3.266   2.677   2.010 -0.5430  2.3417  1.3072
 8932SOL    HW238259   3.281   2.547   2.062 -0.0414 -0.0998 -1.3535
 8933SOL     OW38260   0.756   2.562   9.582  0.0122  0.6312 -0.1480
 8933SOL    HW138261   0.783   2.550   9.673  0.9786 -1.1402 -0.6642
 8933SOL    HW238262   0.714   2.478   9.560  2.9066 -0.7359 -0.4685
 8934SOL     OW38263   2.231   2.541   6.462  0.4255  0.6326 -0.3119
 8934SOL    HW138264   2.249   2.634   6.451  0.0339  1.0026  2.2476
 8934SOL    HW238265   2.272   2.522   6.546  1.6071  1.2324 -0.7428
 8935SOL     OW38266   4.563   1.737  15.274 -0.3166  0.0362  1.0067
 8935SOL    HW138267   4.649   1.780  15.276 -0.6886  0.8760 -1.2550
 8935SOL    HW238268   4.581   1.649  15.240 -1.4667 -0.0597  0.6515
 8936SOL     OW38269   2.929   4.163   7.891 -0.0753 -0.4922  0.3046
 8936SOL    HW138270   3.004   4.114   7.926  0.5909 -0.6392 -1.2859
 8936SOL    HW238271   2.956   4.170   7.799 -0.8280  0.0298  0.1266
 8937SOL     OW38272   2.031   4.320   0.864 -0.4206 -0.0413  0.6172
 8937SOL    HW138273   2.094   4.293   0.797 -1.0586  0.8871 -0.3458
 8937SOL    HW238274   2.075   4.402   0.887 -1.6161  0.2242  1.9397
 8938SOL     OW38275   1.756   0.848   7.642  0.6118 -0.2008 -0.0700
 8938SOL    HW138276   1.722   0.761   7.618  1.8782 -0.6125 -0.3619
 8938SOL    HW238277   1.823   0.863   7.575 -1.5437  0.3964 -2.1322
 8939SOL     OW38278   2.857   1.256  14.919  0.0748  0.1086  0.3699
 8939SOL    HW138279   2.774   1.295  14.890 -0.1870 -0.5236  0.2668
 8939SOL    HW238280   2.825   1.168  14.935 -2.0302  1.0118  1.1845
 8940SOL     OW38281   2.179   1.389  10.641  0.2601 -0.0930 -0.5095
 8940SOL    HW138282   2.122   1.438  10.700  3.0728  0.9386  1.3531
 8940SOL    HW238283   2.123   1.395  10.564 -0.0106  0.7189 -0.2485
 8941SOL     OW38284   4.047   0.007   5.397  0.6878  0.0881  0.0297
 8941SOL    HW138285   4.004   4.670   5.459 -1.3021  1.0856 -0.3857
 8941SOL    HW238286   4.071   0.075   5.460 -2.1492  0.9884  0.1155
 8942SOL     OW38287   4.501   4.251   3.155 -0.1681  0.1047  0.1959
 8942SOL    HW138288   4.580   4.267   3.104 -0.2876  1.7558  0.5048
 8942SOL    HW238289   4.467   4.340   3.146 -2.3340 -0.6719  0.5793
 8943SOL     OW38290   2.138   1.115   5.153  0.0846  0.4398 -0.2007
 8943SOL    HW138291   2.090   1.124   5.235 -0.7721 -2.4857 -0.4015
 8943SOL    HW238292   2.216   1.166   5.173  1.7293 -1.7122 -1.1862
 8944SOL     OW38293   2.729   2.571  13.831  0.2665 -0.0531 -0.0671
 8944SOL    HW138294   2.762   2.482  13.841  1.7147  0.5836  0.8358
 8944SOL    HW238295   2.793   2.602  13.767  0.2719 -1.2620 -0.6498
 8945SOL     OW38296   3.619   1.413   8.087 -0.0288  0.0148 -0.0917
 8945SOL    HW138297   3.606   1.415   8.182  0.9860 -0.5875  0.0562
 8945SOL    HW238298   3.708   1.449   8.091  0.3573 -0.8571 -1.0260
 8946SOL     OW38299   0.979   3.229   2.472 -0.0417  0.4378  0.0087
 8946SOL    HW138300   0.945   3.283   2.543 -1.3264  1.2545 -1.2298
 8946SOL    HW238301   0.922   3.259   2.401 -0.5690 -0.5599  0.0101
 8947SOL     OW38302   4.012   2.315  14.135  0.7765 -0.2186 -0.4975
 8947SOL    HW138303   4.039   2.350  14.050 -0.1760  1.7426 -0.0037
 8947SOL    HW238304   4.078   2.361  14.186 -1.1398  1.5406  0.4213
 8948SOL     OW38305   1.494   2.750   7.399 -0.1981 -0.6262 -0.3550
 8948SOL    HW138306   1.467   2.778   7.312  0.0777 -0.1541 -0.2929
 8948SOL    HW238307   1.537   2.825   7.440 -1.3898  0.1547 -0.5496
 8949SOL     OW38308   0.199   0.010  10.321  0.1263 -0.2657  0.0855
 8949SOL    HW138309   0.138   4.701  10.255 -0.5815 -0.2917  0.7542
 8949SOL    HW238310   0.264   4.667  10.296  0.6672  0.5753 -0.7329
 8950SOL     OW38311   0.054   2.813   5.975 -0.3309 -0.5012 -0.6419
 8950SOL    HW138312   0.096   2.741   5.928  0.9084 -0.6167  0.6464
 8950SOL    HW238313   0.113   2.835   6.047 -0.0270 -1.1220 -0.6971
 8951SOL     OW38314   2.649   2.421   8.914  0.2979 -0.3227  0.6714
 8951SOL    HW138315   2.588   2.374   8.971  1.1639 -1.9286  0.2456
 8951SOL    HW238316   2.726   2.365   8.920  0.1384 -0.3436  2.7481
 8952SOL     OW38317   1.955   2.148   4.018  1.2346 -0.3082  1.0324
 8952SOL    HW138318   1.930   2.154   3.926  1.7128  0.2878  0.9457
 8952SOL    HW238319   2.010   2.226   4.025  1.9519 -1.0396  3.5065
 8953SOL     OW38320   3.149   3.914  14.156 -0.2871  0.4350  0.2983
 8953SOL    HW138321   3.165   3.836  14.103  1.4164  0.7906  0.2949
 8953SOL    HW238322   3.205   3.971  14.104 -2.0368  1.2426 -0.6894
 8954SOL     OW38323   2.327   2.129   6.034 -0.2841  0.2552  0.0690
 8954SOL    HW138324   2.264   2.061   6.009 -2.0943  1.4780  1.2913
 8954SOL    HW238325   2.283   2.208   6.004 -0.3515 -1.0631 -3.2732
 8955SOL     OW38326   3.296   3.706  10.112 -0.4507  0.3629  0.0405
 8955SOL    HW138327   3.285   3.616  10.081  0.9373  0.7460 -1.6449
 8955SOL    HW238328   3.248   3.720  10.193 -4.4406  1.6748 -2.5478
 8956SOL     OW38329   0.591   3.454  10.038  0.0346  0.4094  0.2229
 8956SOL    HW138330   0.605   3.479   9.946 -0.8137 -0.5590 -0.1704
 8956SOL    HW238331   0.499   3.477  10.054  0.2413  2.6277 -1.6202
 8957SOL     OW38332   2.196   0.524   4.070 -0.3106  0.2816  0.4505
 8957SOL    HW138333   2.215   0.455   4.006  1.2983  2.5530 -1.5370
 8957SOL    HW238334   2.133   0.571   4.016  1.2380  1.3344 -0.4440
 8958SOL     OW38335   2.793   4.295   6.424  0.4175  0.7274  0.1555
 8958SOL    HW138336   2.776   4.347   6.503 -0.4328  0.4389  0.1604
 8958SOL    HW238337   2.859   4.236   6.460  1.9656  2.1226 -0.3677
 8959SOL     OW38338   3.907   3.024   4.306  0.2745  0.4530 -0.3204
 8959SOL    HW138339   4.001   3.024   4.291  0.3424  1.9905  0.0691
 8959SOL    HW238340   3.875   3.113   4.289  0.5734  1.0454  2.2225
 8960SOL     OW38341   1.582   1.028   3.376 -0.0371 -0.2085 -0.0722
 8960SOL    HW138342   1.617   0.984   3.299 -0.7406  0.0659 -0.5588
 8960SOL    HW238343   1.521   1.086   3.329 -2.2969 -2.1548  0.4524
 8961SOL     OW38344   0.203   1.393   9.076 -0.1982  0.0070 -0.1688
 8961SOL    HW138345   0.173   1.399   9.167 -0.7830  0.6106 -0.4017
 8961SOL    HW238346   0.121   1.388   9.026 -0.9987 -0.1669  1.1482
 8962SOL     OW38347   2.246   1.424   3.272  0.4508  0.9490 -1.0902
 8962SOL    HW138348   2.153   1.434   3.291  1.0074  1.2099  1.5341
 8962SOL    HW238349   2.238   1.375   3.190  1.3185 -0.7621 -0.1597
 8963SOL     OW38350   3.874   3.103  10.623  0.2524 -0.9657 -0.0655
 8963SOL    HW138351   3.932   3.178  10.614 -1.9410  0.8354  0.6678
 8963SOL    HW238352   3.889   3.087  10.716 -1.6805 -0.1880  0.3869
 8964SOL     OW38353   4.105   2.284  17.232  0.0699  0.7879 -0.2700
 8964SOL    HW138354   4.164   2.357  17.216  2.1596 -1.1557 -1.3780
 8964SOL    HW238355   4.169   2.213  17.240 -1.3438 -0.7630 -2.6405
 8965SOL     OW38356   0.150   2.913   6.596  0.1823  0.1347 -0.1297
 8965SOL    HW138357   0.103   2.953   6.668  0.2611 -1.7875  0.9850
 8965SOL    HW238358   0.187   2.994   6.561  0.3661  0.2251  0.2684
 8966SOL     OW38359   2.726   4.082   9.930 -0.5222  0.1451  0.6207
 8966SOL    HW138360   2.677   4.159   9.901 -2.1997 -1.4649 -0.7845
 8966SOL    HW238361   2.810   4.094   9.886 -1.4468 -0.6748 -1.3266
 8967SOL     OW38362   3.541   3.172  15.028  0.5383  0.1044 -0.4506
 8967SOL    HW138363   3.506   3.252  14.988  0.6904  0.4767  0.1722
 8967SOL    HW238364   3.482   3.157  15.101  0.7994 -1.6568 -0.6004
 8968SOL     OW38365   4.673   1.269  15.647  0.1570 -0.0229  0.0818
 8968SOL    HW138366   4.679   1.249  15.740 -0.9847 -1.4476 -0.1520
 8968SOL    HW238367   4.592   1.321  15.647 -0.2463 -0.6578  0.0714
 8969SOL     OW38368   3.086   0.166  11.787 -0.6365  0.1867 -0.2074
 8969SOL    HW138369   3.136   0.219  11.724 -2.0857  1.0959 -0.5784
 8969SOL    HW238370   3.153   0.181  11.854 -0.6301 -1.0947  0.0740
 8970SOL     OW38371   4.352   3.554   3.626  0.1712  0.3868  0.2232
 8970SOL    HW138372   4.388   3.470   3.655 -1.6123 -0.8051 -1.0046
 8970SOL    HW238373   4.343   3.603   3.708 -0.3531 -0.8762  0.9219
 8971SOL     OW38374   3.395   1.494  15.493  0.1207  0.3164  0.5749
 8971SOL    HW138375   3.414   1.584  15.519  2.2179 -0.2556  1.0862
 8971SOL    HW238376   3.330   1.473  15.560 -0.3699  0.9744  0.3049
 8972SOL     OW38377   3.707   3.845   6.372 -0.0332 -0.9776  0.3201
 8972SOL    HW138378   3.700   3.925   6.320  1.6368 -1.7269 -1.0816
 8972SOL    HW238379   3.740   3.777   6.312  0.7296 -0.4087  0.0997
 8973SOL     OW38380   2.173   0.024   6.709 -0.2283  0.4251  0.0123
 8973SOL    HW138381   2.257   0.035   6.665  0.4181  3.4963  1.9604
 8973SOL    HW238382   2.163   4.655   6.686 -0.8429  0.9236 -1.7229
 8974SOL     OW38383   1.422   4.464  16.361 -0.0208 -0.3937 -0.9257
 8974SOL    HW138384   1.435   4.555  16.390 -0.2560 -0.9346  0.8500
 8974SOL    HW238385   1.427   4.485  16.267 -0.2664 -0.7744 -1.0228
 8975SOL     OW38386   0.069   1.932   6.904 -0.2467 -0.1426  0.2236
 8975SOL    HW138387   0.137   1.874   6.936 -0.7069  0.1543  1.7191
 8975SOL    HW238388   0.026   1.943   6.989  0.8950 -1.3193  0.9457
 8976SOL     OW38389   4.495   1.803   9.656  0.4948 -0.7543 -0.6285
 8976SOL    HW138390   4.492   1.899   9.664 -0.3851 -1.0147  2.1124
 8976SOL    HW238391   4.529   1.774   9.740 -0.4223 -2.2363 -0.7725
 8977SOL     OW38392   2.035   1.557   2.818  0.3877 -0.4606  0.1144
 8977SOL    HW138393   2.066   1.576   2.730  0.9454  0.3443  0.4846
 8977SOL    HW238394   2.098   1.491   2.846  0.1058 -0.4932  0.6965
 8978SOL     OW38395   2.486   2.767   6.506  0.3012  0.7295  0.0087
 8978SOL    HW138396   2.401   2.805   6.484 -1.3571 -2.2785  1.0894
 8978SOL    HW238397   2.550   2.831   6.476  0.1826  0.8739  0.0663
 8979SOL     OW38398   2.813   1.390   6.868  0.3961 -0.2853 -0.4749
 8979SOL    HW138399   2.829   1.310   6.818 -1.7775 -2.0611  1.6331
 8979SOL    HW238400   2.733   1.367   6.916  0.4277 -0.3224 -0.4398
 8980SOL     OW38401   3.065   2.440   6.877  0.0882  0.0274 -0.2943
 8980SOL    HW138402   3.106   2.402   6.800  1.4875 -0.1186  0.5160
 8980SOL    HW238403   3.083   2.530   6.850  1.2790  1.0741  3.9225
 8981SOL     OW38404   0.049   3.638   5.663  0.1971 -0.2641  0.7290
 8981SOL    HW138405   4.696   3.675   5.708 -0.8843 -4.0940  2.0947
 8981SOL    HW238406   0.122   3.695   5.686  2.1820 -2.2036 -0.8571
 8982SOL     OW38407   1.132   2.540   3.111 -0.6870  0.0983 -0.6002
 8982SOL    HW138408   1.183   2.465   3.143 -1.6763 -0.9933 -1.5747
 8982SOL    HW238409   1.114   2.509   3.022 -0.6128  0.4068 -0.7205
 8983SOL     OW38410   2.120   1.159   5.425  0.3565 -0.3258  0.1819
 8983SOL    HW138411   2.158   1.137   5.510  1.3446  2.6021  0.4916
 8983SOL    HW238412   2.148   1.250   5.416 -1.7150  0.3838  0.9009
 8984SOL     OW38413   3.331   2.677   4.585 -0.6396 -0.3396 -0.0994
 8984SOL    HW138414   3.268   2.684   4.657 -1.3310  1.9182 -0.9355
 8984SOL    HW238415   3.347   2.770   4.565 -1.4781 -1.3055 -5.1986
 8985SOL     OW38416   4.382   0.325   6.621  0.2090 -0.1380  0.0499
 8985SOL    HW138417   4.354   0.411   6.650  0.6078  0.3747 -1.0878
 8985SOL    HW238418   4.424   0.303   6.705 -0.2465  0.8885  0.5430
 8986SOL     OW38419   3.596   0.683   7.475 -0.0057  0.1530 -0.6065
 8986SOL    HW138420   3.650   0.739   7.420  0.9368  1.1639  1.3423
 8986SOL    HW238421   3.637   0.601   7.444  0.8629  0.4361 -0.2212
 8987SOL     OW38422   0.358   2.745  10.198  0.0804  0.2077  0.3196
 8987SOL    HW138423   0.331   2.659  10.230 -0.2372 -0.2138 -1.0965
 8987SOL    HW238424   0.281   2.769  10.147 -0.2566 -0.2979  0.5910
 8988SOL     OW38425   0.571   0.916   8.416 -0.3913  0.2667 -0.2584
 8988SOL    HW138426   0.532   0.846   8.468 -1.4361  0.2028 -1.1442
 8988SOL    HW238427   0.580   0.984   8.483  0.5679  2.1601 -2.3033
 8989SOL     OW38428   0.074   1.148  12.064  0.3024 -0.3982 -0.4360
 8989SOL    HW138429   4.704   1.160  12.048  0.9808  3.5655 -1.4692
 8989SOL    HW238430   0.099   1.090  11.993  2.8248 -1.4270  1.2939
 8990SOL     OW38431   2.787   2.070   0.244 -0.4737 -0.3206  0.7958
 8990SOL    HW138432   2.837   2.028   0.314 -2.1886 -3.2086  0.2994
 8990SOL    HW238433   2.821   2.156   0.268  1.7674 -1.1953  0.7665
 8991SOL     OW38434   4.081   4.675   1.590  0.1866 -0.6357  0.2284
 8991SOL    HW138435   4.026   4.655   1.666 -0.9819  2.8231  0.3152
 8991SOL    HW238436   4.025   0.003   1.531  1.2950  1.5301  1.0743
 8992SOL     OW38437   4.481   2.835   7.110 -0.5273 -0.5832 -0.5711
 8992SOL    HW138438   4.558   2.780   7.097 -0.1887 -0.5293  1.1872
 8992SOL    HW238439   4.529   2.897   7.165 -0.4865 -0.3729 -0.8424
 8993SOL     OW38440   1.784   1.211  13.749 -0.3324  0.0113  0.0244
 8993SOL    HW138441   1.800   1.279  13.814 -2.2338  1.2607 -0.8366
 8993SOL    HW238442   1.864   1.188  13.701 -0.0461  0.9536  0.0607
 8994SOL     OW38443   1.970   2.912   5.781 -0.3013  0.1966  0.1970
 8994SOL    HW138444   1.920   2.992   5.795 -0.4194 -0.1528  1.7756
 8994SOL    HW238445   1.922   2.881   5.704  1.8289 -1.0670 -0.6206
 8995SOL     OW38446   2.418   4.629   9.910 -0.7277  0.3763  0.1351
 8995SOL    HW138447   2.476   4.553   9.913 -0.6719  0.3974 -0.3576
 8995SOL    HW238448   2.403   4.642  10.003  0.1979 -1.6895  0.5820
 8996SOL     OW38449   3.497   2.283   1.931 -0.0844 -0.1422  0.5830
 8996SOL    HW138450   3.406   2.279   1.958 -0.2078 -1.3845 -0.0578
 8996SOL    HW238451   3.516   2.191   1.913 -1.6016 -0.3390 -0.0611
 8997SOL     OW38452   1.564   3.689   4.951 -0.2851 -0.7634 -0.4516
 8997SOL    HW138453   1.596   3.775   4.978  2.4256 -1.2732 -2.0575
 8997SOL    HW238454   1.570   3.686   4.855 -1.3398 -0.2736 -0.5374
 8998SOL     OW38455   1.101   0.898  12.730  0.0274 -0.2994  0.1932
 8998SOL    HW138456   1.131   0.857  12.811  0.1455  1.2949  0.9582
 8998SOL    HW238457   1.180   0.925  12.684  0.5594  0.0146  1.2969
 8999SOL     OW38458   0.064   1.393   1.946  0.3751  0.1851 -0.2082
 8999SOL    HW138459   4.718   1.399   2.012 -0.7138  0.0213 -1.3340
 8999SOL    HW238460   0.104   1.306   1.958  1.2797  0.7830  1.0337
 9000SOL     OW38461   1.916   1.286   3.120  0.0919 -0.2935 -0.8569
 9000SOL    HW138462   1.993   1.243   3.082  0.0138 -1.2739  0.1078
 9000SOL    HW238463   1.849   1.260   3.056 -0.4697 -1.0821  0.0593
 9001SOL     OW38464   0.775   4.495  16.758  0.4026  0.0434 -0.0655
 9001SOL    HW138465   0.795   4.567  16.698 -0.9909 -0.3064 -0.9683
 9001SOL    HW238466   0.733   4.547  16.826 -2.2690  1.1356 -2.5268
 9002SOL     OW38467   3.594   3.007   2.276 -0.3055 -0.5436  0.3362
 9002SOL    HW138468   3.598   3.075   2.208 -2.3446 -1.1625 -0.4175
 9002SOL    HW238469   3.522   2.953   2.242 -1.1379  0.5772  0.3042
 9003SOL     OW38470   0.294   0.919  10.904 -0.1600 -0.1486  0.0382
 9003SOL    HW138471   0.273   0.963  10.822  0.1634 -0.0523  0.0052
 9003SOL    HW238472   0.368   0.971  10.937 -0.0531  1.0780 -2.1864
 9004SOL     OW38473   0.337   4.502  16.212 -0.1870  0.1872 -0.1036
 9004SOL    HW138474   0.275   4.448  16.262 -0.4444  1.5349  1.0121
 9004SOL    HW238475   0.407   4.438  16.198 -0.2282 -0.1814  1.3588
 9005SOL     OW38476   3.645   2.352   2.171  0.8802  0.2160 -0.1946
 9005SOL    HW138477   3.714   2.315   2.226 -0.8110 -1.2978  0.9089
 9005SOL    HW238478   3.634   2.286   2.103  2.0404  0.0852 -0.2572
 9006SOL     OW38479   1.471   3.144   9.583 -0.2156  0.0706  0.2427
 9006SOL    HW138480   1.417   3.065   9.575 -2.3151  1.3846  1.6652
 9006SOL    HW238481   1.414   3.217   9.561  0.3235  0.2203 -0.6677
 9007SOL     OW38482   2.812   2.407   8.556  0.7405  0.6200 -0.4168
 9007SOL    HW138483   2.787   2.331   8.607  1.4733 -0.1806 -1.2438
 9007SOL    HW238484   2.858   2.370   8.480 -1.4494 -1.5921 -0.6310
 9008SOL     OW38485   3.764   4.124   1.050  0.7089  0.2370  0.8315
 9008SOL    HW138486   3.849   4.128   1.094  1.3128 -0.6148 -0.2822
 9008SOL    HW238487   3.731   4.214   1.051  0.9527  0.3292 -0.5523
 9009SOL     OW38488   3.314   3.101  13.739  0.1464  0.4182 -0.6253
 9009SOL    HW138489   3.397   3.096  13.786  0.1826  1.3185 -0.5906
 9009SOL    HW238490   3.264   3.121  13.819  0.6283 -0.8932  0.0013
 9010SOL     OW38491   4.066   1.109   8.377  0.8892 -0.2865  0.1361
 9010SOL    HW138492   3.973   1.113   8.356  1.4001  1.4811 -1.7281
 9010SOL    HW238493   4.070   1.141   8.467 -2.1584 -1.1693  0.5801
 9011SOL     OW38494   2.599   0.099   5.206 -0.8420  0.1834 -0.6232
 9011SOL    HW138495   2.584   0.193   5.220  1.1940  0.4048  0.0772
 9011SOL    HW238496   2.601   0.069   5.297  0.9723 -0.0569 -0.7355
 9012SOL     OW38497   3.281   0.310   2.728  0.4420  0.8213  0.2524
 9012SOL    HW138498   3.313   0.336   2.814  2.3340  0.3838 -0.3304
 9012SOL    HW238499   3.336   0.237   2.699 -1.1701 -0.5296  0.5663
 9013SOL     OW38500   0.409   4.264   7.007 -0.4537 -0.3489  0.1573
 9013SOL    HW138501   0.419   4.169   7.004 -0.0376 -0.2818 -0.6618
 9013SOL    HW238502   0.498   4.286   7.036  0.1537 -0.0813 -1.9709
 9014SOL     OW38503   4.651   1.156   8.930  0.3416  0.4977  0.5373
 9014SOL    HW138504   4.658   1.114   9.015 -2.1798  0.9770  0.9843
 9014SOL    HW238505   4.686   1.100   8.861 -0.6277  2.2725 -1.4116
 9015SOL     OW38506   0.924   3.048   3.658 -0.6079 -0.3547  0.4659
 9015SOL    HW138507   0.970   3.018   3.579  1.9683  3.2657  0.6178
 9015SOL    HW238508   0.966   2.994   3.725 -0.1783 -0.3471  0.1995
 9016SOL     OW38509   1.536   1.626   6.731 -0.4287 -0.1053  0.2863
 9016SOL    HW138510   1.500   1.641   6.819 -2.0861 -1.5671 -0.1399
 9016SOL    HW238511   1.524   1.535   6.704 -1.2045 -0.0103  0.3111
 9017SOL     OW38512   3.648   3.766   7.981  0.1437 -0.4712 -0.2147
 9017SOL    HW138513   3.650   3.791   8.073 -2.1312  0.3189 -0.3930
 9017SOL    HW238514   3.670   3.673   7.974  0.3302 -0.4205 -0.3071
 9018SOL     OW38515   3.082   0.166   6.444 -0.2294 -0.4961  0.1439
 9018SOL    HW138516   3.139   0.095   6.415 -3.1183 -2.9611  0.5142
 9018SOL    HW238517   3.047   0.120   6.520  0.2554 -1.4626 -0.2092
 9019SOL     OW38518   4.039   1.675   3.795  0.0028  0.2000  0.5422
 9019SOL    HW138519   4.060   1.670   3.702 -0.9400 -0.2584  0.3530
 9019SOL    HW238520   3.950   1.640   3.787  0.0103  0.4284 -0.4891
 9020SOL     OW38521   2.597   3.868   7.016  0.0424  0.5943  0.3516
 9020SOL    HW138522   2.636   3.814   6.947  1.5822  2.4675 -0.2419
 9020SOL    HW238523   2.583   3.952   6.973  1.2099  0.4967 -0.2163
 9021SOL     OW38524   4.634   0.477   4.651  0.2598  0.1625 -1.1160
 9021SOL    HW138525   4.561   0.455   4.710  0.9806  1.6181  0.3081
 9021SOL    HW238526   4.591   0.507   4.571 -0.0592 -0.8895 -1.3386
 9022SOL     OW38527   2.914   0.973   3.697  0.8362 -0.0336 -0.3806
 9022SOL    HW138528   2.951   0.892   3.661  1.1139  0.5387 -1.3881
 9022SOL    HW238529   2.926   1.022   3.615  0.5492 -1.1138 -1.0718
 9023SOL     OW38530   3.288   3.579   8.285  0.2661  0.6911 -0.3440
 9023SOL    HW138531   3.337   3.656   8.313 -2.3734  3.2468 -2.7847
 9023SOL    HW238532   3.196   3.602   8.301  0.1337  1.3053 -1.9909
 9024SOL     OW38533   2.166   4.054   6.173 -0.2372  0.1617 -0.2737
 9024SOL    HW138534   2.083   4.069   6.127 -0.3343 -2.7750 -1.0806
 9024SOL    HW238535   2.139   4.028   6.261  0.6857  0.7158  0.1821
 9025SOL     OW38536   0.662   4.064  11.912  0.6454 -0.2114  0.2166
 9025SOL    HW138537   0.649   4.156  11.934 -0.7293  0.0051 -1.5111
 9025SOL    HW238538   0.757   4.058  11.920  0.7591 -0.9244 -1.6404
 9026SOL     OW38539   2.991   3.231   4.410  0.2380  0.0764 -0.2631
 9026SOL    HW138540   2.998   3.138   4.393  0.1350  0.1591 -0.7507
 9026SOL    HW238541   2.907   3.242   4.365  0.2810  0.2762 -0.2949
 9027SOL     OW38542   3.975   0.701   7.908 -0.2947 -0.0530  0.4542
 9027SOL    HW138543   3.879   0.701   7.899 -0.2380 -2.4052 -0.1880
 9027SOL    HW238544   4.000   0.731   7.821  3.1657 -0.6806  1.2408
 9028SOL     OW38545   4.259   1.079   4.700 -0.8816  0.2631  0.0307
 9028SOL    HW138546   4.199   1.153   4.696 -0.8290  0.3314  0.5561
 9028SOL    HW238547   4.208   1.008   4.739  0.8580 -1.6245 -1.1133
 9029SOL     OW38548   2.049   4.624   6.069 -0.3178  0.1902  0.3183
 9029SOL    HW138549   2.001   4.701   6.039  0.3642 -0.3303 -2.0516
 9029SOL    HW238550   2.135   4.661   6.092 -0.7407  2.3243 -1.5208
 9030SOL     OW38551   1.183   2.633   3.995 -0.4422 -0.0864 -0.3336
 9030SOL    HW138552   1.148   2.583   3.922 -0.3948  0.9171 -1.0382
 9030SOL    HW238553   1.226   2.559   4.038  1.2419  0.8007 -0.4672
 9031SOL     OW38554   4.164   3.657  15.958 -0.3730  0.4501 -0.7403
 9031SOL    HW138555   4.183   3.569  15.992 -0.3941  0.4404 -0.7540
 9031SOL    HW238556   4.093   3.674  16.019  0.6157 -2.7797  1.2728
 9032SOL     OW38557   1.036   3.613   4.853  0.0421  0.5054 -0.6332
 9032SOL    HW138558   1.028   3.562   4.773 -0.4656 -0.2576 -0.0970
 9032SOL    HW238559   1.127   3.597   4.878  0.2701  2.6796 -0.0641
 9033SOL     OW38560   2.041   0.638  12.886  0.1223  0.3944 -0.0749
 9033SOL    HW138561   2.055   0.593  12.803  1.4868 -0.4812  0.6378
 9033SOL    HW238562   2.090   0.576  12.940  1.1946  1.2902 -0.0269
 9034SOL     OW38563   3.888   4.712   3.803 -0.5126  0.3283  0.6279
 9034SOL    HW138564   3.934   4.703   3.886  0.6209  2.2156  0.2085
 9034SOL    HW238565   3.887   0.085   3.808 -2.3839  0.2863  1.3007
 9035SOL     OW38566   1.458   2.515   3.888  0.0082 -0.4159  0.1393
 9035SOL    HW138567   1.410   2.442   3.926 -2.1540  1.2821  0.6968
 9035SOL    HW238568   1.505   2.550   3.963 -0.1363  0.6012 -0.2364
 9036SOL     OW38569   0.078   0.600   0.668 -0.0420 -0.2679  0.1027
 9036SOL    HW138570   0.167   0.613   0.637 -0.4748 -2.0671 -1.8497
 9036SOL    HW238571   0.088   0.663   0.739  2.0277  0.8624 -1.1993
 9037SOL     OW38572   2.087   0.021   8.346 -0.3774 -0.0517  0.5453
 9037SOL    HW138573   2.109   4.653   8.368 -1.6615 -0.3887  0.4232
 9037SOL    HW238574   2.114   0.020   8.254 -1.0203 -1.7346  0.3770
 9038SOL     OW38575   3.269   2.954  16.340 -0.3297  0.1486  0.4072
 9038SOL    HW138576   3.185   2.916  16.363 -1.5756  2.1788 -0.8513
 9038SOL    HW238577   3.281   2.913  16.254  3.0262 -0.5143  1.1849
 9039SOL     OW38578   3.095   2.244   8.124  0.3987 -0.1721  0.1636
 9039SOL    HW138579   3.111   2.287   8.040  1.4971  1.8664  1.4253
 9039SOL    HW238580   3.033   2.177   8.095 -0.8053  1.2138 -0.4339
 9040SOL     OW38581   1.328   1.949  11.809  0.1921  0.0183 -0.3588
 9040SOL    HW138582   1.332   1.855  11.790 -1.3554 -0.2194  0.4766
 9040SOL    HW238583   1.235   1.965  11.797  1.3190  2.5592 -5.8202
 9041SOL     OW38584   2.909   1.898  14.468  0.0311  0.4934  0.0536
 9041SOL    HW138585   2.982   1.905  14.407  0.8946 -0.0876  1.0124
 9041SOL    HW238586   2.958   1.847  14.532  0.0884  0.2824 -0.1575
 9042SOL     OW38587   1.831   3.039   7.162 -0.2721 -0.2016 -0.6704
 9042SOL    HW138588   1.743   3.027   7.198 -0.4395 -0.0713 -1.0243
 9042SOL    HW238589   1.870   2.954   7.182 -1.2567 -1.0236 -2.2038
 9043SOL     OW38590   3.730   2.226   3.093  0.1049 -0.6902  0.1435
 9043SOL    HW138591   3.800   2.235   3.157  1.6150  0.7547 -1.6812
 9043SOL    HW238592   3.671   2.168   3.141 -1.9589  2.3316  1.2400
 9044SOL     OW38593   2.670   4.175   5.361 -0.2710 -0.4431 -0.3106
 9044SOL    HW138594   2.752   4.225   5.361 -0.7239  0.3377  2.0897
 9044SOL    HW238595   2.618   4.218   5.429  2.1111  0.7449  0.7966
 9045SOL     OW38596   3.183   0.939   3.374  0.0628 -0.3722 -0.4060
 9045SOL    HW138597   3.089   0.943   3.360  0.0517 -1.9920 -0.8752
 9045SOL    HW238598   3.197   0.945   3.468  1.9118  0.2293 -0.7122
 9046SOL     OW38599   0.374   0.341   0.228 -0.0219  0.2805 -0.7531
 9046SOL    HW138600   0.307   0.359   0.162 -0.7297  0.6324  0.0578
 9046SOL    HW238601   0.368   0.416   0.288  2.8460 -0.1245  0.0366
 9047SOL     OW38602   1.517   4.578  14.794 -0.0916 -0.0717  0.0979
 9047SOL    HW138603   1.551   4.577  14.705 -1.2315 -0.0065 -0.3462
 9047SOL    HW238604   1.424   4.568  14.773 -0.6348  3.2266  0.9337
 9048SOL     OW38605   2.592   2.779   2.728 -0.3019 -0.2007  0.0398
 9048SOL    HW138606   2.508   2.739   2.706 -0.7177  0.7815 -0.1418
 9048SOL    HW238607   2.622   2.815   2.645 -2.0233  2.1784  0.4556
 9049SOL     OW38608   3.631   1.039   7.685 -0.3572 -0.2440  0.1657
 9049SOL    HW138609   3.588   1.005   7.606 -1.1254  2.3921 -0.5708
 9049SOL    HW238610   3.591   1.126   7.689 -2.0729 -1.0853  1.1311
 9050SOL     OW38611   3.951   3.425   5.269  0.1152  0.2371 -0.2124
 9050SOL    HW138612   3.863   3.406   5.237  0.3496 -2.5663  0.8214
 9050SOL    HW238613   4.004   3.344   5.270  0.6056  0.5265 -2.3717
 9051SOL     OW38614   3.126   3.683   6.719 -0.0332 -0.3336 -0.4552
 9051SOL    HW138615   3.219   3.704   6.715 -0.2728  0.6156 -1.1799
 9051SOL    HW238616   3.123   3.656   6.811  1.5156 -3.4699 -1.3696
 9052SOL     OW38617   0.600   4.230   3.789 -0.4425 -0.4743  0.1419
 9052SOL    HW138618   0.591   4.233   3.884 -0.9612  1.5754  0.0312
 9052SOL    HW238619   0.534   4.167   3.760 -0.6365  0.0124 -0.4787
 9053SOL     OW38620   4.659   3.602   3.207 -0.5322  0.3326 -0.1164
 9053SOL    HW138621   4.649   3.663   3.280  2.7429 -0.1796  0.7785
 9053SOL    HW238622   4.611   3.525   3.238  2.1687 -0.6828  1.6238
 9054SOL     OW38623   2.283   3.323   5.054 -0.5023 -0.4365  0.2883
 9054SOL    HW138624   2.361   3.375   5.075 -0.3074 -0.3586 -0.6580
 9054SOL    HW238625   2.248   3.300   5.141  1.3714  1.2207  1.4701
 9055SOL     OW38626   3.642   2.926  13.449  0.3194 -0.0416  0.4524
 9055SOL    HW138627   3.549   2.916  13.426 -0.1766 -1.7999  3.2478
 9055SOL    HW238628   3.692   2.929  13.367  0.7964 -0.6128  0.7241
 9056SOL     OW38629   0.326   4.382   1.545 -0.0021  0.0232 -0.0188
 9056SOL    HW138630   0.341   4.298   1.589  1.8205  0.2766 -0.1535
 9056SOL    HW238631   0.367   4.453   1.594 -1.0876  0.3918  0.3431
 9057SOL     OW38632   1.166   0.365  12.162  0.1036  0.0257 -0.4345
 9057SOL    HW138633   1.108   0.294  12.136  2.6561 -2.0894 -0.3635
 9057SOL    HW238634   1.253   0.339  12.131  0.9858 -0.8625  2.8282
 9058SOL     OW38635   2.954   4.689  11.241 -0.1248 -0.6703  0.5270
 9058SOL    HW138636   2.976   4.686  11.148  2.6240  0.6141  1.1096
 9058SOL    HW238637   2.894   0.039  11.227  0.8311 -0.0623 -0.3602
 9059SOL     OW38638   3.618   2.201  17.156 -0.7228 -0.9886  0.0757
 9059SOL    HW138639   3.556   2.239  17.218  0.3704  0.3625  0.3540
 9059SOL    HW238640   3.696   2.236  17.199 -1.0288  2.8779 -2.4635
 9060SOL     OW38641   1.023   4.200   0.693 -0.0435  0.1936  0.0024
 9060SOL    HW138642   0.936   4.239   0.688 -1.0421 -2.2944 -1.9153
 9060SOL    HW238643   0.998   4.112   0.721 -1.5250  0.3203 -0.9623
 9061SOL     OW38644   0.662   3.863   9.068 -1.0922  0.2918  0.4876
 9061SOL    HW138645   0.658   3.807   8.991 -2.0849 -1.5078  1.8425
 9061SOL    HW238646   0.635   3.948   9.034  0.4256  1.0692  1.2349
 9062SOL     OW38647   1.014   4.713  15.020  0.2250  0.0632 -0.2054
 9062SOL    HW138648   0.992   0.082  15.033  1.1836  0.3035 -0.2654
 9062SOL    HW238649   1.069   4.713  14.941  0.8362  0.9435  0.2100
 9063SOL     OW38650   0.324   3.636   8.910 -0.2180  0.1766  0.6029
 9063SOL    HW138651   0.254   3.572   8.923  2.1357 -3.4617 -4.8425
 9063SOL    HW238652   0.408   3.591   8.918 -0.1912 -0.1708 -1.5053
 9064SOL     OW38653   2.904   2.853  13.096 -0.1174 -0.3502 -0.7168
 9064SOL    HW138654   2.981   2.853  13.153 -0.0904  0.3294 -0.7534
 9064SOL    HW238655   2.884   2.943  13.121 -3.1194 -0.1625 -3.6752
 9065SOL     OW38656   1.125   2.068  16.417  0.3517 -0.4844  0.2871
 9065SOL    HW138657   1.077   2.132  16.364  0.0082 -0.8173  0.1972
 9065SOL    HW238658   1.088   2.080  16.504  0.0495  1.8038 -0.1562
 9066SOL     OW38659   2.453   3.494  17.072 -0.4594  0.9922  0.3692
 9066SOL    HW138660   2.526   3.441  17.039 -2.0578  0.1173 -1.8055
 9066SOL    HW238661   2.396   3.508  16.996 -0.0435 -2.6862 -0.6060
 9067SOL     OW38662   1.846   0.598   7.255 -0.2334  0.4119 -0.0332
 9067SOL    HW138663   1.861   0.505   7.270 -0.8420  0.7660  2.8827
 9067SOL    HW238664   1.766   0.589   7.205  0.5693  0.0203 -1.2346
 9068SOL     OW38665   3.198   3.673  17.523 -0.0438 -0.3388  0.3682
 9068SOL    HW138666   3.141   3.746  17.501 -1.1911 -0.6413  2.3333
 9068SOL    HW238667   3.185   3.612  17.450 -1.0985 -0.3137  0.5443
 9069SOL     OW38668   0.209   0.097   4.771 -0.5007  0.4448  0.0690
 9069SOL    HW138669   0.118   0.123   4.758  0.0596  1.4640 -1.8429
 9069SOL    HW238670   0.257   0.179   4.779  1.0560 -0.5141  0.6488
 9070SOL     OW38671   0.626   0.601   9.286 -0.4715  0.3613 -0.2596
 9070SOL    HW138672   0.624   0.539   9.212  0.1540 -1.3557  1.1550
 9070SOL    HW238673   0.581   0.547   9.352  2.3344 -1.5933  0.0629
 9071SOL     OW38674   0.998   3.039   8.463 -0.5751 -0.1078  0.6667
 9071SOL    HW138675   0.977   3.045   8.556  1.2756 -0.6938  1.1183
 9071SOL    HW238676   0.938   2.972   8.433  0.7988 -1.8706  1.8828
 9072SOL     OW38677   2.451   3.183   8.131 -0.6675  0.4355 -0.6970
 9072SOL    HW138678   2.460   3.088   8.121 -0.5345  0.3138  0.5129
 9072SOL    HW238679   2.546   3.195   8.127 -0.8614  2.1963  0.2135
 9073SOL     OW38680   1.381   0.124   4.532 -0.1798  0.0332  0.0321
 9073SOL    HW138681   1.449   0.190   4.547 -0.2059 -0.0036  0.3107
 9073SOL    HW238682   1.385   0.112   4.437  3.0364 -0.7865  0.2580
 9074SOL     OW38683   1.646   4.567  15.019  0.2990  0.0705 -0.4392
 9074SOL    HW138684   1.591   4.559  14.941 -2.3309  0.8219  1.3465
 9074SOL    HW238685   1.578   4.593  15.081  0.0745 -2.8181  0.5245
 9075SOL     OW38686   0.774   2.799   4.435 -0.0309 -0.3334 -0.0057
 9075SOL    HW138687   0.859   2.758   4.422 -0.1341 -0.8717  1.0837
 9075SOL    HW238688   0.733   2.752   4.507  1.0653 -4.2031 -1.9316
 9076SOL     OW38689   0.169   0.409  15.045 -0.4102 -0.0543 -0.4174
 9076SOL    HW138690   0.205   0.408  15.134  1.2664  1.8809 -1.0640
 9076SOL    HW238691   0.254   0.439  15.011 -0.3090 -0.9011 -0.9074
 9077SOL     OW38692   0.325   1.290  11.955 -0.6893 -0.3709 -0.3766
 9077SOL    HW138693   0.240   1.245  11.957 -1.2649  0.7276 -0.1211
 9077SOL    HW238694   0.309   1.357  12.021 -0.0944 -0.6975  0.0920
 9078SOL     OW38695   2.861   3.949   0.622  0.3457  0.1310 -0.0894
 9078SOL    HW138696   2.950   3.919   0.640  0.6547  0.8248 -0.4445
 9078SOL    HW238697   2.883   4.042   0.636 -0.2611  0.3226 -0.4343
 9079SOL     OW38698   3.185   0.658   2.862 -0.5933 -0.1844  0.1307
 9079SOL    HW138699   3.265   0.673   2.913 -2.1178 -0.4482  2.6084
 9079SOL    HW238700   3.221   0.682   2.776 -0.8244 -0.4173 -0.0308
 9080SOL     OW38701   4.208   2.093   5.310  0.0271 -0.3462 -0.3519
 9080SOL    HW138702   4.203   2.126   5.399  0.0642  2.0945 -1.2509
 9080SOL    HW238703   4.179   2.165   5.255  1.8822  1.8240  1.5483
 9081SOL     OW38704   0.816   0.132  15.463  0.2089  0.1270 -0.1824
 9081SOL    HW138705   0.820   0.194  15.536  0.9083  0.2638 -0.3410
 9081SOL    HW238706   0.741   0.075  15.483 -2.0366  2.6509 -1.3932
 9082SOL     OW38707   2.340   4.197   4.318 -0.0952 -0.4419 -0.0111
 9082SOL    HW138708   2.333   4.286   4.284 -0.0559 -0.7926 -0.9496
 9082SOL    HW238709   2.335   4.160   4.230 -0.3667  0.4173 -0.3554
 9083SOL     OW38710   2.793   3.449   0.230  0.1401  0.0071  0.0120
 9083SOL    HW138711   2.801   3.528   0.284  0.2835  1.0503 -1.5423
 9083SOL    HW238712   2.874   3.456   0.180  0.1874  0.1433  0.1071
 9084SOL     OW38713   2.510   4.060   5.572 -0.0255 -0.2011 -0.4308
 9084SOL    HW138714   2.504   4.003   5.649 -1.9146 -1.4193 -1.4729
 9084SOL    HW238715   2.461   4.137   5.601  3.7169  2.3079 -0.7890
 9085SOL     OW38716   1.147   4.467   1.872 -0.3882  0.2064 -0.0135
 9085SOL    HW138717   1.115   4.441   1.785  0.7556  2.0206 -0.9816
 9085SOL    HW238718   1.222   4.520   1.843  0.2321  0.5900  2.3217
 9086SOL     OW38719   1.210   2.791   1.855  0.1296  0.2687  0.2058
 9086SOL    HW138720   1.148   2.720   1.836 -0.4130  0.9229 -0.4348
 9086SOL    HW238721   1.279   2.756   1.799 -1.3730 -1.7184 -0.4324
 9087SOL     OW38722   1.330   1.923   4.912  0.2042 -0.4211 -0.0899
 9087SOL    HW138723   1.360   2.006   4.872 -0.5712 -0.7063 -1.2759
 9087SOL    HW238724   1.286   1.957   4.990 -0.8948  0.9919 -1.3052
 9088SOL     OW38725   3.758   4.656   8.805 -0.0016  0.0530  0.3290
 9088SOL    HW138726   3.786   4.619   8.721  0.9458  1.9844 -0.2088
 9088SOL    HW238727   3.789   0.022   8.789 -1.2848  0.8467  2.2441
 9089SOL     OW38728   1.945   2.168   6.549 -0.3077  0.0781  0.9340
 9089SOL    HW138729   1.927   2.074   6.552 -0.3420  0.1240  1.9358
 9089SOL    HW238730   2.029   2.162   6.595  1.1461  0.5964 -1.6582
 9090SOL     OW38731   1.656   3.573   4.068  0.4481 -0.2182 -0.6691
 9090SOL    HW138732   1.658   3.660   4.027  1.0705 -0.7333 -1.7379
 9090SOL    HW238733   1.568   3.584   4.103  0.2690 -0.1107 -1.1481
 9091SOL     OW38734   1.765   0.136   7.993  0.2612  0.2613  0.5635
 9091SOL    HW138735   1.837   0.113   7.935  0.2018 -0.1351  0.6428
 9091SOL    HW238736   1.695   0.106   7.934 -0.4587 -0.6801  1.8763
 9092SOL     OW38737   2.232   2.357   0.654 -0.1859  0.4776  0.4203
 9092SOL    HW138738   2.200   2.407   0.729  1.3104  0.4098  1.0925
 9092SOL    HW238739   2.280   2.284   0.693 -0.3009  0.7787  1.1191
 9093SOL     OW38740   2.991   2.859   6.275  0.0736  0.1302  0.4832
 9093SOL    HW138741   2.960   2.773   6.247  1.5417  0.1885 -1.3734
 9093SOL    HW238742   2.951   2.859   6.362 -0.6601 -0.3834  0.1401
 9094SOL     OW38743   0.841   4.032  17.449  0.4232 -0.4873 -0.1037
 9094SOL    HW138744   0.891   3.992  17.519 -2.3941 -1.0723  1.5631
 9094SOL    HW238745   0.816   3.959  17.393  0.2081 -0.6486  0.2036
 9095SOL     OW38746   1.750   3.184   3.374  0.5525 -0.3447 -0.5372
 9095SOL    HW138747   1.811   3.142   3.313  0.4763  3.2471 -3.0592
 9095SOL    HW238748   1.677   3.125   3.389 -0.7606  0.7814 -2.5704
 9096SOL     OW38749   3.108   3.858   0.743  0.8438 -0.4235 -0.4480
 9096SOL    HW138750   3.200   3.864   0.769  0.5098 -0.2733  0.6937
 9096SOL    HW238751   3.055   3.872   0.822 -0.1175 -0.2287 -1.1329
 9097SOL     OW38752   2.839   2.035   8.266 -0.0634  0.5057  0.4605
 9097SOL    HW138753   2.813   2.101   8.203 -1.5619  0.7994  1.3629
 9097SOL    HW238754   2.751   2.006   8.293  0.7157  0.9128  3.4327
 9098SOL     OW38755   4.064   0.831   7.695  0.1793  0.2112 -0.1151
 9098SOL    HW138756   4.010   0.906   7.670 -1.5437 -1.2978 -0.9834
 9098SOL    HW238757   4.151   0.866   7.680  0.2557 -0.4733 -1.2421
 9099SOL     OW38758   3.080   2.642   5.715 -0.1408  0.0942 -0.1372
 9099SOL    HW138759   2.998   2.632   5.764  0.6267 -1.2105  0.8791
 9099SOL    HW238760   3.112   2.552   5.724 -0.0376  0.5697  4.2607
 9100SOL     OW38761   2.864   0.119   2.868 -0.2952 -0.4383 -0.7760
 9100SOL    HW138762   2.887   0.212   2.873  0.0068 -0.6022  0.7038
 9100SOL    HW238763   2.872   0.111   2.773  1.0810  0.2587 -0.7187
 9101SOL     OW38764   3.997   1.298  10.129  0.0788 -0.1180 -0.8697
 9101SOL    HW138765   3.998   1.338  10.042  1.6574 -1.0961 -1.3059
 9101SOL    HW238766   3.905   1.278  10.148 -0.1174  0.4458 -1.2530
 9102SOL     OW38767   3.678   1.456   4.022 -0.3993  0.2858  0.8109
 9102SOL    HW138768   3.698   1.549   4.015 -2.8725  0.7564 -0.1151
 9102SOL    HW238769   3.610   1.449   4.089  1.6460  4.7074  3.3271
 9103SOL     OW38770   2.103   1.476   6.955  0.1490  0.3466 -0.0129
 9103SOL    HW138771   2.085   1.403   7.015  0.4904  0.5997  0.4013
 9103SOL    HW238772   2.020   1.519   6.935  0.5817  1.6173  0.8835
 9104SOL     OW38773   4.080   1.113   0.586  0.7115  0.0425  0.2320
 9104SOL    HW138774   4.143   1.174   0.623  1.1560 -0.2702  0.0021
 9104SOL    HW238775   4.103   1.122   0.494 -0.7490  0.3949 -0.0997
 9105SOL     OW38776   0.013   3.572   5.132  0.0397  0.5417 -0.1520
 9105SOL    HW138777   0.037   3.484   5.103  0.8617  0.6057  0.3369
 9105SOL    HW238778   0.011   3.636   5.061 -0.0095  0.3002 -0.3648
 9106SOL     OW38779   3.196   4.048   2.829  0.3662  0.0764 -0.1290
 9106SOL    HW138780   3.215   4.008   2.914 -1.7538 -1.3639 -0.3154
 9106SOL    HW238781   3.138   3.978   2.797 -1.4663  2.7143 -2.5887
 9107SOL     OW38782   4.039   4.602   3.014 -0.4798  0.2735 -0.4759
 9107SOL    HW138783   3.966   4.597   2.951  1.3704  1.0023 -2.6851
 9107SOL    HW238784   4.096   4.674   2.990 -0.3808  1.1176  2.3284
 9108SOL     OW38785   3.857   3.289   3.894  0.1423  0.4288  0.3000
 9108SOL    HW138786   3.912   3.311   3.969 -1.0042 -0.3432  1.3654
 9108SOL    HW238787   3.805   3.370   3.886 -0.3507 -0.1265 -2.1090
 9109SOL     OW38788   1.638   0.889   6.958 -0.1195  0.6713 -0.3212
 9109SOL    HW138789   1.646   0.944   6.880  0.9211  0.2945 -0.4895
 9109SOL    HW238790   1.722   0.846   6.938 -0.2097  1.0617 -1.5350
 9110SOL     OW38791   4.567   3.483  14.375 -0.6099 -0.1634 -0.3715
 9110SOL    HW138792   4.572   3.552  14.308  1.7845 -1.4253 -1.4804
 9110SOL    HW238793   4.566   3.410  14.313  0.7654  2.7853 -3.8524
 9111SOL     OW38794   4.632   0.339  10.497  0.3150  0.5276 -0.4132
 9111SOL    HW138795   4.708   0.313  10.444  0.9727 -0.7413  1.1183
 9111SOL    HW238796   4.667   0.363  10.583  1.6323 -0.7586 -0.5762
 9112SOL     OW38797   3.216   1.099   5.892 -0.3504  0.7164  0.1460
 9112SOL    HW138798   3.224   1.080   5.798 -1.0942 -2.7079  0.7643
 9112SOL    HW238799   3.146   1.037   5.912 -0.4605  1.3243  1.5742
 9113SOL     OW38800   3.991   2.808  12.178  0.4394 -0.6499  0.6510
 9113SOL    HW138801   3.986   2.881  12.239  2.9357 -1.4021  1.7378
 9113SOL    HW238802   3.979   2.849  12.092 -1.5357  1.1633  1.7859
 9114SOL     OW38803   0.112   4.223   3.559 -0.3098  0.0196  0.2114
 9114SOL    HW138804   0.018   4.237   3.542 -0.3515 -0.4353  0.0602
 9114SOL    HW238805   0.135   4.151   3.500  1.4163  0.3061  0.5651
 9115SOL     OW38806   3.791   2.398   4.443 -1.1344  0.0316  0.4102
 9115SOL    HW138807   3.822   2.474   4.493 -0.7758  0.0462  0.1638
 9115SOL    HW238808   3.763   2.438   4.361 -1.3504 -2.3211 -0.6424
 9116SOL     OW38809   4.721   4.591   5.334 -0.6324 -0.0271 -0.0631
 9116SOL    HW138810   4.715   4.544   5.250  0.2342  2.3424 -1.4676
 9116SOL    HW238811   4.657   4.537   5.379 -0.0919 -0.8252 -0.2414
 9117SOL     OW38812   0.612   3.739   7.052  0.6168 -0.3437  0.6391
 9117SOL    HW138813   0.523   3.731   7.017  0.3590 -0.4213  1.3051
 9117SOL    HW238814   0.648   3.783   6.975 -2.7103  0.7915 -0.3029
 9118SOL     OW38815   4.645   2.032   8.079  0.1914  0.3285 -0.4974
 9118SOL    HW138816   4.638   2.094   8.151  0.5736 -0.2896  0.0728
 9118SOL    HW238817   4.603   1.954   8.114 -1.3117  1.1286 -0.5367
 9119SOL     OW38818   4.354   1.367   8.742 -0.2784  0.5489  0.5904
 9119SOL    HW138819   4.281   1.413   8.785 -0.2959  0.8380  0.2522
 9119SOL    HW238820   4.352   1.285   8.792 -2.3027 -0.3499 -0.9588
 9120SOL     OW38821   2.271   0.055   7.481 -0.3706  0.2593  0.0142
 9120SOL    HW138822   2.209   4.722   7.529  0.2625 -1.2029 -0.8807
 9120SOL    HW238823   2.263   0.137   7.530  1.5392 -0.0022  0.7597
 9121SOL     OW38824   3.074   4.198   5.593  0.0512 -0.0764  0.5089
 9121SOL    HW138825   3.006   4.139   5.624  0.3010 -1.2944 -1.2585
 9121SOL    HW238826   3.069   4.184   5.498 -0.2780 -1.0256  0.6669
 9122SOL     OW38827   3.228   1.578   2.169  0.3453 -0.4209  0.0679
 9122SOL    HW138828   3.135   1.599   2.168  0.3964 -0.0484  2.2707
 9122SOL    HW238829   3.242   1.531   2.251 -0.2803 -2.4949 -0.9988
 9123SOL     OW38830   0.962   4.407   2.676 -0.3108 -0.0346 -0.0062
 9123SOL    HW138831   1.010   4.483   2.707 -1.2187  1.1324 -1.4466
 9123SOL    HW238832   0.973   4.411   2.581 -0.8324  0.1774 -0.0579
 9124SOL     OW38833   0.363   0.142   7.710  0.0261 -0.8438 -0.4435
 9124SOL    HW138834   0.370   0.047   7.723 -3.6912 -1.1410 -0.6875
 9124SOL    HW238835   0.282   0.145   7.659  0.5363  0.9499 -1.1279
 9125SOL     OW38836   4.537   4.548   8.330 -0.1843  0.0812 -0.1994
 9125SOL    HW138837   4.450   4.545   8.289 -0.9841  1.0015  1.4324
 9125SOL    HW238838   4.589   4.553   8.250  0.1175 -2.0361 -0.1209
 9126SOL     OW38839   0.396   2.684   1.867 -0.2545  0.6586  0.0413
 9126SOL    HW138840   0.408   2.718   1.778  0.8352  1.1768  0.3832
 9126SOL    HW238841   0.371   2.596   1.840  2.0038 -0.5711  1.9745
 9127SOL     OW38842   1.983   2.266   2.425 -0.5540 -0.1464 -0.0191
 9127SOL    HW138843   1.939   2.294   2.345 -0.4512  1.1626  0.3882
 9127SOL    HW238844   1.987   2.174   2.399 -1.9142 -0.1169 -0.3078
 9128SOL     OW38845   0.059   4.184   5.431  0.1564 -0.0763  0.4257
 9128SOL    HW138846   4.708   4.241   5.448 -0.5254 -0.5907 -0.8502
 9128SOL    HW238847   0.136   4.241   5.429 -0.6070  0.9450  0.5232
 9129SOL     OW38848   4.207   3.127   5.666  0.4746 -0.0004 -0.2526
 9129SOL    HW138849   4.144   3.093   5.603  1.0657 -1.7246  0.0932
 9129SOL    HW238850   4.276   3.061   5.661  1.1304  0.4567  3.1594
 9130SOL     OW38851   4.419   4.590   7.678  0.0469  0.2965 -0.0128
 9130SOL    HW138852   4.376   4.673   7.701 -2.6934 -1.4948  1.3284
 9130SOL    HW238853   4.354   4.523   7.697  0.9294 -0.3084  0.9032
 9131SOL     OW38854   1.258   1.912   2.592 -0.6663  0.3158  0.1531
 9131SOL    HW138855   1.347   1.919   2.558 -0.8736  0.9970 -0.2661
 9131SOL    HW238856   1.220   1.940   2.508 -0.5899 -0.2463 -0.0706
 9132SOL     OW38857   0.537   2.857  11.851 -0.1038 -0.2877 -0.1623
 9132SOL    HW138858   0.448   2.823  11.859 -1.3455  2.9048 -0.2821
 9132SOL    HW238859   0.529   2.871  11.757  2.0880 -3.6165 -0.8664
 9133SOL     OW38860   3.468   2.894  12.429 -0.1449 -0.4681  0.3086
 9133SOL    HW138861   3.492   2.901  12.521  0.5194 -1.6283  0.2202
 9133SOL    HW238862   3.531   2.949  12.382  0.5374 -0.7789  0.8704
 9134SOL     OW38863   3.012   0.102   9.283  0.4091  0.0296  0.2017
 9134SOL    HW138864   2.922   0.097   9.314  1.1078 -2.7745  1.8087
 9134SOL    HW238865   3.004   0.122   9.190  1.2355 -1.8802 -0.2976
 9135SOL     OW38866   1.968   1.327  14.982 -0.0805 -0.7054 -0.3266
 9135SOL    HW138867   1.997   1.408  14.939 -1.5371  0.4239  0.8072
 9135SOL    HW238868   1.982   1.261  14.914 -0.3805  0.6519 -1.7132
 9136SOL     OW38869   1.853   4.632   1.098 -0.8016 -0.1105  0.1481
 9136SOL    HW138870   1.821   4.559   1.045 -1.1462 -0.8026  1.3148
 9136SOL    HW238871   1.948   4.639   1.089 -1.1165  1.5470 -1.8277
 9137SOL     OW38872   2.794   2.358   6.868 -0.0310 -0.3211  0.4145
 9137SOL    HW138873   2.876   2.354   6.917  0.5256 -1.1790 -0.6013
 9137SOL    HW238874   2.820   2.396   6.784 -0.2094 -1.3950 -0.1204
 9138SOL     OW38875   1.761   4.056   8.120 -0.0973  0.4154  0.0249
 9138SOL    HW138876   1.826   3.987   8.135 -1.8854 -0.7802  2.4434
 9138SOL    HW238877   1.780   4.115   8.193 -0.7686  0.7053 -0.0401
 9139SOL     OW38878   1.011   0.778   3.594  0.4967 -0.0144  0.5432
 9139SOL    HW138879   0.983   0.808   3.681 -0.4314 -1.7014  0.8207
 9139SOL    HW238880   1.094   0.743   3.626 -0.1043 -2.2656 -0.3965
 9140SOL     OW38881   1.364   0.683   9.296 -0.0209 -0.1593 -0.6938
 9140SOL    HW138882   1.452   0.644   9.296  0.2694  0.5137  0.5169
 9140SOL    HW238883   1.327   0.638   9.373 -1.0554  2.1346  0.1439
 9141SOL     OW38884   1.557   3.570   5.701  0.5096 -0.4299  0.2288
 9141SOL    HW138885   1.499   3.597   5.630  0.6211  1.4847  0.8531
 9141SOL    HW238886   1.500   3.515   5.755 -1.2435  1.2105  0.0741
 9142SOL     OW38887   3.127   2.233  10.485  0.2252  0.1259  0.4879
 9142SOL    HW138888   3.044   2.260  10.446 -1.4808 -2.1961  2.4977
 9142SOL    HW238889   3.107   2.164  10.548 -1.8809 -0.4926 -0.8751
 9143SOL     OW38890   1.718   3.935   5.937 -0.2780 -0.0894 -0.5080
 9143SOL    HW138891   1.662   3.976   6.003 -0.4593 -0.7598 -0.2468
 9143SOL    HW238892   1.680   3.847   5.937 -2.5409  0.8868 -0.7660
 9144SOL     OW38893   0.581   1.430   4.552 -0.0558  0.2480 -0.0231
 9144SOL    HW138894   0.554   1.484   4.627 -2.5007  0.0494 -0.7831
 9144SOL    HW238895   0.661   1.473   4.521  0.0063 -1.0372 -1.6010
 9145SOL     OW38896   4.044   4.607   0.115 -0.3386  1.0965  0.1265
 9145SOL    HW138897   4.116   4.601   0.052 -0.8897  0.6418 -0.4688
 9145SOL    HW238898   3.968   4.562   0.079  0.6191  0.4267 -1.0682
 9146SOL     OW38899   2.690   0.248  11.746 -0.0692  0.3412 -0.1199
 9146SOL    HW138900   2.630   0.263  11.819  0.0411 -1.1348  0.2869
 9146SOL    HW238901   2.751   0.320  11.757 -2.4966  2.6733 -1.9949
 9147SOL     OW38902   0.608   2.928   2.744  0.1169 -0.4395 -0.2037
 9147SOL    HW138903   0.641   2.990   2.809  1.0472 -1.8176  0.6236
 9147SOL    HW238904   0.557   2.868   2.798  0.1588 -0.2635  0.0302
 9148SOL     OW38905   1.697   1.821   6.631 -0.8889  0.3265 -0.3045
 9148SOL    HW138906   1.627   1.759   6.651 -1.7074  0.8833 -1.4555
 9148SOL    HW238907   1.675   1.886   6.698  0.0002  0.2888  0.0116
 9149SOL     OW38908   1.641   3.603   7.538 -0.1914 -0.6598  0.5479
 9149SOL    HW138909   1.612   3.685   7.578 -0.7815 -0.9031  0.6200
 9149SOL    HW238910   1.663   3.547   7.612 -0.3079 -1.9510 -0.4047
 9150SOL     OW38911   0.502   3.405   5.651 -1.1135  0.5068 -0.6293
 9150SOL    HW138912   0.439   3.420   5.721 -2.6895  1.3197 -2.2394
 9150SOL    HW238913   0.455   3.451   5.582 -1.2116 -0.2165 -1.0460
 9151SOL     OW38914   2.535   0.957   3.233 -0.4620 -0.2987  0.5325
 9151SOL    HW138915   2.495   0.880   3.273 -1.9939 -0.3146 -1.0257
 9151SOL    HW238916   2.483   0.973   3.154 -1.1932 -0.5292  0.9751
 9152SOL     OW38917   1.132   2.756  17.222  0.1530  0.9479 -1.0234
 9152SOL    HW138918   1.047   2.747  17.180  0.0724  0.8807 -0.8454
 9152SOL    HW238919   1.158   2.844  17.194 -2.2996  1.8378 -0.5267
 9153SOL     OW38920   2.431   3.857   5.751  0.6574  0.2071 -0.5774
 9153SOL    HW138921   2.338   3.852   5.730  0.7876 -2.2412 -0.6362
 9153SOL    HW238922   2.412   3.826   5.840  0.3455  0.6185 -0.5009
 9154SOL     OW38923   4.604   2.449   5.681  0.7386  0.1884  0.3916
 9154SOL    HW138924   4.567   2.448   5.769  1.3323  1.8964  0.6742
 9154SOL    HW238925   4.637   2.360   5.682 -1.1308 -0.4996  0.6265
 9155SOL     OW38926   0.263   1.648  16.972  0.3279 -0.5689  0.6122
 9155SOL    HW138927   0.358   1.641  16.966  0.2225 -0.4332 -1.2272
 9155SOL    HW238928   0.250   1.653  17.067  0.8620 -0.2655  0.6692
 9156SOL     OW38929   1.983   1.750   4.211  0.2423  0.3709  0.1490
 9156SOL    HW138930   1.901   1.700   4.207  0.7468 -0.4105 -0.3910
 9156SOL    HW238931   2.040   1.692   4.261 -0.5252 -2.3845 -2.1445
 9157SOL     OW38932   4.553   4.287   3.469 -0.0461  0.4830  0.3361
 9157SOL    HW138933   4.537   4.256   3.379 -2.1982 -1.6883  1.4651
 9157SOL    HW238934   4.474   4.270   3.521  0.5147 -3.1867  0.0060
 9158SOL     OW38935   3.650   1.592   5.898  0.1711 -0.2979 -0.7601
 9158SOL    HW138936   3.671   1.569   5.807  0.7769  1.6435 -1.1012
 9158SOL    HW238937   3.659   1.687   5.899 -0.8867 -0.2215  1.3975
 9159SOL     OW38938   2.831   1.734   4.791 -0.0656 -0.0099  0.3962
 9159SOL    HW138939   2.785   1.773   4.717 -0.0008  0.1663  0.4510
 9159SOL    HW238940   2.839   1.641   4.766 -1.8034 -0.1822  0.4987
 9160SOL     OW38941   1.465   4.230  14.527  0.2045  0.0031  0.0698
 9160SOL    HW138942   1.445   4.152  14.475 -1.3195  1.7971 -2.0320
 9160SOL    HW238943   1.381   4.274  14.517 -1.1828 -2.4849  0.5741
 9161SOL     OW38944   4.555   0.957   4.303  0.0935  1.0997 -0.3744
 9161SOL    HW138945   4.548   0.967   4.208  0.5557  1.5427 -0.3664
 9161SOL    HW238946   4.521   1.043   4.327 -1.2037  1.3033 -2.9406
 9162SOL     OW38947   3.846   4.629   5.585  0.0509 -0.0728 -0.6170
 9162SOL    HW138948   3.912   4.601   5.648 -0.7478 -1.0932 -0.2206
 9162SOL    HW238949   3.771   4.654   5.640 -0.9288  0.9299 -2.4200
 9163SOL     OW38950   4.449   4.676   4.893 -0.4205 -0.2744 -0.2057
 9163SOL    HW138951   4.370   4.715   4.856 -1.3415 -2.3718 -0.4814
 9163SOL    HW238952   4.401   4.608   4.941 -2.7861  1.5545  0.0442
 9164SOL     OW38953   1.635   1.837   8.104  0.0326 -0.4325 -0.5048
 9164SOL    HW138954   1.555   1.792   8.130  0.6007 -0.8472  0.5029
 9164SOL    HW238955   1.683   1.764   8.067  0.7605  0.4360 -1.2818
 9165SOL     OW38956   0.961   0.785  10.925 -0.1478 -0.0208  0.2034
 9165SOL    HW138957   1.054   0.807  10.921 -0.2798  0.6683  1.0302
 9165SOL    HW238958   0.949   0.724  10.998 -0.1090  0.9774  1.0398
 9166SOL     OW38959   3.650   2.716  16.200 -0.8579 -0.4073  0.6639
 9166SOL    HW138960   3.675   2.799  16.160 -0.0114 -1.1886 -0.4272
 9166SOL    HW238961   3.675   2.715  16.293  1.8205  1.7526 -0.0542
 9167SOL     OW38962   3.535   0.663  11.796 -0.3885 -0.3823  0.0215
 9167SOL    HW138963   3.613   0.672  11.850  2.0192  1.0750 -3.6436
 9167SOL    HW238964   3.527   0.568  11.783  1.8305 -0.1563 -3.0617
 9168SOL     OW38965   0.981   3.405   0.035  0.0896  0.1894 -0.3544
 9168SOL    HW138966   0.963   3.334   0.096  1.5945 -0.1494 -0.3047
 9168SOL    HW238967   0.933   3.387  17.649 -1.9328 -0.1876  0.9450
 9169SOL     OW38968   1.897   2.034   2.282  0.2836  0.7292  0.4831
 9169SOL    HW138969   1.829   1.980   2.323  0.5052  0.4043  0.4252
 9169SOL    HW238970   1.867   2.034   2.191 -2.7789 -0.4420  1.4942
 9170SOL     OW38971   3.597   3.137  10.678 -0.4564 -0.5386  0.5953
 9170SOL    HW138972   3.690   3.125  10.657 -0.5112  1.3813 -0.7457
 9170SOL    HW238973   3.609   3.201  10.748 -1.8785  0.9130 -0.4913
 9171SOL     OW38974   1.547   1.589   9.989 -0.1046 -0.2384  0.8191
 9171SOL    HW138975   1.511   1.635  10.065 -1.5965 -1.9891  1.1795
 9171SOL    HW238976   1.598   1.520  10.032  0.0073 -1.8078 -1.8375
 9172SOL     OW38977   4.456   2.523   5.918 -0.2112  0.2670 -0.2099
 9172SOL    HW138978   4.379   2.520   5.862 -0.2514 -0.5258 -0.1153
 9172SOL    HW238979   4.459   2.441   5.967  1.8050 -1.5411 -3.2913
 9173SOL     OW38980   3.494   0.436   4.944 -0.3034  0.1519  0.3398
 9173SOL    HW138981   3.556   0.424   5.016 -1.1525  0.1023  1.0491
 9173SOL    HW238982   3.456   0.520   4.966 -2.9062 -0.9669  0.1118
 9174SOL     OW38983   1.756   0.175   8.278 -0.0908 -0.0647  0.8955
 9174SOL    HW138984   1.750   0.135   8.191 -1.5921 -0.6860  1.2984
 9174SOL    HW238985   1.678   0.145   8.324 -0.9816  0.4702 -0.2962
 9175SOL     OW38986   2.053   4.701   7.324 -0.3984  0.0090 -0.1550
 9175SOL    HW138987   2.030   0.062   7.284  0.7220  0.1561 -0.4925
 9175SOL    HW238988   2.144   0.000   7.346  0.0910  0.1700 -2.2896
 9176SOL     OW38989   3.870   2.215   2.222 -0.3170 -0.1223  0.0095
 9176SOL    HW138990   3.917   2.190   2.302 -0.6494 -2.9207 -0.6871
 9176SOL    HW238991   3.833   2.131   2.197  1.2859 -0.6181 -0.7089
 9177SOL     OW38992   0.827   1.041   6.860  0.2276 -0.2741  0.1012
 9177SOL    HW138993   0.748   1.095   6.859  0.7327  0.4977  1.0336
 9177SOL    HW238994   0.828   1.020   6.954  0.7399 -0.5507  0.0340
 9178SOL     OW38995   0.690   2.657  11.959 -0.1840 -0.5114  0.1556
 9178SOL    HW138996   0.637   2.722  11.913  1.8582  1.8176  1.0993
 9178SOL    HW238997   0.624   2.616  12.013 -2.0564 -0.3089 -1.9910
 9179SOL     OW38998   1.061   0.647   6.168  0.3444 -0.2824  0.0423
 9179SOL    HW138999   1.012   0.590   6.109  0.0750 -1.0309  0.9741
 9179SOL    HW239000   1.088   0.710   6.102 -0.1332 -1.1494 -0.9858
 9180SOL     OW39001   0.876   0.171   8.694  0.0057  0.9903 -1.0447
 9180SOL    HW139002   0.896   0.240   8.757 -1.8552 -0.8261  1.5095
 9180SOL    HW239003   0.955   0.183   8.642  1.0261 -2.1117 -0.2199
 9181SOL     OW39004   3.293   4.446   2.114 -0.4781 -0.6013 -0.5082
 9181SOL    HW139005   3.254   4.461   2.027 -1.6268  0.9207  0.2641
 9181SOL    HW239006   3.221   4.450   2.177 -0.2929 -2.7104 -0.1743
 9182SOL     OW39007   0.779   0.214   0.399 -0.1471 -0.6264 -0.6299
 9182SOL    HW139008   0.701   0.261   0.430  0.4548 -0.5151  0.7059
 9182SOL    HW239009   0.780   0.212   0.303  0.7006  1.1381 -0.6555
 9183SOL     OW39010   1.074   1.084   3.876 -0.1881  0.6999 -0.6837
 9183SOL    HW139011   1.065   1.164   3.824 -0.4657  0.4703 -0.9814
 9183SOL    HW239012   1.079   1.121   3.965 -0.6974  0.9506 -0.7609
 9184SOL     OW39013   4.470   2.539   6.247  0.2253  0.0626 -0.0692
 9184SOL    HW139014   4.512   2.624   6.232 -0.8023  0.9991  2.3506
 9184SOL    HW239015   4.514   2.536   6.332 -2.2089 -1.7869  1.1197
 9185SOL     OW39016   1.493   4.489   6.798 -0.5425  0.6196  0.3490
 9185SOL    HW139017   1.532   4.429   6.734 -0.3947  1.2532 -0.1604
 9185SOL    HW239018   1.403   4.485   6.765  0.8817 -1.1575 -3.3053
 9186SOL     OW39019   4.130   0.839  16.781 -0.0243 -0.2996  0.7767
 9186SOL    HW139020   4.051   0.889  16.801 -0.1764 -0.4205  0.4936
 9186SOL    HW239021   4.094   0.751  16.793  0.2404 -0.5365 -0.1374
 9187SOL     OW39022   1.794   2.392   1.439 -0.2675 -0.1459 -0.1702
 9187SOL    HW139023   1.815   2.440   1.519  0.7777 -1.9494  0.6404
 9187SOL    HW239024   1.823   2.454   1.372  1.5731 -0.6544  0.1391
 9188SOL     OW39025   4.567   0.665   1.801  0.1431  0.0398 -0.2302
 9188SOL    HW139026   4.554   0.664   1.706 -0.6984 -0.3758 -0.1096
 9188SOL    HW239027   4.483   0.628   1.828 -0.5791  0.7310 -1.5177
 9189SOL     OW39028   2.557   0.093   3.021  0.5479  0.2149 -0.8137
 9189SOL    HW139029   2.557   0.051   2.935 -1.8698 -1.8389  0.1984
 9189SOL    HW239030   2.551   0.184   2.994 -0.9315  0.5412  0.6077
 9190SOL     OW39031   3.161   2.120   3.981  0.5523 -0.2389 -0.5017
 9190SOL    HW139032   3.106   2.152   3.909  2.1705  2.9305 -0.3464
 9190SOL    HW239033   3.185   2.038   3.938 -0.0013 -0.7891  0.2436
 9191SOL     OW39034   3.510   1.651   8.532 -0.4385 -0.6686 -0.0485
 9191SOL    HW139035   3.463   1.626   8.452 -1.5521  0.4885  0.2440
 9191SOL    HW239036   3.463   1.597   8.596  1.4160 -1.0164  1.0007
 9192SOL     OW39037   3.829   0.336   5.930  0.3859  0.4739  0.0590
 9192SOL    HW139038   3.894   0.266   5.932 -1.4998 -1.2295  1.9411
 9192SOL    HW239039   3.863   0.386   6.004 -0.9292  0.7659  0.4705
 9193SOL     OW39040   1.383   1.927   7.215  0.1320 -0.3305  0.6417
 9193SOL    HW139041   1.466   1.925   7.261 -1.0559 -2.0524  2.7010
 9193SOL    HW239042   1.420   1.923   7.127 -0.1153  0.1594  0.5132
 9194SOL     OW39043   3.474   2.157   2.922  0.2718 -0.1812 -0.6329
 9194SOL    HW139044   3.497   2.105   2.999  0.7398  3.2536  1.5633
 9194SOL    HW239045   3.542   2.121   2.865 -0.2225 -1.8566 -0.1598
 9195SOL     OW39046   4.522   4.424   8.789 -0.1539 -0.4283 -0.2909
 9195SOL    HW139047   4.429   4.425   8.767 -0.0477 -0.7471 -0.7588
 9195SOL    HW239048   4.577   4.402   8.713 -0.0019  0.6995 -0.5026
 9196SOL     OW39049   4.015   2.242   3.796 -0.7882 -0.0065  0.3697
 9196SOL    HW139050   4.021   2.152   3.827  0.0409 -0.2795 -0.5747
 9196SOL    HW239051   3.920   2.249   3.784 -0.4827 -0.0533 -2.0214
 9197SOL     OW39052   4.237   4.008   9.321  0.2080 -0.0504  0.2724
 9197SOL    HW139053   4.186   4.088   9.321  0.6854  0.2612 -0.5068
 9197SOL    HW239054   4.267   3.990   9.231  0.6133 -2.4860  0.8894
 9198SOL     OW39055   1.093   4.683   8.389  0.0329 -0.2369 -0.5958
 9198SOL    HW139056   1.182   4.649   8.380 -0.3014 -1.6789  1.4900
 9198SOL    HW239057   1.090   4.720   8.301 -2.9894 -0.6990 -0.7159
 9199SOL     OW39058   2.224   2.614   8.125  0.6110 -0.0184  0.2994
 9199SOL    HW139059   2.212   2.690   8.068  1.0503 -0.6995 -0.6982
 9199SOL    HW239060   2.132   2.594   8.142  0.1031  1.6404 -0.5046
 9200SOL     OW39061   1.149   2.827   7.677  0.1123  0.0579  0.1525
 9200SOL    HW139062   1.092   2.750   7.678 -1.2180  1.0308 -0.6890
 9200SOL    HW239063   1.100   2.894   7.630  1.6214  0.8728 -0.2404
 9201SOL     OW39064   1.131   1.490  15.749  0.2107 -0.1052  0.5734
 9201SOL    HW139065   1.141   1.536  15.665  0.0125  0.0330  0.6252
 9201SOL    HW239066   1.212   1.523  15.787  1.6046 -1.0690 -1.5731
 9202SOL     OW39067   4.456   0.277   4.340 -0.0482 -0.0514  0.1029
 9202SOL    HW139068   4.485   0.205   4.284  0.7696  1.3792 -1.3045
 9202SOL    HW239069   4.462   0.351   4.279 -2.7445  0.7074  0.7471
 9203SOL     OW39070   0.390   3.514   3.406 -0.4276 -0.6345  0.7797
 9203SOL    HW139071   0.317   3.534   3.347  0.0417 -1.8579 -0.1807
 9203SOL    HW239072   0.349   3.452   3.466 -2.4191 -0.7286 -0.6775
 9204SOL     OW39073   3.443   1.416   5.919 -0.7791  0.2354 -0.1479
 9204SOL    HW139074   3.502   1.491   5.924  0.4598 -0.5666 -2.8986
 9204SOL    HW239075   3.469   1.375   5.836 -0.8279 -1.0452  0.4696
 9205SOL     OW39076   3.470   2.182   8.621 -0.4176  0.6664  0.4975
 9205SOL    HW139077   3.497   2.273   8.636 -0.5573  0.5334  1.5335
 9205SOL    HW239078   3.557   2.143   8.620  0.0626  1.7469  0.3074
 9206SOL     OW39079   3.984   3.026   8.330  0.6596 -0.0093 -0.2567
 9206SOL    HW139080   4.050   2.977   8.380  2.5385  3.2465  0.4363
 9206SOL    HW239081   3.908   3.026   8.388 -0.7484 -0.4701 -2.0968
 9207SOL     OW39082   2.136   1.883  16.666 -0.3822  0.0067 -0.0625
 9207SOL    HW139083   2.114   1.962  16.615  0.7286  0.7810  0.6672
 9207SOL    HW239084   2.050   1.847  16.690 -1.5610  1.8788 -1.4061
 9208SOL     OW39085   1.585   2.682   1.004 -0.1376 -0.4830  0.1671
 9208SOL    HW139086   1.534   2.744   1.055 -0.2121  0.8700 -1.5295
 9208SOL    HW239087   1.533   2.602   0.994 -3.4846  1.7370  0.1828
 9209SOL     OW39088   3.464   3.477   3.506 -0.1364  0.3634 -0.2224
 9209SOL    HW139089   3.519   3.399   3.510  0.5668  0.8613 -0.1194
 9209SOL    HW239090   3.389   3.452   3.560  0.3771 -2.4590 -0.8033
 9210SOL     OW39091   1.657   2.423   4.234  0.5812  0.5113  0.1101
 9210SOL    HW139092   1.574   2.417   4.281  1.2237  1.8326  1.4233
 9210SOL    HW239093   1.633   2.502   4.185 -0.8417  0.4195  0.6576
 9211SOL     OW39094   0.965   1.250  14.060  0.0990  0.3333 -0.2938
 9211SOL    HW139095   1.021   1.287  14.129 -1.0067 -0.1447  0.8494
 9211SOL    HW239096   1.015   1.273  13.982  3.6129 -1.9983  1.2379
 9212SOL     OW39097   4.293   0.564   6.000  0.0377  0.3795  0.3828
 9212SOL    HW139098   4.219   0.615   5.965  0.1133  0.7478  0.7611
 9212SOL    HW239099   4.323   0.519   5.921  2.4571  1.5911  0.6340
 9213SOL     OW39100   3.922   0.428   5.397 -0.0263  0.5724  0.3049
 9213SOL    HW139101   3.831   0.398   5.403  0.0205  0.2143 -0.8536
 9213SOL    HW239102   3.948   0.447   5.487  1.5645 -1.6599  0.3257
 9214SOL     OW39103   2.655   0.671   9.924 -0.5560  0.2303  0.1304
 9214SOL    HW139104   2.589   0.724   9.969 -0.5545 -0.4530  0.9418
 9214SOL    HW239105   2.735   0.711   9.959  1.0903 -2.0699 -1.0168
 9215SOL     OW39106   0.214   2.363   2.488  0.0509 -0.0189  0.1000
 9215SOL    HW139107   0.224   2.270   2.467 -1.9622  0.2676 -2.2190
 9215SOL    HW239108   0.300   2.394   2.514 -0.5025  0.1466  1.7185
 9216SOL     OW39109   2.616   2.901   7.173 -0.6150  0.6393 -0.3595
 9216SOL    HW139110   2.641   2.815   7.205 -0.4102  0.0680 -2.0392
 9216SOL    HW239111   2.635   2.957   7.248 -1.2456 -3.7499  3.0381
 9217SOL     OW39112   2.827   0.227   8.825  0.3514 -0.1419  0.7385
 9217SOL    HW139113   2.828   0.299   8.762  0.3033  0.6225  1.6060
 9217SOL    HW239114   2.918   0.209   8.847 -0.3057 -1.2589  2.5196
 9218SOL     OW39115   2.045   1.635  15.519  0.2083  0.9026 -0.2694
 9218SOL    HW139116   1.972   1.591  15.564 -0.9478 -0.3840 -3.4364
 9218SOL    HW239117   2.051   1.587  15.437 -3.0233  0.8824 -0.5260
 9219SOL     OW39118   0.498   3.504  11.010 -0.4627  0.3275  0.1472
 9219SOL    HW139119   0.430   3.531  10.948 -1.9686  1.1663  2.1715
 9219SOL    HW239120   0.571   3.493  10.950 -0.9760 -1.6128 -0.1461
 9220SOL     OW39121   0.308   0.718   9.574 -0.0318  0.2307  0.2183
 9220SOL    HW139122   0.246   0.750   9.640 -1.4142 -1.9533 -0.0289
 9220SOL    HW239123   0.241   0.685   9.515 -1.8427  0.4115  2.2098
 9221SOL     OW39124   0.751   0.167  12.104 -0.1119 -0.3118  0.4284
 9221SOL    HW139125   0.722   0.255  12.079 -0.1225 -0.6700 -0.7793
 9221SOL    HW239126   0.701   0.155  12.185 -1.4900 -1.9272 -0.6792
 9222SOL     OW39127   1.381   2.369   7.719 -0.9927  0.2605  0.4651
 9222SOL    HW139128   1.463   2.331   7.749 -0.7767  0.8267  0.5975
 9222SOL    HW239129   1.417   2.418   7.645 -1.7281  0.6270  0.3548
 9223SOL     OW39130   1.815   1.254   8.190  0.1956 -0.0112 -0.4833
 9223SOL    HW139131   1.829   1.334   8.241 -1.2145  1.4467 -2.3463
 9223SOL    HW239132   1.720   1.243   8.195  0.2450 -0.7306 -1.1760
 9224SOL     OW39133   2.796   2.427   2.137 -0.5599 -0.1696 -0.0820
 9224SOL    HW139134   2.848   2.458   2.063 -0.1129  0.2677  0.4146
 9224SOL    HW239135   2.753   2.508   2.165  0.7804 -0.6208  3.2638
 9225SOL     OW39136   2.629   1.060  15.812  0.4803 -0.6517 -0.0182
 9225SOL    HW139137   2.616   1.059  15.907  1.2190  3.1373  0.1196
 9225SOL    HW239138   2.707   1.114  15.801  1.2276 -1.7190  0.1211
 9226SOL     OW39139   0.096   2.161   4.923 -0.3486  0.1628  0.2992
 9226SOL    HW139140   0.037   2.087   4.940  1.0674 -1.0440 -0.0539
 9226SOL    HW239141   0.178   2.112   4.921 -0.7704 -0.4843 -2.1205
 9227SOL     OW39142   2.380   1.453  12.486 -0.5959 -0.0979  0.7248
 9227SOL    HW139143   2.328   1.377  12.513  0.8283 -1.9871 -1.8902
 9227SOL    HW239144   2.439   1.426  12.416 -1.4240 -2.4508  0.9278
 9228SOL     OW39145   0.682   3.475  14.231  0.6163  0.9261 -0.1478
 9228SOL    HW139146   0.637   3.545  14.277 -1.0969 -0.6818  0.6282
 9228SOL    HW239147   0.770   3.474  14.270 -0.0316  2.0073  1.3324
 9229SOL     OW39148   4.581   4.393   5.495  0.2089 -0.3590  0.2782
 9229SOL    HW139149   4.597   4.434   5.579  1.0314 -0.9868  0.4214
 9229SOL    HW239150   4.488   4.369   5.496 -0.1806  1.1548  0.0962
 9230SOL     OW39151   2.948   2.533  10.785  0.4173 -0.0440 -0.2990
 9230SOL    HW139152   2.864   2.519  10.829  0.8307 -0.6024  0.3212
 9230SOL    HW239153   2.928   2.563  10.697 -1.7584  0.4828  0.3892
 9231SOL     OW39154   3.415   4.299   4.794 -0.0138  0.0558  0.0633
 9231SOL    HW139155   3.459   4.269   4.714 -1.0971 -0.1508 -0.4484
 9231SOL    HW239156   3.330   4.256   4.792 -0.0774  0.2532 -1.4518
 9232SOL     OW39157   4.301   0.080   2.489 -0.1254  0.0658  0.0564
 9232SOL    HW139158   4.231   0.021   2.459  1.1796 -0.9847 -0.9024
 9232SOL    HW239159   4.297   0.067   2.583 -2.3715  0.6483  0.0459
 9233SOL     OW39160   0.006   3.075  14.434 -0.3603  0.1830  0.0537
 9233SOL    HW139161   0.048   3.156  14.403  0.2889  0.0095  0.4741
 9233SOL    HW239162   4.721   3.112  14.521 -1.1328  0.2873 -0.0650
 9234SOL     OW39163   1.613   2.272  13.963 -0.3284  0.1894 -0.1266
 9234SOL    HW139164   1.660   2.304  14.040 -1.6122  1.9951 -0.1030
 9234SOL    HW239165   1.587   2.184  13.991  0.5444  0.0263  0.1908
 9235SOL     OW39166   2.079   3.374   8.810 -0.2643  0.0233  0.4723
 9235SOL    HW139167   2.115   3.329   8.733  0.9403  0.7795  0.5820
 9235SOL    HW239168   2.009   3.318   8.843 -1.4058 -0.3489 -2.5876
 9236SOL     OW39169   1.596   2.030   3.838  0.0032 -0.2282  0.0322
 9236SOL    HW139170   1.593   1.955   3.779  1.5342  0.7639 -1.2765
 9236SOL    HW239171   1.676   2.074   3.810 -0.4094 -1.2339 -2.7384
 9237SOL     OW39172   0.938   2.893   5.039  0.1377 -0.4767 -0.4596
 9237SOL    HW139173   0.901   2.976   5.068  0.0554  0.3483 -2.9067
 9237SOL    HW239174   0.961   2.929   4.954 -0.3575 -2.7496 -1.5555
 9238SOL     OW39175   2.342   3.082   3.690  0.0392 -0.3181  0.1637
 9238SOL    HW139176   2.292   3.003   3.667 -1.6601  0.7788  0.1127
 9238SOL    HW239177   2.430   3.049   3.707 -0.1008 -0.6670  0.2189
 9239SOL     OW39178   4.201   1.309  14.435  0.0322 -0.0490  0.4408
 9239SOL    HW139179   4.120   1.278  14.476 -1.1222  1.3140 -0.8120
 9239SOL    HW239180   4.176   1.390  14.392 -0.3205  0.6943  2.0398
 9240SOL     OW39181   1.577   0.868   3.933  0.6880 -0.3534 -0.0498
 9240SOL    HW139182   1.486   0.875   3.903  0.1417  1.1061  1.9171
 9240SOL    HW239183   1.613   0.927   3.867  0.1321 -1.1985 -1.1030
 9241SOL     OW39184   1.733   4.070   2.673 -0.8787  0.3904  0.0555
 9241SOL    HW139185   1.728   4.009   2.600  0.2927  0.9688 -0.5088
 9241SOL    HW239186   1.809   4.115   2.636 -0.9752  0.7008  0.2308
 9242SOL     OW39187   1.255   2.817   2.363  0.5991  0.4183 -0.4575
 9242SOL    HW139188   1.217   2.765   2.292 -0.3694 -1.0411  1.1253
 9242SOL    HW239189   1.183   2.880   2.370  0.8438  0.6165  0.1890
 9243SOL     OW39190   1.363   2.082   2.131 -0.3304  0.1614  0.2308
 9243SOL    HW139191   1.400   2.027   2.062  0.6560 -0.3832  1.1825
 9243SOL    HW239192   1.431   2.150   2.136 -0.9643  0.6162  2.9263
 9244SOL     OW39193   4.236   3.947  15.951  0.2576  0.2957 -0.0361
 9244SOL    HW139194   4.170   4.008  15.917 -0.9736 -1.4601 -0.8253
 9244SOL    HW239195   4.174   3.904  16.010  1.3804 -0.0274  0.9115
 9245SOL     OW39196   2.227   3.177   5.345 -0.8498 -0.0702  0.2823
 9245SOL    HW139197   2.195   3.260   5.380 -0.1406 -0.2440  1.3537
 9245SOL    HW239198   2.295   3.153   5.408 -0.4679 -0.9932 -0.4898
 9246SOL     OW39199   3.228   3.102   9.337 -0.0903  0.0468 -0.1119
 9246SOL    HW139200   3.145   3.056   9.324 -0.0418 -0.1963  0.4635
 9246SOL    HW239201   3.247   3.146   9.254  1.5833 -0.4333  0.0139
 9247SOL     OW39202   2.017   3.008   5.319 -0.3792 -0.4877  0.0804
 9247SOL    HW139203   2.090   3.067   5.300  0.1358 -2.8909 -5.2700
 9247SOL    HW239204   2.002   3.037   5.410 -0.1832  1.7463 -0.5815
 9248SOL     OW39205   2.860   1.806   5.271 -0.7796 -0.0058  0.1413
 9248SOL    HW139206   2.795   1.853   5.220 -0.8899  0.0741  0.3554
 9248SOL    HW239207   2.827   1.833   5.356 -0.5338  1.0891 -0.1110
 9249SOL     OW39208   4.159   1.589   5.001  0.0919 -0.6151 -0.0883
 9249SOL    HW139209   4.232   1.565   4.943 -0.2527  1.9531 -1.6050
 9249SOL    HW239210   4.160   1.685   4.993 -1.2749 -0.8647 -3.1329
 9250SOL     OW39211   4.529   2.709   7.980 -0.1514  0.4839 -0.2312
 9250SOL    HW139212   4.452   2.667   8.016  0.3301 -0.9249 -0.8542
 9250SOL    HW239213   4.574   2.733   8.061 -0.0392  0.7901 -0.3827
 9251SOL     OW39214   4.035   3.984   0.579  0.6793  0.2258  0.2375
 9251SOL    HW139215   4.081   4.006   0.498 -2.1090 -1.0930 -1.7412
 9251SOL    HW239216   4.034   3.889   0.564  4.5990  0.3165 -0.4893
 9252SOL     OW39217   2.819   2.547   6.632  0.3415  0.0829 -0.4713
 9252SOL    HW139218   2.871   2.530   6.553 -0.1581 -1.6191 -0.4307
 9252SOL    HW239219   2.733   2.550   6.590 -0.7005 -2.4228  1.5040
 9253SOL     OW39220   2.119   3.735  13.407 -0.6423  0.3171  0.0855
 9253SOL    HW139221   2.170   3.813  13.428 -0.6967  0.0929  1.0588
 9253SOL    HW239222   2.180   3.689  13.349  0.5097 -0.6038  2.0426
 9254SOL     OW39223   1.398   3.588   0.271  0.3088 -0.3350  0.5385
 9254SOL    HW139224   1.447   3.521   0.224  1.3238 -0.9516  2.4828
 9254SOL    HW239225   1.307   3.571   0.247  0.2662 -0.0052  0.4614
 9255SOL     OW39226   1.856   2.575   7.737 -1.0303  0.8321  0.0624
 9255SOL    HW139227   1.781   2.593   7.794 -0.4178 -2.4818  1.9515
 9255SOL    HW239228   1.895   2.503   7.786 -0.7624  0.0461 -1.3258
 9256SOL     OW39229   0.672   2.483  10.608  0.5208 -0.1582 -0.0808
 9256SOL    HW139230   0.603   2.456  10.668 -0.4755  0.5917 -0.8794
 9256SOL    HW239231   0.636   2.455  10.523 -3.8144  0.6227  1.4872
 9257SOL     OW39232   0.897   2.938   0.638 -0.4171  0.0250 -0.2427
 9257SOL    HW139233   0.914   3.023   0.678  3.0151 -2.0415  2.7599
 9257SOL    HW239234   0.809   2.922   0.672 -0.6151  0.3735 -0.5902
 9258SOL     OW39235   3.275   3.022   4.264  0.5860 -0.3747  0.6173
 9258SOL    HW139236   3.271   3.093   4.200 -0.6481  0.2211  1.3467
 9258SOL    HW239237   3.366   3.016   4.290  1.3985  1.5478 -1.7762
 9259SOL     OW39238   3.837   1.024   0.659 -0.2012 -0.1462 -0.2644
 9259SOL    HW139239   3.832   1.110   0.701  1.0654  0.6543 -1.7658
 9259SOL    HW239240   3.911   1.035   0.599  0.2774 -1.7370  0.0552
 9260SOL     OW39241   3.160   1.936  10.112  0.4019  0.1730  0.6124
 9260SOL    HW139242   3.186   2.026  10.132 -1.4905  0.5717  1.2544
 9260SOL    HW239243   3.238   1.905  10.066  2.0630  4.6589  0.3904
 9261SOL     OW39244   2.224   2.427   0.349 -0.1571 -0.4063 -0.0819
 9261SOL    HW139245   2.245   2.345   0.304  0.9472 -0.2244  0.0915
 9261SOL    HW239246   2.275   2.414   0.429 -1.0684  0.0395  0.5608
 9262SOL     OW39247   4.074   2.274   6.765  0.6057 -0.2324 -0.0019
 9262SOL    HW139248   4.059   2.180   6.752 -1.4934  0.2753 -1.1911
 9262SOL    HW239249   4.053   2.294   6.857 -0.3624 -1.0033 -0.0513
 9263SOL     OW39250   3.283   0.415   7.645  0.2593  0.2534 -0.0967
 9263SOL    HW139251   3.237   0.418   7.729  0.2523  1.0745 -0.1291
 9263SOL    HW239252   3.339   0.491   7.664  3.1419 -0.8379 -4.2333
 9264SOL     OW39253   3.694   1.322   4.462  0.2681 -0.2169  0.5922
 9264SOL    HW139254   3.602   1.322   4.488 -0.8701 -1.8256 -3.5175
 9264SOL    HW239255   3.677   1.271   4.384  1.6665 -1.1496  0.9072
 9265SOL     OW39256   1.602   1.154   8.414  0.4870  0.6662 -0.0055
 9265SOL    HW139257   1.662   1.124   8.482  0.1618  0.6133  0.2593
 9265SOL    HW239258   1.577   1.070   8.376  0.9207  1.5721 -2.2638
 9266SOL     OW39259   4.608   4.135   6.149 -0.6595 -0.0127  0.1010
 9266SOL    HW139260   4.686   4.082   6.167 -1.6045 -1.4052  0.0485
 9266SOL    HW239261   4.592   4.170   6.237 -1.8498 -1.0944  0.3123
 9267SOL     OW39262   3.169   1.477   9.261  0.1750 -0.4234  0.0916
 9267SOL    HW139263   3.105   1.548   9.253 -0.6640 -1.2301 -0.3124
 9267SOL    HW239264   3.167   1.448   9.169  0.4786  1.8601 -0.6431
 9268SOL     OW39265   3.395   1.889  10.011  0.0917 -0.8465  0.7898
 9268SOL    HW139266   3.385   1.899   9.916  1.5259  0.3221  0.7608
 9268SOL    HW239267   3.490   1.879  10.019  0.1267 -0.7997  0.4575
 9269SOL     OW39268   1.429   3.851   7.124 -0.1197  0.5795 -0.0515
 9269SOL    HW139269   1.428   3.874   7.217  0.8343  2.4357 -0.4879
 9269SOL    HW239270   1.467   3.764   7.117 -1.1987  0.0412  0.9559
 9270SOL     OW39271   2.788   3.865   7.222  0.4951  0.0694 -0.1201
 9270SOL    HW139272   2.783   3.775   7.252  1.0238  0.7168  1.9441
 9270SOL    HW239273   2.715   3.857   7.162 -0.6439  0.0876  1.2701
 9271SOL     OW39274   4.112   3.466   5.521  0.2609  0.1780 -0.0881
 9271SOL    HW139275   4.169   3.491   5.448 -0.9603  0.6088 -0.8812
 9271SOL    HW239276   4.026   3.495   5.492  0.7242  2.6024  1.0172
 9272SOL     OW39277   0.428   2.474  17.284 -0.0227  0.3377 -0.1743
 9272SOL    HW139278   0.461   2.498  17.371  1.5411 -2.4672  0.0166
 9272SOL    HW239279   0.335   2.496  17.290  0.4572  2.3375 -0.3029
 9273SOL     OW39280   3.070   1.326  10.924  0.4509 -0.1003 -0.3874
 9273SOL    HW139281   3.013   1.350  10.851  0.4545  2.6039  0.4911
 9273SOL    HW239282   2.999   1.325  10.987  1.7880 -1.3960  1.1002
 9274SOL     OW39283   4.579   4.183   7.716 -0.2829  0.1594  0.0531
 9274SOL    HW139284   4.646   4.204   7.781 -0.3595  2.3557 -0.5968
 9274SOL    HW239285   4.507   4.176   7.779 -0.7096 -2.0085 -0.6672
 9275SOL     OW39286   1.503   4.190  16.752 -0.3648 -0.2060  0.3391
 9275SOL    HW139287   1.491   4.198  16.657  1.0734  1.7134  0.3183
 9275SOL    HW239288   1.539   4.102  16.752  2.9797  1.1632  0.1595
 9276SOL     OW39289   1.746   3.459   1.318  0.2782 -0.0014 -0.1166
 9276SOL    HW139290   1.688   3.521   1.274 -3.2933 -2.5964  1.0161
 9276SOL    HW239291   1.739   3.379   1.265  1.5155 -0.4185  0.3383
 9277SOL     OW39292   4.076   0.714   5.930 -0.0128 -0.1786  0.3383
 9277SOL    HW139293   4.087   0.804   5.899 -0.6657 -1.5117 -3.7354
 9277SOL    HW239294   3.981   0.716   5.942 -0.2820  4.4505 -2.6491
 9278SOL     OW39295   4.104   0.836   8.105 -0.0654 -0.7131  0.1049
 9278SOL    HW139296   4.045   0.783   8.052 -1.7380  1.7640 -0.5577
 9278SOL    HW239297   4.098   0.923   8.064  0.7685 -1.6084 -1.9214
 9279SOL     OW39298   2.466   0.938  16.289  0.2590 -0.1748 -0.6362
 9279SOL    HW139299   2.425   0.908  16.208 -0.4170 -0.8028 -0.0627
 9279SOL    HW239300   2.477   0.849  16.322  0.8649 -0.2331 -0.9923
 9280SOL     OW39301   1.707   4.678   3.172  0.0335  0.2778  0.0990
 9280SOL    HW139302   1.763   4.601   3.185 -2.0703 -1.3249 -0.1338
 9280SOL    HW239303   1.773   0.016   3.204  1.0956 -0.2867 -1.0048
 9281SOL     OW39304   3.609   1.601  13.152 -0.4528  0.4966 -0.4875
 9281SOL    HW139305   3.683   1.546  13.177 -3.0352 -3.5022 -1.6326
 9281SOL    HW239306   3.613   1.608  13.056 -3.3356  1.8242 -0.5047
 9282SOL     OW39307   2.279   1.488   8.667  0.1032 -0.5231 -0.0689
 9282SOL    HW139308   2.277   1.583   8.658 -0.1404 -0.7398 -2.2866
 9282SOL    HW239309   2.353   1.485   8.727 -1.9248  1.6651  2.5935
 9283SOL     OW39310   3.836   2.337   6.356 -0.0743 -0.1714  0.4533
 9283SOL    HW139311   3.865   2.362   6.444 -0.1514  4.3736 -0.7948
 9283SOL    HW239312   3.863   2.411   6.301 -1.5451  0.3077  0.3761
 9284SOL     OW39313   1.741   0.594   6.855  0.6577 -0.1731  0.0351
 9284SOL    HW139314   1.781   0.511   6.831  1.6797  0.4344 -0.3564
 9284SOL    HW239315   1.665   0.603   6.797  0.4343  0.4434  0.4242
 9285SOL     OW39316   3.926   3.076   5.078 -1.1299 -0.9910  0.1968
 9285SOL    HW139317   3.882   3.112   5.155 -1.2038 -0.0716 -0.2673
 9285SOL    HW239318   3.873   3.002   5.048 -1.5704 -1.3734  1.9396
 9286SOL     OW39319   2.160   1.833   7.521 -0.2067  0.2857  0.1942
 9286SOL    HW139320   2.133   1.916   7.561 -1.3932 -0.3187  0.6526
 9286SOL    HW239321   2.119   1.771   7.582  1.5245 -1.3748 -0.3036
 9287SOL     OW39322   2.258   0.605   5.178  0.8070 -0.1055 -0.1352
 9287SOL    HW139323   2.165   0.593   5.157  0.0782  1.8522  1.9901
 9287SOL    HW239324   2.308   0.600   5.096  2.9862  0.1452  1.1766
 9288SOL     OW39325   1.548   1.042   7.482  0.3857 -0.2604  0.2003
 9288SOL    HW139326   1.611   0.976   7.511  0.9871  0.1639 -0.1574
 9288SOL    HW239327   1.556   1.029   7.388  0.2002 -0.7691  0.2548
 9289SOL     OW39328   0.075   0.877   5.271 -0.3219 -0.5519 -0.2316
 9289SOL    HW139329   0.060   0.843   5.183 -1.7831  0.4127 -0.3583
 9289SOL    HW239330   0.169   0.891   5.266 -0.0375 -2.5433 -0.3928
 9290SOL     OW39331   2.750   0.032   7.122  0.1138  0.4284  0.2687
 9290SOL    HW139332   2.774   4.684   7.181  0.0969  1.0416  1.0206
 9290SOL    HW239333   2.772   0.107   7.177 -0.0627  0.5495  0.1753
 9291SOL     OW39334   3.421   1.937   2.571  0.0736 -0.4034  0.0955
 9291SOL    HW139335   3.355   1.999   2.603  1.3951  0.8521  0.4055
 9291SOL    HW239336   3.369   1.858   2.558  0.9455 -0.7401 -1.2937
 9292SOL     OW39337   1.490   0.337   8.786  0.3664 -0.5868 -0.5459
 9292SOL    HW139338   1.581   0.316   8.805  1.0313  1.6882 -1.2434
 9292SOL    HW239339   1.494   0.365   8.694  0.6429 -3.5208 -1.4463
 9293SOL     OW39340   3.626   0.972   5.153  0.0773  0.1683  0.4675
 9293SOL    HW139341   3.578   0.952   5.073 -2.8576  2.4644  1.6484
 9293SOL    HW239342   3.571   1.042   5.189 -0.5585 -0.5639  0.9113
 9294SOL     OW39343   0.839   3.489   8.849  0.2559  0.2602 -0.0738
 9294SOL    HW139344   0.935   3.490   8.853  0.1497 -0.5233  2.6547
 9294SOL    HW239345   0.823   3.494   8.943 -1.2131  0.8705 -0.3593
 9295SOL     OW39346   4.242   2.489   6.722 -0.1025  0.2279  0.1928
 9295SOL    HW139347   4.310   2.452   6.665 -2.6335 -1.4071 -1.7589
 9295SOL    HW239348   4.191   2.409   6.732 -0.5182  0.5924  1.0196
 9296SOL     OW39349   2.665   3.685  13.683 -0.4789 -0.0288 -0.4567
 9296SOL    HW139350   2.666   3.772  13.721  0.4562 -1.1744  2.1370
 9296SOL    HW239351   2.597   3.682  13.616  0.7540 -2.7379 -1.5933
 9297SOL     OW39352   1.529   0.852  16.725 -0.4934 -0.2005 -0.2698
 9297SOL    HW139353   1.442   0.887  16.705 -0.5052  1.0504  2.0148
 9297SOL    HW239354   1.589   0.908  16.676  0.6480  0.4768  1.8880
 9298SOL     OW39355   1.609   1.053   6.724 -0.3765 -0.1680 -0.1355
 9298SOL    HW139356   1.666   1.115   6.770  3.6558 -2.9538 -1.3025
 9298SOL    HW239357   1.520   1.085   6.735  1.4335  4.8628  0.0530
 9299SOL     OW39358   3.817   1.300   1.650 -0.4915  0.4791 -0.2977
 9299SOL    HW139359   3.795   1.390   1.627  2.2072  1.4331  0.9142
 9299SOL    HW239360   3.912   1.305   1.648 -0.3858 -0.8019  1.1593
 9300SOL     OW39361   3.575   1.305  12.222 -0.6607 -0.3340 -0.2691
 9300SOL    HW139362   3.619   1.368  12.280 -2.2228  0.7123 -0.2220
 9300SOL    HW239363   3.643   1.277  12.161 -1.7305 -0.0423 -1.5742
 9301SOL     OW39364   3.960   2.340  14.859 -0.1332 -0.1450 -0.5303
 9301SOL    HW139365   3.896   2.410  14.869 -1.3972 -1.3343 -0.2024
 9301SOL    HW239366   3.940   2.310  14.770  0.6760  0.4632 -0.9186
 9302SOL     OW39367   3.826   2.153   6.117  0.5819 -0.4329  0.4481
 9302SOL    HW139368   3.875   2.168   6.198  1.8153  1.7101 -0.7078
 9302SOL    HW239369   3.740   2.177   6.151  0.6695  1.7500 -0.8932
 9303SOL     OW39370   4.422   4.719   2.756 -0.6544 -0.4319  0.3838
 9303SOL    HW139371   4.488   0.057   2.789 -0.4883 -1.5121  2.0451
 9303SOL    HW239372   4.458   4.709   2.667  0.4643 -1.3613  0.9416
 9304SOL     OW39373   0.898   4.239   5.164  0.2617 -0.3783 -0.1773
 9304SOL    HW139374   0.986   4.253   5.129  0.6913  0.3299  1.1596
 9304SOL    HW239375   0.840   4.264   5.093  2.1287  2.2767 -0.7481
 9305SOL     OW39376   3.792   3.331   6.076  0.2188  0.3005  0.1583
 9305SOL    HW139377   3.779   3.261   6.140  1.9407 -0.5099 -0.3818
 9305SOL    HW239378   3.751   3.289   6.001 -0.2375  1.6273 -0.3356
 9306SOL     OW39379   1.732   2.468   8.966 -0.2220 -0.4657 -0.6112
 9306SOL    HW139380   1.637   2.476   8.969 -0.1084  1.2067 -1.6020
 9306SOL    HW239381   1.742   2.381   9.005 -0.3535 -0.0705  0.2969
 9307SOL     OW39382   0.971   3.969   6.429  0.6731  0.4601  0.3517
 9307SOL    HW139383   0.981   4.062   6.408 -1.8264  0.4258 -1.0645
 9307SOL    HW239384   0.906   3.940   6.364  0.4943  2.4698 -0.3717
 9308SOL     OW39385   1.685   0.798   5.845  0.0753  0.5820 -0.0099
 9308SOL    HW139386   1.726   0.852   5.778  1.7417 -1.0533 -0.2935
 9308SOL    HW239387   1.727   0.826   5.926  0.1620 -0.1546  0.1984
 9309SOL     OW39388   3.741   0.906   1.253  0.1068  0.4581  0.9889
 9309SOL    HW139389   3.763   0.814   1.245 -0.3187  0.3237  1.3980
 9309SOL    HW239390   3.825   0.952   1.260  0.5181  0.1698 -2.2497
 9310SOL     OW39391   4.412   0.922   7.371  0.2680 -0.0070 -0.1378
 9310SOL    HW139392   4.361   0.848   7.338  1.5560 -1.9633  2.2071
 9310SOL    HW239393   4.431   0.975   7.294  0.4920  1.4040  0.8876
 9311SOL     OW39394   3.580   2.911  14.929 -0.3417 -0.4505  0.4569
 9311SOL    HW139395   3.577   2.879  15.019  2.4930 -2.3461 -0.1321
 9311SOL    HW239396   3.614   2.998  14.950 -0.7858 -0.2912  0.5286
 9312SOL     OW39397   3.380   4.256   8.097 -0.6991  0.1116 -0.1066
 9312SOL    HW139398   3.295   4.276   8.059 -0.9372  0.3272  0.5371
 9312SOL    HW239399   3.353   4.183   8.152  0.0071  0.0837  0.2087
 9313SOL     OW39400   2.268   2.303   2.650 -0.0483  0.0187  0.3364
 9313SOL    HW139401   2.174   2.322   2.649  0.0410  0.4345 -0.7303
 9313SOL    HW239402   2.257   2.241   2.722  0.7751 -1.2040 -0.5950
 9314SOL     OW39403   1.934   2.635   9.081  0.5697  0.5543 -0.1434
 9314SOL    HW139404   2.021   2.619   9.043  1.1509  2.0051  0.5377
 9314SOL    HW239405   1.881   2.567   9.041 -3.2155  2.4634  1.6975
 9315SOL     OW39406   0.315   0.821   2.352  0.3322 -0.0770 -0.3678
 9315SOL    HW139407   0.373   0.879   2.302  0.6391  0.6832  0.8741
 9315SOL    HW239408   0.352   0.737   2.323 -0.5204 -0.1983 -1.1021
 9316SOL     OW39409   1.470   0.431   8.544 -0.0752 -0.5819 -0.1714
 9316SOL    HW139410   1.376   0.445   8.530  0.5168  2.9800 -0.6977
 9316SOL    HW239411   1.493   0.374   8.471  2.4127  2.2314 -1.5998
 9317SOL     OW39412   0.431   1.895   8.004 -0.0987 -0.3077 -0.3689
 9317SOL    HW139413   0.422   1.898   8.099 -0.2024  2.7198 -0.4808
 9317SOL    HW239414   0.477   1.812   7.991 -0.6366 -0.5397 -0.7811
 9318SOL     OW39415   3.081   3.377   0.127  0.0105 -0.2149  0.1587
 9318SOL    HW139416   3.127   3.335   0.054  1.1519 -0.4655  1.0161
 9318SOL    HW239417   3.150   3.381   0.193  0.8159  0.4742 -0.7193
 9319SOL     OW39418   4.250   0.502   0.692 -0.2505 -0.0892  0.3077
 9319SOL    HW139419   4.175   0.528   0.639 -0.1669 -0.7821 -0.1526
 9319SOL    HW239420   4.261   0.587   0.735  0.9381  0.1970 -0.5452
 9320SOL     OW39421   0.933   4.020  11.930  0.3371 -1.0688  0.4366
 9320SOL    HW139422   1.004   4.072  11.892 -0.2081 -1.2128 -0.7726
 9320SOL    HW239423   0.950   3.940  11.879 -0.8911 -1.7626  1.1130
 9321SOL     OW39424   2.355   0.011   2.417 -0.2562 -0.2439  0.1236
 9321SOL    HW139425   2.307   4.663   2.374  0.6166 -0.4987 -0.4376
 9321SOL    HW239426   2.405   0.033   2.339  0.1868 -2.1436 -0.1375
 9322SOL     OW39427   0.268   2.603   8.518 -0.4331 -0.1653 -0.2196
 9322SOL    HW139428   0.306   2.690   8.534  0.3443 -0.7081  0.8398
 9322SOL    HW239429   0.211   2.618   8.442  1.1478  0.0853 -1.3589
 9323SOL     OW39430   0.723   3.300   0.594 -0.0656 -0.1639  0.2443
 9323SOL    HW139431   0.670   3.220   0.602 -1.9963  1.0624 -0.3721
 9323SOL    HW239432   0.746   3.303   0.687  0.2715  0.1737  0.1496
 9324SOL     OW39433   0.647   1.168   3.133 -0.1919  0.2624  0.2652
 9324SOL    HW139434   0.720   1.186   3.192 -0.5428 -0.4238  0.8917
 9324SOL    HW239435   0.691   1.126   3.058 -1.6038  2.8201 -1.9873
 9325SOL     OW39436   2.528   4.355   6.291  0.3308  0.5157 -0.0682
 9325SOL    HW139437   2.605   4.323   6.339  0.4269  0.1924 -0.4378
 9325SOL    HW239438   2.456   4.328   6.348 -1.9428  0.7944 -2.8569
 9326SOL     OW39439   4.620   2.428  16.718  0.1272  0.9459 -0.0764
 9326SOL    HW139440   4.573   2.394  16.642  1.2760 -0.1351 -0.3185
 9326SOL    HW239441   4.677   2.481  16.663 -2.1949  1.9040 -1.5226
 9327SOL     OW39442   1.884   3.229   8.034  0.5427 -0.4697  0.0318
 9327SOL    HW139443   1.959   3.196   8.084  2.1647 -0.4584 -2.4014
 9327SOL    HW239444   1.910   3.206   7.945  1.5236  0.9722 -0.0614
 9328SOL     OW39445   2.382   3.125   7.637 -0.3241  0.0262 -0.0432
 9328SOL    HW139446   2.477   3.128   7.624 -0.4255  0.6102 -0.6012
 9328SOL    HW239447   2.361   3.057   7.573  1.8871  0.0178 -0.7857
 9329SOL     OW39448   2.768   0.744   3.498 -0.1615 -0.5957  0.1807
 9329SOL    HW139449   2.818   0.674   3.456  1.4405  1.3254 -1.1321
 9329SOL    HW239450   2.778   0.806   3.425  0.7666  1.0234  1.6837
 9330SOL     OW39451   0.894   0.200   7.102 -0.0839 -0.3959 -0.0674
 9330SOL    HW139452   0.831   0.271   7.089  1.0772  0.5189 -0.7423
 9330SOL    HW239453   0.873   0.171   7.191  1.1591  1.4320  0.8295
 9331SOL     OW39454   3.730   1.174   2.565 -0.2728 -0.0346 -0.9285
 9331SOL    HW139455   3.823   1.198   2.565 -0.6377  1.3647 -0.5128
 9331SOL    HW239456   3.708   1.206   2.478  1.8864  2.2201 -0.6611
 9332SOL     OW39457   0.898   3.328   9.651  0.5339  0.1486  0.0944
 9332SOL    HW139458   0.965   3.288   9.708 -1.6260 -0.3978  2.2674
 9332SOL    HW239459   0.956   3.390   9.607 -1.9211 -0.1930 -3.5575
 9333SOL     OW39460   1.880   4.143   2.402 -0.5045 -0.6451 -0.4913
 9333SOL    HW139461   1.865   4.052   2.429 -1.5961 -0.0026  1.0305
 9333SOL    HW239462   1.937   4.178   2.470 -1.0435  3.4417 -2.1947
 9334SOL     OW39463   2.418   2.283   9.521 -0.3519 -0.1104 -0.2488
 9334SOL    HW139464   2.375   2.211   9.568 -0.3429  0.6285  0.8929
 9334SOL    HW239465   2.396   2.274   9.428  0.1943 -1.8756 -0.1997
 9335SOL     OW39466   0.989   2.680  10.002  0.1916  0.3516  0.9507
 9335SOL    HW139467   1.030   2.685  10.089  0.4602 -0.3019  0.8607
 9335SOL    HW239468   1.022   2.597   9.968  0.2989  1.5642 -1.8640
 9336SOL     OW39469   2.078   2.320   1.806 -0.3074  0.0804  0.3582
 9336SOL    HW139470   2.098   2.396   1.751  0.4395 -0.0251  0.4825
 9336SOL    HW239471   2.004   2.362   1.850 -0.6052 -0.3256  0.2487
 9337SOL     OW39472   1.038   2.672   5.481  0.5247 -0.2786 -0.0088
 9337SOL    HW139473   1.043   2.584   5.517 -0.6164  0.5731  2.2689
 9337SOL    HW239474   1.068   2.670   5.390 -1.2719 -1.6970 -0.5595
 9338SOL     OW39475   3.937   4.410   2.300 -0.0433  0.0786 -0.0543
 9338SOL    HW139476   3.894   4.494   2.283  0.3212 -0.3910 -3.4653
 9338SOL    HW239477   4.024   4.445   2.315 -0.4437  0.7962  0.5993
 9339SOL     OW39478   3.883   3.523   2.468 -0.4324 -0.0221 -0.5281
 9339SOL    HW139479   3.818   3.526   2.538  0.0434 -1.4375 -0.0289
 9339SOL    HW239480   3.918   3.611   2.483  2.4398 -1.2404 -0.1691
 9340SOL     OW39481   3.879   1.622   6.394  0.1496  0.0309  0.2966
 9340SOL    HW139482   3.946   1.579   6.448  0.4877 -1.4747 -1.3126
 9340SOL    HW239483   3.930   1.702   6.384 -0.0807  0.1033 -0.2613
 9341SOL     OW39484   0.575   0.911   6.092  0.2567 -0.1373  0.5306
 9341SOL    HW139485   0.561   0.986   6.033 -0.0201  0.2811  1.1330
 9341SOL    HW239486   0.655   0.937   6.138 -0.1582  0.2701  1.0144
 9342SOL     OW39487   3.082   4.331   6.596  0.0420 -0.0962  0.2834
 9342SOL    HW139488   3.107   4.346   6.687  1.7265  0.8295 -0.3230
 9342SOL    HW239489   3.141   4.259   6.573 -0.0174 -0.0434 -0.0380
 9343SOL     OW39490   0.091   1.736   2.703  0.1968  0.1235 -0.3408
 9343SOL    HW139491   0.051   1.656   2.738  1.5627 -0.2035  0.4864
 9343SOL    HW239492   0.062   1.746   2.612 -0.8674 -0.9202 -0.1132
 9344SOL     OW39493   4.461   0.732   7.788  0.5764  0.8050 -0.4364
 9344SOL    HW139494   4.489   0.722   7.698 -1.8430  2.0048 -1.3474
 9344SOL    HW239495   4.495   0.656   7.834  0.6309  0.9269 -0.2737
 9345SOL     OW39496   1.715   2.507   0.354  0.4915 -0.3951  0.1234
 9345SOL    HW139497   1.696   2.531   0.445  0.3513 -1.5918  0.4196
 9345SOL    HW239498   1.810   2.507   0.355  0.5220 -1.6236 -2.2542
 9346SOL     OW39499   0.922   0.368  13.126 -0.5304 -0.1115  0.0246
 9346SOL    HW139500   0.946   0.460  13.115 -1.5375 -0.1180 -2.1377
 9346SOL    HW239501   0.853   0.351  13.062 -0.1073  0.1347 -0.4968
 9347SOL     OW39502   2.916   2.882   3.361 -0.2666  0.2310  0.4752
 9347SOL    HW139503   2.937   2.976   3.364  0.9644  0.0068 -0.9736
 9347SOL    HW239504   2.825   2.886   3.389 -1.1236  1.7261 -2.5286
 9348SOL     OW39505   0.797   3.009  17.342 -0.1593  0.4090 -0.5781
 9348SOL    HW139506   0.782   3.066  17.266  0.9000 -1.9453 -2.5789
 9348SOL    HW239507   0.760   2.923  17.322  3.6425 -1.0927 -1.1139
 9349SOL     OW39508   2.587   1.949  11.872 -0.5390  0.5414  0.6042
 9349SOL    HW139509   2.672   1.972  11.834 -1.7521  0.8165 -1.9662
 9349SOL    HW239510   2.615   1.886  11.938 -0.8382 -0.3225 -0.1043
 9350SOL     OW39511   0.696   0.055   1.154 -0.1112  0.3457 -0.3050
 9350SOL    HW139512   0.606   0.060   1.186 -0.3259  0.1669 -0.8705
 9350SOL    HW239513   0.688   0.002   1.075  1.7044  0.0995 -0.3339
 9351SOL     OW39514   2.962   4.519   6.879 -0.4470  0.3334 -0.2253
 9351SOL    HW139515   2.951   4.424   6.868 -1.1038  0.1346  2.2321
 9351SOL    HW239516   3.056   4.531   6.895 -1.2189  2.3670  2.6066
 9352SOL     OW39517   0.895   3.363   0.376 -0.1740 -0.1317  0.2599
 9352SOL    HW139518   0.813   3.340   0.420  0.4869 -0.2086  1.4501
 9352SOL    HW239519   0.867   3.451   0.349  0.5579 -0.8962 -3.0406
 9353SOL     OW39520   1.897   4.385  12.019  0.5234  0.1321 -0.1070
 9353SOL    HW139521   1.888   4.290  12.027 -0.2194  0.2089 -0.0374
 9353SOL    HW239522   1.858   4.416  12.101  0.2957 -3.1845  1.0032
 9354SOL     OW39523   3.408   2.229   8.052 -0.0596 -0.4855  0.1809
 9354SOL    HW139524   3.496   2.247   8.084  0.9846 -3.6446 -0.9229
 9354SOL    HW239525   3.406   2.278   7.969 -1.4509 -2.0150 -0.6768
 9355SOL     OW39526   4.484   2.666  13.690 -0.1286 -0.4562  0.0540
 9355SOL    HW139527   4.473   2.679  13.596  0.0062 -1.7433 -0.1440
 9355SOL    HW239528   4.538   2.740  13.714  0.1737 -0.1814 -1.5051
 9356SOL     OW39529   0.149   0.225  10.113 -0.2403  0.1094  0.4508
 9356SOL    HW139530   0.063   0.210  10.074  0.7694  1.9277 -2.5293
 9356SOL    HW239531   0.136   0.201  10.205 -1.1479 -0.6371  0.1356
 9357SOL     OW39532   0.022   3.880   2.003  0.3722 -0.8156  0.5416
 9357SOL    HW139533   0.057   3.948   2.061 -1.3936  2.3551 -2.0742
 9357SOL    HW239534   0.005   3.930   1.923  2.3497 -0.2656  0.4675
 9358SOL     OW39535   1.072   4.441   6.410  0.0179  0.0207  0.3766
 9358SOL    HW139536   1.067   4.531   6.442 -1.8688  0.7759 -2.0193
 9358SOL    HW239537   1.155   4.432   6.363 -0.9515 -0.0926 -1.2909
 9359SOL     OW39538   2.721   1.171   7.305  0.7207 -0.3047 -0.3288
 9359SOL    HW139539   2.729   1.212   7.391 -0.4270  2.8577 -1.7270
 9359SOL    HW239540   2.645   1.223   7.279  1.1913  0.1484 -0.8060
 9360SOL     OW39541   2.684   4.517   2.484 -0.0220 -0.3200 -0.0884
 9360SOL    HW139542   2.631   4.557   2.553 -1.7171 -0.0576 -1.5215
 9360SOL    HW239543   2.617   4.464   2.441 -0.6746  0.2497  0.2188
 9361SOL     OW39544   4.229   3.024   7.097 -0.1707  0.6499  0.7211
 9361SOL    HW139545   4.305   2.971   7.120  0.0842 -0.5425 -2.9315
 9361SOL    HW239546   4.264   3.113   7.096 -0.1075  0.6230  0.4297
 9362SOL     OW39547   3.706   1.676   2.197 -0.0315  0.3481 -0.1310
 9362SOL    HW139548   3.625   1.670   2.147  0.3505 -1.4627 -0.5175
 9362SOL    HW239549   3.765   1.636   2.132 -0.3789  0.5395 -0.5655
 9363SOL     OW39550   3.183   3.897  13.550  0.0495  0.0534  0.5504
 9363SOL    HW139551   3.226   3.822  13.591  2.4091  0.9877 -0.2019
 9363SOL    HW239552   3.126   3.863  13.481 -1.5052  1.1826  1.2564
 9364SOL     OW39553   4.432   3.230   6.489  0.0924  0.1241  0.6475
 9364SOL    HW139554   4.518   3.222   6.446  1.1232 -0.1490  2.7792
 9364SOL    HW239555   4.423   3.324   6.472  1.4019  0.2403  0.5958
 9365SOL     OW39556   2.818   3.886   5.104 -0.0417  0.6955 -0.5378
 9365SOL    HW139557   2.801   3.793   5.118 -2.1477  1.2151  0.3816
 9365SOL    HW239558   2.787   3.924   5.187  0.2471 -2.1786  0.8844
 9366SOL     OW39559   3.475   1.044   9.200 -0.2463  0.3235  0.0613
 9366SOL    HW139560   3.409   1.024   9.134 -0.4645  1.6580 -0.1219
 9366SOL    HW239561   3.547   1.030   9.139  0.6937 -0.7430  1.4000
 9367SOL     OW39562   0.762   1.238  12.081 -0.2429 -0.5363 -0.2924
 9367SOL    HW139563   0.712   1.158  12.064  0.6050 -1.0735 -0.2854
 9367SOL    HW239564   0.803   1.202  12.160 -0.4015 -2.4285 -1.0736
 9368SOL     OW39565   2.510   0.880  10.080 -0.2505  0.9507  0.4494
 9368SOL    HW139566   2.448   0.927  10.024 -0.5720  0.2608  0.2296
 9368SOL    HW239567   2.445   0.828  10.128  0.3433 -1.0199 -0.8918
 9369SOL     OW39568   0.740   4.365   9.362 -0.3001 -0.0634 -0.1412
 9369SOL    HW139569   0.827   4.394   9.386  0.1793 -1.1452 -0.5448
 9369SOL    HW239570   0.762   4.301   9.294 -5.3605 -3.2812  1.2317
 9370SOL     OW39571   2.233   0.630   1.495  0.3169 -0.2115 -0.3872
 9370SOL    HW139572   2.274   0.645   1.410 -0.7470  0.2291 -0.8199
 9370SOL    HW239573   2.141   0.622   1.471 -0.1222  1.7400  0.6168
 9371SOL     OW39574   3.684   3.603   1.287 -0.0848  0.2063  0.5951
 9371SOL    HW139575   3.656   3.512   1.285  1.5571 -0.3003  0.8836
 9371SOL    HW239576   3.753   3.601   1.353  1.7504 -1.4783 -1.3857
 9372SOL     OW39577   2.258   4.232  11.168 -0.6245 -0.7928 -0.4735
 9372SOL    HW139578   2.260   4.177  11.246  2.9433  2.5959  1.8520
 9372SOL    HW239579   2.261   4.319  11.209 -1.1924 -2.0482  2.2282
 9373SOL     OW39580   0.081   2.171  16.796  0.1358  0.2078 -0.3305
 9373SOL    HW139581   0.120   2.230  16.860  3.1727 -2.1754 -0.0026
 9373SOL    HW239582   0.009   2.227  16.766  0.2926  1.7642  2.2362
 9374SOL     OW39583   3.012   1.462   3.334 -0.2622 -0.3397 -0.3962
 9374SOL    HW139584   2.974   1.523   3.271  2.0933  1.6495  0.1174
 9374SOL    HW239585   2.935   1.404   3.337 -1.9828  2.0607  2.0170
 9375SOL     OW39586   0.105   0.957   1.703  0.8616 -0.2709 -0.0793
 9375SOL    HW139587   0.141   1.015   1.636  0.3647 -1.5314 -1.4509
 9375SOL    HW239588   0.022   0.932   1.663  0.9374 -2.3561  1.0354
 9376SOL     OW39589   2.291   0.390   8.928  0.6047  0.2073  0.5121
 9376SOL    HW139590   2.276   0.323   8.996  2.7691 -0.5212  0.2619
 9376SOL    HW239591   2.339   0.337   8.865  2.0294 -1.1435  2.7085
 9377SOL     OW39592   4.680   4.715  14.154 -0.1273  0.0664 -0.0514
 9377SOL    HW139593   4.590   0.008  14.127 -0.0646 -2.5061 -1.8969
 9377SOL    HW239594   4.702   0.079  14.186 -0.6513 -0.3113  1.3145
 9378SOL     OW39595   3.209   3.976  11.016 -0.0901  0.0581  0.9091
 9378SOL    HW139596   3.227   4.066  11.041  1.3013  0.1576 -0.4373
 9378SOL    HW239597   3.298   3.942  11.004  0.4711  1.6440  0.6082
 9379SOL     OW39598   3.565   0.275  10.407  0.1964 -0.5157 -0.0498
 9379SOL    HW139599   3.590   0.184  10.389 -0.8948 -0.8118 -0.1033
 9379SOL    HW239600   3.574   0.267  10.502  2.4543 -4.8729 -0.6380
 9380SOL     OW39601   2.551   3.379   8.589  0.5501 -0.2424  0.1945
 9380SOL    HW139602   2.621   3.403   8.529 -0.8067  2.7080 -0.1988
 9380SOL    HW239603   2.547   3.285   8.571 -1.6519 -0.5176  1.9971
 9381SOL     OW39604   3.576   3.123  11.625  0.1129  0.1067 -0.1201
 9381SOL    HW139605   3.495   3.160  11.659  0.2569 -1.6633  2.1661
 9381SOL    HW239606   3.553   3.068  11.550 -3.0930  0.0795  0.8929
 9382SOL     OW39607   3.368   3.690   6.042  0.3593 -0.2143 -0.2063
 9382SOL    HW139608   3.358   3.638   6.122 -1.6116  2.5966  1.3906
 9382SOL    HW239609   3.351   3.775   6.082 -0.4053 -2.0957  3.5699
 9383SOL     OW39610   1.597   2.892   1.801  0.0422  0.2401 -0.6775
 9383SOL    HW139611   1.684   2.934   1.801  0.4487 -0.5688  1.4143
 9383SOL    HW239612   1.555   2.942   1.731  1.3011  0.5316 -1.2288
 9384SOL     OW39613   0.446   3.613  11.739  0.2927  0.3022 -0.0292
 9384SOL    HW139614   0.368   3.590  11.790 -0.9507  0.4272 -1.8645
 9384SOL    HW239615   0.478   3.685  11.794 -0.7726  2.2498 -1.9595
 9385SOL     OW39616   0.090   2.296   5.141  0.7531  0.3267 -0.0422
 9385SOL    HW139617   0.032   2.258   5.207  1.0722  3.0350  1.7968
 9385SOL    HW239618   0.089   2.234   5.068  0.6423  0.2855 -0.0057
 9386SOL     OW39619   1.544   2.226   5.480 -0.1293 -0.3167 -0.2266
 9386SOL    HW139620   1.540   2.145   5.430 -2.5128 -0.9981  1.0820
 9386SOL    HW239621   1.475   2.270   5.432  1.3438  0.8309 -1.3032
 9387SOL     OW39622   4.659   4.115   9.748  0.4613 -0.4226  0.4331
 9387SOL    HW139623   4.665   4.169   9.669 -0.1444 -1.3138 -0.2243
 9387SOL    HW239624   0.023   4.075   9.746  1.6038  2.0408  1.1422
 9388SOL     OW39625   4.575   0.862  16.820  0.3681  0.4254 -0.1009
 9388SOL    HW139626   4.626   0.781  16.816 -0.2261  0.0169  0.4244
 9388SOL    HW239627   4.501   0.842  16.762  0.1952 -0.0857  0.2958
 9389SOL     OW39628   2.903   2.492   1.887 -0.1791  0.3267  0.4936
 9389SOL    HW139629   2.947   2.567   1.846  0.8522 -0.8641 -0.6040
 9389SOL    HW239630   2.849   2.463   1.813 -1.5253  1.9485  0.8649
 9390SOL     OW39631   2.364   0.123  16.845  0.2449 -0.4964  0.0113
 9390SOL    HW139632   2.281   0.162  16.819 -0.5769 -2.5802 -0.4791
 9390SOL    HW239633   2.371   0.127  16.940 -1.2530  0.1050  0.1035
 9391SOL     OW39634   3.382   2.885   3.855 -0.4863 -0.5397 -0.3053
 9391SOL    HW139635   3.361   2.855   3.944 -0.8385  0.0620 -0.1841
 9391SOL    HW239636   3.353   2.976   3.861 -2.0314 -1.1939  2.4875
 9392SOL     OW39637   3.559   0.872   1.049 -0.2586  0.7925 -0.4433
 9392SOL    HW139638   3.501   0.941   1.082 -0.8875 -0.2524  0.6649
 9392SOL    HW239639   3.637   0.876   1.103 -1.3415  0.3854  1.1607
 9393SOL     OW39640   0.521   3.313   7.777  0.1481 -0.4561  0.3924
 9393SOL    HW139641   0.576   3.374   7.826  2.0901 -1.7573 -0.1566
 9393SOL    HW239642   0.529   3.235   7.832  1.0870 -1.2003 -0.8274
 9394SOL     OW39643   3.672   4.411   2.415 -0.7301  0.6875 -0.4821
 9394SOL    HW139644   3.764   4.389   2.399 -0.0767  3.5439 -0.6072
 9394SOL    HW239645   3.638   4.415   2.326 -3.6663  1.2158  0.6528
 9395SOL     OW39646   4.629   3.975   5.330 -0.1928 -0.6495  0.2199
 9395SOL    HW139647   4.700   3.924   5.290  2.9932  2.3935  2.0177
 9395SOL    HW239648   4.676   4.057   5.348 -3.2243  0.8223  1.4545
 9396SOL     OW39649   3.684   2.515   4.811  0.3913 -0.2836  0.2995
 9396SOL    HW139650   3.614   2.512   4.746  0.3418  4.4921  0.1648
 9396SOL    HW239651   3.644   2.450   4.868  0.2482 -2.6505 -2.4502
 9397SOL     OW39652   4.541   4.463   5.759 -0.4971 -0.1124  0.0661
 9397SOL    HW139653   4.565   4.501   5.843 -0.1917  0.5310 -0.3117
 9397SOL    HW239654   4.520   4.371   5.778 -0.0495 -0.1554  0.3329
 9398SOL     OW39655   2.926   0.603   5.207 -0.2033  1.4144 -0.5989
 9398SOL    HW139656   2.921   0.550   5.287  1.3274 -1.2723 -2.2734
 9398SOL    HW239657   2.834   0.628   5.213 -0.2267  0.5476  2.7925
 9399SOL     OW39658   1.554   2.344   1.776 -0.2915  0.2842 -0.4261
 9399SOL    HW139659   1.570   2.300   1.860 -1.1496 -0.7349 -0.8058
 9399SOL    HW239660   1.490   2.409   1.806  0.6125  1.1977 -0.4563
 9400SOL     OW39661   0.504   2.614   4.546 -0.1324  0.1481  0.2871
 9400SOL    HW139662   0.574   2.650   4.600  2.3945 -0.6477 -2.4222
 9400SOL    HW239663   0.480   2.695   4.500 -0.1603  1.0265  1.8460
 9401SOL     OW39664   2.059   2.063   4.565 -0.6585  0.4407 -0.4813
 9401SOL    HW139665   2.075   2.140   4.620  2.2211 -1.5474  1.4545
 9401SOL    HW239666   1.990   2.094   4.506 -0.8673 -0.1726 -0.5666
 9402SOL     OW39667   4.001   0.094   3.235  0.5511 -0.6873  0.3356
 9402SOL    HW139668   4.064   0.106   3.306  0.2443  0.5728  0.3969
 9402SOL    HW239669   4.044   0.020   3.192  1.0221 -0.3379  0.1942
 9403SOL     OW39670   4.214   2.792   4.388  0.0278 -0.1883  0.2466
 9403SOL    HW139671   4.267   2.839   4.323  0.5848 -0.0324  0.8117
 9403SOL    HW239672   4.170   2.737   4.323  0.7843 -2.2068  1.4282
 9404SOL     OW39673   2.804   2.797   8.269  0.0221  0.5546  0.9592
 9404SOL    HW139674   2.899   2.794   8.282  0.4920  1.7033 -2.2677
 9404SOL    HW239675   2.801   2.827   8.178  0.2812  0.8036  1.0302
 9405SOL     OW39676   1.319   2.553   0.199 -0.2749  0.1187 -0.0174
 9405SOL    HW139677   1.413   2.566   0.212 -0.3721  0.9725 -0.1912
 9405SOL    HW239678   1.319   2.541   0.104 -2.0097  0.5113 -0.0618
 9406SOL     OW39679   4.345   3.492   7.196  0.1899  0.6047 -0.1787
 9406SOL    HW139680   4.314   3.576   7.162  0.0373 -0.9826 -3.9179
 9406SOL    HW239681   4.257   3.462   7.220  0.8361 -2.1743 -1.2396
 9407SOL     OW39682   0.361   4.358   2.635  0.3658  0.8131 -0.5233
 9407SOL    HW139683   0.363   4.428   2.701  0.2786 -0.0293  0.3761
 9407SOL    HW239684   0.454   4.336   2.636 -0.4954 -2.8554 -3.2636
 9408SOL     OW39685   1.967   2.004  11.798  0.3345 -0.4817 -0.0087
 9408SOL    HW139686   1.940   2.062  11.727  1.3004  1.1467  0.9653
 9408SOL    HW239687   1.940   2.060  11.871  0.6732  0.7044 -0.7972
 9409SOL     OW39688   2.485   0.438   8.301  0.4188  0.0059 -0.0944
 9409SOL    HW139689   2.532   0.354   8.294  1.2889  0.6135 -1.4969
 9409SOL    HW239690   2.502   0.447   8.395 -2.8405  0.0948  0.4739
 9410SOL     OW39691   3.880   1.052   0.368  0.2151 -0.2972  0.1481
 9410SOL    HW139692   3.927   1.135   0.380 -1.3336  0.3232  1.8325
 9410SOL    HW239693   3.882   1.040   0.273  2.4970  1.7573 -0.0693
 9411SOL     OW39694   3.837   2.186  14.308 -0.2632  0.3353  0.2715
 9411SOL    HW139695   3.886   2.205  14.389 -0.9253  0.6343  0.6012
 9411SOL    HW239696   3.897   2.210  14.237 -1.1584  2.1976  0.1387
 9412SOL     OW39697   2.768   4.411  13.323  0.1116  0.0146 -0.0802
 9412SOL    HW139698   2.781   4.400  13.417 -0.5167 -1.7282 -0.2077
 9412SOL    HW239699   2.855   4.430  13.288 -0.2192 -1.1069 -1.4677
 9413SOL     OW39700   3.451   2.487   3.955 -1.1459  0.4495  0.4234
 9413SOL    HW139701   3.414   2.403   3.982 -0.0438 -0.4216 -0.7747
 9413SOL    HW239702   3.475   2.533   4.035 -1.2715  0.3393  0.5242
 9414SOL     OW39703   0.993   0.963   6.656  0.2530 -0.0202 -0.1524
 9414SOL    HW139704   0.996   0.878   6.701 -0.9303  0.5060  0.9238
 9414SOL    HW239705   0.935   1.011   6.715  1.5782  1.2128  0.1457
 9415SOL     OW39706   3.259   1.265  14.615  0.6850 -0.4863 -0.5486
 9415SOL    HW139707   3.191   1.268  14.682  0.2161 -1.1475 -0.9930
 9415SOL    HW239708   3.218   1.272  14.529  1.9634  0.9529 -1.0409
 9416SOL     OW39709   2.708   1.825   7.017  0.2022  0.0884  0.3022
 9416SOL    HW139710   2.674   1.862   7.099 -0.7947 -0.9354  0.3448
 9416SOL    HW239711   2.647   1.762   6.979 -1.3513  0.5202  2.0725
 9417SOL     OW39712   3.460   0.961   9.637 -0.1644 -0.1041 -0.1119
 9417SOL    HW139713   3.456   1.055   9.657 -1.9144 -0.6436  1.9425
 9417SOL    HW239714   3.537   0.965   9.580  0.6849 -0.7100  0.9954
 9418SOL     OW39715   1.323   2.419  12.968 -0.0179  0.3505  0.0920
 9418SOL    HW139716   1.392   2.418  12.901  0.7337  2.6029  0.8248
 9418SOL    HW239717   1.376   2.459  13.037 -2.1438 -1.8398  2.9691
 9419SOL     OW39718   1.801   2.538   7.224  0.8319  0.0157 -0.0335
 9419SOL    HW139719   1.814   2.542   7.319  0.6451 -1.3807  0.0597
 9419SOL    HW239720   1.865   2.469   7.202  0.9051 -0.3713  1.3646
 9420SOL     OW39721   3.528   2.854   7.941  0.5271  0.0258  0.3961
 9420SOL    HW139722   3.568   2.866   7.854 -0.6256  2.3954  0.1839
 9420SOL    HW239723   3.436   2.879   7.935  0.5716  1.1946  4.4448
 9421SOL     OW39724   0.939   2.994   7.197 -0.4218  0.5731  0.3087
 9421SOL    HW139725   0.957   3.085   7.173  1.1223  0.9799  3.0222
 9421SOL    HW239726   0.865   2.991   7.258 -2.0334 -1.2552 -1.7355
 9422SOL     OW39727   2.438   4.495   3.260 -0.1580  0.0989  0.4675
 9422SOL    HW139728   2.455   4.489   3.166 -1.6305 -0.6011  0.2556
 9422SOL    HW239729   2.458   4.589   3.268 -1.6554  0.2289  2.6484
 9423SOL     OW39730   4.653   4.250  12.955  0.8899  0.0270  0.3993
 9423SOL    HW139731   4.702   4.306  13.016  0.9638 -0.7978  1.1047
 9423SOL    HW239732   4.569   4.297  12.952  1.2796  0.4670 -3.4269
 9424SOL     OW39733   0.960   1.673   3.032 -0.2004  0.2813 -0.1906
 9424SOL    HW139734   0.974   1.749   3.088 -0.9786  0.8760 -0.7975
 9424SOL    HW239735   0.917   1.720   2.960  1.2630  1.1838 -0.4694
 9425SOL     OW39736   0.304   1.896   8.318  0.0010  0.4992  0.2023
 9425SOL    HW139737   0.247   1.861   8.250 -3.4743  0.5986  3.0808
 9425SOL    HW239738   0.349   1.812   8.332 -0.6541  0.5659  2.6846
 9426SOL     OW39739   3.665   2.677  10.616 -0.0629  0.4409  1.0838
 9426SOL    HW139740   3.580   2.664  10.576  0.8919 -1.1023 -0.4273
 9426SOL    HW239741   3.689   2.764  10.584 -0.5941  0.2047  0.0586
 9427SOL     OW39742   3.405   3.413  12.341 -0.2889 -0.0102 -0.4108
 9427SOL    HW139743   3.375   3.325  12.365 -0.9757 -0.7771 -4.0565
 9427SOL    HW239744   3.495   3.427  12.371 -0.4230  0.5029 -0.2551
 9428SOL     OW39745   4.050   2.656   1.246  0.3730  0.3566 -0.0031
 9428SOL    HW139746   4.051   2.561   1.238 -1.1584  0.3033  0.5735
 9428SOL    HW239747   3.956   2.673   1.241  0.4373  1.3453  2.3615
 9429SOL     OW39748   1.513   3.049   2.833 -0.4472  0.1987 -0.2855
 9429SOL    HW139749   1.578   3.083   2.771  1.3849 -1.3546  0.7623
 9429SOL    HW239750   1.493   3.128   2.883 -0.0649  0.2980 -0.2884
 9430SOL     OW39751   1.421   2.636  17.414  0.2713 -0.2435  0.3829
 9430SOL    HW139752   1.468   2.691  17.477  1.6678 -1.5992  0.5203
 9430SOL    HW239753   1.488   2.569  17.399 -0.4269 -0.7567 -0.3788
 9431SOL     OW39754   1.886   4.310   5.321  0.3847  0.0819  1.0410
 9431SOL    HW139755   1.848   4.231   5.283  0.2877 -0.4581  2.2344
 9431SOL    HW239756   1.874   4.377   5.254  2.9237 -0.9872 -0.5016
 9432SOL     OW39757   4.149   0.076   4.447  0.1155  0.2366  0.5460
 9432SOL    HW139758   4.184   0.037   4.367 -0.8227 -1.4770  0.9680
 9432SOL    HW239759   4.094   0.004   4.478  2.1194 -0.8250  1.6283
 9433SOL     OW39760   3.735   4.630   1.606 -0.0152  0.2411 -0.0247
 9433SOL    HW139761   3.778   4.544   1.600 -1.2087 -0.3990  0.6150
 9433SOL    HW239762   3.777   4.668   1.683  0.2473 -0.7220  0.3056
 9434SOL     OW39763   0.243   0.425  17.549 -0.2619  0.3823  0.6736
 9434SOL    HW139764   0.221   0.332  17.551  0.8425  0.1213  0.6275
 9434SOL    HW239765   0.241   0.436  17.644 -0.6750 -2.1620  0.9500
 9435SOL     OW39766   1.231   1.326  16.324 -0.4738  0.4525 -0.0564
 9435SOL    HW139767   1.194   1.259  16.266 -0.5021  0.2561  0.1860
 9435SOL    HW239768   1.216   1.408  16.278 -2.0700 -0.4179 -1.1156
 9436SOL     OW39769   4.487   4.080   8.296 -0.1745  0.3345  0.5408
 9436SOL    HW139770   4.536   4.034   8.227 -1.2261 -0.0048  0.0171
 9436SOL    HW239771   4.562   4.132   8.326  0.6785 -0.2970 -0.4903
 9437SOL     OW39772   1.495   4.231  16.470 -0.2205  0.6852 -0.4446
 9437SOL    HW139773   1.457   4.316  16.448 -1.0627  0.3538 -0.2618
 9437SOL    HW239774   1.444   4.174  16.412  0.2329 -2.1161  1.8991
 9438SOL     OW39775   3.890   2.304  16.167 -0.1448  0.0459 -0.2893
 9438SOL    HW139776   3.855   2.215  16.166 -0.4652  0.1918 -1.7244
 9438SOL    HW239777   3.823   2.349  16.115 -0.5850 -0.3161 -0.0416
 9439SOL     OW39778   0.676   4.191   8.280 -0.5785  0.2810  0.0734
 9439SOL    HW139779   0.744   4.215   8.343 -0.7377  1.8590 -0.3525
 9439SOL    HW239780   0.683   4.262   8.216 -2.8551 -0.9944 -1.6129
 9440SOL     OW39781   0.982   1.941  10.554  0.6190  0.5331  0.0140
 9440SOL    HW139782   0.933   1.878  10.501  2.1158  1.4623 -2.4800
 9440SOL    HW239783   1.017   2.009  10.497 -0.2785  1.1090  0.1584
 9441SOL     OW39784   3.626   1.977   2.753 -0.2470  0.0425 -0.2347
 9441SOL    HW139785   3.702   1.943   2.705 -0.7680 -2.0461  0.3900
 9441SOL    HW239786   3.562   1.957   2.685 -1.1689 -1.2582  0.9871
 9442SOL     OW39787   0.582   4.668  17.640  0.3447  0.2563  0.6895
 9442SOL    HW139788   0.499   4.655  17.594 -0.3591  3.1188  1.1478
 9442SOL    HW239789   0.638   4.623  17.577 -1.1730 -1.3732  0.5107
 9443SOL     OW39790   1.279   0.736  15.431  0.4224  0.3077 -0.1595
 9443SOL    HW139791   1.345   0.791  15.388 -0.5663  2.4825  1.0659
 9443SOL    HW239792   1.319   0.722  15.517 -2.9505 -5.6270  0.3642
 9444SOL     OW39793   4.496   4.212   8.005  0.5371 -0.3098 -0.0914
 9444SOL    HW139794   4.514   4.123   8.037  1.2837 -0.2046 -0.2053
 9444SOL    HW239795   4.556   4.262   8.061  0.9843 -0.7395 -0.1814
 9445SOL     OW39796   2.752   2.445   7.565  0.2042  0.3255  0.0936
 9445SOL    HW139797   2.761   2.383   7.637  0.0709  1.6103  1.2159
 9445SOL    HW239798   2.827   2.502   7.582  0.6614 -0.5632  1.0171
 9446SOL     OW39799   3.705   0.630  10.862  0.3873  0.2757 -0.1815
 9446SOL    HW139800   3.626   0.606  10.814 -0.3425  0.2274  1.0518
 9446SOL    HW239801   3.686   0.714  10.903 -2.3004 -1.3600  1.9078
 9447SOL     OW39802   0.451   3.601   4.741  0.0083 -0.2002  0.9276
 9447SOL    HW139803   0.499   3.658   4.680  0.2104 -2.0095 -0.5857
 9447SOL    HW239804   0.486   3.517   4.713  1.0791  1.0217 -1.4618
 9448SOL     OW39805   0.287   3.451   5.850  0.1472 -0.0119  0.1398
 9448SOL    HW139806   0.297   3.370   5.899 -1.1848  1.1454  2.2931
 9448SOL    HW239807   0.236   3.500   5.914 -1.2114  0.8162 -1.5668
 9449SOL     OW39808   3.455   3.742  14.014 -0.0447 -0.2407 -0.0839
 9449SOL    HW139809   3.532   3.744  13.958 -1.4671  0.3443 -2.0085
 9449SOL    HW239810   3.424   3.832  14.021  2.1059  0.3381  1.8199
 9450SOL     OW39811   2.787   4.690   3.435 -0.2024 -0.1877 -0.1652
 9450SOL    HW139812   2.857   0.022   3.468  1.8421 -1.3332 -2.5869
 9450SOL    HW239813   2.793   4.690   3.340  1.0335 -2.5636 -0.0944
 9451SOL     OW39814   2.573   0.695  14.144  0.3538 -0.0837 -0.5025
 9451SOL    HW139815   2.632   0.648  14.203  0.5910 -1.5312 -1.9269
 9451SOL    HW239816   2.631   0.731  14.078 -0.4324 -1.2573 -1.8328
 9452SOL     OW39817   3.245   2.008  15.548 -0.2641 -0.0499 -0.4026
 9452SOL    HW139818   3.164   2.035  15.506 -0.3646 -0.5657 -0.5407
 9452SOL    HW239819   3.293   2.089  15.528 -0.1904 -0.0684 -0.2979
 9453SOL     OW39820   1.176   4.704  14.817 -0.3390  0.0345  0.4066
 9453SOL    HW139821   1.217   0.067  14.825 -0.5236  0.0803  0.8698
 9453SOL    HW239822   1.228   4.669  14.745  0.1729 -2.4958  2.0085
 9454SOL     OW39823   0.106   2.914   8.989 -0.5780  0.3651  0.0105
 9454SOL    HW139824   0.107   2.872   8.903  0.0114  0.2484  0.0786
 9454SOL    HW239825   0.195   2.948   8.996 -0.8169  0.9442  0.2577
 9455SOL     OW39826   0.304   0.243   6.368 -0.1243  0.5298 -0.6000
 9455SOL    HW139827   0.375   0.301   6.342  0.8318 -0.4648 -0.2286
 9455SOL    HW239828   0.235   0.275   6.310 -0.7423  0.0808 -0.1263
 9456SOL     OW39829   3.576   0.090  12.691 -0.2740 -0.2785  0.1153
 9456SOL    HW139830   3.667   0.115  12.709 -0.4491 -0.0671  0.7161
 9456SOL    HW239831   3.572   0.004  12.732  0.6536 -0.8125 -0.9243
 9457SOL     OW39832   0.729   3.798   3.967  0.1775  0.0902 -0.2893
 9457SOL    HW139833   0.642   3.838   3.977 -0.5597 -1.5878  0.1306
 9457SOL    HW239834   0.712   3.790   3.874 -1.4123 -0.4166  0.0363
 9458SOL     OW39835   3.636   4.509   3.506  0.3002 -0.6601 -0.0624
 9458SOL    HW139836   3.632   4.487   3.413 -0.6975 -0.3739 -0.0846
 9458SOL    HW239837   3.728   4.536   3.507 -0.0968  0.6155  0.5413
 9459SOL     OW39838   3.575   1.475   1.299 -0.3495  0.0922  0.5772
 9459SOL    HW139839   3.615   1.562   1.290  1.3577 -0.9183 -1.7064
 9459SOL    HW239840   3.485   1.498   1.324 -0.7503 -0.5825 -0.2514
 9460SOL     OW39841   4.038   2.860   7.149 -0.5146 -0.4585 -0.1489
 9460SOL    HW139842   4.074   2.796   7.210 -2.3456 -1.8284 -0.5241
 9460SOL    HW239843   4.114   2.914   7.126  0.6503 -1.6951  0.8628
 9461SOL     OW39844   2.428   4.017   8.398 -0.0269 -0.5258  0.1169
 9461SOL    HW139845   2.520   4.044   8.406  0.2267 -1.3174 -0.1475
 9461SOL    HW239846   2.437   3.924   8.418  0.4667 -0.6990 -0.9043
 9462SOL     OW39847   1.807   4.648   4.000  0.1282  0.5824  0.1549
 9462SOL    HW139848   1.775   4.723   3.950  0.4566  1.5798  1.4341
 9462SOL    HW239849   1.814   4.586   3.928  0.6336 -0.6630  1.2602
 9463SOL     OW39850   3.920   2.779   3.008  0.1277  0.1647  0.1571
 9463SOL    HW139851   3.937   2.685   3.002  0.2497  0.0764  1.9776
 9463SOL    HW239852   3.826   2.778   2.990  0.3210  0.8359 -0.8919
 9464SOL     OW39853   1.271   0.551   7.238  0.4484  0.3753 -0.2085
 9464SOL    HW139854   1.252   0.623   7.177 -2.9220 -0.1422  0.2694
 9464SOL    HW239855   1.366   0.546   7.227  0.2759 -1.4350 -0.8258
 9465SOL     OW39856   1.460   0.306   8.248 -0.1918 -0.3465 -0.1388
 9465SOL    HW139857   1.444   0.277   8.158  1.1254  0.0210 -0.4970
 9465SOL    HW239858   1.521   0.378   8.233 -1.0163 -0.3425 -3.3384
 9466SOL     OW39859   3.108   1.583   3.002  0.2896 -0.6995 -0.1476
 9466SOL    HW139860   3.093   1.491   2.979 -0.0050 -1.1118  1.7135
 9466SOL    HW239861   3.146   1.613   2.919  0.1943 -0.9763 -0.2913
 9467SOL     OW39862   2.003   2.521   3.549 -0.5127  0.2832 -0.2475
 9467SOL    HW139863   2.059   2.445   3.566 -1.4327 -0.1261  0.9793
 9467SOL    HW239864   2.005   2.560   3.637 -1.2789 -1.4437  0.5322
 9468SOL     OW39865   1.521   1.933   1.957 -0.3685 -0.2200 -0.4172
 9468SOL    HW139866   1.509   1.958   1.866  1.0474 -3.5356 -1.5133
 9468SOL    HW239867   1.612   1.903   1.951 -0.0791  0.3930  0.8315
 9469SOL     OW39868   0.828   2.131  14.437 -0.3263 -0.1117  0.0528
 9469SOL    HW139869   0.746   2.123  14.388 -2.1421 -0.6360  3.2296
 9469SOL    HW239870   0.864   2.050  14.401  0.8238  0.1421  0.6202
 9470SOL     OW39871   2.694   2.505   6.142 -0.7945  0.4323  0.1284
 9470SOL    HW139872   2.731   2.418   6.160  0.4540  1.0533  0.6056
 9470SOL    HW239873   2.632   2.493   6.071 -1.3090  1.8619  0.3289
 9471SOL     OW39874   0.538   4.526   4.825  0.9374 -0.0943  0.0349
 9471SOL    HW139875   0.448   4.520   4.857  1.9721 -2.2239  2.4908
 9471SOL    HW239876   0.529   4.547   4.732  0.6367 -1.7882 -0.3012
 9472SOL     OW39877   2.649   1.259   9.164 -0.3635 -0.0197 -0.5465
 9472SOL    HW139878   2.623   1.171   9.136  0.3182 -0.2004 -0.6142
 9472SOL    HW239879   2.734   1.262   9.119 -0.2103 -2.5945 -0.4580
 9473SOL     OW39880   0.575   3.558  13.453  0.0601  0.3016  0.2881
 9473SOL    HW139881   0.530   3.627  13.404 -0.5257 -0.9329 -0.9058
 9473SOL    HW239882   0.564   3.593  13.541 -1.4359  2.4395 -0.7388
 9474SOL     OW39883   0.505   1.495  12.997 -0.3076 -0.2747 -0.1688
 9474SOL    HW139884   0.423   1.545  12.992  0.2672  0.9773  2.7487
 9474SOL    HW239885   0.557   1.525  12.922  1.3763  0.0061  1.1230
 9475SOL     OW39886   4.668   0.307   0.183  0.2067  0.0744 -0.1163
 9475SOL    HW139887   4.651   0.402   0.183  0.3266  0.0950 -0.8361
 9475SOL    HW239888   4.601   0.271   0.125 -0.0504  0.4248 -0.0368
 9476SOL     OW39889   3.720   1.420   8.396 -0.3751  0.5115  0.5585
 9476SOL    HW139890   3.667   1.412   8.475 -2.3646 -1.3509 -0.9462
 9476SOL    HW239891   3.750   1.329   8.383 -2.9858 -0.0459 -1.4537
 9477SOL     OW39892   2.584   0.643   5.892 -0.1375 -0.1329  0.5813
 9477SOL    HW139893   2.543   0.624   5.807  1.6952  1.5105 -0.6821
 9477SOL    HW239894   2.648   0.572   5.898 -2.8023 -2.9052 -3.0142
 9478SOL     OW39895   4.391   2.606   0.852 -0.5158  0.0353  0.5963
 9478SOL    HW139896   4.357   2.631   0.938 -0.1658  1.2640  0.3888
 9478SOL    HW239897   4.307   2.599   0.808 -0.0027 -1.6204 -0.1186
 9479SOL     OW39898   4.201   4.624  17.569  0.2551  0.4377  0.0811
 9479SOL    HW139899   4.231   4.708  17.605 -1.3184 -0.7341  4.1909
 9479SOL    HW239900   4.268   4.569  17.610 -1.1607 -0.3927  1.2444
 9480SOL     OW39901   4.129   4.232   1.594  0.0852 -0.0029 -0.5654
 9480SOL    HW139902   4.200   4.197   1.539  0.9732  1.3632 -0.2800
 9480SOL    HW239903   4.172   4.298   1.648 -0.6950 -0.2311  0.3318
 9481SOL     OW39904   1.712   1.498   8.995 -0.5673 -0.3010  0.7326
 9481SOL    HW139905   1.644   1.515   8.931  0.8597  0.4592 -0.5695
 9481SOL    HW239906   1.759   1.429   8.948  1.1391  1.4507 -0.1373
 9482SOL     OW39907   4.058   2.124   8.382  0.2736  0.1014 -0.1534
 9482SOL    HW139908   3.979   2.121   8.437 -0.3828  0.5010 -1.0879
 9482SOL    HW239909   4.038   2.038   8.344  0.2464 -0.0200  0.1303
 9483SOL     OW39910   0.791   2.766   3.613 -0.1954 -0.0616  0.3163
 9483SOL    HW139911   0.749   2.704   3.554  1.3687  0.4104 -1.3070
 9483SOL    HW239912   0.734   2.839   3.589  0.3130  0.2055 -0.0769
 9484SOL     OW39913   3.878   2.642   2.137 -0.4865 -0.7540  0.0966
 9484SOL    HW139914   3.813   2.600   2.194  0.1805  0.2669  1.5713
 9484SOL    HW239915   3.826   2.666   2.060 -1.1788 -1.1634  0.4331
 9485SOL     OW39916   0.201   3.688   5.311 -0.3580  0.3867  0.4122
 9485SOL    HW139917   0.154   3.763   5.348  0.7918  1.4258 -0.2596
 9485SOL    HW239918   0.133   3.629   5.276 -0.2444  0.8967 -0.6460
 9486SOL     OW39919   1.562   2.247   1.517  0.2199 -0.1745  0.1679
 9486SOL    HW139920   1.629   2.312   1.498  0.2685 -0.1398  0.4524
 9486SOL    HW239921   1.532   2.276   1.603 -2.8740 -0.8569 -0.6766
 9487SOL     OW39922   3.014   0.305   9.054  0.5614  0.2936 -0.2120
 9487SOL    HW139923   3.096   0.345   9.082  0.7288 -1.6271  1.9514
 9487SOL    HW239924   2.945   0.368   9.075  0.8349  1.0558 -1.5418
 9488SOL     OW39925   1.774   2.603   3.433  0.1033 -0.5471 -0.2880
 9488SOL    HW139926   1.844   2.575   3.493  0.4435  1.4785  0.2653
 9488SOL    HW239927   1.735   2.518   3.414 -0.1584 -0.4394 -0.2264
 9489SOL     OW39928   2.006   4.574  11.614  0.2324  0.0191 -0.4385
 9489SOL    HW139929   2.047   4.488  11.608 -1.1941 -0.8584  2.1325
 9489SOL    HW239930   1.942   4.558  11.684  2.0442 -0.0567  1.2149
 9490SOL     OW39931   1.177   2.164  13.055 -0.1604 -0.0332 -0.6323
 9490SOL    HW139932   1.252   2.207  13.097 -0.3538  1.4856 -1.8713
 9490SOL    HW239933   1.105   2.198  13.108 -0.7345 -0.2207 -1.2957
 9491SOL     OW39934   4.493   2.739   3.080 -0.7806  0.3243 -0.0942
 9491SOL    HW139935   4.494   2.652   3.118  0.7881 -0.5796 -2.2109
 9491SOL    HW239936   4.402   2.764   3.096 -0.0790  1.8511  1.5154
 9492SOL     OW39937   1.067   2.589   0.655 -0.1331 -0.0988 -0.3323
 9492SOL    HW139938   1.102   2.615   0.570  2.1712  0.9963  0.9574
 9492SOL    HW239939   0.973   2.581   0.638 -0.9156  0.6764  3.4719
 9493SOL     OW39940   1.760   1.594   4.209  0.1583  0.2928 -0.4773
 9493SOL    HW139941   1.754   1.507   4.171  1.0457 -0.2263  0.5882
 9493SOL    HW239942   1.706   1.652   4.155 -0.9760 -1.0246 -0.7688
 9494SOL     OW39943   1.765   2.519   8.053  0.0344 -0.6133 -0.7961
 9494SOL    HW139944   1.832   2.585   8.071  0.9035 -1.6469 -0.1931
 9494SOL    HW239945   1.708   2.525   8.130  0.0290 -0.2177 -0.8327
 9495SOL     OW39946   3.831   0.950   3.897  0.1018  0.2188 -0.4471
 9495SOL    HW139947   3.826   1.009   3.821 -0.0449  1.1338  0.2787
 9495SOL    HW239948   3.784   0.870   3.872 -0.8609  0.3164  1.0781
 9496SOL     OW39949   0.344   1.365  17.113  0.2664  0.9158  0.3061
 9496SOL    HW139950   0.433   1.401  17.107  0.1302  1.2205  0.1197
 9496SOL    HW239951   0.296   1.448  17.119 -4.2877 -1.6644 -0.5163
 9497SOL     OW39952   4.605   0.443  14.948 -0.1651  0.2039 -0.2618
 9497SOL    HW139953   4.562   0.374  14.998 -1.3912  0.7522 -0.5636
 9497SOL    HW239954   4.682   0.447  15.006 -1.0900  2.2615  0.8203
 9498SOL     OW39955   2.659   4.266   2.692  0.9141 -0.9485  0.0016
 9498SOL    HW139956   2.689   4.355   2.673  0.6243 -0.5167  1.5086
 9498SOL    HW239957   2.652   4.279   2.787  0.7629 -1.7458  0.1017
 9499SOL     OW39958   0.411   1.582   2.338  0.0948  0.2067 -0.2085
 9499SOL    HW139959   0.466   1.508   2.363  1.1579  1.7359  2.0211
 9499SOL    HW239960   0.326   1.538   2.334  0.5851 -0.7678  0.1319
 9500SOL     OW39961   4.162   2.507   8.691 -0.2658 -0.8682 -0.1553
 9500SOL    HW139962   4.092   2.443   8.703  1.1756 -2.0718  1.9680
 9500SOL    HW239963   4.225   2.450   8.647  1.1507  0.8167 -0.3104
 9501SOL     OW39964   2.510   0.260  17.533  0.0588  0.7188 -0.0704
 9501SOL    HW139965   2.527   0.304  17.450 -1.1417  0.1702 -0.5969
 9501SOL    HW239966   2.596   0.231  17.564 -0.3179 -1.0667 -0.6636
 9502SOL     OW39967   1.729   2.937   4.386 -0.1772  0.0439 -0.3574
 9502SOL    HW139968   1.719   2.991   4.308  0.5423 -0.5610 -0.8640
 9502SOL    HW239969   1.672   2.989   4.444 -1.6574 -1.5765 -0.3734
 9503SOL     OW39970   1.297   3.783  17.667  0.4269 -0.3264  0.6490
 9503SOL    HW139971   1.388   3.813  17.676  0.4409  0.5356 -2.2710
 9503SOL    HW239972   1.267   3.768   0.061  0.8452  0.2122  0.8838
 9504SOL     OW39973   2.928   3.009   1.625  0.2100 -0.0372  0.0852
 9504SOL    HW139974   3.014   3.050   1.633 -0.0110  0.2554  0.9573
 9504SOL    HW239975   2.953   2.922   1.595  0.1624 -0.2433  0.6451
 9505SOL     OW39976   0.855   1.830  14.429 -0.0185  0.4867 -0.4214
 9505SOL    HW139977   0.797   1.818  14.504 -1.4029  2.1940 -1.2179
 9505SOL    HW239978   0.924   1.766  14.447  0.0486  0.3973 -0.9947
 9506SOL     OW39979   4.339   3.750   7.099  0.4436  0.2857 -0.6361
 9506SOL    HW139980   4.370   3.808   7.168  1.1147 -1.7947  0.8086
 9506SOL    HW239981   4.342   3.810   7.024 -1.4948  1.6186  0.3401
 9507SOL     OW39982   4.714   2.291   4.699  0.0369 -0.1925  0.3811
 9507SOL    HW139983   4.626   2.306   4.733  1.2151  0.0568  3.3349
 9507SOL    HW239984   0.030   2.269   4.783  1.9688 -1.7289 -0.9243
 9508SOL     OW39985   1.363   3.469   0.964 -0.0707  0.7245  0.4648
 9508SOL    HW139986   1.374   3.509   0.878 -0.7855  1.2321  0.6065
 9508SOL    HW239987   1.377   3.542   1.025 -1.2413 -0.9946  2.8071
 9509SOL     OW39988   2.403   4.010   2.014 -0.7019  0.4399 -0.7356
 9509SOL    HW139989   2.443   4.070   1.950  0.8840  2.1829  1.8986
 9509SOL    HW239990   2.334   4.062   2.055  0.1665  0.8693  0.1961
 9510SOL     OW39991   2.812   1.217   3.740  0.5022 -0.3357  0.3746
 9510SOL    HW139992   2.887   1.258   3.698 -1.3709 -0.4192 -2.9923
 9510SOL    HW239993   2.826   1.122   3.737 -2.5553 -0.7459 -1.0703
 9511SOL     OW39994   2.112   1.935   8.900 -0.6477 -0.1186 -0.7689
 9511SOL    HW139995   2.053   2.010   8.893 -0.3569  0.2928  1.2502
 9511SOL    HW239996   2.073   1.860   8.855 -0.8222  0.3042 -1.3164
 9512SOL     OW39997   4.334   2.716   6.634  0.1758 -0.1513  0.1017
 9512SOL    HW139998   4.273   2.645   6.655  0.7782 -1.1500 -1.5092
 9512SOL    HW239999   4.335   2.762   6.718 -3.0118 -0.6945  0.4357
 9513SOL     OW40000   2.380   3.492   8.766 -0.5844  0.2187  0.4533
 9513SOL    HW140001   2.455   3.463   8.715  0.3052  0.2897  1.7043
 9513SOL    HW240002   2.363   3.420   8.827 -1.4761  0.6642  0.7230
 9514SOL     OW40003   0.062   1.054   3.966  0.5633  0.4011  0.3585
 9514SOL    HW140004   4.704   1.055   4.016 -0.2788  0.8919 -1.0217
 9514SOL    HW240005   0.028   1.051   3.876  0.4520  2.4950  0.3243
 9515SOL     OW40006   2.933   0.526   2.579  0.1246 -0.8626  0.2204
 9515SOL    HW140007   2.899   0.564   2.661  1.2984 -0.7813  0.6656
 9515SOL    HW240008   2.984   0.601   2.547  1.4993 -2.1166 -0.4950
 9516SOL     OW40009   3.015   0.963   9.095 -0.1051  0.2023  0.3723
 9516SOL    HW140010   3.013   1.050   9.134  1.2381 -0.0387  0.9936
 9516SOL    HW240011   3.105   0.950   9.065 -0.9167 -3.4460 -0.5460
 9517SOL     OW40012   0.508   2.531  12.107  0.2103 -0.0614  0.2423
 9517SOL    HW140013   0.538   2.485  12.185 -2.6245 -1.3124  0.5882
 9517SOL    HW240014   0.419   2.497  12.099 -0.5842  1.9614  0.5714
 9518SOL     OW40015   4.059   2.630   9.840  0.5097 -0.2786  0.0930
 9518SOL    HW140016   3.992   2.673   9.787 -0.6047 -0.8774  1.0138
 9518SOL    HW240017   4.050   2.539   9.810  1.7776  0.1813 -1.7354
 9519SOL     OW40018   2.988   4.075   3.951  0.0870 -0.0443  0.4420
 9519SOL    HW140019   2.974   3.988   3.915 -0.0062  0.1043  0.1216
 9519SOL    HW240020   3.054   4.057   4.017  0.6435 -1.4924 -0.5226
 9520SOL     OW40021   3.246   4.425   6.816 -0.1742  0.0634  0.5703
 9520SOL    HW140022   3.338   4.427   6.791 -0.1916  0.3474  0.5296
 9520SOL    HW240023   3.251   4.507   6.866 -1.2264 -0.2436  1.1790
 9521SOL     OW40024   0.552   2.514   0.247  0.3114  0.4860  0.2521
 9521SOL    HW140025   0.490   2.552   0.308 -0.4701  1.6240 -1.2401
 9521SOL    HW240026   0.615   2.477   0.309  0.7861  0.6618 -0.1282
 9522SOL     OW40027   0.131   0.567   8.682 -0.0377  0.3732  0.0597
 9522SOL    HW140028   0.202   0.620   8.719 -0.3848  0.9444 -0.0832
 9522SOL    HW240029   0.059   0.627   8.702 -0.0598  0.7165 -1.0703
 9523SOL     OW40030   3.805   4.507   5.339 -0.0566 -0.2145  0.2067
 9523SOL    HW140031   3.732   4.447   5.359 -0.7169  0.5355  0.0535
 9523SOL    HW240032   3.789   4.580   5.399  2.3016  0.1487  0.3824
 9524SOL     OW40033   4.276   0.204   8.222 -0.4291 -0.0703  0.0646
 9524SOL    HW140034   4.312   0.145   8.288  3.3383 -0.1341 -2.0050
 9524SOL    HW240035   4.314   0.286   8.252  2.4508 -0.8616 -1.4322
 9525SOL     OW40036   2.703   2.612   2.354  0.3570 -0.8799  0.3549
 9525SOL    HW140037   2.759   2.580   2.425 -0.2822 -1.5463  0.5618
 9525SOL    HW240038   2.696   2.704   2.379  1.2225 -0.3233 -1.3919
 9526SOL     OW40039   1.312   0.094  12.285 -0.5813  0.1396 -0.3318
 9526SOL    HW140040   1.366   0.107  12.206  1.4330 -1.3495  0.7959
 9526SOL    HW240041   1.234   0.044  12.260 -0.6187  0.1209 -0.1755
 9527SOL     OW40042   4.416   0.256   7.617  0.4212  0.2368 -0.7576
 9527SOL    HW140043   4.360   0.326   7.650 -0.2685 -0.6184 -0.1254
 9527SOL    HW240044   4.446   0.216   7.699  0.1094  1.6398  0.0393
 9528SOL     OW40045   1.218   4.575  13.388  0.6246 -0.1482 -1.1739
 9528SOL    HW140046   1.276   4.500  13.402 -0.5477 -1.1188 -1.5383
 9528SOL    HW240047   1.134   4.531  13.390 -0.8729  2.8352  0.9442
 9529SOL     OW40048   3.238   1.632   7.057  0.0096  0.4028  0.3299
 9529SOL    HW140049   3.243   1.721   7.092  1.9450  1.5274 -2.8005
 9529SOL    HW240050   3.186   1.635   6.977  1.0039 -3.0175 -0.4559
 9530SOL     OW40051   3.693   1.782   4.884  0.4066  0.1022 -0.0439
 9530SOL    HW140052   3.735   1.839   4.819  1.6403 -1.4412 -0.6165
 9530SOL    HW240053   3.769   1.740   4.925  0.0543  0.3133  0.8250
 9531SOL     OW40054   1.739   1.926   6.963 -0.7002  0.0241 -0.6776
 9531SOL    HW140055   1.763   1.928   7.055 -2.0429 -1.4073 -0.2882
 9531SOL    HW240056   1.703   2.015   6.961 -1.6646 -0.3704 -1.2162
 9532SOL     OW40057   0.891   2.427  17.145  0.0927  0.3953 -1.3874
 9532SOL    HW140058   0.807   2.407  17.104 -1.2513  1.0526  1.0181
 9532SOL    HW240059   0.935   2.471  17.072  1.5971 -1.0293 -1.3290
 9533SOL     OW40060   1.791   3.445  11.168 -0.0789  0.1933  0.2524
 9533SOL    HW140061   1.727   3.510  11.197 -1.3694 -0.2612 -1.5450
 9533SOL    HW240062   1.769   3.380  11.235  0.7842 -0.0231  0.3248
 9534SOL     OW40063   4.599   1.034   2.857 -0.0108 -0.1927  0.5444
 9534SOL    HW140064   4.552   0.965   2.905  1.3207 -1.0491  0.6308
 9534SOL    HW240065   4.529   1.071   2.804  0.3253 -1.1283 -0.5533
 9535SOL     OW40066   4.248   0.069   7.746 -0.2226  0.1858  1.1989
 9535SOL    HW140067   4.246   0.164   7.735 -0.4166  0.0169 -0.1933
 9535SOL    HW240068   4.189   0.056   7.819 -1.7331 -0.7548 -0.1981
 9536SOL     OW40069   2.105   3.834   0.846  0.5567 -0.2064 -0.2425
 9536SOL    HW140070   2.058   3.776   0.906  0.1230 -0.6766 -1.0433
 9536SOL    HW240071   2.163   3.880   0.907  1.4856  0.9350 -2.0057
 9537SOL     OW40072   1.985   1.672   1.411  0.0786 -0.0138  0.0084
 9537SOL    HW140073   1.977   1.620   1.490 -0.0894 -0.5488 -0.3605
 9537SOL    HW240074   1.893   1.673   1.385  0.8940  1.6626 -2.8221
 9538SOL     OW40075   1.314   0.931   1.786  0.2026  0.1564 -0.5284
 9538SOL    HW140076   1.222   0.908   1.796  1.0086 -2.3516  0.9050
 9538SOL    HW240077   1.363   0.849   1.778  1.1628  0.4701  1.9993
 9539SOL     OW40078   2.476   2.549   8.139  0.7923  0.5747  0.2761
 9539SOL    HW140079   2.514   2.585   8.219 -1.1225  3.1492  0.0242
 9539SOL    HW240080   2.390   2.589   8.153  0.4200  0.2859 -1.1259
 9540SOL     OW40081   0.303   0.424  10.346  0.0189  0.1820  0.5997
 9540SOL    HW140082   0.276   0.497  10.402 -0.1247  0.4621  0.1667
 9540SOL    HW240083   0.261   0.350  10.389  2.9492 -1.6339  0.3243
 9541SOL     OW40084   2.907   3.016   7.576  0.1485 -0.6996 -0.3501
 9541SOL    HW140085   2.946   2.971   7.501  0.0252 -1.2438 -0.0838
 9541SOL    HW240086   2.986   3.033   7.628  0.0185 -0.6070 -0.1818
 9542SOL     OW40087   0.052   0.804   1.376  0.0033  0.2541 -1.0514
 9542SOL    HW140088   0.075   0.888   1.337 -0.7035  1.1166  0.3958
 9542SOL    HW240089   4.720   0.765   1.308  0.3714  0.7467 -1.6348
 9543SOL     OW40090   0.107   3.917   4.002 -0.1940 -0.1343 -0.1734
 9543SOL    HW140091   0.031   3.860   4.010  0.8534 -1.8244 -2.1536
 9543SOL    HW240092   0.069   4.001   3.974  1.7715  0.3586 -1.3664
 9544SOL     OW40093   1.893   0.355   0.132  0.6691 -0.3705 -0.1672
 9544SOL    HW140094   1.925   0.267   0.150  0.1636 -0.9140 -1.8468
 9544SOL    HW240095   1.843   0.337   0.052  1.2301  0.2547 -0.6650
 9545SOL     OW40096   3.351   3.851   1.126  0.1102 -0.1955  0.4227
 9545SOL    HW140097   3.392   3.864   1.211  0.2317  0.0467  0.3275
 9545SOL    HW240098   3.332   3.758   1.128  1.3429 -0.4759 -0.5520
 9546SOL     OW40099   3.933   2.623   4.542  0.5393 -0.0293 -0.3231
 9546SOL    HW140100   3.866   2.680   4.581  0.9983  0.4105 -0.1819
 9546SOL    HW240101   3.985   2.686   4.491 -1.2221  0.5592 -1.3954
 9547SOL     OW40102   2.913   4.244   6.919 -0.1882 -0.4385  0.2075
 9547SOL    HW140103   2.915   4.163   6.971  1.5852 -0.9017 -0.5677
 9547SOL    HW240104   2.875   4.297   6.989 -0.9711  0.9678 -1.2929
 9548SOL     OW40105   0.511   0.579   2.342 -0.1927  0.4289  0.2440
 9548SOL    HW140106   0.483   0.581   2.250 -0.1773 -0.7149  0.2223
 9548SOL    HW240107   0.546   0.491   2.351 -0.5219 -0.0068 -2.7150
 9549SOL     OW40108   3.139   2.119  17.227  0.1555 -0.6030 -0.5735
 9549SOL    HW140109   3.075   2.179  17.264 -1.2180 -1.7452 -1.1011
 9549SOL    HW240110   3.087   2.053  17.182 -2.0427  0.3264  0.6313
 9550SOL     OW40111   0.944   1.647   4.202  0.4675 -0.4519  0.2629
 9550SOL    HW140112   1.019   1.651   4.141  1.0580  0.2474  1.0447
 9550SOL    HW240113   0.874   1.666   4.140 -1.7009 -0.6864  2.6782
 9551SOL     OW40114   0.348   1.502   7.335  0.1301 -0.4376  0.2540
 9551SOL    HW140115   0.354   1.494   7.240  1.0174 -1.5402  0.4012
 9551SOL    HW240116   0.318   1.592   7.348 -0.5027 -0.3649 -1.6699
 9552SOL     OW40117   0.575   1.202   7.170  0.1753  0.1914 -0.0966
 9552SOL    HW140118   0.623   1.182   7.250  1.1792 -1.3083 -1.0706
 9552SOL    HW240119   0.498   1.147   7.185  0.1097  0.4824  0.6256
 9553SOL     OW40120   1.046   3.916  17.589  0.2238  0.4369 -0.5471
 9553SOL    HW140121   1.113   3.847  17.590 -1.2560 -0.9980  1.3121
 9553SOL    HW240122   1.105   3.990  17.603 -0.3463  0.5805  1.1574
 9554SOL     OW40123   3.701   1.377   5.038  1.0830  0.2591 -0.3587
 9554SOL    HW140124   3.614   1.375   4.999  0.2462  1.4116  1.4503
 9554SOL    HW240125   3.694   1.436   5.113 -1.2269 -1.0738  0.4863
 9555SOL     OW40126   3.931   3.261   4.543 -0.5187  0.5061  0.4720
 9555SOL    HW140127   4.023   3.254   4.519 -0.3469 -1.8133  1.7791
 9555SOL    HW240128   3.895   3.223   4.463  1.2429 -0.3915  0.1291
 9556SOL     OW40129   1.299   0.474   5.021 -0.3081  0.5162  0.0499
 9556SOL    HW140130   1.320   0.547   4.963 -0.3169 -0.6103 -1.4010
 9556SOL    HW240131   1.387   0.444   5.045 -0.3416  0.0367 -0.4160
 9557SOL     OW40132   2.954   4.533  11.677 -0.5924  0.2610 -0.0794
 9557SOL    HW140133   2.904   4.608  11.711  2.3748  3.0066 -1.7294
 9557SOL    HW240134   3.018   4.530  11.748 -1.2125  3.0438  0.5993
 9558SOL     OW40135   2.002   1.949   6.867 -0.0060 -0.2778 -0.1973
 9558SOL    HW140136   1.910   1.941   6.892  0.3916 -0.0577  1.3673
 9558SOL    HW240137   2.027   1.871   6.818  2.4130  1.2759 -1.4730
 9559SOL     OW40138   3.597   4.562  10.113 -0.0332 -0.0103 -0.3469
 9559SOL    HW140139   3.604   4.468  10.097  2.2970  0.3782 -1.6523
 9559SOL    HW240140   3.639   4.592  10.033  0.4796  0.2116  0.0050
 9560SOL     OW40141   3.286   2.618   7.771 -0.2924  0.0955  0.4432
 9560SOL    HW140142   3.294   2.714   7.770 -0.1331  0.0767 -0.4421
 9560SOL    HW240143   3.372   2.603   7.731 -0.0472  0.0679  0.9788
 9561SOL     OW40144   3.914   1.748  13.116 -0.1505  0.2000  0.4905
 9561SOL    HW140145   3.839   1.692  13.095  0.1516  0.7162 -1.9630
 9561SOL    HW240146   3.896   1.799  13.196  2.1058  0.5175  0.7773
 9562SOL     OW40147   3.390   1.865   9.274 -0.4558 -0.0950  0.2984
 9562SOL    HW140148   3.363   1.814   9.197  0.9651 -0.9228  0.3452
 9562SOL    HW240149   3.325   1.842   9.340 -0.4780 -0.2203  0.2335
 9563SOL     OW40150   0.090   0.597   3.080 -0.0797  0.3606 -0.3105
 9563SOL    HW140151   0.014   0.556   3.038  0.9255 -0.6181 -1.1595
 9563SOL    HW240152   0.069   0.577   3.171 -0.0751  0.7443 -0.2248
 9564SOL     OW40153   1.231   3.813   6.941 -0.5221  0.1213  0.4420
 9564SOL    HW140154   1.277   3.795   6.859  1.2660 -0.9346  1.6665
 9564SOL    HW240155   1.295   3.850   7.002 -0.3743  0.1317  0.2801
 9565SOL     OW40156   0.378   3.022   4.205  0.5811  0.6669 -0.8039
 9565SOL    HW140157   0.420   3.043   4.122  0.7225  1.2278 -0.5889
 9565SOL    HW240158   0.327   3.099   4.226 -0.0040 -0.1532  0.7447
 9566SOL     OW40159   4.639   4.325   6.373  0.2843  0.5843 -0.4555
 9566SOL    HW140160   4.633   4.417   6.397  2.0104  0.8287 -0.9935
 9566SOL    HW240161   4.548   4.303   6.355  0.1595  0.1461  0.7096
 9567SOL     OW40162   2.234   3.310   6.529  0.4758 -0.1729 -0.0548
 9567SOL    HW140163   2.168   3.251   6.491  0.3545  0.6401 -1.0852
 9567SOL    HW240164   2.184   3.333   6.608 -0.9441 -0.2099 -0.9365
 9568SOL     OW40165   1.795   4.206   7.059 -0.3381 -0.2429 -0.0783
 9568SOL    HW140166   1.736   4.281   7.051 -0.0469  0.3476  3.4476
 9568SOL    HW240167   1.746   4.143   7.111 -1.7893  1.5041  0.6470
   4.72326   4.72326  17.69490
